 Entering Gaussian System, Link 0=g16
 Initial command:
 /public/software/apps/Gaussian/g16/l1.exe "/tmp/Gau-76185.inp" -scrdir="/tmp/"
 Entering Link 1 = /public/software/apps/Gaussian/g16/l1.exe PID=     76186.
  
 Copyright (c) 1988-2019, Gaussian, Inc.  All Rights Reserved.
  
 This is part of the Gaussian(R) 16 program.  It is based on
 the Gaussian(R) 09 system (copyright 2009, Gaussian, Inc.),
 the Gaussian(R) 03 system (copyright 2003, Gaussian, Inc.),
 the Gaussian(R) 98 system (copyright 1998, Gaussian, Inc.),
 the Gaussian(R) 94 system (copyright 1995, Gaussian, Inc.),
 the Gaussian 92(TM) system (copyright 1992, Gaussian, Inc.),
 the Gaussian 90(TM) system (copyright 1990, Gaussian, Inc.),
 the Gaussian 88(TM) system (copyright 1988, Gaussian, Inc.),
 the Gaussian 86(TM) system (copyright 1986, Carnegie Mellon
 University), and the Gaussian 82(TM) system (copyright 1983,
 Carnegie Mellon University). Gaussian is a federally registered
 trademark of Gaussian, Inc.
  
 This software contains proprietary and confidential information,
 including trade secrets, belonging to Gaussian, Inc.
  
 This software is provided under written license and may be
 used, copied, transmitted, or stored only in accord with that
 written license.
  
 The following legend is applicable only to US Government
 contracts under FAR:
  
                    RESTRICTED RIGHTS LEGEND
  
 Use, reproduction and disclosure by the US Government is
 subject to restrictions as set forth in subparagraphs (a)
 and (c) of the Commercial Computer Software - Restricted
 Rights clause in FAR 52.227-19.
  
 Gaussian, Inc.
 340 Quinnipiac St., Bldg. 40, Wallingford CT 06492
  
  
 ---------------------------------------------------------------
 Warning -- This program may not be used in any manner that
 competes with the business of Gaussian, Inc. or will provide
 assistance to any competitor of Gaussian, Inc.  The licensee
 of this program is prohibited from giving any competitor of
 Gaussian, Inc. access to this program.  By using this program,
 the user acknowledges that Gaussian, Inc. is engaged in the
 business of creating and licensing software in the field of
 computational chemistry and represents and warrants to the
 licensee that it is not a competitor of Gaussian, Inc. and that
 it will not use this program in any manner prohibited above.
 ---------------------------------------------------------------
  

 Cite this work as:
 Gaussian 16, Revision C.01,
 M. J. Frisch, G. W. Trucks, H. B. Schlegel, G. E. Scuseria, 
 M. A. Robb, J. R. Cheeseman, G. Scalmani, V. Barone, 
 G. A. Petersson, H. Nakatsuji, X. Li, M. Caricato, A. V. Marenich, 
 J. Bloino, B. G. Janesko, R. Gomperts, B. Mennucci, H. P. Hratchian, 
 J. V. Ortiz, A. F. Izmaylov, J. L. Sonnenberg, D. Williams-Young, 
 F. Ding, F. Lipparini, F. Egidi, J. Goings, B. Peng, A. Petrone, 
 T. Henderson, D. Ranasinghe, V. G. Zakrzewski, J. Gao, N. Rega, 
 G. Zheng, W. Liang, M. Hada, M. Ehara, K. Toyota, R. Fukuda, 
 J. Hasegawa, M. Ishida, T. Nakajima, Y. Honda, O. Kitao, H. Nakai, 
 T. Vreven, K. Throssell, J. A. Montgomery, Jr., J. E. Peralta, 
 F. Ogliaro, M. J. Bearpark, J. J. Heyd, E. N. Brothers, K. N. Kudin, 
 V. N. Staroverov, T. A. Keith, R. Kobayashi, J. Normand, 
 K. Raghavachari, A. P. Rendell, J. C. Burant, S. S. Iyengar, 
 J. Tomasi, M. Cossi, J. M. Millam, M. Klene, C. Adamo, R. Cammi, 
 J. W. Ochterski, R. L. Martin, K. Morokuma, O. Farkas, 
 J. B. Foresman, and D. J. Fox, Gaussian, Inc., Wallingford CT, 2019.
 
 ******************************************
 Gaussian 16:  ES64L-G16RevC.01  3-Jul-2019
                 7-Feb-2025 
 ******************************************
 %nprocshared=32
 Will use up to   32 processors via shared memory.
 %mem=100GB
 ------------------------------------------
 #p opt freq b3lyp/def2svpp em=gd3bj nosymm
 ------------------------------------------
 1/18=20,19=15,26=3,38=1/1,3;
 2/9=110,12=2,15=1,17=6,18=5,40=1/2;
 3/5=43,7=202,11=2,25=1,30=1,71=1,74=-5,124=41/1,2,3;
 4//1;
 5/5=2,38=5/2;
 6/7=2,8=2,9=2,10=2,28=1/1;
 7/30=1/1,2,3,16;
 1/18=20,19=15,26=3/3(2);
 2/9=110,15=1/2;
 99//99;
 2/9=110,15=1/2;
 3/5=43,7=202,11=2,25=1,30=1,71=1,74=-5,124=41/1,2,3;
 4/5=5,16=3,69=1/1;
 5/5=2,38=5/2;
 7/30=1/1,2,3,16;
 1/18=20,19=15,26=3/3(-5);
 2/9=110,15=1/2;
 6/7=2,8=2,9=2,10=2,19=2,28=1/1;
 99/9=1/99;
 Leave Link    1 at Fri Feb  7 22:52:09 2025, MaxMem= 13421772800 cpu:               1.3 elap:               0.0
 (Enter /public/software/apps/Gaussian/g16/l101.exe)
 ------------------
 $$$$Title####0????
 ------------------
 Symbolic Z-matrix:
 Charge =  0 Multiplicity = 2
 O                    -1.33115   0.70818   1.15607 
 C                    -1.51672  -0.19062   2.20432 
 C                    -2.61017  -1.07663   2.18651 
 C                    -3.62588  -1.01578   1.10812 
 C                    -4.01168  -2.18224   0.42694 
 C                    -4.98198  -2.12661  -0.57785 
 C                    -5.58937  -0.9054   -0.91514 
 N                    -6.59819  -0.84889  -1.94777 
 C                    -7.62695  -1.8617   -2.00975 
 C                    -8.23839  -2.3301   -0.83244 
 C                    -9.23947  -3.30402  -0.89449 
 C                    -9.6392   -3.82     -2.12995 
 C                    -9.03802  -3.36296  -3.30518 
 C                    -8.03448  -2.39102  -3.24783 
 C                    -6.58534   0.22978  -2.90859 
 C                    -7.78235   0.86786  -3.28231 
 C                    -7.76501   1.91284  -4.21118 
 C                    -6.55552   2.33409  -4.76953 
 C                    -5.36134   1.70912  -4.40283 
 C                    -5.37372   0.66177  -3.47744 
 C                    -5.20535   0.25949  -0.23072 
 C                    -4.23509   0.20472   0.77293 
 C                    -2.74277  -2.02733   3.20816 
 C                    -1.80531  -2.09935   4.24579 
 C                    -1.94576  -3.06806   5.25255 
 C                    -1.00943  -3.15234   6.28413 
 C                     0.07395  -2.27476   6.31994 
 C                     0.22571  -1.30311   5.32857 
 C                    -0.71427  -1.19399   4.28105 
 C                    -0.58784  -0.21878   3.26051 
 C                     0.52327   0.77047   3.25797 
 C                     1.54855   0.62833   2.30545 
 O                     1.46225  -0.3877    1.35614 
 C                     2.64099   1.51479   2.28929 
 C                     3.75332   1.33789   1.32575 
 C                     4.39822   0.09613   1.20429 
 C                     5.45575  -0.06713   0.30655 
 C                     5.88737   1.00743  -0.48914 
 N                     6.97897   0.83658  -1.41997 
 C                     7.07269  -0.37061  -2.20885 
 C                     5.92423  -0.928    -2.80079 
 C                     6.01743  -2.09927  -3.55912 
 C                     7.25438  -2.72511  -3.73254 
 C                     8.40099  -2.18069  -3.14881 
 C                     8.31336  -1.00852  -2.39169 
 C                     7.98375   1.86622  -1.55459 
 C                     8.46097   2.23407  -2.82569 
 C                     9.43848   3.2253   -2.95414 
 C                     9.94586   3.8601   -1.81798 
 C                     9.47719   3.5049   -0.55079 
 C                     8.50157   2.51234  -0.4172 
 C                     5.24354   2.2502   -0.36524 
 C                     4.1904    2.41558   0.53863 
 C                     2.67947   2.57728   3.2027 
 C                     1.6484    2.75992   4.13265 
 C                     1.69586   3.83917   5.02964 
 C                     0.66796   4.03235   5.95351 
 C                    -0.41777   3.15804   5.98617 
 C                    -0.47946   2.07837   5.10248 
 C                     0.55559   1.85647   4.16816 
 H                    -3.55412  -3.13439   0.66728 
 H                    -5.25414  -3.03507  -1.10026 
 H                    -7.94801  -1.93238   0.13158 
 H                    -9.70661  -3.65766   0.01594 
 H                    -10.41652  -4.57151  -2.1774 
 H                    -9.34713  -3.7645   -4.26162 
 H                    -7.56905  -2.05739  -4.16655 
 H                    -8.7256    0.56149  -2.84752 
 H                    -8.68916   2.39953  -4.49477 
 H                    -6.54314   3.14514  -5.48609 
 H                    -4.42539   2.03717  -4.83571 
 H                    -4.44146   0.18002  -3.21106 
 H                    -5.66976   1.20916  -0.46427 
 H                    -3.97514   1.11256   1.30332 
 H                    -3.58623  -2.70876   3.19771 
 H                    -2.77694  -3.76324   5.23875 
 H                    -1.12127  -3.90306   7.0557 
 H                     0.80203  -2.3491    7.11757 
 H                     1.08453  -0.64748   5.38611 
 H                     4.09383  -0.74392   1.81627 
 H                     5.94672  -1.02998   0.23917 
 H                     4.95999  -0.45055  -2.68203 
 H                     5.1304   -2.5205   -4.01438 
 H                     7.32436  -3.6321   -4.31929 
 H                     9.35835  -2.66753  -3.28274 
 H                     9.20946  -0.60343  -1.93835 
 H                     8.06931   1.75858  -3.71624 
 H                     9.80134   3.5029   -3.93553 
 H                     10.70278   4.62711  -1.91953 
 H                     9.87488   3.99515   0.32863 
 H                     8.15566   2.24072   0.57157 
 H                     5.55145   3.0887   -0.97719 
 H                     3.70532   3.38102   0.61219 
 H                     3.52205   3.26026   3.19275 
 H                     2.52627   4.53506   5.01356 
 H                     0.70977   4.86575   6.64252 
 H                    -1.21772   3.32017   6.69697 
 H                    -1.34303   1.42807   5.15408 
 Cu                    0.01421  -0.19169   0.04546 
 
 ITRead=  0  0  0  0  0  0  0  0  0  0  0  0  0  0  0  0  0  0  0  0
 ITRead=  0  0  0  0  0  0  0  0  0  0  0  0  0  0  0  0  0  0  0  0
 ITRead=  0  0  0  0  0  0  0  0  0  0  0  0  0  0  0  0  0  0  0  0
 ITRead=  0  0  0  0  0  0  0  0  0  0  0  0  0  0  0  0  0  0  0  0
 ITRead=  0  0  0  0  0  0  0  0  0  0  0  0  0  0  0  0  0  0  0
 MicOpt= -1 -1 -1 -1 -1 -1 -1 -1 -1 -1 -1 -1 -1 -1 -1 -1 -1 -1 -1 -1
 MicOpt= -1 -1 -1 -1 -1 -1 -1 -1 -1 -1 -1 -1 -1 -1 -1 -1 -1 -1 -1 -1
 MicOpt= -1 -1 -1 -1 -1 -1 -1 -1 -1 -1 -1 -1 -1 -1 -1 -1 -1 -1 -1 -1
 MicOpt= -1 -1 -1 -1 -1 -1 -1 -1 -1 -1 -1 -1 -1 -1 -1 -1 -1 -1 -1 -1
 MicOpt= -1 -1 -1 -1 -1 -1 -1 -1 -1 -1 -1 -1 -1 -1 -1 -1 -1 -1 -1
 NAtoms=     99 NQM=       99 NQMF=       0 NMMI=      0 NMMIF=      0
                NMic=       0 NMicF=      0.
                    Isotopes and Nuclear Properties:
 (Nuclear quadrupole moments (NQMom) in fm**2, nuclear magnetic moments (NMagM)
  in nuclear magnetons)

  Atom         1           2           3           4           5           6           7           8           9          10
 IAtWgt=          16          12          12          12          12          12          12          14          12          12
 AtmWgt=  15.9949146  12.0000000  12.0000000  12.0000000  12.0000000  12.0000000  12.0000000  14.0030740  12.0000000  12.0000000
 NucSpn=           0           0           0           0           0           0           0           2           0           0
 AtZEff=  -0.0000000  -0.0000000  -0.0000000  -0.0000000  -0.0000000  -0.0000000  -0.0000000  -0.0000000  -0.0000000  -0.0000000
 NQMom=    0.0000000   0.0000000   0.0000000   0.0000000   0.0000000   0.0000000   0.0000000   2.0440000   0.0000000   0.0000000
 NMagM=    0.0000000   0.0000000   0.0000000   0.0000000   0.0000000   0.0000000   0.0000000   0.4037610   0.0000000   0.0000000
 AtZNuc=   8.0000000   6.0000000   6.0000000   6.0000000   6.0000000   6.0000000   6.0000000   7.0000000   6.0000000   6.0000000

  Atom        11          12          13          14          15          16          17          18          19          20
 IAtWgt=          12          12          12          12          12          12          12          12          12          12
 AtmWgt=  12.0000000  12.0000000  12.0000000  12.0000000  12.0000000  12.0000000  12.0000000  12.0000000  12.0000000  12.0000000
 NucSpn=           0           0           0           0           0           0           0           0           0           0
 AtZEff=  -0.0000000  -0.0000000  -0.0000000  -0.0000000  -0.0000000  -0.0000000  -0.0000000  -0.0000000  -0.0000000  -0.0000000
 NQMom=    0.0000000   0.0000000   0.0000000   0.0000000   0.0000000   0.0000000   0.0000000   0.0000000   0.0000000   0.0000000
 NMagM=    0.0000000   0.0000000   0.0000000   0.0000000   0.0000000   0.0000000   0.0000000   0.0000000   0.0000000   0.0000000
 AtZNuc=   6.0000000   6.0000000   6.0000000   6.0000000   6.0000000   6.0000000   6.0000000   6.0000000   6.0000000   6.0000000

  Atom        21          22          23          24          25          26          27          28          29          30
 IAtWgt=          12          12          12          12          12          12          12          12          12          12
 AtmWgt=  12.0000000  12.0000000  12.0000000  12.0000000  12.0000000  12.0000000  12.0000000  12.0000000  12.0000000  12.0000000
 NucSpn=           0           0           0           0           0           0           0           0           0           0
 AtZEff=  -0.0000000  -0.0000000  -0.0000000  -0.0000000  -0.0000000  -0.0000000  -0.0000000  -0.0000000  -0.0000000  -0.0000000
 NQMom=    0.0000000   0.0000000   0.0000000   0.0000000   0.0000000   0.0000000   0.0000000   0.0000000   0.0000000   0.0000000
 NMagM=    0.0000000   0.0000000   0.0000000   0.0000000   0.0000000   0.0000000   0.0000000   0.0000000   0.0000000   0.0000000
 AtZNuc=   6.0000000   6.0000000   6.0000000   6.0000000   6.0000000   6.0000000   6.0000000   6.0000000   6.0000000   6.0000000

  Atom        31          32          33          34          35          36          37          38          39          40
 IAtWgt=          12          12          16          12          12          12          12          12          14          12
 AtmWgt=  12.0000000  12.0000000  15.9949146  12.0000000  12.0000000  12.0000000  12.0000000  12.0000000  14.0030740  12.0000000
 NucSpn=           0           0           0           0           0           0           0           0           2           0
 AtZEff=  -0.0000000  -0.0000000  -0.0000000  -0.0000000  -0.0000000  -0.0000000  -0.0000000  -0.0000000  -0.0000000  -0.0000000
 NQMom=    0.0000000   0.0000000   0.0000000   0.0000000   0.0000000   0.0000000   0.0000000   0.0000000   2.0440000   0.0000000
 NMagM=    0.0000000   0.0000000   0.0000000   0.0000000   0.0000000   0.0000000   0.0000000   0.0000000   0.4037610   0.0000000
 AtZNuc=   6.0000000   6.0000000   8.0000000   6.0000000   6.0000000   6.0000000   6.0000000   6.0000000   7.0000000   6.0000000

  Atom        41          42          43          44          45          46          47          48          49          50
 IAtWgt=          12          12          12          12          12          12          12          12          12          12
 AtmWgt=  12.0000000  12.0000000  12.0000000  12.0000000  12.0000000  12.0000000  12.0000000  12.0000000  12.0000000  12.0000000
 NucSpn=           0           0           0           0           0           0           0           0           0           0
 AtZEff=  -0.0000000  -0.0000000  -0.0000000  -0.0000000  -0.0000000  -0.0000000  -0.0000000  -0.0000000  -0.0000000  -0.0000000
 NQMom=    0.0000000   0.0000000   0.0000000   0.0000000   0.0000000   0.0000000   0.0000000   0.0000000   0.0000000   0.0000000
 NMagM=    0.0000000   0.0000000   0.0000000   0.0000000   0.0000000   0.0000000   0.0000000   0.0000000   0.0000000   0.0000000
 AtZNuc=   6.0000000   6.0000000   6.0000000   6.0000000   6.0000000   6.0000000   6.0000000   6.0000000   6.0000000   6.0000000

  Atom        51          52          53          54          55          56          57          58          59          60
 IAtWgt=          12          12          12          12          12          12          12          12          12          12
 AtmWgt=  12.0000000  12.0000000  12.0000000  12.0000000  12.0000000  12.0000000  12.0000000  12.0000000  12.0000000  12.0000000
 NucSpn=           0           0           0           0           0           0           0           0           0           0
 AtZEff=  -0.0000000  -0.0000000  -0.0000000  -0.0000000  -0.0000000  -0.0000000  -0.0000000  -0.0000000  -0.0000000  -0.0000000
 NQMom=    0.0000000   0.0000000   0.0000000   0.0000000   0.0000000   0.0000000   0.0000000   0.0000000   0.0000000   0.0000000
 NMagM=    0.0000000   0.0000000   0.0000000   0.0000000   0.0000000   0.0000000   0.0000000   0.0000000   0.0000000   0.0000000
 AtZNuc=   6.0000000   6.0000000   6.0000000   6.0000000   6.0000000   6.0000000   6.0000000   6.0000000   6.0000000   6.0000000

  Atom        61          62          63          64          65          66          67          68          69          70
 IAtWgt=           1           1           1           1           1           1           1           1           1           1
 AtmWgt=   1.0078250   1.0078250   1.0078250   1.0078250   1.0078250   1.0078250   1.0078250   1.0078250   1.0078250   1.0078250
 NucSpn=           1           1           1           1           1           1           1           1           1           1
 AtZEff=  -0.0000000  -0.0000000  -0.0000000  -0.0000000  -0.0000000  -0.0000000  -0.0000000  -0.0000000  -0.0000000  -0.0000000
 NQMom=    0.0000000   0.0000000   0.0000000   0.0000000   0.0000000   0.0000000   0.0000000   0.0000000   0.0000000   0.0000000
 NMagM=    2.7928460   2.7928460   2.7928460   2.7928460   2.7928460   2.7928460   2.7928460   2.7928460   2.7928460   2.7928460
 AtZNuc=   1.0000000   1.0000000   1.0000000   1.0000000   1.0000000   1.0000000   1.0000000   1.0000000   1.0000000   1.0000000

  Atom        71          72          73          74          75          76          77          78          79          80
 IAtWgt=           1           1           1           1           1           1           1           1           1           1
 AtmWgt=   1.0078250   1.0078250   1.0078250   1.0078250   1.0078250   1.0078250   1.0078250   1.0078250   1.0078250   1.0078250
 NucSpn=           1           1           1           1           1           1           1           1           1           1
 AtZEff=  -0.0000000  -0.0000000  -0.0000000  -0.0000000  -0.0000000  -0.0000000  -0.0000000  -0.0000000  -0.0000000  -0.0000000
 NQMom=    0.0000000   0.0000000   0.0000000   0.0000000   0.0000000   0.0000000   0.0000000   0.0000000   0.0000000   0.0000000
 NMagM=    2.7928460   2.7928460   2.7928460   2.7928460   2.7928460   2.7928460   2.7928460   2.7928460   2.7928460   2.7928460
 AtZNuc=   1.0000000   1.0000000   1.0000000   1.0000000   1.0000000   1.0000000   1.0000000   1.0000000   1.0000000   1.0000000

  Atom        81          82          83          84          85          86          87          88          89          90
 IAtWgt=           1           1           1           1           1           1           1           1           1           1
 AtmWgt=   1.0078250   1.0078250   1.0078250   1.0078250   1.0078250   1.0078250   1.0078250   1.0078250   1.0078250   1.0078250
 NucSpn=           1           1           1           1           1           1           1           1           1           1
 AtZEff=  -0.0000000  -0.0000000  -0.0000000  -0.0000000  -0.0000000  -0.0000000  -0.0000000  -0.0000000  -0.0000000  -0.0000000
 NQMom=    0.0000000   0.0000000   0.0000000   0.0000000   0.0000000   0.0000000   0.0000000   0.0000000   0.0000000   0.0000000
 NMagM=    2.7928460   2.7928460   2.7928460   2.7928460   2.7928460   2.7928460   2.7928460   2.7928460   2.7928460   2.7928460
 AtZNuc=   1.0000000   1.0000000   1.0000000   1.0000000   1.0000000   1.0000000   1.0000000   1.0000000   1.0000000   1.0000000

  Atom        91          92          93          94          95          96          97          98          99
 IAtWgt=           1           1           1           1           1           1           1           1          63
 AtmWgt=   1.0078250   1.0078250   1.0078250   1.0078250   1.0078250   1.0078250   1.0078250   1.0078250  62.9295992
 NucSpn=           1           1           1           1           1           1           1           1           3
 AtZEff=  -0.0000000  -0.0000000  -0.0000000  -0.0000000  -0.0000000  -0.0000000  -0.0000000  -0.0000000  -0.0000000
 NQMom=    0.0000000   0.0000000   0.0000000   0.0000000   0.0000000   0.0000000   0.0000000   0.0000000 -22.0000000
 NMagM=    2.7928460   2.7928460   2.7928460   2.7928460   2.7928460   2.7928460   2.7928460   2.7928460   2.2233000
 AtZNuc=   1.0000000   1.0000000   1.0000000   1.0000000   1.0000000   1.0000000   1.0000000   1.0000000  29.0000000
 Leave Link  101 at Fri Feb  7 22:52:09 2025, MaxMem= 13421772800 cpu:               3.7 elap:               0.1
 (Enter /public/software/apps/Gaussian/g16/l103.exe)

 GradGradGradGradGradGradGradGradGradGradGradGradGradGradGradGradGradGrad
 Berny optimization.
 Initialization pass.
                           ----------------------------
                           !    Initial Parameters    !
                           ! (Angstroms and Degrees)  !
 --------------------------                            --------------------------
 ! Name  Definition              Value          Derivative Info.                !
 --------------------------------------------------------------------------------
 ! R1    R(1,2)                  1.3932         estimate D2E/DX2                !
 ! R2    R(1,99)                 1.963          estimate D2E/DX2                !
 ! R3    R(2,3)                  1.4075         estimate D2E/DX2                !
 ! R4    R(2,30)                 1.4068         estimate D2E/DX2                !
 ! R5    R(3,4)                  1.4827         estimate D2E/DX2                !
 ! R6    R(3,23)                 1.4018         estimate D2E/DX2                !
 ! R7    R(4,5)                  1.4048         estimate D2E/DX2                !
 ! R8    R(4,22)                 1.4047         estimate D2E/DX2                !
 ! R9    R(5,6)                  1.3979         estimate D2E/DX2                !
 ! R10   R(5,61)                 1.0834         estimate D2E/DX2                !
 ! R11   R(6,7)                  1.405          estimate D2E/DX2                !
 ! R12   R(6,62)                 1.0827         estimate D2E/DX2                !
 ! R13   R(7,8)                  1.4447         estimate D2E/DX2                !
 ! R14   R(7,21)                 1.4046         estimate D2E/DX2                !
 ! R15   R(8,9)                  1.445          estimate D2E/DX2                !
 ! R16   R(8,15)                 1.4446         estimate D2E/DX2                !
 ! R17   R(9,10)                 1.4069         estimate D2E/DX2                !
 ! R18   R(9,14)                 1.4068         estimate D2E/DX2                !
 ! R19   R(10,11)                1.3981         estimate D2E/DX2                !
 ! R20   R(10,63)                1.0825         estimate D2E/DX2                !
 ! R21   R(11,12)                1.3973         estimate D2E/DX2                !
 ! R22   R(11,64)                1.0827         estimate D2E/DX2                !
 ! R23   R(12,13)                1.3969         estimate D2E/DX2                !
 ! R24   R(12,65)                1.0822         estimate D2E/DX2                !
 ! R25   R(13,14)                1.3982         estimate D2E/DX2                !
 ! R26   R(13,66)                1.0824         estimate D2E/DX2                !
 ! R27   R(14,67)                1.0826         estimate D2E/DX2                !
 ! R28   R(15,16)                1.407          estimate D2E/DX2                !
 ! R29   R(15,20)                1.4065         estimate D2E/DX2                !
 ! R30   R(16,17)                1.3982         estimate D2E/DX2                !
 ! R31   R(16,68)                1.0829         estimate D2E/DX2                !
 ! R32   R(17,18)                1.3972         estimate D2E/DX2                !
 ! R33   R(17,69)                1.0823         estimate D2E/DX2                !
 ! R34   R(18,19)                1.3968         estimate D2E/DX2                !
 ! R35   R(18,70)                1.0823         estimate D2E/DX2                !
 ! R36   R(19,20)                1.3977         estimate D2E/DX2                !
 ! R37   R(19,71)                1.0821         estimate D2E/DX2                !
 ! R38   R(20,72)                1.0827         estimate D2E/DX2                !
 ! R39   R(21,22)                1.397          estimate D2E/DX2                !
 ! R40   R(21,73)                1.0826         estimate D2E/DX2                !
 ! R41   R(22,74)                1.0831         estimate D2E/DX2                !
 ! R42   R(23,24)                1.4003         estimate D2E/DX2                !
 ! R43   R(23,75)                1.0844         estimate D2E/DX2                !
 ! R44   R(24,25)                1.4042         estimate D2E/DX2                !
 ! R45   R(24,29)                1.4182         estimate D2E/DX2                !
 ! R46   R(25,26)                1.3957         estimate D2E/DX2                !
 ! R47   R(25,76)                1.0837         estimate D2E/DX2                !
 ! R48   R(26,27)                1.3947         estimate D2E/DX2                !
 ! R49   R(26,77)                1.0823         estimate D2E/DX2                !
 ! R50   R(27,28)                1.3964         estimate D2E/DX2                !
 ! R51   R(27,78)                1.0825         estimate D2E/DX2                !
 ! R52   R(28,29)                1.4117         estimate D2E/DX2                !
 ! R53   R(28,79)                1.082          estimate D2E/DX2                !
 ! R54   R(29,30)                1.4172         estimate D2E/DX2                !
 ! R55   R(30,31)                1.4877         estimate D2E/DX2                !
 ! R56   R(31,32)                1.4067         estimate D2E/DX2                !
 ! R57   R(31,60)                1.4173         estimate D2E/DX2                !
 ! R58   R(32,33)                1.3932         estimate D2E/DX2                !
 ! R59   R(32,34)                1.407          estimate D2E/DX2                !
 ! R60   R(33,99)                1.9629         estimate D2E/DX2                !
 ! R61   R(34,35)                1.4822         estimate D2E/DX2                !
 ! R62   R(34,54)                1.4017         estimate D2E/DX2                !
 ! R63   R(35,36)                1.4045         estimate D2E/DX2                !
 ! R64   R(35,53)                1.4043         estimate D2E/DX2                !
 ! R65   R(36,37)                1.3968         estimate D2E/DX2                !
 ! R66   R(36,80)                1.083          estimate D2E/DX2                !
 ! R67   R(37,38)                1.405          estimate D2E/DX2                !
 ! R68   R(37,81)                1.0829         estimate D2E/DX2                !
 ! R69   R(38,39)                1.4447         estimate D2E/DX2                !
 ! R70   R(38,52)                1.4051         estimate D2E/DX2                !
 ! R71   R(39,40)                1.4451         estimate D2E/DX2                !
 ! R72   R(39,46)                1.4449         estimate D2E/DX2                !
 ! R73   R(40,41)                1.4071         estimate D2E/DX2                !
 ! R74   R(40,45)                1.407          estimate D2E/DX2                !
 ! R75   R(41,42)                1.3984         estimate D2E/DX2                !
 ! R76   R(41,82)                1.0825         estimate D2E/DX2                !
 ! R77   R(42,43)                1.3971         estimate D2E/DX2                !
 ! R78   R(42,83)                1.0824         estimate D2E/DX2                !
 ! R79   R(43,44)                1.3971         estimate D2E/DX2                !
 ! R80   R(43,84)                1.0825         estimate D2E/DX2                !
 ! R81   R(44,45)                1.3982         estimate D2E/DX2                !
 ! R82   R(44,85)                1.0824         estimate D2E/DX2                !
 ! R83   R(45,86)                1.0829         estimate D2E/DX2                !
 ! R84   R(46,47)                1.4067         estimate D2E/DX2                !
 ! R85   R(46,51)                1.4069         estimate D2E/DX2                !
 ! R86   R(47,48)                1.3981         estimate D2E/DX2                !
 ! R87   R(47,87)                1.0829         estimate D2E/DX2                !
 ! R88   R(48,49)                1.3969         estimate D2E/DX2                !
 ! R89   R(48,88)                1.0825         estimate D2E/DX2                !
 ! R90   R(49,50)                1.397          estimate D2E/DX2                !
 ! R91   R(49,89)                1.0824         estimate D2E/DX2                !
 ! R92   R(50,51)                1.3982         estimate D2E/DX2                !
 ! R93   R(50,90)                1.0825         estimate D2E/DX2                !
 ! R94   R(51,91)                1.0822         estimate D2E/DX2                !
 ! R95   R(52,53)                1.3976         estimate D2E/DX2                !
 ! R96   R(52,92)                1.0828         estimate D2E/DX2                !
 ! R97   R(53,93)                1.083          estimate D2E/DX2                !
 ! R98   R(54,55)                1.4004         estimate D2E/DX2                !
 ! R99   R(54,94)                1.0847         estimate D2E/DX2                !
 ! R100  R(55,56)                1.4041         estimate D2E/DX2                !
 ! R101  R(55,60)                1.4184         estimate D2E/DX2                !
 ! R102  R(56,57)                1.3955         estimate D2E/DX2                !
 ! R103  R(56,95)                1.0836         estimate D2E/DX2                !
 ! R104  R(57,58)                1.3944         estimate D2E/DX2                !
 ! R105  R(57,96)                1.0821         estimate D2E/DX2                !
 ! R106  R(58,59)                1.3966         estimate D2E/DX2                !
 ! R107  R(58,97)                1.0823         estimate D2E/DX2                !
 ! R108  R(59,60)                1.4119         estimate D2E/DX2                !
 ! R109  R(59,98)                1.0823         estimate D2E/DX2                !
 ! A1    A(2,1,99)             102.7821         estimate D2E/DX2                !
 ! A2    A(1,2,3)              120.0047         estimate D2E/DX2                !
 ! A3    A(1,2,30)             119.3294         estimate D2E/DX2                !
 ! A4    A(3,2,30)             120.6539         estimate D2E/DX2                !
 ! A5    A(2,3,4)              121.0361         estimate D2E/DX2                !
 ! A6    A(2,3,23)             119.4191         estimate D2E/DX2                !
 ! A7    A(4,3,23)             119.5443         estimate D2E/DX2                !
 ! A8    A(3,4,5)              120.447          estimate D2E/DX2                !
 ! A9    A(3,4,22)             120.4197         estimate D2E/DX2                !
 ! A10   A(5,4,22)             119.1204         estimate D2E/DX2                !
 ! A11   A(4,5,6)              120.405          estimate D2E/DX2                !
 ! A12   A(4,5,61)             120.4105         estimate D2E/DX2                !
 ! A13   A(6,5,61)             119.1819         estimate D2E/DX2                !
 ! A14   A(5,6,7)              120.4779         estimate D2E/DX2                !
 ! A15   A(5,6,62)             119.2021         estimate D2E/DX2                !
 ! A16   A(7,6,62)             120.3177         estimate D2E/DX2                !
 ! A17   A(6,7,8)              120.4943         estimate D2E/DX2                !
 ! A18   A(6,7,21)             119.0574         estimate D2E/DX2                !
 ! A19   A(8,7,21)             120.4479         estimate D2E/DX2                !
 ! A20   A(7,8,9)              120.0256         estimate D2E/DX2                !
 ! A21   A(7,8,15)             119.8932         estimate D2E/DX2                !
 ! A22   A(9,8,15)             120.0775         estimate D2E/DX2                !
 ! A23   A(8,9,10)             120.4562         estimate D2E/DX2                !
 ! A24   A(8,9,14)             120.5118         estimate D2E/DX2                !
 ! A25   A(10,9,14)            119.0318         estimate D2E/DX2                !
 ! A26   A(9,10,11)            120.3969         estimate D2E/DX2                !
 ! A27   A(9,10,63)            120.4193         estimate D2E/DX2                !
 ! A28   A(11,10,63)           119.1797         estimate D2E/DX2                !
 ! A29   A(10,11,12)           120.0886         estimate D2E/DX2                !
 ! A30   A(10,11,64)           119.9454         estimate D2E/DX2                !
 ! A31   A(12,11,64)           119.9659         estimate D2E/DX2                !
 ! A32   A(11,12,13)           119.9952         estimate D2E/DX2                !
 ! A33   A(11,12,65)           120.0437         estimate D2E/DX2                !
 ! A34   A(13,12,65)           119.9608         estimate D2E/DX2                !
 ! A35   A(12,13,14)           120.1188         estimate D2E/DX2                !
 ! A36   A(12,13,66)           119.9418         estimate D2E/DX2                !
 ! A37   A(14,13,66)           119.939          estimate D2E/DX2                !
 ! A38   A(9,14,13)            120.3679         estimate D2E/DX2                !
 ! A39   A(9,14,67)            120.4214         estimate D2E/DX2                !
 ! A40   A(13,14,67)           119.2085         estimate D2E/DX2                !
 ! A41   A(8,15,16)            120.5119         estimate D2E/DX2                !
 ! A42   A(8,15,20)            120.3976         estimate D2E/DX2                !
 ! A43   A(16,15,20)           119.0893         estimate D2E/DX2                !
 ! A44   A(15,16,17)           120.3196         estimate D2E/DX2                !
 ! A45   A(15,16,68)           120.4052         estimate D2E/DX2                !
 ! A46   A(17,16,68)           119.2729         estimate D2E/DX2                !
 ! A47   A(16,17,18)           120.1023         estimate D2E/DX2                !
 ! A48   A(16,17,69)           119.9706         estimate D2E/DX2                !
 ! A49   A(18,17,69)           119.9264         estimate D2E/DX2                !
 ! A50   A(17,18,19)           120.018          estimate D2E/DX2                !
 ! A51   A(17,18,70)           120.0276         estimate D2E/DX2                !
 ! A52   A(19,18,70)           119.9545         estimate D2E/DX2                !
 ! A53   A(18,19,20)           120.101          estimate D2E/DX2                !
 ! A54   A(18,19,71)           119.9195         estimate D2E/DX2                !
 ! A55   A(20,19,71)           119.9795         estimate D2E/DX2                !
 ! A56   A(15,20,19)           120.3691         estimate D2E/DX2                !
 ! A57   A(15,20,72)           120.3715         estimate D2E/DX2                !
 ! A58   A(19,20,72)           119.2564         estimate D2E/DX2                !
 ! A59   A(7,21,22)            120.4928         estimate D2E/DX2                !
 ! A60   A(7,21,73)            120.3375         estimate D2E/DX2                !
 ! A61   A(22,21,73)           119.1627         estimate D2E/DX2                !
 ! A62   A(4,22,21)            120.4448         estimate D2E/DX2                !
 ! A63   A(4,22,74)            120.4879         estimate D2E/DX2                !
 ! A64   A(21,22,74)           119.054          estimate D2E/DX2                !
 ! A65   A(3,23,24)            120.7704         estimate D2E/DX2                !
 ! A66   A(3,23,75)            119.5202         estimate D2E/DX2                !
 ! A67   A(24,23,75)           119.7074         estimate D2E/DX2                !
 ! A68   A(23,24,25)           119.9878         estimate D2E/DX2                !
 ! A69   A(23,24,29)           120.0424         estimate D2E/DX2                !
 ! A70   A(25,24,29)           119.9698         estimate D2E/DX2                !
 ! A71   A(24,25,26)           120.2968         estimate D2E/DX2                !
 ! A72   A(24,25,76)           120.6747         estimate D2E/DX2                !
 ! A73   A(26,25,76)           119.0278         estimate D2E/DX2                !
 ! A74   A(25,26,27)           120.1395         estimate D2E/DX2                !
 ! A75   A(25,26,77)           119.9641         estimate D2E/DX2                !
 ! A76   A(27,26,77)           119.8958         estimate D2E/DX2                !
 ! A77   A(26,27,28)           120.2668         estimate D2E/DX2                !
 ! A78   A(26,27,78)           119.8788         estimate D2E/DX2                !
 ! A79   A(28,27,78)           119.8541         estimate D2E/DX2                !
 ! A80   A(27,28,29)           120.5466         estimate D2E/DX2                !
 ! A81   A(27,28,79)           118.043          estimate D2E/DX2                !
 ! A82   A(29,28,79)           121.4088         estimate D2E/DX2                !
 ! A83   A(24,29,28)           118.7742         estimate D2E/DX2                !
 ! A84   A(24,29,30)           119.3414         estimate D2E/DX2                !
 ! A85   A(28,29,30)           121.88           estimate D2E/DX2                !
 ! A86   A(2,30,29)            119.7024         estimate D2E/DX2                !
 ! A87   A(2,30,31)            118.5905         estimate D2E/DX2                !
 ! A88   A(29,30,31)           121.6969         estimate D2E/DX2                !
 ! A89   A(30,31,32)           118.5768         estimate D2E/DX2                !
 ! A90   A(30,31,60)           121.6977         estimate D2E/DX2                !
 ! A91   A(32,31,60)           119.7133         estimate D2E/DX2                !
 ! A92   A(31,32,33)           119.3376         estimate D2E/DX2                !
 ! A93   A(31,32,34)           120.6671         estimate D2E/DX2                !
 ! A94   A(33,32,34)           119.9846         estimate D2E/DX2                !
 ! A95   A(32,33,99)           115.3316         estimate D2E/DX2                !
 ! A96   A(32,34,35)           120.9949         estimate D2E/DX2                !
 ! A97   A(32,34,54)           119.4342         estimate D2E/DX2                !
 ! A98   A(35,34,54)           119.5702         estimate D2E/DX2                !
 ! A99   A(34,35,36)           120.4189         estimate D2E/DX2                !
 ! A100  A(34,35,53)           120.4211         estimate D2E/DX2                !
 ! A101  A(36,35,53)           119.1516         estimate D2E/DX2                !
 ! A102  A(35,36,37)           120.4358         estimate D2E/DX2                !
 ! A103  A(35,36,80)           120.5229         estimate D2E/DX2                !
 ! A104  A(37,36,80)           119.034          estimate D2E/DX2                !
 ! A105  A(36,37,38)           120.4761         estimate D2E/DX2                !
 ! A106  A(36,37,81)           119.1564         estimate D2E/DX2                !
 ! A107  A(38,37,81)           120.364          estimate D2E/DX2                !
 ! A108  A(37,38,39)           120.4341         estimate D2E/DX2                !
 ! A109  A(37,38,52)           119.0608         estimate D2E/DX2                !
 ! A110  A(39,38,52)           120.5051         estimate D2E/DX2                !
 ! A111  A(38,39,40)           119.9665         estimate D2E/DX2                !
 ! A112  A(38,39,46)           120.0776         estimate D2E/DX2                !
 ! A113  A(40,39,46)           119.9536         estimate D2E/DX2                !
 ! A114  A(39,40,41)           120.5043         estimate D2E/DX2                !
 ! A115  A(39,40,45)           120.4548         estimate D2E/DX2                !
 ! A116  A(41,40,45)           119.0405         estimate D2E/DX2                !
 ! A117  A(40,41,42)           120.3642         estimate D2E/DX2                !
 ! A118  A(40,41,82)           120.4071         estimate D2E/DX2                !
 ! A119  A(42,41,82)           119.2265         estimate D2E/DX2                !
 ! A120  A(41,42,43)           120.1004         estimate D2E/DX2                !
 ! A121  A(41,42,83)           119.9623         estimate D2E/DX2                !
 ! A122  A(43,42,83)           119.9372         estimate D2E/DX2                !
 ! A123  A(42,43,44)           120.0148         estimate D2E/DX2                !
 ! A124  A(42,43,84)           119.9907         estimate D2E/DX2                !
 ! A125  A(44,43,84)           119.9945         estimate D2E/DX2                !
 ! A126  A(43,44,45)           120.0997         estimate D2E/DX2                !
 ! A127  A(43,44,85)           119.9316         estimate D2E/DX2                !
 ! A128  A(45,44,85)           119.9687         estimate D2E/DX2                !
 ! A129  A(40,45,44)           120.3802         estimate D2E/DX2                !
 ! A130  A(40,45,86)           120.3771         estimate D2E/DX2                !
 ! A131  A(44,45,86)           119.2391         estimate D2E/DX2                !
 ! A132  A(39,46,47)           120.4268         estimate D2E/DX2                !
 ! A133  A(39,46,51)           120.5228         estimate D2E/DX2                !
 ! A134  A(47,46,51)           119.0501         estimate D2E/DX2                !
 ! A135  A(46,47,48)           120.3733         estimate D2E/DX2                !
 ! A136  A(46,47,87)           120.3721         estimate D2E/DX2                !
 ! A137  A(48,47,87)           119.2526         estimate D2E/DX2                !
 ! A138  A(47,48,49)           120.095          estimate D2E/DX2                !
 ! A139  A(47,48,88)           119.9655         estimate D2E/DX2                !
 ! A140  A(49,48,88)           119.9393         estimate D2E/DX2                !
 ! A141  A(48,49,50)           120.0251         estimate D2E/DX2                !
 ! A142  A(48,49,89)           119.9823         estimate D2E/DX2                !
 ! A143  A(50,49,89)           119.9926         estimate D2E/DX2                !
 ! A144  A(49,50,51)           120.0836         estimate D2E/DX2                !
 ! A145  A(49,50,90)           119.9002         estimate D2E/DX2                !
 ! A146  A(51,50,90)           120.0151         estimate D2E/DX2                !
 ! A147  A(46,51,50)           120.3725         estimate D2E/DX2                !
 ! A148  A(46,51,91)           120.3818         estimate D2E/DX2                !
 ! A149  A(50,51,91)           119.2435         estimate D2E/DX2                !
 ! A150  A(38,52,53)           120.46           estimate D2E/DX2                !
 ! A151  A(38,52,92)           120.3178         estimate D2E/DX2                !
 ! A152  A(53,52,92)           119.2191         estimate D2E/DX2                !
 ! A153  A(35,53,52)           120.4118         estimate D2E/DX2                !
 ! A154  A(35,53,93)           120.4418         estimate D2E/DX2                !
 ! A155  A(52,53,93)           119.1388         estimate D2E/DX2                !
 ! A156  A(34,54,55)           120.7552         estimate D2E/DX2                !
 ! A157  A(34,54,94)           119.5141         estimate D2E/DX2                !
 ! A158  A(55,54,94)           119.729          estimate D2E/DX2                !
 ! A159  A(54,55,56)           119.9701         estimate D2E/DX2                !
 ! A160  A(54,55,60)           120.0539         estimate D2E/DX2                !
 ! A161  A(56,55,60)           119.9759         estimate D2E/DX2                !
 ! A162  A(55,56,57)           120.2928         estimate D2E/DX2                !
 ! A163  A(55,56,95)           120.6672         estimate D2E/DX2                !
 ! A164  A(57,56,95)           119.0396         estimate D2E/DX2                !
 ! A165  A(56,57,58)           120.1487         estimate D2E/DX2                !
 ! A166  A(56,57,96)           119.9787         estimate D2E/DX2                !
 ! A167  A(58,57,96)           119.8716         estimate D2E/DX2                !
 ! A168  A(57,58,59)           120.2859         estimate D2E/DX2                !
 ! A169  A(57,58,97)           119.7984         estimate D2E/DX2                !
 ! A170  A(59,58,97)           119.9152         estimate D2E/DX2                !
 ! A171  A(58,59,60)           120.5201         estimate D2E/DX2                !
 ! A172  A(58,59,98)           118.0083         estimate D2E/DX2                !
 ! A173  A(60,59,98)           121.4705         estimate D2E/DX2                !
 ! A174  A(31,60,55)           119.3108         estimate D2E/DX2                !
 ! A175  A(31,60,59)           121.9149         estimate D2E/DX2                !
 ! A176  A(55,60,59)           118.7693         estimate D2E/DX2                !
 ! A177  A(1,99,33)             99.9962         estimate D2E/DX2                !
 ! D1    D(99,1,2,3)           -98.586          estimate D2E/DX2                !
 ! D2    D(99,1,2,30)           80.1592         estimate D2E/DX2                !
 ! D3    D(2,1,99,33)          -58.1405         estimate D2E/DX2                !
 ! D4    D(1,2,3,4)             -3.9085         estimate D2E/DX2                !
 ! D5    D(1,2,3,23)           176.3642         estimate D2E/DX2                !
 ! D6    D(30,2,3,4)           177.3632         estimate D2E/DX2                !
 ! D7    D(30,2,3,23)           -2.3641         estimate D2E/DX2                !
 ! D8    D(1,2,30,29)         -175.4447         estimate D2E/DX2                !
 ! D9    D(1,2,30,31)            3.4166         estimate D2E/DX2                !
 ! D10   D(3,2,30,29)            3.2921         estimate D2E/DX2                !
 ! D11   D(3,2,30,31)         -177.8466         estimate D2E/DX2                !
 ! D12   D(2,3,4,5)            130.6219         estimate D2E/DX2                !
 ! D13   D(2,3,4,22)           -50.6931         estimate D2E/DX2                !
 ! D14   D(23,3,4,5)           -49.6512         estimate D2E/DX2                !
 ! D15   D(23,3,4,22)          129.0338         estimate D2E/DX2                !
 ! D16   D(2,3,23,24)            0.3236         estimate D2E/DX2                !
 ! D17   D(2,3,23,75)          179.8131         estimate D2E/DX2                !
 ! D18   D(4,3,23,24)         -179.4078         estimate D2E/DX2                !
 ! D19   D(4,3,23,75)            0.0817         estimate D2E/DX2                !
 ! D20   D(3,4,5,6)            179.17           estimate D2E/DX2                !
 ! D21   D(3,4,5,61)            -1.417          estimate D2E/DX2                !
 ! D22   D(22,4,5,6)             0.468          estimate D2E/DX2                !
 ! D23   D(22,4,5,61)          179.8809         estimate D2E/DX2                !
 ! D24   D(3,4,22,21)         -179.1285         estimate D2E/DX2                !
 ! D25   D(3,4,22,74)           -0.4668         estimate D2E/DX2                !
 ! D26   D(5,4,22,21)           -0.4261         estimate D2E/DX2                !
 ! D27   D(5,4,22,74)          178.2356         estimate D2E/DX2                !
 ! D28   D(4,5,6,7)             -0.3398         estimate D2E/DX2                !
 ! D29   D(4,5,6,62)           179.1089         estimate D2E/DX2                !
 ! D30   D(61,5,6,7)          -179.7599         estimate D2E/DX2                !
 ! D31   D(61,5,6,62)           -0.3112         estimate D2E/DX2                !
 ! D32   D(5,6,7,8)           -179.6124         estimate D2E/DX2                !
 ! D33   D(5,6,7,21)             0.1613         estimate D2E/DX2                !
 ! D34   D(62,6,7,8)             0.9451         estimate D2E/DX2                !
 ! D35   D(62,6,7,21)         -179.2812         estimate D2E/DX2                !
 ! D36   D(6,7,8,9)             43.0624         estimate D2E/DX2                !
 ! D37   D(6,7,8,15)          -137.6311         estimate D2E/DX2                !
 ! D38   D(21,7,8,9)          -136.7081         estimate D2E/DX2                !
 ! D39   D(21,7,8,15)           42.5983         estimate D2E/DX2                !
 ! D40   D(6,7,21,22)           -0.1193         estimate D2E/DX2                !
 ! D41   D(6,7,21,73)         -179.1442         estimate D2E/DX2                !
 ! D42   D(8,7,21,22)          179.6546         estimate D2E/DX2                !
 ! D43   D(8,7,21,73)            0.6296         estimate D2E/DX2                !
 ! D44   D(7,8,9,10)            41.2286         estimate D2E/DX2                !
 ! D45   D(7,8,9,14)          -138.9527         estimate D2E/DX2                !
 ! D46   D(15,8,9,10)         -138.0766         estimate D2E/DX2                !
 ! D47   D(15,8,9,14)           41.7421         estimate D2E/DX2                !
 ! D48   D(7,8,15,16)         -137.2664         estimate D2E/DX2                !
 ! D49   D(7,8,15,20)           42.3523         estimate D2E/DX2                !
 ! D50   D(9,8,15,16)           42.0396         estimate D2E/DX2                !
 ! D51   D(9,8,15,20)         -138.3416         estimate D2E/DX2                !
 ! D52   D(8,9,10,11)          179.5994         estimate D2E/DX2                !
 ! D53   D(8,9,10,63)            0.338          estimate D2E/DX2                !
 ! D54   D(14,9,10,11)          -0.222          estimate D2E/DX2                !
 ! D55   D(14,9,10,63)        -179.4834         estimate D2E/DX2                !
 ! D56   D(8,9,14,13)         -179.4678         estimate D2E/DX2                !
 ! D57   D(8,9,14,67)            1.0781         estimate D2E/DX2                !
 ! D58   D(10,9,14,13)           0.3534         estimate D2E/DX2                !
 ! D59   D(10,9,14,67)        -179.1007         estimate D2E/DX2                !
 ! D60   D(9,10,11,12)           0.0378         estimate D2E/DX2                !
 ! D61   D(9,10,11,64)        -179.8649         estimate D2E/DX2                !
 ! D62   D(63,10,11,12)        179.3083         estimate D2E/DX2                !
 ! D63   D(63,10,11,64)         -0.5944         estimate D2E/DX2                !
 ! D64   D(10,11,12,13)          0.0185         estimate D2E/DX2                !
 ! D65   D(10,11,12,65)       -179.7963         estimate D2E/DX2                !
 ! D66   D(64,11,12,13)        179.9212         estimate D2E/DX2                !
 ! D67   D(64,11,12,65)          0.1063         estimate D2E/DX2                !
 ! D68   D(11,12,13,14)          0.1129         estimate D2E/DX2                !
 ! D69   D(11,12,13,66)        179.8936         estimate D2E/DX2                !
 ! D70   D(65,12,13,14)        179.9279         estimate D2E/DX2                !
 ! D71   D(65,12,13,66)         -0.2914         estimate D2E/DX2                !
 ! D72   D(12,13,14,9)          -0.3014         estimate D2E/DX2                !
 ! D73   D(12,13,14,67)        179.1593         estimate D2E/DX2                !
 ! D74   D(66,13,14,9)         179.918          estimate D2E/DX2                !
 ! D75   D(66,13,14,67)         -0.6213         estimate D2E/DX2                !
 ! D76   D(8,15,16,17)         179.9042         estimate D2E/DX2                !
 ! D77   D(8,15,16,68)           0.4582         estimate D2E/DX2                !
 ! D78   D(20,15,16,17)          0.2805         estimate D2E/DX2                !
 ! D79   D(20,15,16,68)       -179.1655         estimate D2E/DX2                !
 ! D80   D(8,15,20,19)        -179.7347         estimate D2E/DX2                !
 ! D81   D(8,15,20,72)           0.8942         estimate D2E/DX2                !
 ! D82   D(16,15,20,19)         -0.1105         estimate D2E/DX2                !
 ! D83   D(16,15,20,72)       -179.4816         estimate D2E/DX2                !
 ! D84   D(15,16,17,18)         -0.3082         estimate D2E/DX2                !
 ! D85   D(15,16,17,69)        179.9859         estimate D2E/DX2                !
 ! D86   D(68,16,17,18)        179.144          estimate D2E/DX2                !
 ! D87   D(68,16,17,69)         -0.5619         estimate D2E/DX2                !
 ! D88   D(16,17,18,19)          0.1627         estimate D2E/DX2                !
 ! D89   D(16,17,18,70)       -179.8087         estimate D2E/DX2                !
 ! D90   D(69,17,18,19)        179.8687         estimate D2E/DX2                !
 ! D91   D(69,17,18,70)         -0.1026         estimate D2E/DX2                !
 ! D92   D(17,18,19,20)          0.0073         estimate D2E/DX2                !
 ! D93   D(17,18,19,71)       -179.9538         estimate D2E/DX2                !
 ! D94   D(70,18,19,20)        179.9787         estimate D2E/DX2                !
 ! D95   D(70,18,19,71)          0.0176         estimate D2E/DX2                !
 ! D96   D(18,19,20,15)         -0.0324         estimate D2E/DX2                !
 ! D97   D(18,19,20,72)        179.3457         estimate D2E/DX2                !
 ! D98   D(71,19,20,15)        179.9286         estimate D2E/DX2                !
 ! D99   D(71,19,20,72)         -0.6933         estimate D2E/DX2                !
 ! D100  D(7,21,22,4)            0.2555         estimate D2E/DX2                !
 ! D101  D(7,21,22,74)        -178.4253         estimate D2E/DX2                !
 ! D102  D(73,21,22,4)         179.2918         estimate D2E/DX2                !
 ! D103  D(73,21,22,74)          0.611          estimate D2E/DX2                !
 ! D104  D(3,23,24,25)        -179.2748         estimate D2E/DX2                !
 ! D105  D(3,23,24,29)           0.7593         estimate D2E/DX2                !
 ! D106  D(75,23,24,25)          1.2366         estimate D2E/DX2                !
 ! D107  D(75,23,24,29)       -178.7293         estimate D2E/DX2                !
 ! D108  D(23,24,25,26)        179.5013         estimate D2E/DX2                !
 ! D109  D(23,24,25,76)         -0.1843         estimate D2E/DX2                !
 ! D110  D(29,24,25,26)         -0.5328         estimate D2E/DX2                !
 ! D111  D(29,24,25,76)        179.7817         estimate D2E/DX2                !
 ! D112  D(23,24,29,28)       -179.0847         estimate D2E/DX2                !
 ! D113  D(23,24,29,30)          0.1708         estimate D2E/DX2                !
 ! D114  D(25,24,29,28)          0.9494         estimate D2E/DX2                !
 ! D115  D(25,24,29,30)       -179.7951         estimate D2E/DX2                !
 ! D116  D(24,25,26,27)         -0.0949         estimate D2E/DX2                !
 ! D117  D(24,25,26,77)       -179.8119         estimate D2E/DX2                !
 ! D118  D(76,25,26,27)        179.5959         estimate D2E/DX2                !
 ! D119  D(76,25,26,77)         -0.1212         estimate D2E/DX2                !
 ! D120  D(25,26,27,28)          0.2921         estimate D2E/DX2                !
 ! D121  D(25,26,27,78)       -179.5045         estimate D2E/DX2                !
 ! D122  D(77,26,27,28)       -179.9906         estimate D2E/DX2                !
 ! D123  D(77,26,27,78)          0.2128         estimate D2E/DX2                !
 ! D124  D(26,27,28,29)          0.1431         estimate D2E/DX2                !
 ! D125  D(26,27,28,79)       -179.4142         estimate D2E/DX2                !
 ! D126  D(78,27,28,29)        179.9398         estimate D2E/DX2                !
 ! D127  D(78,27,28,79)          0.3825         estimate D2E/DX2                !
 ! D128  D(27,28,29,24)         -0.7586         estimate D2E/DX2                !
 ! D129  D(27,28,29,30)       -179.9943         estimate D2E/DX2                !
 ! D130  D(79,28,29,24)        178.7836         estimate D2E/DX2                !
 ! D131  D(79,28,29,30)         -0.4521         estimate D2E/DX2                !
 ! D132  D(24,29,30,2)          -2.1736         estimate D2E/DX2                !
 ! D133  D(24,29,30,31)        179.0015         estimate D2E/DX2                !
 ! D134  D(28,29,30,2)         177.0579         estimate D2E/DX2                !
 ! D135  D(28,29,30,31)         -1.767          estimate D2E/DX2                !
 ! D136  D(2,30,31,32)         -70.7666         estimate D2E/DX2                !
 ! D137  D(2,30,31,60)         107.9623         estimate D2E/DX2                !
 ! D138  D(29,30,31,32)        108.0709         estimate D2E/DX2                !
 ! D139  D(29,30,31,60)        -73.2002         estimate D2E/DX2                !
 ! D140  D(30,31,32,33)          3.1193         estimate D2E/DX2                !
 ! D141  D(30,31,32,34)       -178.0686         estimate D2E/DX2                !
 ! D142  D(60,31,32,33)       -175.6355         estimate D2E/DX2                !
 ! D143  D(60,31,32,34)          3.1766         estimate D2E/DX2                !
 ! D144  D(30,31,60,55)        179.1859         estimate D2E/DX2                !
 ! D145  D(30,31,60,59)         -1.6447         estimate D2E/DX2                !
 ! D146  D(32,31,60,55)         -2.0993         estimate D2E/DX2                !
 ! D147  D(32,31,60,59)        177.07           estimate D2E/DX2                !
 ! D148  D(31,32,33,99)         67.2062         estimate D2E/DX2                !
 ! D149  D(34,32,33,99)       -111.6141         estimate D2E/DX2                !
 ! D150  D(31,32,34,35)        177.4142         estimate D2E/DX2                !
 ! D151  D(31,32,34,54)         -2.3            estimate D2E/DX2                !
 ! D152  D(33,32,34,35)         -3.7813         estimate D2E/DX2                !
 ! D153  D(33,32,34,54)        176.5044         estimate D2E/DX2                !
 ! D154  D(32,33,99,1)         -32.3879         estimate D2E/DX2                !
 ! D155  D(32,34,35,36)        -51.49           estimate D2E/DX2                !
 ! D156  D(32,34,35,53)        129.5701         estimate D2E/DX2                !
 ! D157  D(54,34,35,36)        128.2239         estimate D2E/DX2                !
 ! D158  D(54,34,35,53)        -50.716          estimate D2E/DX2                !
 ! D159  D(32,34,54,55)          0.3532         estimate D2E/DX2                !
 ! D160  D(32,34,54,94)        179.8742         estimate D2E/DX2                !
 ! D161  D(35,34,54,55)       -179.3651         estimate D2E/DX2                !
 ! D162  D(35,34,54,94)          0.1558         estimate D2E/DX2                !
 ! D163  D(34,35,36,37)       -179.3213         estimate D2E/DX2                !
 ! D164  D(34,35,36,80)         -0.3189         estimate D2E/DX2                !
 ! D165  D(53,35,36,37)         -0.3681         estimate D2E/DX2                !
 ! D166  D(53,35,36,80)        178.6344         estimate D2E/DX2                !
 ! D167  D(34,35,53,52)        179.6908         estimate D2E/DX2                !
 ! D168  D(34,35,53,93)         -1.3229         estimate D2E/DX2                !
 ! D169  D(36,35,53,52)          0.7376         estimate D2E/DX2                !
 ! D170  D(36,35,53,93)        179.7239         estimate D2E/DX2                !
 ! D171  D(35,36,37,38)         -0.1233         estimate D2E/DX2                !
 ! D172  D(35,36,37,81)        179.1962         estimate D2E/DX2                !
 ! D173  D(80,36,37,38)       -179.1406         estimate D2E/DX2                !
 ! D174  D(80,36,37,81)          0.179          estimate D2E/DX2                !
 ! D175  D(36,37,38,39)       -179.835          estimate D2E/DX2                !
 ! D176  D(36,37,38,52)          0.2481         estimate D2E/DX2                !
 ! D177  D(81,37,38,39)          0.8537         estimate D2E/DX2                !
 ! D178  D(81,37,38,52)       -179.0632         estimate D2E/DX2                !
 ! D179  D(37,38,39,40)         41.1059         estimate D2E/DX2                !
 ! D180  D(37,38,39,46)       -138.3483         estimate D2E/DX2                !
 ! D181  D(52,38,39,40)       -138.9784         estimate D2E/DX2                !
 ! D182  D(52,38,39,46)         41.5674         estimate D2E/DX2                !
 ! D183  D(37,38,52,53)          0.1216         estimate D2E/DX2                !
 ! D184  D(37,38,52,92)       -179.2382         estimate D2E/DX2                !
 ! D185  D(39,38,52,53)       -179.7952         estimate D2E/DX2                !
 ! D186  D(39,38,52,92)          0.8449         estimate D2E/DX2                !
 ! D187  D(38,39,40,41)         42.2687         estimate D2E/DX2                !
 ! D188  D(38,39,40,45)       -137.4821         estimate D2E/DX2                !
 ! D189  D(46,39,40,41)       -138.2764         estimate D2E/DX2                !
 ! D190  D(46,39,40,45)         41.9727         estimate D2E/DX2                !
 ! D191  D(38,39,46,47)       -137.9174         estimate D2E/DX2                !
 ! D192  D(38,39,46,51)         42.2677         estimate D2E/DX2                !
 ! D193  D(40,39,46,47)         42.6283         estimate D2E/DX2                !
 ! D194  D(40,39,46,51)       -137.1866         estimate D2E/DX2                !
 ! D195  D(39,40,41,42)       -179.7411         estimate D2E/DX2                !
 ! D196  D(39,40,41,82)          0.8109         estimate D2E/DX2                !
 ! D197  D(45,40,41,42)          0.0132         estimate D2E/DX2                !
 ! D198  D(45,40,41,82)       -179.4348         estimate D2E/DX2                !
 ! D199  D(39,40,45,44)        179.6285         estimate D2E/DX2                !
 ! D200  D(39,40,45,86)          0.322          estimate D2E/DX2                !
 ! D201  D(41,40,45,44)         -0.1259         estimate D2E/DX2                !
 ! D202  D(41,40,45,86)       -179.4325         estimate D2E/DX2                !
 ! D203  D(40,41,42,43)          0.0702         estimate D2E/DX2                !
 ! D204  D(40,41,42,83)       -179.788          estimate D2E/DX2                !
 ! D205  D(82,41,42,43)        179.5247         estimate D2E/DX2                !
 ! D206  D(82,41,42,83)         -0.3335         estimate D2E/DX2                !
 ! D207  D(41,42,43,44)         -0.0415         estimate D2E/DX2                !
 ! D208  D(41,42,43,84)        179.9546         estimate D2E/DX2                !
 ! D209  D(83,42,43,44)        179.8167         estimate D2E/DX2                !
 ! D210  D(83,42,43,84)         -0.1872         estimate D2E/DX2                !
 ! D211  D(42,43,44,45)         -0.0711         estimate D2E/DX2                !
 ! D212  D(42,43,44,85)        179.903          estimate D2E/DX2                !
 ! D213  D(84,43,44,45)        179.9328         estimate D2E/DX2                !
 ! D214  D(84,43,44,85)         -0.0932         estimate D2E/DX2                !
 ! D215  D(43,44,45,40)          0.1556         estimate D2E/DX2                !
 ! D216  D(43,44,45,86)        179.47           estimate D2E/DX2                !
 ! D217  D(85,44,45,40)       -179.8185         estimate D2E/DX2                !
 ! D218  D(85,44,45,86)         -0.5041         estimate D2E/DX2                !
 ! D219  D(39,46,47,48)       -179.6478         estimate D2E/DX2                !
 ! D220  D(39,46,47,87)          0.8708         estimate D2E/DX2                !
 ! D221  D(51,46,47,48)          0.1699         estimate D2E/DX2                !
 ! D222  D(51,46,47,87)       -179.3116         estimate D2E/DX2                !
 ! D223  D(39,46,51,50)        179.7725         estimate D2E/DX2                !
 ! D224  D(39,46,51,91)          0.3119         estimate D2E/DX2                !
 ! D225  D(47,46,51,50)         -0.0449         estimate D2E/DX2                !
 ! D226  D(47,46,51,91)       -179.5055         estimate D2E/DX2                !
 ! D227  D(46,47,48,49)         -0.1569         estimate D2E/DX2                !
 ! D228  D(46,47,48,88)        179.971          estimate D2E/DX2                !
 ! D229  D(87,47,48,49)        179.3303         estimate D2E/DX2                !
 ! D230  D(87,47,48,88)         -0.5418         estimate D2E/DX2                !
 ! D231  D(47,48,49,50)          0.017          estimate D2E/DX2                !
 ! D232  D(47,48,49,89)        179.9861         estimate D2E/DX2                !
 ! D233  D(88,48,49,50)        179.8891         estimate D2E/DX2                !
 ! D234  D(88,48,49,89)         -0.1418         estimate D2E/DX2                !
 ! D235  D(48,49,50,51)          0.1078         estimate D2E/DX2                !
 ! D236  D(48,49,50,90)        179.7364         estimate D2E/DX2                !
 ! D237  D(89,49,50,51)       -179.8612         estimate D2E/DX2                !
 ! D238  D(89,49,50,90)         -0.2326         estimate D2E/DX2                !
 ! D239  D(49,50,51,46)         -0.0934         estimate D2E/DX2                !
 ! D240  D(49,50,51,91)        179.3733         estimate D2E/DX2                !
 ! D241  D(90,50,51,46)       -179.7215         estimate D2E/DX2                !
 ! D242  D(90,50,51,91)         -0.2548         estimate D2E/DX2                !
 ! D243  D(38,52,53,35)         -0.619          estimate D2E/DX2                !
 ! D244  D(38,52,53,93)       -179.6184         estimate D2E/DX2                !
 ! D245  D(92,52,53,35)        178.7478         estimate D2E/DX2                !
 ! D246  D(92,52,53,93)         -0.2516         estimate D2E/DX2                !
 ! D247  D(34,54,55,56)       -179.2426         estimate D2E/DX2                !
 ! D248  D(34,54,55,60)          0.6886         estimate D2E/DX2                !
 ! D249  D(94,54,55,56)          1.2374         estimate D2E/DX2                !
 ! D250  D(94,54,55,60)       -178.8313         estimate D2E/DX2                !
 ! D251  D(54,55,56,57)        179.5991         estimate D2E/DX2                !
 ! D252  D(54,55,56,95)         -0.1819         estimate D2E/DX2                !
 ! D253  D(60,55,56,57)         -0.3322         estimate D2E/DX2                !
 ! D254  D(60,55,56,95)        179.8868         estimate D2E/DX2                !
 ! D255  D(54,55,60,31)          0.1889         estimate D2E/DX2                !
 ! D256  D(54,55,60,59)       -179.0067         estimate D2E/DX2                !
 ! D257  D(56,55,60,31)       -179.8798         estimate D2E/DX2                !
 ! D258  D(56,55,60,59)          0.9246         estimate D2E/DX2                !
 ! D259  D(55,56,57,58)         -0.3776         estimate D2E/DX2                !
 ! D260  D(55,56,57,96)        179.994          estimate D2E/DX2                !
 ! D261  D(95,56,57,58)        179.407          estimate D2E/DX2                !
 ! D262  D(95,56,57,96)         -0.2214         estimate D2E/DX2                !
 ! D263  D(56,57,58,59)          0.48           estimate D2E/DX2                !
 ! D264  D(56,57,58,97)       -179.2559         estimate D2E/DX2                !
 ! D265  D(96,57,58,59)       -179.8912         estimate D2E/DX2                !
 ! D266  D(96,57,58,97)          0.3729         estimate D2E/DX2                !
 ! D267  D(57,58,59,60)          0.132          estimate D2E/DX2                !
 ! D268  D(57,58,59,98)       -179.4752         estimate D2E/DX2                !
 ! D269  D(97,58,59,60)        179.8675         estimate D2E/DX2                !
 ! D270  D(97,58,59,98)          0.2603         estimate D2E/DX2                !
 ! D271  D(58,59,60,31)        179.9985         estimate D2E/DX2                !
 ! D272  D(58,59,60,55)         -0.8278         estimate D2E/DX2                !
 ! D273  D(98,59,60,31)         -0.4081         estimate D2E/DX2                !
 ! D274  D(98,59,60,55)        178.7656         estimate D2E/DX2                !
 --------------------------------------------------------------------------------
 Trust Radius=3.00D-01 FncErr=1.00D-07 GrdErr=1.00D-06 EigMax=2.50D+02 EigMin=1.00D-04
 Number of steps in this run=    570 maximum allowed number of steps=    594.
 GradGradGradGradGradGradGradGradGradGradGradGradGradGradGradGradGradGrad

 Leave Link  103 at Fri Feb  7 22:52:09 2025, MaxMem= 13421772800 cpu:               0.3 elap:               0.0
 (Enter /public/software/apps/Gaussian/g16/l202.exe)
 Symmetry turned off by external request.
 Stoichiometry    C56H38CuN2O2(2)
 Framework group  C1[X(C56H38CuN2O2)]
 Deg. of freedom   291
 Full point group                 C1      NOp   1
                          Input orientation:                          
 ---------------------------------------------------------------------
 Center     Atomic      Atomic             Coordinates (Angstroms)
 Number     Number       Type             X           Y           Z
 ---------------------------------------------------------------------
      1          8           0       -1.331147    0.708176    1.156066
      2          6           0       -1.516724   -0.190615    2.204315
      3          6           0       -2.610166   -1.076629    2.186513
      4          6           0       -3.625878   -1.015780    1.108123
      5          6           0       -4.011681   -2.182240    0.426935
      6          6           0       -4.981975   -2.126608   -0.577849
      7          6           0       -5.589367   -0.905401   -0.915135
      8          7           0       -6.598194   -0.848893   -1.947767
      9          6           0       -7.626951   -1.861700   -2.009749
     10          6           0       -8.238386   -2.330096   -0.832437
     11          6           0       -9.239472   -3.304023   -0.894492
     12          6           0       -9.639198   -3.819996   -2.129951
     13          6           0       -9.038021   -3.362955   -3.305175
     14          6           0       -8.034480   -2.391021   -3.247830
     15          6           0       -6.585343    0.229784   -2.908590
     16          6           0       -7.782353    0.867855   -3.282305
     17          6           0       -7.765014    1.912835   -4.211183
     18          6           0       -6.555517    2.334093   -4.769534
     19          6           0       -5.361336    1.709124   -4.402831
     20          6           0       -5.373716    0.661768   -3.477442
     21          6           0       -5.205345    0.259490   -0.230720
     22          6           0       -4.235089    0.204717    0.772934
     23          6           0       -2.742774   -2.027335    3.208157
     24          6           0       -1.805306   -2.099351    4.245792
     25          6           0       -1.945764   -3.068057    5.252547
     26          6           0       -1.009425   -3.152336    6.284133
     27          6           0        0.073949   -2.274760    6.319941
     28          6           0        0.225708   -1.303110    5.328570
     29          6           0       -0.714270   -1.193986    4.281049
     30          6           0       -0.587840   -0.218776    3.260506
     31          6           0        0.523271    0.770474    3.257966
     32          6           0        1.548546    0.628328    2.305445
     33          8           0        1.462246   -0.387696    1.356140
     34          6           0        2.640988    1.514792    2.289286
     35          6           0        3.753323    1.337887    1.325747
     36          6           0        4.398218    0.096134    1.204291
     37          6           0        5.455746   -0.067132    0.306547
     38          6           0        5.887369    1.007428   -0.489141
     39          7           0        6.978972    0.836582   -1.419968
     40          6           0        7.072689   -0.370611   -2.208846
     41          6           0        5.924233   -0.927996   -2.800788
     42          6           0        6.017428   -2.099269   -3.559120
     43          6           0        7.254377   -2.725109   -3.732543
     44          6           0        8.400986   -2.180690   -3.148815
     45          6           0        8.313356   -1.008517   -2.391692
     46          6           0        7.983752    1.866224   -1.554591
     47          6           0        8.460970    2.234073   -2.825690
     48          6           0        9.438476    3.225304   -2.954143
     49          6           0        9.945861    3.860104   -1.817981
     50          6           0        9.477188    3.504903   -0.550786
     51          6           0        8.501571    2.512337   -0.417201
     52          6           0        5.243542    2.250202   -0.365237
     53          6           0        4.190404    2.415575    0.538628
     54          6           0        2.679465    2.577280    3.202705
     55          6           0        1.648402    2.759918    4.132646
     56          6           0        1.695863    3.839170    5.029637
     57          6           0        0.667964    4.032348    5.953510
     58          6           0       -0.417773    3.158036    5.986172
     59          6           0       -0.479463    2.078370    5.102476
     60          6           0        0.555587    1.856469    4.168156
     61          1           0       -3.554118   -3.134391    0.667279
     62          1           0       -5.254138   -3.035068   -1.100259
     63          1           0       -7.948011   -1.932379    0.131575
     64          1           0       -9.706613   -3.657656    0.015941
     65          1           0      -10.416522   -4.571510   -2.177397
     66          1           0       -9.347128   -3.764496   -4.261622
     67          1           0       -7.569045   -2.057390   -4.166549
     68          1           0       -8.725604    0.561486   -2.847523
     69          1           0       -8.689157    2.399528   -4.494767
     70          1           0       -6.543140    3.145138   -5.486094
     71          1           0       -4.425387    2.037175   -4.835709
     72          1           0       -4.441455    0.180019   -3.211064
     73          1           0       -5.669757    1.209160   -0.464271
     74          1           0       -3.975137    1.112562    1.303315
     75          1           0       -3.586228   -2.708764    3.197710
     76          1           0       -2.776941   -3.763240    5.238751
     77          1           0       -1.121272   -3.903064    7.055700
     78          1           0        0.802033   -2.349096    7.117571
     79          1           0        1.084529   -0.647478    5.386109
     80          1           0        4.093831   -0.743915    1.816268
     81          1           0        5.946723   -1.029976    0.239168
     82          1           0        4.959987   -0.450546   -2.682029
     83          1           0        5.130405   -2.520496   -4.014382
     84          1           0        7.324358   -3.632104   -4.319294
     85          1           0        9.358351   -2.667528   -3.282735
     86          1           0        9.209461   -0.603426   -1.938345
     87          1           0        8.069312    1.758577   -3.716244
     88          1           0        9.801341    3.502896   -3.935531
     89          1           0       10.702778    4.627113   -1.919529
     90          1           0        9.874884    3.995154    0.328634
     91          1           0        8.155664    2.240716    0.571566
     92          1           0        5.551452    3.088704   -0.977194
     93          1           0        3.705316    3.381024    0.612192
     94          1           0        3.522055    3.260264    3.192749
     95          1           0        2.526269    4.535063    5.013555
     96          1           0        0.709766    4.865751    6.642523
     97          1           0       -1.217718    3.320175    6.696966
     98          1           0       -1.343031    1.428071    5.154077
     99         29           0        0.014214   -0.191692    0.045455
 ---------------------------------------------------------------------
 Rotational constants (GHZ):           0.0477848           0.0177244           0.0150939
 Leave Link  202 at Fri Feb  7 22:52:09 2025, MaxMem= 13421772800 cpu:               0.2 elap:               0.0
 (Enter /public/software/apps/Gaussian/g16/l301.exe)
 Standard basis: def2SVPP (5D, 7F)
 Ernie: Thresh=  0.10000D-02 Tol=  0.10000D-05 Strict=F.
   940 basis functions,  1723 primitive gaussians,  1002 cartesian basis functions
   217 alpha electrons      216 beta electrons
       nuclear repulsion energy      8265.9330237676 Hartrees.
 IExCor=  402 DFT=T Ex+Corr=B3LYP ExCW=0 ScaHFX=  0.200000
 ScaDFX=  0.800000  0.720000  1.000000  0.810000 ScalE2=  1.000000  1.000000
 IRadAn=      5 IRanWt=     -1 IRanGd=            0 ICorTp=0 IEmpDi=141
 NAtoms=   99 NActive=   99 NUniq=   99 SFac= 1.00D+00 NAtFMM=   60 NAOKFM=T Big=T
 Integral buffers will be    131072 words long.
 Raffenetti 2 integral format.
 Two-electron integral symmetry is turned off.
 R6Disp:  Grimme-D3(BJ) Dispersion energy=       -0.2744348792 Hartrees.
 Nuclear repulsion after empirical dispersion term =     8265.6585888884 Hartrees.
 Leave Link  301 at Fri Feb  7 22:52:09 2025, MaxMem= 13421772800 cpu:               1.5 elap:               0.1
 (Enter /public/software/apps/Gaussian/g16/l302.exe)
 NPDir=0 NMtPBC=     1 NCelOv=     1 NCel=       1 NClECP=     1 NCelD=      1
         NCelK=      1 NCelE2=     1 NClLst=     1 CellRange=     0.0.
 One-electron integrals computed using PRISM.
   1 Symmetry operations used in ECPInt.
 ECPInt:  NShTT=   99681 NPrTT=  406384 LenC2=   61554 LenP2D=  146640.
 LDataN:  DoStor=T MaxTD1= 4 Len=   56
 NBasis=   940 RedAO= T EigKep=  1.66D-04  NBF=   940
 NBsUse=   940 1.00D-06 EigRej= -1.00D+00 NBFU=   940
 Precomputing XC quadrature grid using
 IXCGrd= 4 IRadAn=           5 IRanWt=          -1 IRanGd=           0 AccXCQ= 0.00D+00.
 Generated NRdTot=       0 NPtTot=           0 NUsed=           0 NTot=          32
 NSgBfM=   920   920   920   920   920 MxSgAt=    99 MxSgA2=    99.
 Leave Link  302 at Fri Feb  7 22:52:11 2025, MaxMem= 13421772800 cpu:              53.2 elap:               1.7
 (Enter /public/software/apps/Gaussian/g16/l303.exe)
 DipDrv:  MaxL=1.
 Leave Link  303 at Fri Feb  7 22:52:11 2025, MaxMem= 13421772800 cpu:               5.0 elap:               0.2
 (Enter /public/software/apps/Gaussian/g16/l401.exe)
 ExpMin= 3.30D-02 ExpMax= 7.64D+04 ExpMxC= 1.15D+04 IAcc=3 IRadAn=         5 AccDes= 0.00D+00
 Harris functional with IExCor=  402 and IRadAn=       5 diagonalized for initial guess.
 HarFok:  IExCor=  402 AccDes= 0.00D+00 IRadAn=         5 IDoV= 1 UseB2=F ITyADJ=14
 ICtDFT=  3500011 ScaDFX=  1.000000  1.000000  1.000000  1.000000
 FoFCou: FMM=F IPFlag=           0 FMFlag=      100000 FMFlg1=        2001
         NFxFlg=           0 DoJE=T BraDBF=F KetDBF=T FulRan=T
         wScrn=  0.000000 ICntrl=       500 IOpCl=  0 I1Cent=   200000004 NGrid=           0
         NMat0=    1 NMatS0=      1 NMatT0=    0 NMatD0=    1 NMtDS0=    0 NMtDT0=    0
 Symmetry not used in FoFCou.
 Harris En= -4055.76934433060    
 JPrj=0 DoOrth=F DoCkMO=F.
 Initial guess <Sx>= 0.0000 <Sy>= 0.0000 <Sz>= 0.5000 <S**2>= 0.7500 S= 0.5000
 Leave Link  401 at Fri Feb  7 22:52:14 2025, MaxMem= 13421772800 cpu:              96.7 elap:               3.1
 (Enter /public/software/apps/Gaussian/g16/l502.exe)
 Two-electron integral symmetry not used.
 UHF open shell SCF:
 Using DIIS extrapolation, IDIIS=  1040.
 NGot= 13421772800 LenX= 13419722404 LenY= 13418717398
 Requested convergence on RMS density matrix=1.00D-08 within 128 cycles.
 Requested convergence on MAX density matrix=1.00D-06.
 Requested convergence on             energy=1.00D-06.
 No special actions if energy rises.
 Fock matrices will be formed incrementally for  20 cycles.

 Cycle   1  Pass 1  IDiag  1:
 FoFJK:  IHMeth= 1 ICntrl=       0 DoSepK=F KAlg= 0 I1Cent=           0 FoldK=F
 IRaf= 670000000 NMat=       1 IRICut=       1 DoRegI=T DoRafI=F ISym2E= 0 IDoP0=0 IntGTp=1.
 FoFCou: FMM=T IPFlag=           0 FMFlag=      100000 FMFlg1=        2001
         NFxFlg=           0 DoJE=F BraDBF=F KetDBF=F FulRan=T
         wScrn=  0.000000 ICntrl=         0 IOpCl=  1 I1Cent=           0 NGrid=           0
         NMat0=    1 NMatS0=      1 NMatT0=    0 NMatD0=    1 NMtDS0=    0 NMtDT0=    0
[...]
 0.00000236,0.00003836,-0.00000057,-0.00002692,-0.00001390,0.00000595,0
 .00000460,0.00000585,-0.00000198,-0.00000420,-0.00000294,-0.00000157,0
 .00000280,0.00000270,0.00000088,-0.00000156,-0.00000036,-0.00000193,0.
 00000369,0.00000514,0.00001624,0.00002605,-0.00000113,-0.00000571,-0.0
 0000318,0.00000179,0.00000099,0.00000106,-0.00000103,-0.00000298,-0.00
 000247,0.00000154,0.00000300,0.00000294,0.00000120,-0.00000475,-0.0000
 0520,-0.00000571,-0.00000125,0.00000534,0.00001709,0.00000134,0.000013
 35,-0.00000847,0.00036084,0.00007709,-0.00040580,-0.00020895,0.0020312
 0,-0.00220496,0.00102119,-0.00033086,-0.00045264,-0.00125815,0.0003164
 6,-0.00597495,-0.01981151,-0.00865980,0.00045128,-0.14223109,-0.152393
 18,-0.00876791,0.00440133,0.00676922,-0.00022030,-0.00000419,-0.000011
 63,-0.00000104,-0.00000068,-0.00000016,0.00000184,-0.00000106,0.000001
 08,-0.00000004,0.00000012,0.00000111,0.00000002,-0.00000070,0.00000007
 ,-0.00000009,-0.00000055,-0.00000005,-0.00000066,-0.00000017,0.0000006
 0,-0.00000034,0.00000079,0.00000100,0.00000073,0.00000022,0.00000049,0
 .00000078,0.00000003,0.00000079,0.00000036,0.00000047,0.00000112,0.000
 00022,-0.00000010,0.00000089,0.00000106,0.00000354,0.00000040,0.000007
 00,0.00000343,-0.00000122,0.00001370,0.00001395,0.00000319,0.00000305,
 0.00000335,0.00001114,-0.00000272,-0.00000187,0.00001531,-0.00000483,0
 .00000640,-0.00000492,-0.00001200,0.00000653,0.00002757,0.00005461,0.0
 0001582,-0.00001028,-0.00000366,-0.00000077,0.00000235,0.00000150,-0.0
 0000149,0.00000159,-0.00000338,0.00000112,0.00000039,-0.00000007,-0.00
 000011,0.00000143,0.00000054,-0.00000099,0.00000105,0.00000018,0.00000
 057,-0.00000025,-0.00000075,0.00000064,0.00000057,-0.00000036,-0.00000
 073,-0.00000081,0.00000121,-0.00000088,-0.00000101,0.00000003,0.,-0.00
 000011,-0.00000083,0.00000211,-0.00000072,0.00000202,-0.00000248,-0.00
 000230,0.00000151,-0.00000306,-0.00000333,-0.00000644,0.00004766,0.000
 01938,-0.00010328,0.00019746,-0.00037697,0.00043810,-0.00083572,-0.000
 49593,0.00006460,0.00172010,-0.00104486,0.00247722,0.15487085,0.158379
 51,-0.00028531,0.00077942,-0.00092958,0.00077778,-0.00082776,0.0005374
 6,0.00014339,0.00039561,-0.00000428,0.00001037,0.00002246,0.00000679,-
 0.00000053,-0.00000061,0.00001269,-0.00000070,0.00001030,-0.00001455,0
 .00002554,-0.00000553,0.00001818,-0.00002049,0.00000918,-0.00003561,0.
 00000084,0.00001208,0.00000109,-0.00000107,-0.00000146,0.00000495,0.00
 000084,0.00000219,0.00000159,-0.00000003,-0.00000017,-0.00000178,0.000
 00049,0.00000016,-0.00000067,-0.00000197,-0.00000060,-0.00000246,-0.00
 000336,-0.00002511,0.00002257,-0.00000435,0.00000363,-0.00000733,-0.00
 000119,-0.00000179,0.00000256,0.00000062,0.00000322,-0.00000327,-0.000
 00246,-0.00000363,0.00000455,0.00000960,0.00000589,-0.00000499,-0.0000
 0369,-0.00000196,0.00000224,-0.00001432,-0.00000860,-0.00000965,0.0003
 2972,-0.00021441,0.00047542,-0.00016603,0.00006443,-0.00025449,0.00018
 274,-0.00012577,0.00032182,-0.00021719,-0.00009110,-0.00012114,-0.0000
 3156,0.00006844,-0.00022056,-0.00007503,0.00006850,0.00006403,0.000077
 53,-0.00060453,0.00032720,-0.00049721,-0.00100566,-0.00149637,-0.00187
 340,0.00089992,0.00002036,0.00056825,-0.00011364,-0.00068758,-0.000244
 96,0.00058687,0.00070746,0.00026819,0.00036994,-0.00018661,-0.00008423
 ,-0.00004394,0.00009151,0.00003137,-0.00001384,-0.00005923,-0.00005848
 ,-0.00006188,-0.00000267,0.00010776,-0.00004107,-0.00009237,-0.0001071
 0,0.00001350,0.00009148,0.00000193,-0.00005797,-0.00002523,0.00000499,
 0.00000756,0.00001219,-0.00000699,-0.00000415,-0.00000561,-0.00000299,
 0.00000792,0.00000685,0.00000556,-0.00000194,0.00000156,0.00000297,0.0
 0000903,0.00000798,0.00003725,0.00005407,-0.00000211,-0.00000839,-0.00
 000808,-0.00000450,-0.00000216,0.00000129,-0.00000707,-0.00000901,-0.0
 0000732,0.00000484,0.00000664,0.00000621,0.00000557,-0.00001706,-0.000
 00910,-0.00000292,-0.00005378,0.00005982,0.00007287,0.00007795,0.00006
 464,-0.00003745,0.00084652,0.00069937,0.00003298,0.00337973,-0.0033199
 1,-0.00032379,0.00028879,-0.00001652,-0.00072698,0.00278470,-0.0056656
 4,0.00114937,-0.01694908,-0.01344220,0.00397745,0.00450080,-0.00871788
 ,-0.04782480,0.01602643,0.01250244,0.00393108,-0.00000530,0.00000249,0
 .00000478,-0.00000098,-0.00000162,-0.00000006,0.00000053,-0.00000134,-
 0.00000023,0.00000131,0.00000040,-0.00000027,0.00000011,-0.00000030,0.
 00000023,-0.00000016,-0.00000051,-0.00000049,0.00000046,-0.00000039,-0
 .00000051,0.00000096,-0.00000035,0.00000044,-0.00000034,0.00000032,-0.
 00000008,-0.00000051,0.00000072,-0.00000099,0.00000124,-0.00000004,-0.
 00000131,-0.00000206,0.00000024,0.00000290,-0.00000388,0.00000152,-0.0
 0000156,0.00002849,-0.00001467,-0.00000909,0.00000120,-0.00001319,-0.0
 0000399,-0.00000462,-0.00000278,-0.00000528,-0.00000822,0.00000857,0.0
 0000498,-0.00000195,0.00001694,0.00001047,-0.00001669,-0.00004586,0.00
 001852,0.00004733,-0.00003039,0.00002250,0.00000243,0.00000446,0.00000
 459,-0.00000240,0.00000304,-0.00000642,0.00000305,0.00000072,0.0000006
 1,-0.00000034,0.00000306,0.00000228,-0.00000319,0.00000250,0.00000158,
 0.00000054,-0.00000192,-0.00000074,0.00000150,0.00000156,-0.00000135,-
 0.00000201,-0.00000208,0.00000272,-0.00000198,-0.00000289,0.00000020,-
 0.00000176,-0.00000169,-0.00000287,0.00000545,-0.00000253,0.00000455,-
 0.00000594,-0.00000328,-0.00000065,-0.00000153,-0.00001111,0.00000140,
 0.00029917,-0.00012588,-0.00010781,-0.00034740,0.00046965,-0.00042559,
 -0.00068459,-0.00060770,0.00008784,-0.00161621,0.00275169,-0.00166791,
 -0.00741563,0.01533910,0.04310853,-0.06497007,0.03523369,0.03019182,-0
 .00687991,-0.01560732,0.02579707,0.00342352,0.00293391,-0.00102803,-0.
 00096895,0.00003006,-0.00081304,0.00043691,0.00007495,-0.00006010,-0.0
 0005991,0.00027020,-0.00020762,0.00001722,-0.00007478,0.00009136,0.000
 00322,0.00008305,-0.00006612,-0.00009947,-0.00008816,0.00002780,-0.000
 00163,0.00002812,-0.00007568,-0.00001457,-0.00001901,-0.00000440,0.000
 00088,-0.00000035,-0.00000781,-0.00003109,-0.00001112,0.00002353,0.000
 04928,0.00000811,0.00005712,0.00001601,-0.00000247,0.00001872,0.000045
 19,0.00000748,0.00001943,0.00002939,0.00000070,-0.00000999,0.00000639,
 0.00001150,-0.00001295,0.00001492,0.00003409,-0.00001373,-0.00008481,0
 .00002136,-0.00002717,-0.00022835,-0.00005450,-0.00019276,0.00005945,-
 0.00055236,0.00019769,0.00104169,-0.00079000,0.00203653,0.00019317,0.0
 0112926,-0.00122077,0.00071566,-0.00072681,0.00144724,-0.00066477,-0.0
 0009799,-0.00046928,-0.00041168,-0.00017500,-0.00016941,-0.00049929,0.
 00037286,-0.00089077,-0.00132185,-0.00196121,0.00211618,-0.00204857,0.
 00329780,-0.00704129,-0.00220225,0.00364073,0.00616995,-0.00362155,-0.
 01682315,-0.02136783,-0.05878716,0.02914757,-0.03812876,0.00304922,0.0
 0270205,0.00072932,-0.00096851,0.00008238,0.00067892,0.00006377,-0.000
 49328,-0.00013166,-0.00024883,-0.00006229,0.00016216,0.00006249,-0.000
 12159,-0.00010239,-0.00003776,0.00010896,0.00010165,0.00001523,-0.0000
 4577,-0.00004817,-0.00008575,0.00003780,0.00002678,0.00000841,0.000032
 31,0.00000504,0.00000808,0.00001945,0.00001898,0.00003017,-0.00000192,
 0.00000996,0.00004766,0.00001171,-0.00000593,-0.00009497,-0.00007688,-
 0.00002615,0.00005436,-0.00000044,-0.00005704,-0.00003170,-0.00001541,
 -0.00002664,-0.00000170,-0.00000148,0.00001149,-0.00001228,-0.00001525
 ,0.00000666,-0.00001291,0.00003572,0.00006964,-0.00010466,0.00031028,0
 .00020393,0.00045485,0.00010750,0.00008290,0.00102806,-0.00089320,-0.0
 0154368,0.00012888,0.00109309,0.00092156,0.00071272,-0.00073557,-0.001
 06569,-0.00053387,-0.00001274,0.00033426,-0.00040332,-0.00023167,0.000
 10811,-0.00054302,0.00049740,0.00072961,-0.00105477,-0.00194782,-0.001
 77104,-0.00003834,0.00001127,0.00004381,-0.00002720,0.00001902,0.00003
 670,-0.00000897,-0.00000631,0.00001545,-0.00000089,-0.00000338,0.00000
 061,0.00000231,0.00000079,0.00000095,-0.00000276,0.00000178,-0.0000001
 1,-0.00000392,0.00000170,-0.00000583,0.00000426,-0.00000995,-0.0000036
 7,0.00000212,-0.00000171,-0.00000299,0.00000425,-0.00000567,0.00000209
 ,0.00000231,0.00000575,-0.00001710,0.00001799,-0.00001893,-0.00000640,
 0.00000496,-0.00000932,-0.00001555,-0.00012535,0.00018130,-0.00001461,
 0.00000042,0.00015728,-0.00010850,-0.00002461,-0.00002572,0.00001438,-
 0.00001200,0.00000303,0.00000328,0.00004024,0.00000564,-0.00000680,0.0
 0002877,-0.00002321,0.00001463,-0.00010427,0.00013448,0.00000098,-0.00
 000255,-0.00000315,0.00001299,0.00000924,-0.00002264,0.00000765,0.0000
 0176,0.00001128,0.00002207,0.00000420,-0.00000527,-0.00000073,0.000002
 25,-0.00000049,0.00000369,0.00000597,-0.00001051,0.00000494,-0.0000044
 1,0.00000247,0.00000598,-0.00000375,0.00000126,0.00000035,0.00000205,0
 .,-0.00000058,-0.00000105,-0.00000354,-0.00000074,-0.00000560,-0.00000
 945,-0.00001357,-0.00002928,0.00001245,-0.00004220,-0.00003257,0.00000
 385,-0.00005188,-0.00000963,0.00014820,0.00006976,-0.00002510,-0.00002
 312,-0.00001449,-0.00001141,0.00000553,-0.00001038,0.00003756,0.000000
 93,0.00001051,0.00002366,-0.00001369,-0.00002122,0.13559247,0.02680926
 ,-0.01183245,-0.01547654,-0.00225665,0.00336506,-0.00154981,-0.0011253
 7,-0.00152214,0.00199719,0.00025147,-0.00013961,-0.00001163,0.00018521
 ,0.00002222,-0.00008356,-0.00009852,-0.00008858,-0.00019897,-0.0000644
 5,-0.00004590,-0.00002001,0.00001141,-0.00008415,0.00007665,0.00002543
 ,-0.00000296,-0.00000272,-0.00000185,-0.00000480,-0.00000337,0.0000048
 2,-0.00000371,-0.00000026,-0.00000240,-0.00000976,-0.00000428,-0.00000
 318,-0.00000872,0.00000587,0.00000605,-0.00001228,0.00000999,0.0000224
 1,0.00007579,-0.00006905,0.00002026,-0.00001071,0.00001342,0.00000637,
 -0.00000559,-0.00000516,0.00000188,-0.00003483,0.00001319,0.00003093,-
 0.00000713,-0.00004241,-0.00009603,-0.00001896,-0.00002616,0.00002792,
 -0.00007749,0.00009229,-0.00003738,0.00038052,-0.00005174,-0.00039372,
 -0.00028466,-0.00040331,0.00001438,-0.00027799,0.00020201,-0.00001057,
 0.00007364,-0.00014641,0.00007070,-0.00005705,0.00011113,0.00003599,-0
 .00007361,-0.00000680,0.00005456,-0.00008976,0.00013817,0.00040757,0.0
 0036433,-0.00007682,0.00006361,-0.00050733,0.00188662,-0.00036936,-0.0
 0009893,-0.00150995,-0.00377958,0.00109259,-0.00295635,0.02081062,-0.0
 0718465,0.01668718,-0.00056737,-0.00128054,-0.00156858,0.00016557,-0.0
 0008199,0.00010384,-0.00002788,0.00027981,0.00000074,0.00004050,-0.000
 04692,-0.00006178,-0.00011546,0.00000452,0.00004893,0.00006497,-0.0001
 1759,-0.00012530,0.00001977,0.00013804,0.00010320,-0.00009903,-0.00003
 387,0.00000566,0.00003365,0.00000237,0.00005316,-0.00000099,-0.0000446
 2,-0.00001783,0.00000337,0.00000026,0.00000972,0.00002002,-0.00002093,
 -0.00002343,0.00002179,-0.00002104,0.00000516,0.00000682,-0.00001093,-
 0.00000220,0.00000109,-0.00000740,-0.00000279,-0.00000047,-0.00000645,
 0.00000029,0.00000093,-0.00000780,-0.00000056,0.00000388,-0.00000268,0
 .00000599,-0.00007969,-0.00008719,0.00014857,0.00014352,0.00000120,0.0
 0010499,-0.00017829,-0.00041421,0.00001694,-0.00002211,-0.00006146,0.0
 0005976,0.00014598,-0.00012203,-0.00015355,-0.00015124,-0.00011210,0.0
 0001477,0.00000493,0.00003171,0.00007856,0.00002347,-0.00013656,-0.000
 03804,0.00028491,0.00002522,-0.00020837,-0.00005729,-0.00008136,0.0000
 8047,-0.00004100,-0.00000546,0.00001101,-0.00000394,0.00000557,-0.0000
 0117,-0.00000336,0.00000324,0.00000014,-0.00000392,0.00000258,-0.00000
 089,-0.00000599,0.00000186,-0.00000299,-0.00000608,0.00001163,-0.00000
 303,0.00000062,0.00000489,0.00000436,0.00000198,0.00000242,0.00000452,
 0.00000890,0.00000227,0.00001430,-0.00000909,0.00002645,0.00002674,0.0
 0000098,0.00004217,0.00000458,0.00004298,-0.00000286,0.00002521,0.0001
 0339,-0.00011608,-0.00011471,-0.00005725,-0.00007871,0.00014333,-0.000
 01879,0.00000542,0.00000725,-0.00000873,0.00001505,0.00001464,-0.00000
 505,0.00000241,0.00001931,-0.00001553,0.00003132,0.00003262,0.00006599
 ,-0.00003821,0.00011148,0.00005277,-0.00001117,-0.00001559,0.00000850,
 0.00004718,-0.00000169,-0.00000776,0.00001838,-0.00003776,0.00001035,-
 0.00000019,-0.00001391,0.00000180,0.00000077,-0.00000502,-0.00000186,0
 .00000578,-0.00000446,-0.00000624,0.00001175,-0.00000007,-0.00000486,0
 .00000285,0.00000125,-0.00000353,0.00000352,-0.00000012,-0.00000308,0.
 00000331,-0.00000027,-0.00000660,0.00000734,-0.00000227,-0.00003210,-0
 .00000442,-0.00001220,-0.00005390,-0.00008888,-0.00007037,-0.00004248,
 -0.00006738,-0.00011216,-0.00001560,-0.00000137,-0.00000776,-0.0000076
 4,0.00000916,-0.00000938,-0.00000072,0.00000780,-0.00002101,-0.0000038
 5,0.00001230,-0.00002076,-0.04023644,0.01945147,0.03510333,-0.02186608
 ,-0.01223493,0.01446258,0.01541793,-0.03215514,-0.00325442,-0.00338459
 ,0.00269790,0.00060728,-0.00038692,0.00050538,0.00027749,0.00028020,0.
 00006799,-0.00026847,0.00015646,-0.00045439,0.00039702,-0.00036594,0.0
 0033970,-0.00035204,0.00015220,-0.00057560,0.00002356,0.00015248,-0.00
 001671,-0.00005289,-0.00001131,0.00001347,0.00003258,0.00003289,-0.000
 01568,-0.00001627,-0.00002724,-0.00003959,-0.00003419,-0.00001373,0.00
 001847,-0.00000345,-0.00001334,0.00004991,-0.00005999,-0.00041919,0.00
 040758,0.00002131,0.00006060,-0.00011894,0.00001863,-0.00003954,0.0000
 3503,0.00003892,0.00006457,-0.00008372,-0.00006583,-0.00002731,0.00006
 547,0.00002331,0.00013962,-0.00013064,-0.00006666,-0.00032010,0.000167
 84,-0.00009409,0.00081141,-0.00009284,-0.00172618,0.00106002,-0.003391
 04,0.00026299,-0.00168830,0.00206316,-0.00114777,0.00142704,-0.0026476
 0,0.00180440,0.00047088,0.00102119,0.00018305,-0.00079824,0.00060943,0
 .00027350,0.00035984,0.00064282,0.00110855,0.00252078,-0.00246480,0.00
 462455,-0.00477013,0.00305956,-0.00506636,0.00547215,0.00279282,-0.011
 67498,-0.02110499,-0.03317660,-0.04198465,0.02382922,-0.02358763,0.003
 40284,0.00413910,0.00283343,-0.00076257,0.00046546,0.00045019,0.000107
 44,-0.00090524,0.00000719,0.00002615,0.00034225,0.00015802,-0.00040772
 ,0.00039616,0.00024194,0.00039391,-0.00019705,-0.00049874,0.00002554,0
 .00044857,0.00034457,-0.00000843,-0.00014819,-0.00011371,0.00005727,0.
 00003795,0.00006219,-0.00003114,-0.00006786,-0.00007543,-0.00001929,0.
 00004359,0.00002814,-0.00000918,-0.00007156,-0.00011105,-0.00003452,-0
 .00015925,-0.00000348,0.00000296,0.00002070,0.00004371,0.00002985,0.00
 001567,0.00001804,0.00002027,0.00002321,-0.00004036,-0.00003281,-0.000
 03540,-0.00001415,0.00005046,0.00001655,0.00002251,0.00031102,-0.00017
 267,-0.00040958,-0.00026402,-0.00026445,0.00007070,0.00215356,-0.00149
 794,-0.00324657,-0.00042613,0.00205200,0.00190715,0.00143371,-0.001800
 91,-0.00244606,-0.00194092,-0.00034527,0.00094323,-0.00027320,0.000848
 03,0.00049521,-0.00038815,-0.00022173,0.00073401,-0.00104042,-0.003015
 11,-0.00239355,0.00002269,-0.00000672,0.00003923,-0.00006354,-0.000018
 19,0.00001108,0.00002367,-0.00001677,-0.00001533,-0.00000218,-0.000000
 83,0.00000486,-0.00000309,-0.00000779,-0.00000204,-0.00001022,-0.00000
 672,-0.00000782,0.00000142,-0.00000086,-0.00000893,0.00002422,-0.00001
 211,0.00000655,0.00000537,0.00000861,-0.00000469,-0.00000156,0.0000056
 6,-0.00000419,0.00001794,0.00003012,-0.00006724,-0.00006371,-0.0000457
 5,0.00006042,-0.00007014,0.00005011,0.00002735,0.00021460,-0.00052660,
 -0.00011756,-0.00003142,-0.00019992,0.00021934,-0.00002116,0.00004819,
 0.00000672,-0.00000288,0.00004004,0.00005904,-0.00001893,-0.00006535,-
 0.00000508,-0.00008237,0.00013573,0.00011243,-0.00021987,0.00053065,-0
 .00021578,0.00006116,-0.00004560,0.00004316,0.00006096,0.00004572,0.00
 005901,-0.00001101,-0.00003948,-0.00005864,0.00000108,-0.00000665,-0.0
 0000180,-0.00000503,-0.00000937,-0.00000319,-0.00002405,0.00001125,0.0
 0000379,-0.00000022,-0.00000143,-0.00000861,0.00001133,0.00000558,-0.0
 0000781,0.00000401,0.00000716,-0.00000273,0.00000204,0.00000071,0.0000
 0495,-0.00002197,0.00001316,-0.00002052,0.00006436,0.00002150,0.000012
 40,-0.00002256,0.00002294,0.00004019,0.00001759,0.00024876,0.00021798,
 0.00002003,-0.00004947,0.00001424,-0.00000273,-0.00003350,0.00006434,0
 .00002344,0.00006419,-0.00000796,0.00007438,-0.00012505,0.00013705,0.0
 0425705,0.00281011,0.09703636\\-0.00001734,0.00001438,0.00000453,0.000
 01208,0.00000762,-0.00000993,-0.00001536,-0.00000858,-0.00000608,0.000
 00758,-0.00000043,0.00000596,0.00000089,0.00000088,0.00000565,-0.00000
 346,0.00000063,-0.00000597,0.00000576,-0.00000137,0.00000639,-0.000004
 90,-0.00000225,-0.00000627,-0.00000094,0.00000224,0.00000436,0.0000048
 2,0.00000124,-0.00000064,-0.00000230,-0.00000185,0.00000032,-0.0000009
 5,0.00000032,0.00000142,0.00000008,-0.00000076,-0.00000152,0.00000075,
 0.00000015,-0.00000106,-0.00000002,0.00000072,-0.00000270,0.00000068,-
 0.00000163,0.00000344,-0.00000051,0.00000203,-0.00000167,-0.00000060,-
 0.00000027,-0.00000032,0.00000200,0.00000060,-0.00000080,0.00000074,-0
 .00000054,0.00000280,0.,-0.00000043,0.00000110,-0.00000445,0.00000725,
 -0.00000618,0.00000029,-0.00000085,-0.00000271,0.00001120,0.00000257,0
 .00000703,-0.00000802,0.00000046,-0.00000765,0.00000595,0.00000085,0.0
 0000305,-0.00000363,-0.00000207,0.00000060,0.00000499,0.00000407,0.000
 00084,-0.00001043,-0.00000073,-0.00000847,0.00000542,-0.00000895,0.000
 01411,0.00000204,0.00000690,-0.00000032,-0.00001907,-0.00000563,-0.000
 00099,0.00002024,-0.00001228,0.00000142,0.00001312,0.00001127,-0.00000
 345,-0.00000413,-0.00000380,0.00000467,0.00000123,-0.00000225,-0.00000
 473,-0.00000143,-0.00000031,-0.00000010,-0.00000196,0.00000450,0.00000
 477,-0.00000160,-0.00000479,-0.00000430,0.00000146,-0.00000014,-0.0000
 0187,-0.00000084,0.00000075,0.00000345,-0.00000208,-0.00000099,-0.0000
 0089,0.00000072,0.00000023,0.00000006,0.00000077,-0.00000202,-0.000001
 65,-0.00000060,0.00000246,0.00000329,0.00000513,0.00000414,0.00000255,
 -0.00000262,-0.00000245,-0.00000026,0.00000140,0.00000107,-0.00000178,
 -0.00000046,-0.00000056,0.00000068,0.00000239,0.00000168,0.00000124,-0
 .00000404,-0.00000286,-0.00000087,0.00000392,-0.00000190,-0.00000603,-
 0.00000450,0.00000125,0.00000382,0.00000351,-0.00000270,-0.00000440,-0
 .00001468,-0.00000152,0.00000828,0.00000928,-0.00000234,-0.00000814,-0
 .00000921,-0.00000129,0.00000320,0.00000594,0.00000562,0.00000240,-0.0
 0000203,-0.00000675,-0.00000376,0.00000742,0.00000510,0.00000013,-0.00
 000232,-0.00000030,-0.00000292,0.00000029,0.00000005,0.00000156,-0.000
 00146,-0.00000098,0.00000001,0.00000058,0.00000040,-0.00000072,0.00000
 061,0.00000053,0.,0.00000029,0.00000061,0.00000083,-0.00000121,-0.0000
 0111,0.00000051,0.00000043,0.00000128,-0.00000147,0.00000088,-0.000000
 49,0.00000031,-0.00000015,-0.00000037,0.00000060,-0.00000102,-0.000000
 13,0.00000030,-0.00000037,0.00000052,-0.00000073,-0.00000036,-0.000000
 91,-0.00000069,-0.00000342,-0.00000325,0.00000055,0.00000124,0.0000009
 4,0.00000217,0.00000175,0.00000056,0.00000127,-0.00000026,0.00000120,-
 0.00000024,-0.00000025,-0.00000056,-0.00000065,-0.00000006,-0.00000061
 ,0.00000018,-0.00000003,0.00000081,0.00000101,0.00000048,0.00000037,-0
 .00000129,0.00000015,-0.00000037,0.00000005,0.00000095,0.,0.00000041,0
 .00000005,0.00000035,0.00000059,-0.00000086,0.00000038,0.00000018,-0.0
 0000019,-0.00000092,-0.00000086,0.00000076,0.00000039,0.00000040,-0.00
 000016,-0.00000037,0.00000099,-0.00000048,-0.00000055,-0.00000014,-0.0
 0000026,-0.00000025,-0.00000108,0.00000083,0.00000076,-0.00000036,-0.0
 0000054,0.00000026,0.00000166,0.00000218,-0.00000015,-0.00000195,-0.00
 000088,-0.00000038,0.00000095,-0.00000155,-0.00000041,0.00000095,0.000
 00054,-0.00000133,-0.00000015,-0.00000004,0.00000026,-0.00000116,-0.00
 000037,0.00000121,0.00000082,0.00000455,-0.00000314,0.00000208\\\@
 The archive entry for this job was punched.


 SACRED COWS MAKE GREAT HAMBURGERS -- ROBERT REISNER
 Job cpu time:       2 days  8 hours 15 minutes  0.5 seconds.
 Elapsed time:       0 days  1 hours 46 minutes  7.9 seconds.
 File lengths (MBytes):  RWF=  18961 Int=      0 D2E=      0 Chk=    103 Scr=      1
 Normal termination of Gaussian 16 at Sat Feb  8 01:37:44 2025.
