 Entering Gaussian System, Link 0=g16
 Initial command:
 /public/software/apps/Gaussian/g16/l1.exe "/tmp/Gau-12861.inp" -scrdir="/tmp/"
 Entering Link 1 = /public/software/apps/Gaussian/g16/l1.exe PID=     12862.
  
 Copyright (c) 1988-2019, Gaussian, Inc.  All Rights Reserved.
  
 This is part of the Gaussian(R) 16 program.  It is based on
 the Gaussian(R) 09 system (copyright 2009, Gaussian, Inc.),
 the Gaussian(R) 03 system (copyright 2003, Gaussian, Inc.),
 the Gaussian(R) 98 system (copyright 1998, Gaussian, Inc.),
 the Gaussian(R) 94 system (copyright 1995, Gaussian, Inc.),
 the Gaussian 92(TM) system (copyright 1992, Gaussian, Inc.),
 the Gaussian 90(TM) system (copyright 1990, Gaussian, Inc.),
 the Gaussian 88(TM) system (copyright 1988, Gaussian, Inc.),
 the Gaussian 86(TM) system (copyright 1986, Carnegie Mellon
 University), and the Gaussian 82(TM) system (copyright 1983,
 Carnegie Mellon University). Gaussian is a federally registered
 trademark of Gaussian, Inc.
  
 This software contains proprietary and confidential information,
 including trade secrets, belonging to Gaussian, Inc.
  
 This software is provided under written license and may be
 used, copied, transmitted, or stored only in accord with that
 written license.
  
 The following legend is applicable only to US Government
 contracts under FAR:
  
                    RESTRICTED RIGHTS LEGEND
  
 Use, reproduction and disclosure by the US Government is
 subject to restrictions as set forth in subparagraphs (a)
 and (c) of the Commercial Computer Software - Restricted
 Rights clause in FAR 52.227-19.
  
 Gaussian, Inc.
 340 Quinnipiac St., Bldg. 40, Wallingford CT 06492
  
  
 ---------------------------------------------------------------
 Warning -- This program may not be used in any manner that
 competes with the business of Gaussian, Inc. or will provide
 assistance to any competitor of Gaussian, Inc.  The licensee
 of this program is prohibited from giving any competitor of
 Gaussian, Inc. access to this program.  By using this program,
 the user acknowledges that Gaussian, Inc. is engaged in the
 business of creating and licensing software in the field of
 computational chemistry and represents and warrants to the
 licensee that it is not a competitor of Gaussian, Inc. and that
 it will not use this program in any manner prohibited above.
 ---------------------------------------------------------------
  

 Cite this work as:
 Gaussian 16, Revision C.01,
 M. J. Frisch, G. W. Trucks, H. B. Schlegel, G. E. Scuseria, 
 M. A. Robb, J. R. Cheeseman, G. Scalmani, V. Barone, 
 G. A. Petersson, H. Nakatsuji, X. Li, M. Caricato, A. V. Marenich, 
 J. Bloino, B. G. Janesko, R. Gomperts, B. Mennucci, H. P. Hratchian, 
 J. V. Ortiz, A. F. Izmaylov, J. L. Sonnenberg, D. Williams-Young, 
 F. Ding, F. Lipparini, F. Egidi, J. Goings, B. Peng, A. Petrone, 
 T. Henderson, D. Ranasinghe, V. G. Zakrzewski, J. Gao, N. Rega, 
 G. Zheng, W. Liang, M. Hada, M. Ehara, K. Toyota, R. Fukuda, 
 J. Hasegawa, M. Ishida, T. Nakajima, Y. Honda, O. Kitao, H. Nakai, 
 T. Vreven, K. Throssell, J. A. Montgomery, Jr., J. E. Peralta, 
 F. Ogliaro, M. J. Bearpark, J. J. Heyd, E. N. Brothers, K. N. Kudin, 
 V. N. Staroverov, T. A. Keith, R. Kobayashi, J. Normand, 
 K. Raghavachari, A. P. Rendell, J. C. Burant, S. S. Iyengar, 
 J. Tomasi, M. Cossi, J. M. Millam, M. Klene, C. Adamo, R. Cammi, 
 J. W. Ochterski, R. L. Martin, K. Morokuma, O. Farkas, 
 J. B. Foresman, and D. J. Fox, Gaussian, Inc., Wallingford CT, 2019.
 
 ******************************************
 Gaussian 16:  ES64L-G16RevC.01  3-Jul-2019
                 8-Feb-2025 
 ******************************************
 %nprocshared=32
 Will use up to   32 processors via shared memory.
 %mem=100GB
 ------------------------------------------
 #p opt freq b3lyp/def2svpp em=gd3bj nosymm
 ------------------------------------------
 1/18=20,19=15,26=3,38=1/1,3;
 2/9=110,12=2,15=1,17=6,18=5,40=1/2;
 3/5=43,7=202,11=2,25=1,30=1,71=1,74=-5,124=41/1,2,3;
 4//1;
 5/5=2,38=5/2;
 6/7=2,8=2,9=2,10=2,28=1/1;
 7/30=1/1,2,3,16;
 1/18=20,19=15,26=3/3(2);
 2/9=110,15=1/2;
 99//99;
 2/9=110,15=1/2;
 3/5=43,7=202,11=2,25=1,30=1,71=1,74=-5,124=41/1,2,3;
 4/5=5,16=3,69=1/1;
 5/5=2,38=5/2;
 7/30=1/1,2,3,16;
 1/18=20,19=15,26=3/3(-5);
 2/9=110,15=1/2;
 6/7=2,8=2,9=2,10=2,19=2,28=1/1;
 99/9=1/99;
 Leave Link    1 at Sat Feb  8 04:25:56 2025, MaxMem= 13421772800 cpu:               1.7 elap:               0.1
 (Enter /public/software/apps/Gaussian/g16/l101.exe)
 ------------------
 $$$$Title####0????
 ------------------
 Symbolic Z-matrix:
 Charge =  0 Multiplicity = 2
 C                    -7.71058  -2.82128  -1.25921 
 C                    -7.56137  -2.41201  -2.72965 
 C                    -8.43785  -3.30723  -3.61452 
 C                    -6.09573  -2.4669   -3.20357 
 O                    -5.29603  -1.48694  -2.53644 
 C                    -4.54362  -1.67382  -1.36365 
 C                    -4.38382  -2.92722  -0.7399 
 C                    -3.62492  -3.04033   0.42722 
 C                    -3.01418  -1.91459   0.98193 
 C                    -3.15228  -0.65949   0.36836 
 C                    -2.51607   0.54231   0.95978 
 C                    -3.28357   1.69585   1.17192 
 C                    -2.70989   2.847     1.72492 
 C                    -3.49198   3.99771   1.91651 
 C                    -2.92401   5.15374   2.45335 
 C                    -1.57289   5.17455   2.79803 
 C                    -0.78198   4.03787   2.61557 
 C                    -1.33924   2.85274   2.08818 
 C                    -0.56579   1.67935   1.89991 
 C                     0.86963   1.617     2.28819 
 C                     1.84067   1.56581   1.27065 
 O                     1.43352   1.56552  -0.0618 
 C                     3.21143   1.53106   1.58795 
 C                     4.24278   1.47622   0.5237 
 C                     5.31912   2.37718   0.53537 
 C                     6.29385   2.32273  -0.46227 
 C                     6.21039   1.36742  -1.47784 
 C                     5.14481   0.44541  -1.49852 
 O                     5.003    -0.54661  -2.48476 
 C                     5.92696  -0.84639  -3.5343 
 C                     6.89781  -1.97063  -3.12281 
 C                     7.7209   -2.42883  -4.33337 
 C                     7.83266  -1.54126  -1.98547 
 C                     4.16917   0.51086  -0.49527 
 C                     3.60793   1.5548    2.93224 
 C                     2.65704   1.57923   3.95961 
 C                     3.07335   1.57448   5.30082 
 C                     2.13145   1.57743   6.33031 
 C                     0.76907   1.57946   6.03283 
 C                     0.33866   1.58574   4.70428 
 C                     1.27411   1.59748   3.64686 
 C                    -1.15284   0.54491   1.30902 
 O                    -0.36492  -0.57395   1.04711 
 C                    -3.92294  -0.55073  -0.80196 
 H                    -8.78107  -2.79985  -0.96288 
 H                    -7.17127  -2.10948  -0.60071 
 H                    -7.31859  -3.84742  -1.09452 
 H                    -7.92414  -1.36566  -2.83652 
 H                    -9.50094  -3.23719  -3.29947 
 H                    -8.11144  -4.36725  -3.54382 
 H                    -8.37365  -2.98177  -4.67475 
 H                    -5.66923  -3.48673  -3.11711 
 H                    -6.07378  -2.21825  -4.28629 
 H                    -4.83995  -3.82154  -1.13425 
 H                    -3.51374  -4.00437   0.90676 
 H                    -2.44596  -2.02039   1.89768 
 H                    -4.33571   1.69375   0.90851 
 H                    -4.54158   4.00414   1.64701 
 H                    -3.53154   6.03802   2.59656 
 H                    -1.13501   6.0762    3.20661 
 H                     0.26392   4.09814   2.88538 
 H                     5.39733   3.13041   1.30973 
 H                     7.11727   3.02523  -0.4492 
 H                     6.9844    1.35981  -2.22903 
 H                     5.32799  -1.20703  -4.39792 
 H                     6.46366   0.05559  -3.89198 
 H                     6.29794  -2.83845  -2.76936 
 H                     8.33743  -1.59194  -4.72685 
 H                     7.04909  -2.79078  -5.14089 
 H                     8.39287  -3.26616  -4.04736 
 H                     7.25063  -1.31323  -1.06891 
 H                     8.42539  -0.64883  -2.2789 
 H                     8.53451  -2.36535  -1.73557 
 H                     3.35895  -0.20822  -0.50321 
 H                     4.66385   1.52686   3.17853 
 H                     4.12725   1.56447   5.55292 
 H                     2.45857   1.57282   7.36197 
 H                     0.04253   1.5745    6.83515 
 H                    -0.72657   1.57646   4.5153 
 H                    -4.03786   0.41106  -1.28721 
 Cu                   -0.34155   0.78631  -0.36755 
 
 ITRead=  0  0  0  0  0  0  0  0  0  0  0  0  0  0  0  0  0  0  0  0
 ITRead=  0  0  0  0  0  0  0  0  0  0  0  0  0  0  0  0  0  0  0  0
 ITRead=  0  0  0  0  0  0  0  0  0  0  0  0  0  0  0  0  0  0  0  0
 ITRead=  0  0  0  0  0  0  0  0  0  0  0  0  0  0  0  0  0  0  0  0
 ITRead=  0
 MicOpt= -1 -1 -1 -1 -1 -1 -1 -1 -1 -1 -1 -1 -1 -1 -1 -1 -1 -1 -1 -1
 MicOpt= -1 -1 -1 -1 -1 -1 -1 -1 -1 -1 -1 -1 -1 -1 -1 -1 -1 -1 -1 -1
 MicOpt= -1 -1 -1 -1 -1 -1 -1 -1 -1 -1 -1 -1 -1 -1 -1 -1 -1 -1 -1 -1
 MicOpt= -1 -1 -1 -1 -1 -1 -1 -1 -1 -1 -1 -1 -1 -1 -1 -1 -1 -1 -1 -1
 MicOpt= -1
 NAtoms=     81 NQM=       81 NQMF=       0 NMMI=      0 NMMIF=      0
                NMic=       0 NMicF=      0.
                    Isotopes and Nuclear Properties:
 (Nuclear quadrupole moments (NQMom) in fm**2, nuclear magnetic moments (NMagM)
  in nuclear magnetons)

  Atom         1           2           3           4           5           6           7           8           9          10
 IAtWgt=          12          12          12          12          16          12          12          12          12          12
 AtmWgt=  12.0000000  12.0000000  12.0000000  12.0000000  15.9949146  12.0000000  12.0000000  12.0000000  12.0000000  12.0000000
 NucSpn=           0           0           0           0           0           0           0           0           0           0
 AtZEff=  -0.0000000  -0.0000000  -0.0000000  -0.0000000  -0.0000000  -0.0000000  -0.0000000  -0.0000000  -0.0000000  -0.0000000
 NQMom=    0.0000000   0.0000000   0.0000000   0.0000000   0.0000000   0.0000000   0.0000000   0.0000000   0.0000000   0.0000000
 NMagM=    0.0000000   0.0000000   0.0000000   0.0000000   0.0000000   0.0000000   0.0000000   0.0000000   0.0000000   0.0000000
 AtZNuc=   6.0000000   6.0000000   6.0000000   6.0000000   8.0000000   6.0000000   6.0000000   6.0000000   6.0000000   6.0000000

  Atom        11          12          13          14          15          16          17          18          19          20
 IAtWgt=          12          12          12          12          12          12          12          12          12          12
 AtmWgt=  12.0000000  12.0000000  12.0000000  12.0000000  12.0000000  12.0000000  12.0000000  12.0000000  12.0000000  12.0000000
 NucSpn=           0           0           0           0           0           0           0           0           0           0
 AtZEff=  -0.0000000  -0.0000000  -0.0000000  -0.0000000  -0.0000000  -0.0000000  -0.0000000  -0.0000000  -0.0000000  -0.0000000
 NQMom=    0.0000000   0.0000000   0.0000000   0.0000000   0.0000000   0.0000000   0.0000000   0.0000000   0.0000000   0.0000000
 NMagM=    0.0000000   0.0000000   0.0000000   0.0000000   0.0000000   0.0000000   0.0000000   0.0000000   0.0000000   0.0000000
 AtZNuc=   6.0000000   6.0000000   6.0000000   6.0000000   6.0000000   6.0000000   6.0000000   6.0000000   6.0000000   6.0000000

  Atom        21          22          23          24          25          26          27          28          29          30
 IAtWgt=          12          16          12          12          12          12          12          12          16          12
 AtmWgt=  12.0000000  15.9949146  12.0000000  12.0000000  12.0000000  12.0000000  12.0000000  12.0000000  15.9949146  12.0000000
 NucSpn=           0           0           0           0           0           0           0           0           0           0
 AtZEff=  -0.0000000  -0.0000000  -0.0000000  -0.0000000  -0.0000000  -0.0000000  -0.0000000  -0.0000000  -0.0000000  -0.0000000
 NQMom=    0.0000000   0.0000000   0.0000000   0.0000000   0.0000000   0.0000000   0.0000000   0.0000000   0.0000000   0.0000000
 NMagM=    0.0000000   0.0000000   0.0000000   0.0000000   0.0000000   0.0000000   0.0000000   0.0000000   0.0000000   0.0000000
 AtZNuc=   6.0000000   8.0000000   6.0000000   6.0000000   6.0000000   6.0000000   6.0000000   6.0000000   8.0000000   6.0000000

  Atom        31          32          33          34          35          36          37          38          39          40
 IAtWgt=          12          12          12          12          12          12          12          12          12          12
 AtmWgt=  12.0000000  12.0000000  12.0000000  12.0000000  12.0000000  12.0000000  12.0000000  12.0000000  12.0000000  12.0000000
 NucSpn=           0           0           0           0           0           0           0           0           0           0
 AtZEff=  -0.0000000  -0.0000000  -0.0000000  -0.0000000  -0.0000000  -0.0000000  -0.0000000  -0.0000000  -0.0000000  -0.0000000
 NQMom=    0.0000000   0.0000000   0.0000000   0.0000000   0.0000000   0.0000000   0.0000000   0.0000000   0.0000000   0.0000000
 NMagM=    0.0000000   0.0000000   0.0000000   0.0000000   0.0000000   0.0000000   0.0000000   0.0000000   0.0000000   0.0000000
 AtZNuc=   6.0000000   6.0000000   6.0000000   6.0000000   6.0000000   6.0000000   6.0000000   6.0000000   6.0000000   6.0000000

  Atom        41          42          43          44          45          46          47          48          49          50
 IAtWgt=          12          12          16          12           1           1           1           1           1           1
 AtmWgt=  12.0000000  12.0000000  15.9949146  12.0000000   1.0078250   1.0078250   1.0078250   1.0078250   1.0078250   1.0078250
 NucSpn=           0           0           0           0           1           1           1           1           1           1
 AtZEff=  -0.0000000  -0.0000000  -0.0000000  -0.0000000  -0.0000000  -0.0000000  -0.0000000  -0.0000000  -0.0000000  -0.0000000
 NQMom=    0.0000000   0.0000000   0.0000000   0.0000000   0.0000000   0.0000000   0.0000000   0.0000000   0.0000000   0.0000000
 NMagM=    0.0000000   0.0000000   0.0000000   0.0000000   2.7928460   2.7928460   2.7928460   2.7928460   2.7928460   2.7928460
 AtZNuc=   6.0000000   6.0000000   8.0000000   6.0000000   1.0000000   1.0000000   1.0000000   1.0000000   1.0000000   1.0000000

  Atom        51          52          53          54          55          56          57          58          59          60
 IAtWgt=           1           1           1           1           1           1           1           1           1           1
 AtmWgt=   1.0078250   1.0078250   1.0078250   1.0078250   1.0078250   1.0078250   1.0078250   1.0078250   1.0078250   1.0078250
 NucSpn=           1           1           1           1           1           1           1           1           1           1
 AtZEff=  -0.0000000  -0.0000000  -0.0000000  -0.0000000  -0.0000000  -0.0000000  -0.0000000  -0.0000000  -0.0000000  -0.0000000
 NQMom=    0.0000000   0.0000000   0.0000000   0.0000000   0.0000000   0.0000000   0.0000000   0.0000000   0.0000000   0.0000000
 NMagM=    2.7928460   2.7928460   2.7928460   2.7928460   2.7928460   2.7928460   2.7928460   2.7928460   2.7928460   2.7928460
 AtZNuc=   1.0000000   1.0000000   1.0000000   1.0000000   1.0000000   1.0000000   1.0000000   1.0000000   1.0000000   1.0000000

  Atom        61          62          63          64          65          66          67          68          69          70
 IAtWgt=           1           1           1           1           1           1           1           1           1           1
 AtmWgt=   1.0078250   1.0078250   1.0078250   1.0078250   1.0078250   1.0078250   1.0078250   1.0078250   1.0078250   1.0078250
 NucSpn=           1           1           1           1           1           1           1           1           1           1
 AtZEff=  -0.0000000  -0.0000000  -0.0000000  -0.0000000  -0.0000000  -0.0000000  -0.0000000  -0.0000000  -0.0000000  -0.0000000
 NQMom=    0.0000000   0.0000000   0.0000000   0.0000000   0.0000000   0.0000000   0.0000000   0.0000000   0.0000000   0.0000000
 NMagM=    2.7928460   2.7928460   2.7928460   2.7928460   2.7928460   2.7928460   2.7928460   2.7928460   2.7928460   2.7928460
 AtZNuc=   1.0000000   1.0000000   1.0000000   1.0000000   1.0000000   1.0000000   1.0000000   1.0000000   1.0000000   1.0000000

  Atom        71          72          73          74          75          76          77          78          79          80
 IAtWgt=           1           1           1           1           1           1           1           1           1           1
 AtmWgt=   1.0078250   1.0078250   1.0078250   1.0078250   1.0078250   1.0078250   1.0078250   1.0078250   1.0078250   1.0078250
 NucSpn=           1           1           1           1           1           1           1           1           1           1
 AtZEff=  -0.0000000  -0.0000000  -0.0000000  -0.0000000  -0.0000000  -0.0000000  -0.0000000  -0.0000000  -0.0000000  -0.0000000
 NQMom=    0.0000000   0.0000000   0.0000000   0.0000000   0.0000000   0.0000000   0.0000000   0.0000000   0.0000000   0.0000000
 NMagM=    2.7928460   2.7928460   2.7928460   2.7928460   2.7928460   2.7928460   2.7928460   2.7928460   2.7928460   2.7928460
 AtZNuc=   1.0000000   1.0000000   1.0000000   1.0000000   1.0000000   1.0000000   1.0000000   1.0000000   1.0000000   1.0000000

  Atom        81
 IAtWgt=          63
 AtmWgt=  62.9295992
 NucSpn=           3
 AtZEff=  -0.0000000
 NQMom=  -22.0000000
 NMagM=    2.2233000
 AtZNuc=  29.0000000
 Leave Link  101 at Sat Feb  8 04:25:56 2025, MaxMem= 13421772800 cpu:               3.5 elap:               0.1
 (Enter /public/software/apps/Gaussian/g16/l103.exe)

 GradGradGradGradGradGradGradGradGradGradGradGradGradGradGradGradGradGrad
 Berny optimization.
 Initialization pass.
                           ----------------------------
                           !    Initial Parameters    !
                           ! (Angstroms and Degrees)  !
 --------------------------                            --------------------------
 ! Name  Definition              Value          Derivative Info.                !
 --------------------------------------------------------------------------------
 ! R1    R(1,2)                  1.5336         estimate D2E/DX2                !
 ! R2    R(1,45)                 1.1109         estimate D2E/DX2                !
 ! R3    R(1,46)                 1.1096         estimate D2E/DX2                !
 ! R4    R(1,47)                 1.1107         estimate D2E/DX2                !
 ! R5    R(2,3)                  1.5338         estimate D2E/DX2                !
 ! R6    R(2,4)                  1.5413         estimate D2E/DX2                !
 ! R7    R(2,48)                 1.1126         estimate D2E/DX2                !
 ! R8    R(3,49)                 1.111          estimate D2E/DX2                !
 ! R9    R(3,50)                 1.1114         estimate D2E/DX2                !
 ! R10   R(3,51)                 1.1109         estimate D2E/DX2                !
 ! R11   R(4,5)                  1.43           estimate D2E/DX2                !
 ! R12   R(4,52)                 1.1088         estimate D2E/DX2                !
 ! R13   R(4,53)                 1.1111         estimate D2E/DX2                !
 ! R14   R(5,6)                  1.4059         estimate D2E/DX2                !
 ! R15   R(6,7)                  1.4091         estimate D2E/DX2                !
 ! R16   R(6,44)                 1.4007         estimate D2E/DX2                !
 ! R17   R(7,8)                  1.3967         estimate D2E/DX2                !
 ! R18   R(7,54)                 1.0786         estimate D2E/DX2                !
 ! R19   R(8,9)                  1.3957         estimate D2E/DX2                !
 ! R20   R(8,55)                 1.0825         estimate D2E/DX2                !
 ! R21   R(9,10)                 1.4039         estimate D2E/DX2                !
 ! R22   R(9,56)                 1.0829         estimate D2E/DX2                !
 ! R23   R(10,11)                1.4829         estimate D2E/DX2                !
 ! R24   R(10,44)                1.4055         estimate D2E/DX2                !
 ! R25   R(11,12)                1.4017         estimate D2E/DX2                !
 ! R26   R(11,42)                1.4073         estimate D2E/DX2                !
 ! R27   R(12,13)                1.4            estimate D2E/DX2                !
 ! R28   R(12,57)                1.0846         estimate D2E/DX2                !
 ! R29   R(13,14)                1.4045         estimate D2E/DX2                !
 ! R30   R(13,18)                1.418          estimate D2E/DX2                !
 ! R31   R(14,15)                1.3954         estimate D2E/DX2                !
 ! R32   R(14,58)                1.0837         estimate D2E/DX2                !
 ! R33   R(15,16)                1.3945         estimate D2E/DX2                !
 ! R34   R(15,59)                1.0824         estimate D2E/DX2                !
 ! R35   R(16,17)                1.3967         estimate D2E/DX2                !
 ! R36   R(16,60)                1.0824         estimate D2E/DX2                !
 ! R37   R(17,18)                1.4118         estimate D2E/DX2                !
 ! R38   R(17,61)                1.0818         estimate D2E/DX2                !
 ! R39   R(18,19)                1.4179         estimate D2E/DX2                !
 ! R40   R(19,20)                1.4883         estimate D2E/DX2                !
 ! R41   R(19,42)                1.4074         estimate D2E/DX2                !
 ! R42   R(20,21)                1.4075         estimate D2E/DX2                !
 ! R43   R(20,41)                1.4177         estimate D2E/DX2                !
 ! R44   R(21,22)                1.3933         estimate D2E/DX2                !
 ! R45   R(21,23)                1.4074         estimate D2E/DX2                !
 ! R46   R(22,81)                1.9625         estimate D2E/DX2                !
 ! R47   R(23,24)                1.483          estimate D2E/DX2                !
 ! R48   R(23,35)                1.4017         estimate D2E/DX2                !
 ! R49   R(24,25)                1.4037         estimate D2E/DX2                !
 ! R50   R(24,34)                1.4056         estimate D2E/DX2                !
 ! R51   R(25,26)                1.3958         estimate D2E/DX2                !
 ! R52   R(25,62)                1.0831         estimate D2E/DX2                !
 ! R53   R(26,27)                1.3968         estimate D2E/DX2                !
 ! R54   R(26,63)                1.0825         estimate D2E/DX2                !
 ! R55   R(27,28)                1.4093         estimate D2E/DX2                !
 ! R56   R(27,64)                1.0786         estimate D2E/DX2                !
 ! R57   R(28,29)                1.406          estimate D2E/DX2                !
 ! R58   R(28,34)                1.4009         estimate D2E/DX2                !
 ! R59   R(29,30)                1.4301         estimate D2E/DX2                !
 ! R60   R(30,31)                1.5414         estimate D2E/DX2                !
 ! R61   R(30,65)                1.1112         estimate D2E/DX2                !
 ! R62   R(30,66)                1.1089         estimate D2E/DX2                !
 ! R63   R(31,32)                1.5339         estimate D2E/DX2                !
 ! R64   R(31,33)                1.5336         estimate D2E/DX2                !
 ! R65   R(31,67)                1.1126         estimate D2E/DX2                !
 ! R66   R(32,68)                1.1115         estimate D2E/DX2                !
 ! R67   R(32,69)                1.111          estimate D2E/DX2                !
 ! R68   R(32,70)                1.1111         estimate D2E/DX2                !
 ! R69   R(33,71)                1.1094         estimate D2E/DX2                !
 ! R70   R(33,72)                1.1108         estimate D2E/DX2                !
 ! R71   R(33,73)                1.1109         estimate D2E/DX2                !
 ! R72   R(34,74)                1.0833         estimate D2E/DX2                !
 ! R73   R(35,36)                1.4001         estimate D2E/DX2                !
 ! R74   R(35,75)                1.0846         estimate D2E/DX2                !
 ! R75   R(36,37)                1.4043         estimate D2E/DX2                !
 ! R76   R(36,41)                1.418          estimate D2E/DX2                !
 ! R77   R(37,38)                1.3954         estimate D2E/DX2                !
 ! R78   R(37,76)                1.0837         estimate D2E/DX2                !
 ! R79   R(38,39)                1.3945         estimate D2E/DX2                !
 ! R80   R(38,77)                1.0823         estimate D2E/DX2                !
 ! R81   R(39,40)                1.3965         estimate D2E/DX2                !
 ! R82   R(39,78)                1.0824         estimate D2E/DX2                !
 ! R83   R(40,41)                1.4119         estimate D2E/DX2                !
 ! R84   R(40,79)                1.0819         estimate D2E/DX2                !
 ! R85   R(42,43)                1.3933         estimate D2E/DX2                !
 ! R86   R(42,81)                1.8781         estimate D2E/DX2                !
 ! R87   R(43,81)                1.9627         estimate D2E/DX2                !
 ! R88   R(44,80)                1.0834         estimate D2E/DX2                !
 ! A1    A(2,1,45)             110.1418         estimate D2E/DX2                !
 ! A2    A(2,1,46)             110.5202         estimate D2E/DX2                !
 ! A3    A(2,1,47)             110.7544         estimate D2E/DX2                !
 ! A4    A(45,1,46)            107.3186         estimate D2E/DX2                !
 ! A5    A(45,1,47)            108.5618         estimate D2E/DX2                !
 ! A6    A(46,1,47)            109.4588         estimate D2E/DX2                !
 ! A7    A(1,2,3)              109.9856         estimate D2E/DX2                !
 ! A8    A(1,2,4)              112.1983         estimate D2E/DX2                !
 ! A9    A(1,2,48)             108.1404         estimate D2E/DX2                !
 ! A10   A(3,2,4)              110.1942         estimate D2E/DX2                !
 ! A11   A(3,2,48)             107.8893         estimate D2E/DX2                !
 ! A12   A(4,2,48)             108.3006         estimate D2E/DX2                !
 ! A13   A(2,3,49)             110.2672         estimate D2E/DX2                !
 ! A14   A(2,3,50)             110.6192         estimate D2E/DX2                !
 ! A15   A(2,3,51)             110.2772         estimate D2E/DX2                !
 ! A16   A(49,3,50)            108.8517         estimate D2E/DX2                !
 ! A17   A(49,3,51)            107.9063         estimate D2E/DX2                !
 ! A18   A(50,3,51)            108.8546         estimate D2E/DX2                !
 ! A19   A(2,4,5)              111.341          estimate D2E/DX2                !
 ! A20   A(2,4,52)             111.9958         estimate D2E/DX2                !
 ! A21   A(2,4,53)             108.0845         estimate D2E/DX2                !
 ! A22   A(5,4,52)             112.2608         estimate D2E/DX2                !
 ! A23   A(5,4,53)             106.87           estimate D2E/DX2                !
 ! A24   A(52,4,53)            105.9148         estimate D2E/DX2                !
 ! A25   A(4,5,6)              126.682          estimate D2E/DX2                !
 ! A26   A(5,6,7)              123.2437         estimate D2E/DX2                !
 ! A27   A(5,6,44)             117.7154         estimate D2E/DX2                !
 ! A28   A(7,6,44)             119.0403         estimate D2E/DX2                !
 ! A29   A(6,7,8)              120.234          estimate D2E/DX2                !
 ! A30   A(6,7,54)             121.8516         estimate D2E/DX2                !
 ! A31   A(8,7,54)             117.9132         estimate D2E/DX2                !
 ! A32   A(7,8,9)              120.3008         estimate D2E/DX2                !
 ! A33   A(7,8,55)             119.8758         estimate D2E/DX2                !
 ! A34   A(9,8,55)             119.8227         estimate D2E/DX2                !
 ! A35   A(8,9,10)             120.2884         estimate D2E/DX2                !
 ! A36   A(8,9,56)             119.1373         estimate D2E/DX2                !
 ! A37   A(10,9,56)            120.5683         estimate D2E/DX2                !
 ! A38   A(9,10,11)            120.5345         estimate D2E/DX2                !
 ! A39   A(9,10,44)            119.147          estimate D2E/DX2                !
 ! A40   A(11,10,44)           120.3079         estimate D2E/DX2                !
 ! A41   A(10,11,12)           119.4997         estimate D2E/DX2                !
 ! A42   A(10,11,42)           121.0711         estimate D2E/DX2                !
 ! A43   A(12,11,42)           119.4291         estimate D2E/DX2                !
 ! A44   A(11,12,13)           120.8032         estimate D2E/DX2                !
 ! A45   A(11,12,57)           119.5256         estimate D2E/DX2                !
 ! A46   A(13,12,57)           119.6704         estimate D2E/DX2                !
 ! A47   A(12,13,14)           119.9594         estimate D2E/DX2                !
 ! A48   A(12,13,18)           120.0393         estimate D2E/DX2                !
 ! A49   A(14,13,18)           120.0011         estimate D2E/DX2                !
 ! A50   A(13,14,15)           120.3042         estimate D2E/DX2                !
 ! A51   A(13,14,58)           120.6836         estimate D2E/DX2                !
 ! A52   A(15,14,58)           119.0117         estimate D2E/DX2                !
 ! A53   A(14,15,16)           120.1193         estimate D2E/DX2                !
 ! A54   A(14,15,59)           119.9515         estimate D2E/DX2                !
 ! A55   A(16,15,59)           119.9281         estimate D2E/DX2                !
 ! A56   A(15,16,17)           120.2776         estimate D2E/DX2                !
 ! A57   A(15,16,60)           119.8457         estimate D2E/DX2                !
 ! A58   A(17,16,60)           119.8766         estimate D2E/DX2                !
 ! A59   A(16,17,18)           120.5596         estimate D2E/DX2                !
 ! A60   A(16,17,61)           118.0037         estimate D2E/DX2                !
 ! A61   A(18,17,61)           121.436          estimate D2E/DX2                !
 ! A62   A(13,18,17)           118.7265         estimate D2E/DX2                !
 ! A63   A(13,18,19)           119.3349         estimate D2E/DX2                !
 ! A64   A(17,18,19)           121.9352         estimate D2E/DX2                !
 ! A65   A(18,19,20)           121.7439         estimate D2E/DX2                !
 ! A66   A(18,19,42)           119.6874         estimate D2E/DX2                !
 ! A67   A(20,19,42)           118.5585         estimate D2E/DX2                !
 ! A68   A(19,20,21)           118.5759         estimate D2E/DX2                !
 ! A69   A(19,20,41)           121.7189         estimate D2E/DX2                !
 ! A70   A(21,20,41)           119.7033         estimate D2E/DX2                !
 ! A71   A(20,21,22)           119.3274         estimate D2E/DX2                !
 ! A72   A(20,21,23)           120.6543         estimate D2E/DX2                !
 ! A73   A(22,21,23)           120.0141         estimate D2E/DX2                !
 ! A74   A(21,22,81)           114.4181         estimate D2E/DX2                !
 ! A75   A(21,23,24)           121.0945         estimate D2E/DX2                !
 ! A76   A(21,23,35)           119.4245         estimate D2E/DX2                !
 ! A77   A(24,23,35)           119.4804         estimate D2E/DX2                !
 ! A78   A(23,24,25)           120.236          estimate D2E/DX2                !
 ! A79   A(23,24,34)           120.6118         estimate D2E/DX2                !
 ! A80   A(25,24,34)           119.144          estimate D2E/DX2                !
 ! A81   A(24,25,26)           120.2969         estimate D2E/DX2                !
 ! A82   A(24,25,62)           120.5088         estimate D2E/DX2                !
 ! A83   A(26,25,62)           119.1897         estimate D2E/DX2                !
 ! A84   A(25,26,27)           120.3063         estimate D2E/DX2                !
 ! A85   A(25,26,63)           119.8191         estimate D2E/DX2                !
 ! A86   A(27,26,63)           119.8746         estimate D2E/DX2                !
 ! A87   A(26,27,28)           120.2201         estimate D2E/DX2                !
 ! A88   A(26,27,64)           117.9248         estimate D2E/DX2                !
 ! A89   A(28,27,64)           121.8539         estimate D2E/DX2                !
 ! A90   A(27,28,29)           123.2414         estimate D2E/DX2                !
 ! A91   A(27,28,34)           119.0454         estimate D2E/DX2                !
 ! A92   A(29,28,34)           117.713          estimate D2E/DX2                !
 ! A93   A(28,29,30)           126.6931         estimate D2E/DX2                !
 ! A94   A(29,30,31)           111.3414         estimate D2E/DX2                !
 ! A95   A(29,30,65)           106.8682         estimate D2E/DX2                !
 ! A96   A(29,30,66)           112.2682         estimate D2E/DX2                !
 ! A97   A(31,30,65)           108.0765         estimate D2E/DX2                !
 ! A98   A(31,30,66)           111.9966         estimate D2E/DX2                !
 ! A99   A(65,30,66)           105.9151         estimate D2E/DX2                !
 ! A100  A(30,31,32)           110.1922         estimate D2E/DX2                !
 ! A101  A(30,31,33)           112.1934         estimate D2E/DX2                !
 ! A102  A(30,31,67)           108.3078         estimate D2E/DX2                !
 ! A103  A(32,31,33)           109.988          estimate D2E/DX2                !
 ! A104  A(32,31,67)           107.88           estimate D2E/DX2                !
 ! A105  A(33,31,67)           108.1471         estimate D2E/DX2                !
 ! A106  A(31,32,68)           110.6172         estimate D2E/DX2                !
 ! A107  A(31,32,69)           110.2704         estimate D2E/DX2                !
 ! A108  A(31,32,70)           110.2727         estimate D2E/DX2                !
 ! A109  A(68,32,69)           108.8687         estimate D2E/DX2                !
 ! A110  A(68,32,70)           108.8514         estimate D2E/DX2                !
 ! A111  A(69,32,70)           107.8958         estimate D2E/DX2                !
 ! A112  A(31,33,71)           110.5137         estimate D2E/DX2                !
 ! A113  A(31,33,72)           110.7513         estimate D2E/DX2                !
 ! A114  A(31,33,73)           110.1357         estimate D2E/DX2                !
 ! A115  A(71,33,72)           109.4545         estimate D2E/DX2                !
 ! A116  A(71,33,73)           107.3416         estimate D2E/DX2                !
 ! A117  A(72,33,73)           108.5597         estimate D2E/DX2                !
 ! A118  A(24,34,28)           120.982          estimate D2E/DX2                !
 ! A119  A(24,34,74)           120.0242         estimate D2E/DX2                !
 ! A120  A(28,34,74)           118.9852         estimate D2E/DX2                !
 ! A121  A(23,35,36)           120.7903         estimate D2E/DX2                !
 ! A122  A(23,35,75)           119.5185         estimate D2E/DX2                !
 ! A123  A(36,35,75)           119.6705         estimate D2E/DX2                !
 ! A124  A(35,36,37)           119.9603         estimate D2E/DX2                !
 ! A125  A(35,36,41)           120.0497         estimate D2E/DX2                !
 ! A126  A(37,36,41)           119.988          estimate D2E/DX2                !
 ! A127  A(36,37,38)           120.2987         estimate D2E/DX2                !
 ! A128  A(36,37,76)           120.698          estimate D2E/DX2                !
 ! A129  A(38,37,76)           119.0028         estimate D2E/DX2                !
 ! A130  A(37,38,39)           120.1386         estimate D2E/DX2                !
 ! A131  A(37,38,77)           119.9502         estimate D2E/DX2                !
 ! A132  A(39,38,77)           119.9105         estimate D2E/DX2                !
 ! A133  A(38,39,40)           120.2682         estimate D2E/DX2                !
 ! A134  A(38,39,78)           119.8443         estimate D2E/DX2                !
 ! A135  A(40,39,78)           119.8874         estimate D2E/DX2                !
 ! A136  A(39,40,41)           120.5528         estimate D2E/DX2                !
 ! A137  A(39,40,79)           118.007          estimate D2E/DX2                !
 ! A138  A(41,40,79)           121.4395         estimate D2E/DX2                !
 ! A139  A(20,41,36)           119.3278         estimate D2E/DX2                !
 ! A140  A(20,41,40)           121.9272         estimate D2E/DX2                !
 ! A141  A(36,41,40)           118.7434         estimate D2E/DX2                !
 ! A142  A(11,42,19)           120.6471         estimate D2E/DX2                !
 ! A143  A(11,42,43)           119.9789         estimate D2E/DX2                !
 ! A144  A(11,42,81)           101.3706         estimate D2E/DX2                !
 ! A145  A(19,42,43)           119.3629         estimate D2E/DX2                !
 ! A146  A(19,42,81)            95.2215         estimate D2E/DX2                !
 ! A147  A(6,44,10)            120.9858         estimate D2E/DX2                !
 ! A148  A(6,44,80)            119.0245         estimate D2E/DX2                !
 ! A149  A(10,44,80)           119.9882         estimate D2E/DX2                !
 ! A150  A(22,81,42)           107.6177         estimate D2E/DX2                !
 ! A151  A(22,81,43)           100.0004         estimate D2E/DX2                !
 ! D1    D(45,1,2,3)           -55.229          estimate D2E/DX2                !
 ! D2    D(45,1,2,4)          -178.2628         estimate D2E/DX2                !
 ! D3    D(45,1,2,48)           62.3592         estimate D2E/DX2                !
 ! D4    D(46,1,2,3)          -173.6429         estimate D2E/DX2                !
 ! D5    D(46,1,2,4)            63.3233         estimate D2E/DX2                !
 ! D6    D(46,1,2,48)          -56.0547         estimate D2E/DX2                !
 ! D7    D(47,1,2,3)            64.8759         estimate D2E/DX2                !
 ! D8    D(47,1,2,4)           -58.1579         estimate D2E/DX2                !
 ! D9    D(47,1,2,48)         -177.5359         estimate D2E/DX2                !
 ! D10   D(1,2,3,49)            58.0471         estimate D2E/DX2                !
 ! D11   D(1,2,3,50)           -62.4142         estimate D2E/DX2                !
 ! D12   D(1,2,3,51)           177.1143         estimate D2E/DX2                !
 ! D13   D(4,2,3,49)          -177.7501         estimate D2E/DX2                !
 ! D14   D(4,2,3,50)            61.7886         estimate D2E/DX2                !
 ! D15   D(4,2,3,51)           -58.6829         estimate D2E/DX2                !
 ! D16   D(48,2,3,49)          -59.6968         estimate D2E/DX2                !
 ! D17   D(48,2,3,50)          179.8419         estimate D2E/DX2                !
 ! D18   D(48,2,3,51)           59.3703         estimate D2E/DX2                !
 ! D19   D(1,2,4,5)            -66.2366         estimate D2E/DX2                !
 ! D20   D(1,2,4,52)            60.3804         estimate D2E/DX2                !
 ! D21   D(1,2,4,53)           176.6765         estimate D2E/DX2                !
 ! D22   D(3,2,4,5)            170.8472         estimate D2E/DX2                !
 ! D23   D(3,2,4,52)           -62.5358         estimate D2E/DX2                !
 ! D24   D(3,2,4,53)            53.7603         estimate D2E/DX2                !
 ! D25   D(48,2,4,5)            53.0475         estimate D2E/DX2                !
 ! D26   D(48,2,4,52)          179.6645         estimate D2E/DX2                !
 ! D27   D(48,2,4,53)          -64.0394         estimate D2E/DX2                !
 ! D28   D(2,4,5,6)             93.0509         estimate D2E/DX2                !
 ! D29   D(52,4,5,6)           -33.4207         estimate D2E/DX2                !
 ! D30   D(53,4,5,6)          -149.1261         estimate D2E/DX2                !
 ! D31   D(4,5,6,7)              5.9461         estimate D2E/DX2                !
 ! D32   D(4,5,6,44)          -174.3467         estimate D2E/DX2                !
 ! D33   D(5,6,7,8)           -179.8038         estimate D2E/DX2                !
 ! D34   D(5,6,7,54)            -0.1926         estimate D2E/DX2                !
 ! D35   D(44,6,7,8)             0.4927         estimate D2E/DX2                !
 ! D36   D(44,6,7,54)         -179.8962         estimate D2E/DX2                !
 ! D37   D(5,6,44,10)         -179.8782         estimate D2E/DX2                !
 ! D38   D(5,6,44,80)           -0.3213         estimate D2E/DX2                !
 ! D39   D(7,6,44,10)           -0.1583         estimate D2E/DX2                !
 ! D40   D(7,6,44,80)          179.3987         estimate D2E/DX2                !
 ! D41   D(6,7,8,9)             -0.2744         estimate D2E/DX2                !
 ! D42   D(6,7,8,55)           179.4209         estimate D2E/DX2                !
 ! D43   D(54,7,8,9)          -179.9006         estimate D2E/DX2                !
 ! D44   D(54,7,8,55)           -0.2054         estimate D2E/DX2                !
 ! D45   D(7,8,9,10)            -0.2856         estimate D2E/DX2                !
 ! D46   D(7,8,9,56)           178.8304         estimate D2E/DX2                !
 ! D47   D(55,8,9,10)         -179.981          estimate D2E/DX2                !
 ! D48   D(55,8,9,56)           -0.865          estimate D2E/DX2                !
 ! D49   D(8,9,10,11)          179.4382         estimate D2E/DX2                !
 ! D50   D(8,9,10,44)            0.6134         estimate D2E/DX2                !
 ! D51   D(56,9,10,11)           0.3349         estimate D2E/DX2                !
 ! D52   D(56,9,10,44)        -178.4898         estimate D2E/DX2                !
 ! D53   D(9,10,11,12)        -129.1503         estimate D2E/DX2                !
 ! D54   D(9,10,11,42)          50.9963         estimate D2E/DX2                !
 ! D55   D(44,10,11,12)         49.6608         estimate D2E/DX2                !
 ! D56   D(44,10,11,42)       -130.1927         estimate D2E/DX2                !
 ! D57   D(9,10,44,6)           -0.3907         estimate D2E/DX2                !
 ! D58   D(9,10,44,80)        -179.9435         estimate D2E/DX2                !
 ! D59   D(11,10,44,6)        -179.2182         estimate D2E/DX2                !
 ! D60   D(11,10,44,80)          1.229          estimate D2E/DX2                !
 ! D61   D(10,11,12,13)       -179.8128         estimate D2E/DX2                !
 ! D62   D(10,11,12,57)          0.4866         estimate D2E/DX2                !
 ! D63   D(42,11,12,13)          0.0431         estimate D2E/DX2                !
 ! D64   D(42,11,12,57)       -179.6575         estimate D2E/DX2                !
 ! D65   D(10,11,42,19)       -178.437          estimate D2E/DX2                !
 ! D66   D(10,11,42,43)          2.7814         estimate D2E/DX2                !
 ! D67   D(10,11,42,81)         78.4393         estimate D2E/DX2                !
 ! D68   D(12,11,42,19)          1.7095         estimate D2E/DX2                !
 ! D69   D(12,11,42,43)       -177.0721         estimate D2E/DX2                !
 ! D70   D(12,11,42,81)       -101.4142         estimate D2E/DX2                !
 ! D71   D(11,12,13,14)        179.3168         estimate D2E/DX2                !
 ! D72   D(11,12,13,18)         -0.5149         estimate D2E/DX2                !
 ! D73   D(57,12,13,14)         -0.983          estimate D2E/DX2                !
 ! D74   D(57,12,13,18)        179.1853         estimate D2E/DX2                !
 ! D75   D(12,13,14,15)       -179.2887         estimate D2E/DX2                !
 ! D76   D(12,13,14,58)          0.4461         estimate D2E/DX2                !
 ! D77   D(18,13,14,15)          0.543          estimate D2E/DX2                !
 ! D78   D(18,13,14,58)       -179.7222         estimate D2E/DX2                !
 ! D79   D(12,13,18,17)        178.5951         estimate D2E/DX2                !
 ! D80   D(12,13,18,19)         -0.7401         estimate D2E/DX2                !
 ! D81   D(14,13,18,17)         -1.2365         estimate D2E/DX2                !
 ! D82   D(14,13,18,19)        179.4283         estimate D2E/DX2                !
 ! D83   D(13,14,15,16)          0.266          estimate D2E/DX2                !
 ! D84   D(13,14,15,59)        179.8669         estimate D2E/DX2                !
 ! D85   D(58,14,15,16)       -179.4732         estimate D2E/DX2                !
 ! D86   D(58,14,15,59)          0.1278         estimate D2E/DX2                !
 ! D87   D(14,15,16,17)         -0.3608         estimate D2E/DX2                !
 ! D88   D(14,15,16,60)        179.5023         estimate D2E/DX2                !
 ! D89   D(59,15,16,17)       -179.9619         estimate D2E/DX2                !
 ! D90   D(59,15,16,60)         -0.0987         estimate D2E/DX2                !
 ! D91   D(15,16,17,18)         -0.3594         estimate D2E/DX2                !
 ! D92   D(15,16,17,61)        179.3477         estimate D2E/DX2                !
 ! D93   D(60,16,17,18)        179.7775         estimate D2E/DX2                !
 ! D94   D(60,16,17,61)         -0.5154         estimate D2E/DX2                !
 ! D95   D(16,17,18,13)          1.1491         estimate D2E/DX2                !
 ! D96   D(16,17,18,19)       -179.5339         estimate D2E/DX2                !
 ! D97   D(61,17,18,13)       -178.5478         estimate D2E/DX2                !
 ! D98   D(61,17,18,19)          0.7693         estimate D2E/DX2                !
 ! D99   D(13,18,19,20)       -178.7215         estimate D2E/DX2                !
 ! D100  D(13,18,19,42)          2.4574         estimate D2E/DX2                !
 ! D101  D(17,18,19,20)          1.9655         estimate D2E/DX2                !
 ! D102  D(17,18,19,42)       -176.8556         estimate D2E/DX2                !
 ! D103  D(18,19,20,21)       -109.6208         estimate D2E/DX2                !
 ! D104  D(18,19,20,41)         70.8896         estimate D2E/DX2                !
 ! D105  D(42,19,20,21)         69.2131         estimate D2E/DX2                !
 ! D106  D(42,19,20,41)       -110.2765         estimate D2E/DX2                !
 ! D107  D(18,19,42,11)         -2.9635         estimate D2E/DX2                !
 ! D108  D(18,19,42,43)        175.8256         estimate D2E/DX2                !
 ! D109  D(18,19,42,81)        103.5514         estimate D2E/DX2                !
 ! D110  D(20,19,42,11)        178.1779         estimate D2E/DX2                !
 ! D111  D(20,19,42,43)         -3.033          estimate D2E/DX2                !
 ! D112  D(20,19,42,81)        -75.3071         estimate D2E/DX2                !
 ! D113  D(19,20,21,22)         -0.4415         estimate D2E/DX2                !
 ! D114  D(19,20,21,23)        178.8103         estimate D2E/DX2                !
 ! D115  D(41,20,21,22)        179.0587         estimate D2E/DX2                !
 ! D116  D(41,20,21,23)         -1.6895         estimate D2E/DX2                !
 ! D117  D(19,20,41,36)       -178.0675         estimate D2E/DX2                !
 ! D118  D(19,20,41,40)          2.4042         estimate D2E/DX2                !
 ! D119  D(21,20,41,36)          2.4486         estimate D2E/DX2                !
 ! D120  D(21,20,41,40)       -177.0798         estimate D2E/DX2                !
 ! D121  D(20,21,22,81)        -28.2302         estimate D2E/DX2                !
 ! D122  D(23,21,22,81)        152.5131         estimate D2E/DX2                !
 ! D123  D(20,21,23,24)        179.9632         estimate D2E/DX2                !
 ! D124  D(20,21,23,35)         -0.3284         estimate D2E/DX2                !
 ! D125  D(22,21,23,24)         -0.7901         estimate D2E/DX2                !
 ! D126  D(22,21,23,35)        178.9183         estimate D2E/DX2                !
 ! D127  D(21,22,81,42)         10.7643         estimate D2E/DX2                !
 ! D128  D(21,22,81,43)        -32.3578         estimate D2E/DX2                !
 ! D129  D(21,23,24,25)        129.7199         estimate D2E/DX2                !
 ! D130  D(21,23,24,34)        -51.3322         estimate D2E/DX2                !
 ! D131  D(35,23,24,25)        -49.9883         estimate D2E/DX2                !
 ! D132  D(35,23,24,34)        128.9596         estimate D2E/DX2                !
 ! D133  D(21,23,35,36)          1.5869         estimate D2E/DX2                !
 ! D134  D(21,23,35,75)        179.9261         estimate D2E/DX2                !
 ! D135  D(24,23,35,36)       -178.7            estimate D2E/DX2                !
 ! D136  D(24,23,35,75)         -0.3608         estimate D2E/DX2                !
 ! D137  D(23,24,25,26)        179.7066         estimate D2E/DX2                !
 ! D138  D(23,24,25,62)         -1.083          estimate D2E/DX2                !
 ! D139  D(34,24,25,26)          0.7433         estimate D2E/DX2                !
 ! D140  D(34,24,25,62)        179.9537         estimate D2E/DX2                !
 ! D141  D(23,24,34,28)       -179.4992         estimate D2E/DX2                !
 ! D142  D(23,24,34,74)         -0.577          estimate D2E/DX2                !
 ! D143  D(25,24,34,28)         -0.5399         estimate D2E/DX2                !
 ! D144  D(25,24,34,74)        178.3823         estimate D2E/DX2                !
 ! D145  D(24,25,26,27)         -0.2911         estimate D2E/DX2                !
 ! D146  D(24,25,26,63)        179.6211         estimate D2E/DX2                !
 ! D147  D(62,25,26,27)       -179.5119         estimate D2E/DX2                !
 ! D148  D(62,25,26,63)          0.4003         estimate D2E/DX2                !
 ! D149  D(25,26,27,28)         -0.3767         estimate D2E/DX2                !
 ! D150  D(25,26,27,64)       -179.9943         estimate D2E/DX2                !
 ! D151  D(63,26,27,28)        179.7111         estimate D2E/DX2                !
 ! D152  D(63,26,27,64)          0.0935         estimate D2E/DX2                !
 ! D153  D(26,27,28,29)       -179.6056         estimate D2E/DX2                !
 ! D154  D(26,27,28,34)          0.5757         estimate D2E/DX2                !
 ! D155  D(64,27,28,29)         -0.0034         estimate D2E/DX2                !
 ! D156  D(64,27,28,34)       -179.8221         estimate D2E/DX2                !
 ! D157  D(27,28,29,30)          4.9264         estimate D2E/DX2                !
 ! D158  D(34,28,29,30)       -175.2526         estimate D2E/DX2                !
 ! D159  D(27,28,34,24)         -0.115          estimate D2E/DX2                !
 ! D160  D(27,28,34,74)       -179.0482         estimate D2E/DX2                !
 ! D161  D(29,28,34,24)       -179.9437         estimate D2E/DX2                !
 ! D162  D(29,28,34,74)          1.1231         estimate D2E/DX2                !
 ! D163  D(28,29,30,31)         93.5597         estimate D2E/DX2                !
 ! D164  D(28,29,30,65)       -148.6278         estimate D2E/DX2                !
 ! D165  D(28,29,30,66)        -32.9191         estimate D2E/DX2                !
 ! D166  D(29,30,31,32)        170.781          estimate D2E/DX2                !
 ! D167  D(29,30,31,33)        -66.3046         estimate D2E/DX2                !
 ! D168  D(29,30,31,67)         52.9895         estimate D2E/DX2                !
 ! D169  D(65,30,31,32)         53.7008         estimate D2E/DX2                !
 ! D170  D(65,30,31,33)        176.6152         estimate D2E/DX2                !
 ! D171  D(65,30,31,67)        -64.0907         estimate D2E/DX2                !
 ! D172  D(66,30,31,32)        -62.5912         estimate D2E/DX2                !
 ! D173  D(66,30,31,33)         60.3232         estimate D2E/DX2                !
 ! D174  D(66,30,31,67)        179.6173         estimate D2E/DX2                !
 ! D175  D(30,31,32,68)         61.7433         estimate D2E/DX2                !
 ! D176  D(30,31,32,69)        -58.74           estimate D2E/DX2                !
 ! D177  D(30,31,32,70)       -177.7934         estimate D2E/DX2                !
 ! D178  D(33,31,32,68)        -62.4535         estimate D2E/DX2                !
 ! D179  D(33,31,32,69)        177.0631         estimate D2E/DX2                !
 ! D180  D(33,31,32,70)         58.0098         estimate D2E/DX2                !
 ! D181  D(67,31,32,68)        179.7986         estimate D2E/DX2                !
 ! D182  D(67,31,32,69)         59.3152         estimate D2E/DX2                !
 ! D183  D(67,31,32,70)        -59.7382         estimate D2E/DX2                !
 ! D184  D(30,31,33,71)         63.1132         estimate D2E/DX2                !
 ! D185  D(30,31,33,72)        -58.3561         estimate D2E/DX2                !
 ! D186  D(30,31,33,73)       -178.4524         estimate D2E/DX2                !
 ! D187  D(32,31,33,71)       -173.8574         estimate D2E/DX2                !
 ! D188  D(32,31,33,72)         64.6733         estimate D2E/DX2                !
 ! D189  D(32,31,33,73)        -55.4229         estimate D2E/DX2                !
 ! D190  D(67,31,33,71)        -56.2751         estimate D2E/DX2                !
 ! D191  D(67,31,33,72)       -177.7444         estimate D2E/DX2                !
 ! D192  D(67,31,33,73)         62.1594         estimate D2E/DX2                !
 ! D193  D(23,35,36,37)        178.6654         estimate D2E/DX2                !
 ! D194  D(23,35,36,41)         -0.8074         estimate D2E/DX2                !
 ! D195  D(75,35,36,37)          0.3287         estimate D2E/DX2                !
 ! D196  D(75,35,36,41)       -179.1441         estimate D2E/DX2                !
 ! D197  D(35,36,37,38)       -178.9877         estimate D2E/DX2                !
 ! D198  D(35,36,37,76)          0.7659         estimate D2E/DX2                !
 ! D199  D(41,36,37,38)          0.4854         estimate D2E/DX2                !
 ! D200  D(41,36,37,76)       -179.7609         estimate D2E/DX2                !
 ! D201  D(35,36,41,20)         -1.2197         estimate D2E/DX2                !
 ! D202  D(35,36,41,40)        178.3238         estimate D2E/DX2                !
 ! D203  D(37,36,41,20)        179.3077         estimate D2E/DX2                !
 ! D204  D(37,36,41,40)         -1.1488         estimate D2E/DX2                !
 ! D205  D(36,37,38,39)          0.2692         estimate D2E/DX2                !
 ! D206  D(36,37,38,77)        179.9443         estimate D2E/DX2                !
 ! D207  D(76,37,38,39)       -179.4886         estimate D2E/DX2                !
 ! D208  D(76,37,38,77)          0.1865         estimate D2E/DX2                !
 ! D209  D(37,38,39,40)         -0.341          estimate D2E/DX2                !
 ! D210  D(37,38,39,78)        179.5579         estimate D2E/DX2                !
 ! D211  D(77,38,39,40)        179.9837         estimate D2E/DX2                !
 ! D212  D(77,38,39,78)         -0.1174         estimate D2E/DX2                !
 ! D213  D(38,39,40,41)         -0.3474         estimate D2E/DX2                !
 ! D214  D(38,39,40,79)        179.3595         estimate D2E/DX2                !
 ! D215  D(78,39,40,41)        179.7537         estimate D2E/DX2                !
 ! D216  D(78,39,40,79)         -0.5394         estimate D2E/DX2                !
 ! D217  D(39,40,41,20)       -179.3851         estimate D2E/DX2                !
 ! D218  D(39,40,41,36)          1.0839         estimate D2E/DX2                !
 ! D219  D(79,40,41,20)          0.9183         estimate D2E/DX2                !
 ! D220  D(79,40,41,36)       -178.6128         estimate D2E/DX2                !
 ! D221  D(11,42,81,22)        156.3492         estimate D2E/DX2                !
 ! D222  D(19,42,81,22)         33.6316         estimate D2E/DX2                !
 --------------------------------------------------------------------------------
 Trust Radius=3.00D-01 FncErr=1.00D-07 GrdErr=1.00D-06 EigMax=2.50D+02 EigMin=1.00D-04
 Number of steps in this run=    471 maximum allowed number of steps=    486.
 GradGradGradGradGradGradGradGradGradGradGradGradGradGradGradGradGradGrad

 Leave Link  103 at Sat Feb  8 04:25:56 2025, MaxMem= 13421772800 cpu:               0.8 elap:               0.0
 (Enter /public/software/apps/Gaussian/g16/l202.exe)
 Symmetry turned off by external request.
 Stoichiometry    C40H36CuO4(2)
 Framework group  C1[X(C40H36CuO4)]
 Deg. of freedom   237
 Full point group                 C1      NOp   1
                          Input orientation:                          
 ---------------------------------------------------------------------
 Center     Atomic      Atomic             Coordinates (Angstroms)
 Number     Number       Type             X           Y           Z
 ---------------------------------------------------------------------
      1          6           0       -7.710584   -2.821278   -1.259206
      2          6           0       -7.561375   -2.412006   -2.729654
      3          6           0       -8.437847   -3.307231   -3.614517
      4          6           0       -6.095726   -2.466899   -3.203566
      5          8           0       -5.296029   -1.486935   -2.536436
      6          6           0       -4.543621   -1.673820   -1.363652
      7          6           0       -4.383816   -2.927218   -0.739903
      8          6           0       -3.624924   -3.040329    0.427215
      9          6           0       -3.014181   -1.914585    0.981930
     10          6           0       -3.152281   -0.659489    0.368362
     11          6           0       -2.516067    0.542306    0.959784
     12          6           0       -3.283568    1.695846    1.171924
     13          6           0       -2.709894    2.847004    1.724916
     14          6           0       -3.491983    3.997706    1.916510
     15          6           0       -2.924012    5.153736    2.453348
     16          6           0       -1.572894    5.174547    2.798033
     17          6           0       -0.781979    4.037865    2.615570
     18          6           0       -1.339240    2.852735    2.088178
     19          6           0       -0.565793    1.679351    1.899914
     20          6           0        0.869627    1.617003    2.288188
     21          6           0        1.840667    1.565810    1.270646
     22          8           0        1.433517    1.565518   -0.061799
     23          6           0        3.211428    1.531058    1.587947
     24          6           0        4.242779    1.476222    0.523701
     25          6           0        5.319125    2.377176    0.535372
     26          6           0        6.293845    2.322732   -0.462272
     27          6           0        6.210386    1.367422   -1.477839
     28          6           0        5.144809    0.445408   -1.498517
     29          8           0        5.002997   -0.546613   -2.484764
     30          6           0        5.926957   -0.846389   -3.534295
     31          6           0        6.897812   -1.970633   -3.122805
     32          6           0        7.720901   -2.428834   -4.333372
     33          6           0        7.832664   -1.541257   -1.985469
     34          6           0        4.169174    0.510859   -0.495266
     35          6           0        3.607926    1.554802    2.932241
     36          6           0        2.657035    1.579233    3.959614
     37          6           0        3.073351    1.574475    5.300816
     38          6           0        2.131446    1.577425    6.330314
     39          6           0        0.769068    1.579462    6.032833
     40          6           0        0.338659    1.585743    4.704284
     41          6           0        1.274108    1.597477    3.646857
     42          6           0       -1.152835    0.544906    1.309022
     43          8           0       -0.364919   -0.573952    1.047110
     44          6           0       -3.922937   -0.550731   -0.801960
     45          1           0       -8.781066   -2.799854   -0.962884
     46          1           0       -7.171274   -2.109475   -0.600711
     47          1           0       -7.318588   -3.847424   -1.094522
     48          1           0       -7.924139   -1.365657   -2.836515
     49          1           0       -9.500939   -3.237191   -3.299467
     50          1           0       -8.111438   -4.367251   -3.543818
     51          1           0       -8.373649   -2.981765   -4.674749
     52          1           0       -5.669234   -3.486728   -3.117110
     53          1           0       -6.073781   -2.218251   -4.286293
     54          1           0       -4.839951   -3.821538   -1.134254
     55          1           0       -3.513735   -4.004374    0.906763
     56          1           0       -2.445958   -2.020386    1.897676
     57          1           0       -4.335710    1.693749    0.908505
     58          1           0       -4.541578    4.004141    1.647006
     59          1           0       -3.531540    6.038019    2.596560
     60          1           0       -1.135010    6.076203    3.206612
     61          1           0        0.263922    4.098144    2.885379
     62          1           0        5.397326    3.130405    1.309728
     63          1           0        7.117271    3.025234   -0.449204
     64          1           0        6.984400    1.359811   -2.229031
     65          1           0        5.327991   -1.207034   -4.397916
     66          1           0        6.463663    0.055592   -3.891979
     67          1           0        6.297943   -2.838452   -2.769360
     68          1           0        8.337433   -1.591935   -4.726853
     69          1           0        7.049094   -2.790776   -5.140887
     70          1           0        8.392866   -3.266164   -4.047358
     71          1           0        7.250626   -1.313232   -1.068912
     72          1           0        8.425387   -0.648830   -2.278904
     73          1           0        8.534507   -2.365354   -1.735573
     74          1           0        3.358953   -0.208223   -0.503209
     75          1           0        4.663853    1.526863    3.178533
     76          1           0        4.127255    1.564468    5.552921
     77          1           0        2.458567    1.572818    7.361970
     78          1           0        0.042528    1.574504    6.835147
     79          1           0       -0.726574    1.576459    4.515300
     80          1           0       -4.037860    0.411057   -1.287210
     81         29           0       -0.341545    0.786308   -0.367550
 ---------------------------------------------------------------------
 Rotational constants (GHZ):           0.0742149           0.0389607           0.0286897
 Leave Link  202 at Sat Feb  8 04:25:56 2025, MaxMem= 13421772800 cpu:               0.2 elap:               0.0
 (Enter /public/software/apps/Gaussian/g16/l301.exe)
 Standard basis: def2SVPP (5D, 7F)
 Ernie: Thresh=  0.10000D-02 Tol=  0.10000D-05 Strict=F.
   712 basis functions,  1315 primitive gaussians,   758 cartesian basis functions
   169 alpha electrons      168 beta electrons
       nuclear repulsion energy      5798.3405473397 Hartrees.
 IExCor=  402 DFT=T Ex+Corr=B3LYP ExCW=0 ScaHFX=  0.200000
 ScaDFX=  0.800000  0.720000  1.000000  0.810000 ScalE2=  1.000000  1.000000
 IRadAn=      5 IRanWt=     -1 IRanGd=            0 ICorTp=0 IEmpDi=141
 NAtoms=   81 NActive=   81 NUniq=   81 SFac= 1.00D+00 NAtFMM=   60 NAOKFM=T Big=T
 Integral buffers will be    131072 words long.
 Raffenetti 2 integral format.
 Two-electron integral symmetry is turned off.
 R6Disp:  Grimme-D3(BJ) Dispersion energy=       -0.2031342227 Hartrees.
 Nuclear repulsion after empirical dispersion term =     5798.1374131170 Hartrees.
 Leave Link  301 at Sat Feb  8 04:25:56 2025, MaxMem= 13421772800 cpu:               1.4 elap:               0.1
 (Enter /public/software/apps/Gaussian/g16/l302.exe)
 NPDir=0 NMtPBC=     1 NCelOv=     1 NCel=       1 NClECP=     1 NCelD=      1
         NCelK=      1 NCelE2=     1 NClLst=     1 CellRange=     0.0.
 One-electron integrals computed using PRISM.
   1 Symmetry operations used in ECPInt.
 ECPInt:  NShTT=   60031 NPrTT=  246070 LenC2=   43375 LenP2D=  106750.
 LDataN:  DoStor=T MaxTD1= 4 Len=   56
 NBasis=   712 RedAO= T EigKep=  1.60D-04  NBF=   712
 NBsUse=   712 1.00D-06 EigRej= -1.00D+00 NBFU=   712
 Precomputing XC quadrature grid using
 IXCGrd= 4 IRadAn=           5 IRanWt=          -1 IRanGd=           0 AccXCQ= 0.00D+00.
 Generated NRdTot=       0 NPtTot=           0 NUsed=           0 NTot=          32
 NSgBfM=   710   709   710   710   710 MxSgAt=    81 MxSgA2=    81.
 Leave Link  302 at Sat Feb  8 04:25:57 2025, MaxMem= 13421772800 cpu:              31.0 elap:               1.0
 (Enter /public/software/apps/Gaussian/g16/l303.exe)
 DipDrv:  MaxL=1.
 Leave Link  303 at Sat Feb  8 04:25:57 2025, MaxMem= 13421772800 cpu:               3.4 elap:               0.1
 (Enter /public/software/apps/Gaussian/g16/l401.exe)
 ExpMin= 3.30D-02 ExpMax= 7.64D+04 ExpMxC= 1.15D+04 IAcc=3 IRadAn=         5 AccDes= 0.00D+00
 Harris functional with IExCor=  402 and IRadAn=       5 diagonalized for initial guess.
 HarFok:  IExCor=  402 AccDes= 0.00D+00 IRadAn=         5 IDoV= 1 UseB2=F ITyADJ=14
 ICtDFT=  3500011 ScaDFX=  1.000000  1.000000  1.000000  1.000000
 FoFCou: FMM=F IPFlag=           0 FMFlag=      100000 FMFlg1=        2001
         NFxFlg=           0 DoJE=T BraDBF=F KetDBF=T FulRan=T
         wScrn=  0.000000 ICntrl=       500 IOpCl=  0 I1Cent=   200000004 NGrid=           0
         NMat0=    1 NMatS0=      1 NMatT0=    0 NMatD0=    1 NMtDS0=    0 NMtDT0=    0
 Symmetry not used in FoFCou.
 Harris En= -3486.20630802847    
 JPrj=0 DoOrth=F DoCkMO=F.
 Initial guess <Sx>= 0.0000 <Sy>= 0.0000 <Sz>= 0.5000 <S**2>= 0.7500 S= 0.5000
 Leave Link  401 at Sat Feb  8 04:25:59 2025, MaxMem= 13421772800 cpu:              69.6 elap:               2.2
 (Enter /public/software/apps/Gaussian/g16/l502.exe)
 Two-electron integral symmetry not used.
 UHF open shell SCF:
 Using DIIS extrapolation, IDIIS=  1040.
 NGot= 13421772800 LenX= 13420591086 LenY= 13420015764
 Requested convergence on RMS density matrix=1.00D-08 within 128 cycles.
 Requested convergence on MAX density matrix=1.00D-06.
 Requested convergence on             energy=1.00D-06.
 No special actions if energy rises.
 Fock matrices will be formed incrementally for  20 cycles.

 Cycle   1  Pass 1  IDiag  1:
 FoFJK:  IHMeth= 1 ICntrl=       0 DoSepK=F KAlg= 0 I1Cent=           0 FoldK=F
 IRaf= 810000000 NMat=       1 IRICut=       1 DoRegI=T DoRafI=F ISym2E= 0 IDoP0=0 IntGTp=1.
 FoFCou: FMM=T IPFlag=           0 FMFlag=      100000 FMFlg1=        2001
         NFxFlg=           0 DoJE=F BraDBF=F KetDBF=F FulRan=T
         wScrn=  0.000000 ICntrl=         0 IOpCl=  1 I1Cent=           0 NGrid=           0
         NMat0=    1 NMatS0=      1 NMatT0=    0 NMatD0=    1 NMtDS0=    0 NMtDT0=    0
 Symmetry not used in FoFCou.
 FMM levels:  10  Number of levels for PrismC:   9
 E= -3470.57701583627    
 DIIS: error= 1.96D-01 at cycle   1 NSaved=   1.
 NSaved= 1 IEnMin= 1 EnMin= -3470.57701583627     IErMin= 1 ErrMin= 1.96D-01
 ErrMax= 1.96D-01  0.00D+00 EMaxC= 1.00D-01 BMatC= 7.60D+01 BMatP= 7.60D+01
 IDIUse=3 WtCom= 0.00D+00 WtEn= 1.00D+00
 Coeff-Com:  0.100D+01
 Coeff-En:   0.100D+01
 Coeff:      0.100D+01
 Gap=    -0.280 Goal=   None    Shift=    0.000
 Gap=     0.680 Goal=   None    Shift=    0.000
 GapD=   -0.280 DampG=0.250 DampE=0.125 DampFc=0.1250 IDamp=-1.
 Damping current iteration by 1.25D-01
 RMSDP=2.03D-01 MaxDP=6.96D+01              OVMax= 9.76D-01

 Cycle   2  Pass 1  IDiag  1:
 RMSU=  2.50D-02    CP:  1.28D+00
 E= -3475.30422304949     Delta-E=       -4.727207213218 Rises=F Damp=T
 DIIS: error= 1.28D-01 at cycle   2 NSaved=   2.
 NSaved= 2 IEnMin= 2 EnMin= -3475.30422304949     IErMin= 2 ErrMin= 1.28D-01
 ErrMax= 1.28D-01  0.00D+00 EMaxC= 1.00D-01 BMatC= 2.92D+01 BMatP= 7.60D+01
 IDIUse=3 WtCom= 0.00D+00 WtEn= 1.00D+00
 Coeff-Com: -0.121D+01 0.221D+01
 Coeff-En:   0.000D+00 0.100D+01
 Coeff:      0.000D+00 0.100D+01
 Gap=    -0.345 Goal=   None    Shift=    0.000
 Gap=     0.107 Goal=   None    Shift=    0.000
 RMSDP=3.33D-02 MaxDP=5.58D+00 DE=-4.73D+00 OVMax= 9.11D-01

 Cycle   3  Pass 1  IDiag  1:
 RMSU=  2.44D-02    CP:  1.45D+00  1.90D+00
 E= -3460.05430960242     Delta-E=       15.249913447065 Rises=F Damp=F
 DIIS: error= 1.39D-01 at cycle   3 NSaved=   3.
 NSaved= 3 IEnMin= 2 EnMin= -3475.30422304949     IErMin= 2 ErrMin= 1.28D-01
 ErrMax= 1.39D-01  0.00D+00 EMaxC= 1.00D-01 BMatC= 7.12D+01 BMatP= 2.92D+01
 IDIUse=2 WtCom= 0.00D+00 WtEn= 1.00D+00
 EnCoef did     5 forward-backward iterations
 Coeff-En:   0.590D+00 0.251D-02 0.408D+00
 Coeff:      0.590D+00 0.251D-02 0.408D+00
 Gap=     0.234 Goal=   None    Shift=    0.000
 Gap=    -0.311 Goal=   None    Shift=    0.000
 RMSDP=5.51D-02 MaxDP=1.06D+01 DE= 1.52D+01 OVMax= 9.79D-01

 Cycle   4  Pass 1  IDiag  1:
 RMSU=  3.57D-02    CP:  1.05D+00  4.41D-01  1.88D-01
 E= -3412.96439972999     Delta-E=       47.089909872431 Rises=F Damp=F
 DIIS: error= 1.55D-01 at cycle   4 NSaved=   4.
 NSaved= 4 IEnMin= 2 EnMin= -3475.30422304949     IErMin= 2 ErrMin= 1.28D-01
 ErrMax= 1.55D-01  0.00D+00 EMaxC= 1.00D-01 BMatC= 1.23D+02 BMatP= 2.92D+01
 IDIUse=2 WtCom= 0.00D+00 WtEn= 1.00D+00
 EnCoef did   100 forward-backward iterations
 Coeff-En:   0.550D+00 0.220D-02 0.364D+00 0.840D-01
 Coeff:      0.550D+00 0.220D-02 0.364D+00 0.840D-01
 Gap=    -0.255 Goal=   None    Shift=    0.000
 Gap=    -0.170 Goal=   None    Shift=    0.000
 RMSDP=3.66D-02 MaxDP=1.13D+01 DE= 4.71D+01 OVMax= 8.50D-01

 Cycle   5  Pass 1  IDiag  1:
 RMSU=  5.12D-03    CP:  9.16D-01  1.03D-01  1.08D-01  1.57D-02
 E= -3483.43413941180     Delta-E=      -70.469739681806 Rises=F Damp=F
 DIIS: error= 5.82D-02 at cycle   5 NSaved=   5.
 NSaved= 5 IEnMin= 5 EnMin= -3483.43413941180     IErMin= 5 ErrMin= 5.82D-02
 ErrMax= 5.82D-02  0.00D+00 EMaxC= 1.00D-01 BMatC= 1.07D+01 BMatP= 2.92D+01
 IDIUse=3 WtCom= 4.18D-01 WtEn= 5.82D-01
 EnCoef did   100 forward-backward iterations
 Coeff-Com: -0.494D+00 0.102D+01 0.331D-01-0.572D-01 0.502D+00
 Coeff-En:   0.212D+00 0.341D-02 0.000D+00 0.000D+00 0.784D+00
 Coeff:     -0.830D-01 0.427D+00 0.138D-01-0.239D-01 0.666D+00
 Gap=     0.323 Goal=   None    Shift=    0.000
 Gap=    -0.057 Goal=   None    Shift=    0.000
 RMSDP=7.12D-03 MaxDP=1.09D+00 DE=-7.05D+01 OVMax= 9.24D-01

 Cycle   6  Pass 1  IDiag  1:
 RMSU=  5.59D-03    CP:  8.79D-01 -2.42D-02  7.11D-02  6.03D-03  4.44D-01
 E= -3471.51028718658     Delta-E=       11.923852225216 Rises=F Damp=F
 DIIS: error= 6.08D-02 at cycle   6 NSaved=   6.
 NSaved= 6 IEnMin= 5 EnMin= -3483.43413941180     IErMin= 5 ErrMin= 5.82D-02
 ErrMax= 6.08D-02  0.00D+00 EMaxC= 1.00D-01 BMatC= 2.75D+01 BMatP= 1.07D+01
 IDIUse=2 WtCom= 0.00D+00 WtEn= 1.00D+00
 EnCoef did   100 forward-backward iterations
 Coeff-En:   0.173D+00 0.160D-02 0.000D+00 0.000D+00 0.724D+00 0.102D+00
 Coeff:      0.173D+00 0.160D-02 0.000D+00 0.000D+00 0.724D+00 0.102D+00
 Gap=     0.065 Goal=   None    Shift=    0.000
 Gap=     0.000 Goal=   None    Shift=    0.000
 RMSDP=5.22D-03 MaxDP=4.40D-01 DE= 1.19D+01 OVMax= 6.69D-01

 Cycle   7  Pass 1  IDiag  1:
 RMSU=  3.56D-03    CP:  9.01D-01  1.11D-02  4.74D-02  1.22D-02  3.93D-01
                    CP:  3.50D-01
 E= -3484.77862336645     Delta-E=      -13.268336179870 Rises=F Damp=F
 DIIS: error= 3.91D-02 at cycle   7 NSaved=   7.
 NSaved= 7 IEnMin= 7 EnMin= -3484.77862336645     IErMin= 7 ErrMin= 3.91D-02
 ErrMax= 3.91D-02  0.00D+00 EMaxC= 1.00D-01 BMatC= 5.11D+00 BMatP= 1.07D+01
 IDIUse=3 WtCom= 6.09D-01 WtEn= 3.91D-01
 EnCoef did     6 forward-backward iterations
 Coeff-Com:  0.288D-01-0.705D-03-0.234D-01-0.131D-01 0.428D+00 0.438D-01
 Coeff-Com:  0.536D+00
 Coeff-En:   0.339D-01 0.000D+00 0.000D+00 0.000D+00 0.349D+00 0.000D+00
 Coeff-En:   0.617D+00
 Coeff:      0.308D-01-0.429D-03-0.142D-01-0.798D-02 0.397D+00 0.266D-01
 Coeff:      0.568D+00
 Gap=     0.129 Goal=   None    Shift=    0.000
 Gap=    -0.046 Goal=   None    Shift=    0.000
 RMSDP=3.97D-03 MaxDP=3.47D-01 DE=-1.33D+01 OVMax= 5.14D-01

 Cycle   8  Pass 1  IDiag  1:
 RMSU=  3.01D-03    CP:  8.99D-01 -2.41D-02  3.44D-02  1.05D-02  5.47D-01
                    CP:  1.94D-01  4.06D-01
 E= -3485.21882366118     Delta-E=       -0.440200294732 Rises=F Damp=F
 DIIS: error= 3.19D-02 at cycle   8 NSaved=   8.
 NSaved= 8 IEnMin= 8 EnMin= -3485.21882366118     IErMin= 8 ErrMin= 3.19D-02
 ErrMax= 3.19D-02  0.00D+00 EMaxC= 1.00D-01 BMatC= 2.57D+00 BMatP= 5.11D+00
 IDIUse=3 WtCom= 6.81D-01 WtEn= 3.19D-01
 EnCoef did     3 forward-backward iterations
 Coeff-Com: -0.708D-01 0.102D+00-0.143D-01-0.753D-02 0.285D+00 0.183D-01
 Coeff-Com:  0.347D+00 0.341D+00
 Coeff-En:   0.000D+00 0.000D+00 0.000D+00 0.000D+00 0.162D+00 0.000D+00
 Coeff-En:   0.324D+00 0.515D+00
 Coeff:     -0.482D-01 0.694D-01-0.972D-02-0.513D-02 0.245D+00 0.125D-01
 Coeff:      0.339D+00 0.396D+00
 Gap=     0.159 Goal=   None    Shift=    0.000
 Gap=     0.057 Goal=   None    Shift=    0.000
 RMSDP=2.76D-03 MaxDP=2.67D-01 DE=-4.40D-01 OVMax= 6.16D-01

 Cycle   9  Pass 1  IDiag  1:
 RMSU=  1.37D-03    CP:  8.77D-01 -3.21D-02  4.17D-02  7.54D-03  6.25D-01
                    CP:  2.22D-01  4.88D-01  2.37D-01
 E= -3485.73759180654     Delta-E=       -0.518768145357 Rises=F Damp=F
 DIIS: error= 1.24D-02 at cycle   9 NSaved=   9.
 NSaved= 9 IEnMin= 9 EnMin= -3485.73759180654     IErMin= 9 ErrMin= 1.24D-02
 ErrMax= 1.24D-02  0.00D+00 EMaxC= 1.00D-01 BMatC= 8.28D-01 BMatP= 2.57D+00
 IDIUse=3 WtCom= 8.76D-01 WtEn= 1.24D-01
 Coeff-Com: -0.575D-01 0.773D-01-0.211D-02-0.171D-02 0.436D-01-0.504D-02
 Coeff-Com:  0.134D+00 0.325D+00 0.486D+00
 Coeff-En:   0.000D+00 0.000D+00 0.000D+00 0.000D+00 0.000D+00 0.000D+00
 Coeff-En:   0.000D+00 0.268D+00 0.732D+00
 Coeff:     -0.503D-01 0.677D-01-0.184D-02-0.150D-02 0.382D-01-0.442D-02
 Coeff:      0.118D+00 0.318D+00 0.517D+00
 Gap=     0.143 Goal=   None    Shift=    0.000
 Gap=     0.002 Goal=   None    Shift=    0.000
 RMSDP=1.63D-03 MaxDP=1.60D-01 DE=-5.19D-01 OVMax= 9.26D-01

 Cycle  10  Pass 1  IDiag  1:
 RMSU=  8.74D-04    CP:  8.85D-01 -2.78D-02  3.85D-02  7.97D-03  5.80D-01
                    CP:  2.15D-01  5.16D-01  5.83D-01  3.82D-01
 E= -3485.83759951811     Delta-E=       -0.100007711570 Rises=F Damp=F
 DIIS: error= 9.86D-03 at cycle  10 NSaved=  10.
 NSaved=10 IEnMin=10 EnMin= -3485.83759951811     IErMin=10 ErrMin= 9.86D-03
 ErrMax= 9.86D-03  0.00D+00 EMaxC= 1.00D-01 BMatC= 2.71D-01 BMatP= 8.28D-01
 IDIUse=3 WtCom= 9.01D-01 WtEn= 9.86D-02
 Coeff-Com: -0.318D-01 0.471D-01-0.287D-02 0.571D-03 0.165D-01-0.758D-02
 Coeff-Com:  0.676D-01 0.131D+00 0.381D+00 0.399D+00
 Coeff-En:   0.000D+00 0.000D+00 0.000D+00 0.000D+00 0.000D+00 0.000D+00
 Coeff-En:   0.000D+00 0.000D+00 0.344D+00 0.656D+00
 Coeff:     -0.287D-01 0.425D-01-0.259D-02 0.515D-03 0.149D-01-0.684D-02
 Coeff:      0.610D-01 0.118D+00 0.377D+00 0.424D+00
 Gap=     0.142 Goal=   None    Shift=    0.000
 Gap=    -0.003 Goal=   None    Shift=    0.000
 RMSDP=1.30D-03 MaxDP=1.26D-01 DE=-1.00D-01 OVMax= 8.75D-01

 Cycle  11  Pass 1  IDiag  1:
 RMSU=  8.69D-04    CP:  8.82D-01 -2.79D-02  3.77D-02  8.69D-03  6.03D-01
                    CP:  2.15D-01  5.27D-01  4.03D-01  6.37D-01  1.93D-01
 E= -3485.86469266985     Delta-E=       -0.027093151739 Rises=F Damp=F
 DIIS: error= 9.42D-03 at cycle  11 NSaved=  11.
 NSaved=11 IEnMin=11 EnMin= -3485.86469266985     IErMin=11 ErrMin= 9.42D-03
 ErrMax= 9.42D-03  0.00D+00 EMaxC= 1.00D-01 BMatC= 1.97D-01 BMatP= 2.71D-01
 IDIUse=3 WtCom= 9.06D-01 WtEn= 9.42D-02
 EnCoef did     8 forward-backward iterations
 Coeff-Com: -0.214D-01 0.378D-01-0.170D-02-0.562D-04-0.154D-01-0.702D-02
 Coeff-Com:  0.262D-01 0.216D-01 0.245D+00 0.410D+00 0.306D+00
 Coeff-En:   0.000D+00 0.000D+00 0.000D+00 0.000D+00 0.000D+00 0.000D+00
 Coeff-En:   0.000D+00 0.000D+00 0.115D+00 0.418D+00 0.467D+00
 Coeff:     -0.194D-01 0.342D-01-0.154D-02-0.509D-04-0.139D-01-0.636D-02
 Coeff:      0.237D-01 0.195D-01 0.233D+00 0.410D+00 0.321D+00
 Gap=     0.146 Goal=   None    Shift=    0.000
 Gap=    -0.003 Goal=   None    Shift=    0.000
 RMSDP=1.03D-03 MaxDP=1.26D-01 DE=-2.71D-02 OVMax= 7.70D-01

 Cycle  12  Pass 1  IDiag  1:
 RMSU=  4.33D-04    CP:  8.82D-01 -3.01D-02  3.86D-02  8.18D-03  5.93D-01
                    CP:  2.12D-01  5.02D-01  4.50D-01  5.23D-01  9.50D-01
                    CP:  2.97D-01
 E= -3485.89633137865     Delta-E=       -0.031638708802 Rises=F Damp=F
 DIIS: error= 4.48D-03 at cycle  12 NSaved=  12.
 NSaved=12 IEnMin=12 EnMin= -3485.89633137865     IErMin=12 ErrMin= 4.48D-03
 ErrMax= 4.48D-03  0.00D+00 EMaxC= 1.00D-01 BMatC= 6.69D-02 BMatP= 1.97D-01
 IDIUse=3 WtCom= 9.55D-01 WtEn= 4.48D-02
 Coeff-Com: -0.793D-02 0.182D-01-0.194D-02 0.212D-03-0.631D-02-0.550D-02
 Coeff-Com:  0.313D-01-0.163D-01 0.898D-01 0.175D+00 0.324D+00 0.400D+00
 Coeff-En:   0.000D+00 0.000D+00 0.000D+00 0.000D+00 0.000D+00 0.000D+00
 Coeff-En:   0.000D+00 0.000D+00 0.000D+00 0.000D+00 0.306D+00 0.694D+00
 Coeff:     -0.757D-02 0.174D-01-0.185D-02 0.202D-03-0.603D-02-0.525D-02
 Coeff:      0.299D-01-0.156D-01 0.857D-01 0.167D+00 0.323D+00 0.413D+00
 Gap=     0.139 Goal=   None    Shift=    0.000
 Gap=     0.017 Goal=   None    Shift=    0.000
 RMSDP=4.05D-04 MaxDP=5.00D-02 DE=-3.16D-02 OVMax= 2.81D-01

 Cycle  13  Pass 1  IDiag  1:
 RMSU=  2.22D-04    CP:  8.82D-01 -2.92D-02  3.77D-02  8.05D-03  5.92D-01
                    CP:  2.11D-01  5.16D-01  4.24D-01  5.20D-01  8.18D-01
                    CP:  6.27D-01  7.80D-01
 E= -3485.91411319576     Delta-E=       -0.017781817111 Rises=F Damp=F
 DIIS: error= 1.67D-03 at cycle  13 NSaved=  13.
 NSaved=13 IEnMin=13 EnMin= -3485.91411319576     IErMin=13 ErrMin= 1.67D-03
 ErrMax= 1.67D-03  0.00D+00 EMaxC= 1.00D-01 BMatC= 9.57D-03 BMatP= 6.69D-02
 IDIUse=3 WtCom= 9.83D-01 WtEn= 1.67D-02
 Coeff-Com: -0.788D-02 0.150D-01-0.714D-03 0.359D-03-0.340D-02-0.198D-02
 Coeff-Com:  0.214D-01 0.305D-02 0.877D-02-0.961D-01 0.128D+00 0.212D+00
 Coeff-Com:  0.721D+00
 Coeff-En:   0.000D+00 0.000D+00 0.000D+00 0.000D+00 0.000D+00 0.000D+00
 Coeff-En:   0.000D+00 0.000D+00 0.000D+00 0.000D+00 0.000D+00 0.000D+00
 Coeff-En:   0.100D+01
 Coeff:     -0.775D-02 0.148D-01-0.703D-03 0.353D-03-0.335D-02-0.195D-02
 Coeff:      0.211D-01 0.300D-02 0.863D-02-0.945D-01 0.126D+00 0.209D+00
 Coeff:      0.725D+00
 Gap=     0.131 Goal=   None    Shift=    0.000
 Gap=     0.035 Goal=   None    Shift=    0.000
 RMSDP=1.59D-04 MaxDP=1.33D-02 DE=-1.78D-02 OVMax= 4.05D-02

 Cycle  14  Pass 1  IDiag  1:
 RMSU=  1.07D-04    CP:  8.82D-01 -2.92D-02  3.75D-02  8.24D-03  5.91D-01
                    CP:  2.12D-01  5.19D-01  4.02D-01  5.41D-01  7.69D-01
                    CP:  6.84D-01  9.11D-01  8.48D-01
 E= -3485.91675431024     Delta-E=       -0.002641114477 Rises=F Damp=F
 DIIS: error= 9.23D-04 at cycle  14 NSaved=  14.
 NSaved=14 IEnMin=14 EnMin= -3485.91675431024     IErMin=14 ErrMin= 9.23D-04
 ErrMax= 9.23D-04  0.00D+00 EMaxC= 1.00D-01 BMatC= 3.16D-03 BMatP= 9.57D-03
 IDIUse=3 WtCom= 9.91D-01 WtEn= 9.23D-03
 Coeff-Com: -0.702D-02 0.122D-01-0.400D-03-0.728D-05-0.954D-03-0.124D-02
[...]
 0019335,0.00062192,-0.00029905,-0.00045246,-0.00014882,0.00002966,0.00
 016755,0.00004048,-0.00012018,-0.00007549,-0.00003405,0.00012859,-0.00
 003424,0.00002734,-0.00001700,0.00011017,0.00000724,0.00022380,-0.0002
 1820,0.00001679,-0.00000963,0.00042785,-0.00001025,0.00000507,-0.00003
 819,-0.00002444,-0.00003763,-0.00000965,0.00001617,0.00004351,-0.00003
 603,-0.00000438,-0.00003207,0.00001073,-0.00000122,-0.00000550,0.00000
 009,0.00000668,0.00000564,-0.00000246,-0.00000747,-0.00000164,0.000000
 93,0.00000458,0.00000114,-0.00000604,-0.00000525,-0.00000071,0.0000222
 6,0.00002112,0.00001353,-0.00002308,-0.00002599,-0.00001663,0.00000806
 ,0.00001531,0.00000018,0.00000298,-0.00000064,0.00000047,-0.00000180,0
 .00000164,0.00000040,-0.00000175,0.00000030,0.00000556,-0.00000389,-0.
 00000302,-0.00000613,0.00000013,0.00002798,0.00000381,0.00000126,-0.00
 001765,-0.00001950,-0.00000034,0.00003203,0.00002245,0.00000044,0.0000
 0212,0.00000761,-0.00000268,-0.00000971,0.00001190,-0.00000512,0.00000
 799,0.00001028,0.00000341,0.00000792,-0.00058336,-0.00022911,-0.000272
 39,0.00011486,-0.00020890,0.00008677,-0.05438822,0.04593902,-0.0302280
 8,0.00000661,0.00001873,-0.00000255,0.00000943,-0.00003078,0.00003923,
 0.00000630,0.00004320,0.00000570,-0.00002572,0.00001565,-0.00002144,0.
 00000547,-0.00000040,-0.00000562,-0.00000023,0.00001153,0.00000586,-0.
 00000324,0.00000068,0.00000255,0.00008254,0.00020732,0.00011972,0.0000
 8785,0.00010111,0.00007791,0.00021718,-0.00070563,0.00022523,-0.000312
 62,0.00008969,0.00031388,0.00023622,0.00092521,-0.00054312,0.00027477,
 0.00015556,-0.00029270,-0.00000901,0.00000680,-0.00000505,-0.00000179,
 0.00001032,0.00000081,0.00000182,0.00000295,-0.00000069,0.00000200,0.0
 0000318,-0.00000278,-0.00000218,-0.00000059,0.00000020,0.00000192,0.00
 000146,-0.00000067,0.00000135,0.00000109,-0.00000209,0.00000029,-0.000
 00067,-0.00000137,0.00000142,-0.00000014,-0.00000059,-0.00000029,-0.00
 000037,0.00000017,-0.00000025,0.00000061,-0.00000008,-0.00000067,0.000
 00079,-0.00000025,0.00000186,-0.00000152,-0.00000036,-0.00000041,0.000
 00207,-0.00000217,-0.00000139,0.00000048,0.00000069,0.00000191,-0.0000
 0238,-0.00000010,-0.00000052,0.00000675,0.00000083,0.00000403,-0.00000
 003,0.00000335,0.00000399,0.00000043,0.00000135,0.00000169,0.00000097,
 0.00000379,-0.00000304,0.00000170,0.00000518,0.00000165,0.00000555,-0.
 00000800,0.04904198,-0.00000271,-0.00003226,0.00002760,0.00004399,0.00
 006266,0.00010045,0.00004447,-0.00000198,-0.00003867,-0.00015242,0.000
 07393,-0.00048322,0.00134804,0.00199326,0.00058189,0.00745703,-0.01909
 104,0.01233655,-0.00338361,-0.00218532,-0.00260225,-0.00050274,0.00052
 784,-0.00067810,-0.00034784,0.00175357,0.00040069,0.00027822,0.0000885
 4,0.00046046,-0.00028652,-0.00045449,-0.00114389,-0.00018297,-0.000218
 32,-0.00142054,-0.00012401,0.00014862,0.00006129,0.00000730,-0.0000131
 6,-0.00003508,0.00002978,0.00000129,0.00000594,-0.00001045,0.00001960,
 -0.00000306,-0.00000672,-0.00001201,0.00000622,-0.00006071,-0.00000679
 ,0.00000433,0.00011870,-0.00012158,0.00002245,0.00007318,0.00001101,-0
 .00001279,-0.00005394,-0.00002112,0.00010497,-0.00000073,0.00000340,-0
 .00014135,-0.00004366,0.00000825,-0.00000767,-0.00000612,0.00000007,0.
 00000513,0.00000265,-0.00000120,-0.00000682,-0.00000083,0.00000160,0.0
 0000293,0.00000077,-0.00000423,-0.00000638,0.00000093,0.00001963,0.000
 02166,0.00000355,-0.00001674,-0.00002487,-0.00000674,0.00000352,0.0000
 1417,0.00000071,0.00000037,-0.00000115,0.00000054,-0.00000066,0.000001
 24,-0.00000008,-0.00000005,0.00000062,0.00000506,-0.00000248,-0.000005
 18,-0.00001347,0.00000226,0.00003640,0.00001048,-0.00000498,-0.0000244
 9,-0.00001917,0.00000002,0.00003225,0.00002303,0.00000104,-0.00000127,
 -0.00000048,0.00000058,-0.00000995,0.00001276,0.00000092,0.00000212,0.
 00000193,0.00001250,0.00000577,0.00028479,0.00025561,0.00011600,-0.000
 00872,0.00016914,-0.00004321,0.04532596,-0.28742446,0.09907262,-0.0000
 1460,0.00001604,-0.00002453,0.00003331,-0.00004584,0.00000655,0.000021
 82,0.00006510,0.00000848,-0.00003555,0.00001432,-0.00002495,0.00001827
 ,0.00001118,0.00001138,-0.00000119,0.00001166,0.00000675,-0.00000790,-
 0.00000256,-0.00000718,0.00009136,0.00023729,0.00015750,-0.00004135,-0
 .00003067,-0.00000446,0.00029699,-0.00092294,0.00061027,0.00004450,-0.
 00006942,-0.00002608,-0.00008801,-0.00002251,-0.00005574,-0.00057022,-
 0.00041116,-0.00083587,0.00000865,0.00000159,-0.00000710,-0.00000100,0
 .00000070,0.00000404,0.00000021,-0.00000097,0.00000085,-0.00000406,-0.
 00001051,0.00000128,-0.00000079,-0.00000121,0.00000071,0.00000161,0.00
 000036,-0.00000017,0.00000173,0.00000033,-0.00000072,-0.00000014,-0.00
 000178,-0.00000304,0.00000129,0.00000042,-0.00000033,-0.00000002,0.000
 00015,0.00000026,0.00000024,0.00000028,0.,-0.00000051,-0.00000025,-0.0
 0000097,0.00000039,-0.00000026,-0.00000035,0.00000004,0.00000054,-0.00
 000139,-0.00000068,0.00000024,0.00000020,0.00000005,-0.00000077,-0.000
 00028,-0.00000122,0.00000435,0.00000194,0.00000228,-0.00000024,0.00000
 241,0.00000225,-0.00000056,0.00000065,0.00000008,-0.00000049,0.0000014
 4,-0.00000173,-0.00000045,0.00000186,-0.00000262,-0.00000240,0.0000047
 9,-0.04963444,0.30563134,0.00002086,0.00000361,0.00005286,0.00003999,0
 .00013549,0.00018030,0.00007136,0.00000162,-0.00005103,0.00017704,-0.0
 0024259,-0.00056076,0.00250194,0.00008319,-0.00066275,0.00059301,-0.01
 150250,0.00833193,-0.00343839,-0.00130416,0.00119260,0.00000984,-0.000
 45094,-0.00068479,-0.00569183,-0.00057147,-0.00003111,-0.00253327,0.02
 083794,-0.00330177,0.00247458,0.00006270,-0.00140386,-0.00124562,-0.00
 028188,-0.00067318,0.00042475,-0.00019990,0.00018013,-0.00006131,-0.00
 017919,-0.00007070,0.00009508,0.00008067,0.00002377,-0.00006392,0.0000
 3863,-0.00000794,0.00008720,-0.00005430,0.00001222,0.00004641,0.000091
 16,-0.00002738,0.00022415,0.00003993,0.00013732,0.00012460,-0.00000406
 ,-0.00006228,-0.00006235,0.00001073,0.00009679,0.00006076,0.00003441,-
 0.00016486,-0.00006544,0.00000570,-0.00000698,-0.00001240,0.00000583,0
 .00001666,0.00000753,-0.00000327,-0.00001464,-0.00000150,0.00000385,0.
 00000731,0.00000124,-0.00001043,-0.00001334,0.00000133,0.00004579,0.00
 004880,0.00000953,-0.00004191,-0.00005363,-0.00001694,0.00000998,0.000
 02916,0.00000245,0.00000345,-0.00000285,0.00000133,-0.00000205,0.00000
 262,0.00000014,-0.00000103,0.00000122,0.00001114,-0.00000866,-0.000011
 63,-0.00001093,-0.00000079,0.00006238,0.00003769,-0.00000559,-0.000030
 70,-0.00002759,0.00000288,0.00003901,0.00003182,0.00000008,0.00000510,
 0.00000181,-0.00000704,-0.00001365,0.00000249,0.00000129,0.00001606,0.
 00000111,-0.00001633,-0.00003562,-0.00012593,0.00008342,0.00029210,-0.
 00001459,0.00000653,0.00002953,-0.03109334,0.10041300,-0.08846763,0.00
 000331,0.00000256,-0.00001996,0.00000162,0.00000394,-0.00002333,0.0000
 0200,0.00000425,-0.00001391,-0.00001713,-0.00000186,-0.00000273,0.0000
 2588,0.00001952,0.00001641,-0.00000369,0.00000371,0.00000154,-0.000009
 88,-0.00000611,-0.00001084,0.00001041,0.00003873,0.00002607,-0.0000227
 9,-0.00006104,-0.00000885,0.00001559,-0.00067407,0.00022498,0.00031271
 ,0.00000677,-0.00025579,-0.00033130,0.00110327,-0.00004563,0.00031743,
 -0.00094318,-0.00097828,0.00001880,-0.00003267,-0.00000090,-0.00000074
 ,0.00000631,0.00000817,0.00000378,0.00000403,0.00000288,0.00000816,0.0
 0000639,0.00000675,-0.00000245,-0.00000224,0.00000081,0.00000311,0.000
 00096,-0.00000069,0.00000353,0.00000132,-0.00000202,0.00000011,-0.0000
 0288,-0.00000613,0.00000228,-0.00000011,-0.00000083,-0.00000083,-0.000
 00097,0.00000063,-0.00000021,0.00000004,0.00000013,-0.00000096,0.00000
 017,-0.00000186,0.00000159,-0.00000079,-0.00000082,-0.00000003,0.00000
 240,-0.00000292,-0.00000218,-0.00000013,0.00000088,0.00000129,-0.00000
 206,-0.00000076,-0.00000546,0.00001118,0.00000283,0.00000529,0.0000001
 8,0.00000588,0.00000520,0.00000106,0.00000156,0.00000094,0.00000183,0.
 00000394,-0.00000385,0.00000139,0.00000436,-0.00000206,0.00000906,-0.0
 0000140,0.03702204,-0.10663767,0.08664756,0.00001952,-0.00000808,-0.00
 000551,-0.00002375,0.00002653,0.00001374,0.00002308,-0.00001086,-0.000
 02249,-0.00018951,-0.00019338,-0.00016247,0.00042344,0.00007490,0.0004
 0113,-0.00038121,-0.00007685,-0.00035807,0.00006502,-0.00000667,0.0000
 9557,-0.00004769,-0.00014836,-0.00011775,-0.00006486,0.00017413,-0.000
 16028,-0.00041650,-0.00062418,-0.00009723,0.00362522,-0.00075023,0.000
 55797,-0.00006659,0.00303230,0.00074340,0.00064803,-0.00196541,-0.0004
 3674,-0.00002034,0.00236703,0.00059653,-0.00107726,-0.00083856,-0.0004
 8500,0.00004099,-0.00052241,-0.00014062,-0.00018862,-0.00055289,-0.000
 27228,-0.00199411,0.00177556,0.00056270,0.00033802,-0.00669548,-0.0013
 6897,-0.00154797,0.00088051,0.00446901,-0.00392512,-0.00393455,-0.0163
 4671,-0.01807070,-0.04061509,0.00166327,0.00214477,-0.00016646,0.00062
 950,0.00067476,-0.00016251,-0.00065943,-0.00007221,0.00018737,0.000313
 81,0.00010921,0.00013461,0.00004708,0.00010113,-0.00006875,-0.00018534
 ,0.00035128,0.00073449,0.00072334,0.00038733,-0.00023124,-0.00054488,-
 0.00033666,0.00019532,0.00054189,0.00000343,0.00001118,-0.00005562,0.0
 0002289,-0.00002930,0.00004673,-0.00000327,-0.00001195,0.00000831,-0.0
 0255088,-0.00190216,-0.00019380,0.00026892,0.00014176,-0.00223062,-0.0
 0045498,0.00011197,0.00152098,0.00051476,-0.00003442,-0.00157960,-0.00
 100602,-0.00001810,0.00035250,0.00003945,0.00010072,0.00046009,-0.0001
 0365,-0.00005689,0.00005741,-0.00056322,-0.00027976,-0.00061179,-0.019
 18295,0.02196023,0.01225519,-0.03234800,-0.02607515,0.04415641,0.00028
 386,0.00013750,-0.00027096,0.00003069,0.00000495,0.00000026,-0.0000218
 0,0.00001480,0.00002489,-0.00001280,-0.00001262,-0.00000210,0.00000304
 ,-0.00000438,-0.00000183,0.00002036,0.00001028,0.00000300,-0.00000663,
 0.00000283,0.00000007,-0.00000673,-0.00000170,0.00000722,0.00000761,0.
 00001851,0.00000286,0.00002104,0.00000918,0.00003376,0.00002023,0.0000
 2906,0.00002006,0.00000233,0.00004141,-0.00000355,0.00000950,-0.000136
 94,0.00010135,0.00005708,-0.00011278,0.00005467,-0.00003279,0.00001711
 ,-0.00000415,-0.00001144,-0.00001451,0.00000032,0.00004309,0.00000094,
 0.00000969,0.00001100,0.00006443,-0.00000760,0.00012286,0.00014247,0.0
 0001796,0.00002502,0.00003102,0.00001026,0.00010625,0.00008561,0.00000
 049,0.00000093,-0.00004963,-0.00006714,0.00009479,0.00001839,-0.000059
 62,-0.00000113,0.00002594,0.00001294,0.00000714,0.00001227,-0.00000679
 ,-0.00001330,0.00000337,-0.00001130,0.00002637,-0.00002088,-0.00001517
 ,-0.00002070,0.00001459,-0.00004488,-0.00000453,0.00001449,-0.00000054
 ,0.00002334,-0.00003142,-0.00000265,-0.00033249,0.00173161,0.00047968,
 -0.00002450,-0.00004005,-0.00004532,-0.00003465,-0.00000718,-0.0000264
 7,-0.00001210,-0.00001922,-0.00000499,0.00003517,0.00000484,-0.0000092
 5,0.00001517,-0.00004118,-0.00003173,-0.00008169,0.00002173,0.00004266
 ,0.07448521,-0.00000850,0.00001158,0.00000629,0.00000745,-0.00002024,-
 0.00001132,-0.00001156,0.00001113,0.00000995,0.00007000,0.00013589,0.0
 0009800,-0.00018325,-0.00005790,-0.00019178,0.00011874,-0.00019659,0.0
 0019420,-0.00015018,0.00001097,-0.00027276,0.00008268,0.00018323,0.000
 09127,-0.00006229,-0.00039619,0.00000903,-0.00004481,0.00027484,0.0000
 2135,0.00026226,0.00002595,0.00019117,0.00003777,-0.00086820,-0.000278
 28,-0.00023931,0.00053463,0.00005330,0.00013253,-0.00090890,-0.0001670
 9,0.00057418,0.00039936,0.00024813,-0.00027526,0.00040481,-0.00012727,
 0.00005087,-0.00023176,0.00026893,0.00047582,-0.00089584,0.00010057,0.
 00091343,-0.00011035,-0.00345314,-0.00267650,-0.00122366,0.00855042,-0
 .01013766,-0.00904129,-0.03516475,-0.03448737,-0.07357517,0.00330094,0
 .00519620,0.00054741,0.00502137,-0.00120006,0.00014455,0.00069110,0.00
 017710,-0.00028755,-0.00013503,0.00001077,0.00007898,0.00006259,-0.000
 05959,-0.00006271,0.00000857,-0.00016558,0.00030086,0.00051789,-0.0001
 1523,-0.00053602,-0.00034005,-0.00003312,0.00005006,0.00001948,0.00004
 297,0.00007658,-0.00002154,0.00000738,-0.00002411,0.00000153,0.0000109
 9,-0.00002731,0.00000647,0.00044712,0.00020194,-0.00012092,0.00186506,
 -0.00027721,-0.00371028,0.00009672,0.00004300,0.00284632,0.00085312,-0
 .00002303,-0.00294328,-0.00171854,-0.00005549,0.00078173,0.00000415,-0
 .00022290,0.00077582,-0.00054634,0.00022102,0.00055742,-0.00190482,-0.
 00027767,-0.00294890,0.00898913,-0.00254715,-0.00706416,-0.01787243,-0
 .00551443,0.02127054,0.00007610,-0.00009184,0.00002795,-0.00001212,-0.
 00000097,-0.00000131,0.00000754,-0.00000599,-0.00001432,0.00000738,-0.
 00000106,0.00000009,0.00000714,-0.00000476,0.00000089,-0.00000755,-0.0
 0000484,-0.00000313,0.00000344,-0.00000839,0.00000095,0.00000058,0.000
 00169,-0.00000275,-0.00000022,-0.00002685,0.00000583,-0.00001341,0.000
 00224,-0.00001500,-0.00001456,-0.00001677,-0.00001941,-0.00005567,-0.0
 0007219,0.00004813,-0.00001811,0.00013130,-0.00016009,-0.00001327,0.00
 005134,-0.00004045,-0.00001255,-0.00001201,0.00001289,0.,0.00001441,0.
 00003571,-0.00000264,0.00003098,-0.00003392,-0.00000146,0.00003729,0.0
 0010165,-0.00006562,-0.00000630,-0.00002061,0.00000251,0.00000730,-0.0
 0002362,-0.00000703,0.00000070,-0.00002514,0.00001804,0.00001671,-0.00
 004242,-0.00004082,-0.00002905,0.00000941,-0.00001241,-0.00005306,0.00
 000052,-0.00001907,-0.00001041,0.00000867,0.00000268,0.00000885,-0.000
 00443,0.00000770,-0.00000089,-0.00000307,0.00000674,0.00003589,-0.0000
 0314,-0.00003037,-0.00001437,0.00001289,0.00001547,-0.00000832,-0.0000
 0842,-0.00070551,0.00033923,0.00003185,0.00012728,-0.00003613,0.000354
 44,-0.00001286,0.00003520,-0.00002052,-0.00002173,0.00005558,0.0000098
 3,0.00005151,0.00001259,0.00001912,0.00001831,0.00014381,-0.00004730,0
 .00007429,-0.00001730,0.00002291,0.05210622,0.09322127,0.00000077,0.00
 000652,0.00001334,0.00000286,-0.00005127,-0.00002314,-0.00001594,0.000
 00768,0.00001671,0.00011061,0.00018876,0.00021605,-0.00050121,0.000070
 03,-0.00065832,0.00028211,-0.00045415,0.00043424,-0.00024330,0.0002033
 6,-0.00048755,0.00008607,0.00043293,0.00030640,0.00012035,-0.00076923,
 0.00044180,0.00069421,0.00078008,0.00025353,-0.00593287,0.00317427,0.0
 0067778,-0.00058920,-0.00366305,-0.00161233,-0.00100263,0.00257672,0.0
 0036436,0.00015199,-0.00300946,-0.00073421,0.00143781,0.00122347,0.000
 65365,-0.00025214,0.00087275,-0.00010878,0.00024952,0.00052025,0.00054
 961,0.00286421,-0.00243225,-0.00026733,-0.00002926,0.00804166,-0.00040
 245,-0.00121622,-0.00378228,0.00316820,-0.01046949,-0.01222119,-0.0222
 7448,-0.00160263,-0.00619231,0.00600915,0.00205113,0.00028179,0.001618
 19,-0.00070621,0.00022196,0.00045888,0.00013125,-0.00011130,-0.0000982
 3,-0.00003560,0.00013396,0.00009989,0.00002619,-0.00020582,-0.00021687
 ,0.00009715,0.00087396,0.00090069,-0.00023763,-0.00052266,-0.00075904,
 -0.00001921,0.00003542,0.00024048,0.00004034,0.00000739,-0.00003519,0.
 00000630,-0.00000556,0.00001084,-0.00001332,0.00001664,0.00003204,-0.0
 0004043,-0.00027110,-0.00058312,0.00090325,-0.00015779,-0.00227505,0.0
 0029237,-0.00000404,0.00169453,0.00051199,0.00005350,-0.00204034,-0.00
 126756,-0.00003674,0.00051276,0.00006603,-0.00023629,0.00062160,-0.000
 40632,0.00036020,0.00020476,-0.00102575,-0.00001478,-0.00246687,0.0230
 1371,-0.02580446,-0.01313276,0.03749135,0.02834082,-0.05120879,0.00006
 833,-0.00018016,-0.00021568,-0.00001629,-0.00000078,-0.00000935,0.0000
 1563,-0.00001774,-0.00002150,0.00000709,0.00001706,0.00000316,0.000005
 28,0.00000621,-0.00000261,-0.00000570,-0.00000808,-0.00000543,-0.00000
 041,-0.00000378,0.00000405,-0.00000274,0.00000300,-0.00001661,-0.00000
 453,-0.00003458,0.00001391,-0.00004639,0.00000045,-0.00006574,-0.00004
 144,-0.00002441,-0.00004817,-0.00001402,-0.00001222,0.00004798,0.00004
 533,0.00027253,-0.00054361,-0.00021943,0.00031730,0.00000744,-0.000005
 20,-0.00003191,0.00003993,0.00000295,0.00001228,0.00006782,-0.00005144
 ,0.00002698,-0.00001429,-0.00003032,-0.00005734,0.00016656,-0.00000896
 ,-0.00002301,0.00001666,0.00002397,0.00000695,-0.00001516,0.00006640,0
 .00001428,0.00000083,0.00001739,-0.00004075,-0.00011015,0.00000199,-0.
 00000024,-0.00000329,-0.00000387,-0.00001143,0.00001174,-0.00000115,-0
 .00000396,0.00000236,-0.00000287,-0.00000786,-0.00002770,-0.00000190,0
 .00000475,-0.00000431,0.00000254,0.00000634,-0.00002173,-0.00001640,-0
 .00000364,-0.00000156,-0.00000957,-0.00000651,-0.00001382,-0.00038104,
 0.00010084,0.00047531,0.00004416,-0.00009798,0.00014724,-0.00000187,0.
 00002559,-0.00001469,-0.00001884,0.00004733,0.00002059,0.00002768,-0.0
 0002209,0.00002217,-0.00001474,0.00014102,0.00000578,-0.00006681,0.000
 07566,0.00001750,-0.04438741,0.01103150,0.07996976\\-0.00000122,-0.000
 00072,0.00000327,-0.00000057,-0.00000168,-0.00000353,-0.00000138,-0.00
 000062,0.00000122,-0.00000017,0.00000828,0.00000945,0.00000505,-0.0000
 0993,0.00000063,-0.00000790,0.00000106,-0.00000654,0.00000282,0.000002
 86,0.00000218,-0.00000229,-0.00000280,-0.00000159,0.00000381,0.0000104
 5,0.00000238,-0.00000725,-0.00001186,-0.00000521,0.00000576,0.00000966
 ,-0.00000283,-0.00000342,-0.00000653,-0.00000215,-0.00000633,0.0000044
 3,-0.00000171,0.00000039,-0.00000708,-0.00000252,0.00000805,0.00000262
 ,0.00000226,-0.00000607,0.00000583,-0.00000051,0.00000196,-0.00000405,
 -0.00000146,0.00000298,0.00000232,-0.00000163,0.00002331,0.00001168,0.
 00002230,0.00001119,-0.00000456,-0.00002723,-0.00001122,0.00000247,0.0
 0002942,0.00000741,0.00000260,-0.00002848,-0.00002041,-0.00000146,0.00
 000084,0.00000846,0.00000102,-0.00000525,-0.00000188,0.00000188,-0.000
 00083,-0.00000035,-0.00000127,-0.00000120,0.00000042,0.00000124,0.0000
 0434,-0.00000299,0.00000097,-0.00000357,0.00000618,-0.00000446,-0.0000
 0123,-0.00000363,0.00000090,0.00000356,-0.00000214,0.00000047,-0.00000
 227,0.00000081,-0.00000172,0.00000040,0.00000230,0.00000010,0.00000211
 ,0.00000042,0.00000032,0.00000467,-0.00000080,-0.00000070,0.00000943,0
 .00001176,-0.00000016,-0.00001295,-0.00000911,0.00000016,0.00001160,0.
 00000753,0.00000141,-0.00000260,-0.00000461,0.00000080,-0.00000112,0.0
 0000418,-0.00000046,0.00000019,-0.00000290,0.00000168,0.00000833,-0.00
 001632,-0.00002857,-0.00000454,-0.00001266,0.00001852,0.00000640,0.000
 00418,0.00000333,0.00000137,0.00000023,-0.00000020,0.00000007,-0.00000
 046,-0.00000051,0.00000020,0.00000051,0.00000054,-0.00000022,0.0000000
 5,-0.00000061,0.00000077,0.00000041,-0.00000027,0.00000044,0.00000012,
 -0.00000020,0.00000049,0.00000015,-0.00000088,0.00000035,0.00000292,-0
 .00000378,0.00000150,0.00000196,-0.00000001,0.00000049,-0.00000142,-0.
 00000076,-0.00000305,-0.00000008,0.00000006,0.00000043,0.00000186,-0.0
 0000106,0.00000137,0.00000028,-0.00000037,-0.00000261,-0.00000028,0.00
 000090,-0.00000049,-0.00000149,0.00000004,-0.00000166,0.00000102,-0.00
 000050,-0.00000062,-0.00000195,0.00000145,-0.00000110,-0.00000069,-0.0
 0000067,0.00000081,0.00000066,0.00000025,-0.00000042,0.00000060,0.0000
 0068,0.00000077,0.00000048,-0.00000022,-0.00000128,-0.00000008,-0.0000
 0356,-0.00000222,0.00000030,-0.00000103,0.00000102,-0.00000036,-0.0000
 0068,0.00000049,0.00000008,-0.00000046,0.00000020,-0.00000047,-0.00000
 056,0.00000080,-0.00000058,0.00000044,0.00000012,-0.00000065,-0.000000
 48,0.00000064,-0.00000035,-0.00000021,-0.00000007,-0.00000274,-0.00000
 014,-0.00000004,0.00000079,0.00000121,-0.00000138,0.00000147,0.0000008
 9,-0.00000110,0.00000061,0.00000080,0.00000006,-0.00000072,0.00000116,
 -0.00000047,-0.00000010,0.00000080,0.00000125,0.00000069,0.00000128,0.
 00000143,0.00000386,-0.00000176,-0.00000237\\\@
 The archive entry for this job was punched.


 Until you make peace with who you are,
 you'll never be content with what you have.
                           -- Doris Mortman
 Job cpu time:       1 days  3 hours 49 minutes 50.9 seconds.
 Elapsed time:       0 days  0 hours 52 minutes 25.7 seconds.
 File lengths (MBytes):  RWF=   9022 Int=      0 D2E=      0 Chk=     61 Scr=      1
 Normal termination of Gaussian 16 at Sat Feb  8 06:31:56 2025.
