 Entering Gaussian System, Link 0=g16
 Initial command:
 /public/software/apps/Gaussian/g16/l1.exe "/tmp/Gau-22883.inp" -scrdir="/tmp/"
 Entering Link 1 = /public/software/apps/Gaussian/g16/l1.exe PID=     22884.
  
 Copyright (c) 1988-2019, Gaussian, Inc.  All Rights Reserved.
  
 This is part of the Gaussian(R) 16 program.  It is based on
 the Gaussian(R) 09 system (copyright 2009, Gaussian, Inc.),
 the Gaussian(R) 03 system (copyright 2003, Gaussian, Inc.),
 the Gaussian(R) 98 system (copyright 1998, Gaussian, Inc.),
 the Gaussian(R) 94 system (copyright 1995, Gaussian, Inc.),
 the Gaussian 92(TM) system (copyright 1992, Gaussian, Inc.),
 the Gaussian 90(TM) system (copyright 1990, Gaussian, Inc.),
 the Gaussian 88(TM) system (copyright 1988, Gaussian, Inc.),
 the Gaussian 86(TM) system (copyright 1986, Carnegie Mellon
 University), and the Gaussian 82(TM) system (copyright 1983,
 Carnegie Mellon University). Gaussian is a federally registered
 trademark of Gaussian, Inc.
  
 This software contains proprietary and confidential information,
 including trade secrets, belonging to Gaussian, Inc.
  
 This software is provided under written license and may be
 used, copied, transmitted, or stored only in accord with that
 written license.
  
 The following legend is applicable only to US Government
 contracts under FAR:
  
                    RESTRICTED RIGHTS LEGEND
  
 Use, reproduction and disclosure by the US Government is
 subject to restrictions as set forth in subparagraphs (a)
 and (c) of the Commercial Computer Software - Restricted
 Rights clause in FAR 52.227-19.
  
 Gaussian, Inc.
 340 Quinnipiac St., Bldg. 40, Wallingford CT 06492
  
  
 ---------------------------------------------------------------
 Warning -- This program may not be used in any manner that
 competes with the business of Gaussian, Inc. or will provide
 assistance to any competitor of Gaussian, Inc.  The licensee
 of this program is prohibited from giving any competitor of
 Gaussian, Inc. access to this program.  By using this program,
 the user acknowledges that Gaussian, Inc. is engaged in the
 business of creating and licensing software in the field of
 computational chemistry and represents and warrants to the
 licensee that it is not a competitor of Gaussian, Inc. and that
 it will not use this program in any manner prohibited above.
 ---------------------------------------------------------------
  

 Cite this work as:
 Gaussian 16, Revision C.01,
 M. J. Frisch, G. W. Trucks, H. B. Schlegel, G. E. Scuseria, 
 M. A. Robb, J. R. Cheeseman, G. Scalmani, V. Barone, 
 G. A. Petersson, H. Nakatsuji, X. Li, M. Caricato, A. V. Marenich, 
 J. Bloino, B. G. Janesko, R. Gomperts, B. Mennucci, H. P. Hratchian, 
 J. V. Ortiz, A. F. Izmaylov, J. L. Sonnenberg, D. Williams-Young, 
 F. Ding, F. Lipparini, F. Egidi, J. Goings, B. Peng, A. Petrone, 
 T. Henderson, D. Ranasinghe, V. G. Zakrzewski, J. Gao, N. Rega, 
 G. Zheng, W. Liang, M. Hada, M. Ehara, K. Toyota, R. Fukuda, 
 J. Hasegawa, M. Ishida, T. Nakajima, Y. Honda, O. Kitao, H. Nakai, 
 T. Vreven, K. Throssell, J. A. Montgomery, Jr., J. E. Peralta, 
 F. Ogliaro, M. J. Bearpark, J. J. Heyd, E. N. Brothers, K. N. Kudin, 
 V. N. Staroverov, T. A. Keith, R. Kobayashi, J. Normand, 
 K. Raghavachari, A. P. Rendell, J. C. Burant, S. S. Iyengar, 
 J. Tomasi, M. Cossi, J. M. Millam, M. Klene, C. Adamo, R. Cammi, 
 J. W. Ochterski, R. L. Martin, K. Morokuma, O. Farkas, 
 J. B. Foresman, and D. J. Fox, Gaussian, Inc., Wallingford CT, 2019.
 
 ******************************************
 Gaussian 16:  ES64L-G16RevC.01  3-Jul-2019
                 8-Feb-2025 
 ******************************************
 %nprocshared=32
 Will use up to   32 processors via shared memory.
 %mem=100GB
 ------------------------------------------
 #p opt freq b3lyp/def2svpp em=gd3bj nosymm
 ------------------------------------------
 1/18=20,19=15,26=3,38=1/1,3;
 2/9=110,12=2,15=1,17=6,18=5,40=1/2;
 3/5=43,7=202,11=2,25=1,30=1,71=1,74=-5,124=41/1,2,3;
 4//1;
 5/5=2,38=5/2;
 6/7=2,8=2,9=2,10=2,28=1/1;
 7/30=1/1,2,3,16;
 1/18=20,19=15,26=3/3(2);
 2/9=110,15=1/2;
 99//99;
 2/9=110,15=1/2;
 3/5=43,7=202,11=2,25=1,30=1,71=1,74=-5,124=41/1,2,3;
 4/5=5,16=3,69=1/1;
 5/5=2,38=5/2;
 7/30=1/1,2,3,16;
 1/18=20,19=15,26=3/3(-5);
 2/9=110,15=1/2;
 6/7=2,8=2,9=2,10=2,19=2,28=1/1;
 99/9=1/99;
 Leave Link    1 at Sat Feb  8 07:15:26 2025, MaxMem= 13421772800 cpu:               1.6 elap:               0.1
 (Enter /public/software/apps/Gaussian/g16/l101.exe)
 ------------------
 $$$$Title####0????
 ------------------
 Symbolic Z-matrix:
 Charge =  0 Multiplicity = 2
 C                    -7.3913   -5.11064   0.84569 
 C                    -6.07552  -4.47746   1.35269 
 C                    -5.36716  -5.51104   2.24519 
 C                    -5.13061  -4.14929   0.17078 
 O                    -6.33265  -3.34761   2.18528 
 C                    -6.83726  -2.2053    1.51115 
 C                    -5.76799  -1.15036   1.42234 
 C                    -5.15571  -0.67301   2.59108 
 C                    -4.15972   0.30464   2.51857 
 C                    -3.75768   0.81958   1.27476 
 C                    -2.70577   1.86234   1.20132 
 C                    -2.79905   2.99599   2.02058 
 C                    -1.8183    3.99442   1.97755 
 C                    -1.92177   5.11633   2.81592 
 C                    -0.94078   6.10846   2.7891 
 C                     0.15182   5.98952   1.9307 
 C                     0.26806   4.88133   1.08862 
 C                    -0.71902   3.87178   1.09029 
 C                    -0.63372   2.7387    0.24273 
 C                     0.48234   2.5716   -0.72707 
 C                     1.4573    1.58966  -0.47066 
 O                     1.31831   0.76357   0.64258 
 C                     2.5512    1.42065  -1.34004 
 C                     3.60061   0.40996  -1.06324 
 C                     3.99653  -0.49292  -2.06443 
 C                     4.99121  -1.44123  -1.80943 
 C                     5.61883  -1.48975  -0.55534 
 C                     6.6574   -2.5333   -0.2635 
 O                     6.01828  -3.65507   0.31851 
 C                     6.89587  -4.53417   1.02141 
 C                     7.31131  -3.9273    2.3802 
 C                     8.14692  -4.93358   0.19957 
 C                     6.08775  -5.81295   1.30029 
 C                     5.21855  -0.59602   0.44931 
 C                     4.22342   0.35203   0.19518 
 C                     2.6469    2.21756  -2.48924 
 C                     1.66922   3.1768   -2.77985 
 C                     1.77548   3.95652  -3.94305 
 C                     0.79804   4.90529  -4.24651 
 C                    -0.29365   5.08192  -3.39687 
 C                    -0.4128    4.31599  -2.23505 
 C                     0.57076   3.35948  -1.90208 
 C                    -1.61189   1.73024   0.32552 
 O                    -1.47634   0.5815   -0.45114 
 C                    -4.38163   0.35042   0.10656 
 C                    -5.37878  -0.62612   0.17976 
 H                    -8.09718  -5.25559   1.69137 
 H                    -7.888    -4.48261   0.07904 
 H                    -7.19446  -6.09929   0.37723 
 H                    -6.00951  -5.77739   3.11241 
 H                    -5.13542  -6.44101   1.68146 
 H                    -4.41584  -5.09181   2.63883 
 H                    -4.23372  -3.60382   0.53519 
 H                    -5.63439  -3.5309   -0.59963 
 H                    -4.79511  -5.08189  -0.3325 
 H                    -7.67089  -1.79364   2.11804 
 H                    -7.2764   -2.41495   0.51393 
 H                    -5.44825  -1.06137   3.55898 
 H                    -3.69303   0.65036   3.43288 
 H                    -3.64468   3.10227   2.69132 
 H                    -2.75941   5.22382   3.49502 
 H                    -1.02536   6.96977   3.43924 
 H                     0.91373   6.75847   1.91861 
 H                     1.13515   4.8217    0.44426 
 H                     3.5239   -0.47367  -3.03892 
 H                     5.27027  -2.13847  -2.58982 
 H                     7.15273  -2.83327  -1.213 
 H                     7.42895  -2.08344   0.39561 
 H                     8.03576  -3.09666   2.25842 
 H                     7.80154  -4.69377   3.01885 
 H                     6.41817  -3.54016   2.91594 
 H                     8.71156  -5.74133   0.71352 
 H                     8.84137  -4.07615   0.07462 
 H                     7.84623  -5.29837  -0.80591 
 H                     5.18067  -5.57432   1.89694 
 H                     6.69205  -6.55823   1.86205 
 H                     5.75813  -6.2759    0.34502 
 H                     5.67989  -0.63195   1.4289 
 H                     3.94726   1.048     0.97764 
 H                     3.49181   2.0919   -3.15757 
 H                     2.61282   3.82956  -4.61915 
 H                     0.88455   5.5021   -5.14538 
 H                    -1.05287   5.81409  -3.64008 
 H                    -1.27973   4.47593  -1.60779 
 H                    -4.10775   0.75127  -0.86163 
 H                    -5.84663  -0.97054  -0.73403 
 Cu                    0.13684  -0.51903  -0.25744 
 
 ITRead=  0  0  0  0  0  0  0  0  0  0  0  0  0  0  0  0  0  0  0  0
 ITRead=  0  0  0  0  0  0  0  0  0  0  0  0  0  0  0  0  0  0  0  0
 ITRead=  0  0  0  0  0  0  0  0  0  0  0  0  0  0  0  0  0  0  0  0
 ITRead=  0  0  0  0  0  0  0  0  0  0  0  0  0  0  0  0  0  0  0  0
 ITRead=  0  0  0  0  0  0  0
 MicOpt= -1 -1 -1 -1 -1 -1 -1 -1 -1 -1 -1 -1 -1 -1 -1 -1 -1 -1 -1 -1
 MicOpt= -1 -1 -1 -1 -1 -1 -1 -1 -1 -1 -1 -1 -1 -1 -1 -1 -1 -1 -1 -1
 MicOpt= -1 -1 -1 -1 -1 -1 -1 -1 -1 -1 -1 -1 -1 -1 -1 -1 -1 -1 -1 -1
 MicOpt= -1 -1 -1 -1 -1 -1 -1 -1 -1 -1 -1 -1 -1 -1 -1 -1 -1 -1 -1 -1
 MicOpt= -1 -1 -1 -1 -1 -1 -1
 NAtoms=     87 NQM=       87 NQMF=       0 NMMI=      0 NMMIF=      0
                NMic=       0 NMicF=      0.
                    Isotopes and Nuclear Properties:
 (Nuclear quadrupole moments (NQMom) in fm**2, nuclear magnetic moments (NMagM)
  in nuclear magnetons)

  Atom         1           2           3           4           5           6           7           8           9          10
 IAtWgt=          12          12          12          12          16          12          12          12          12          12
 AtmWgt=  12.0000000  12.0000000  12.0000000  12.0000000  15.9949146  12.0000000  12.0000000  12.0000000  12.0000000  12.0000000
 NucSpn=           0           0           0           0           0           0           0           0           0           0
 AtZEff=  -0.0000000  -0.0000000  -0.0000000  -0.0000000  -0.0000000  -0.0000000  -0.0000000  -0.0000000  -0.0000000  -0.0000000
 NQMom=    0.0000000   0.0000000   0.0000000   0.0000000   0.0000000   0.0000000   0.0000000   0.0000000   0.0000000   0.0000000
 NMagM=    0.0000000   0.0000000   0.0000000   0.0000000   0.0000000   0.0000000   0.0000000   0.0000000   0.0000000   0.0000000
 AtZNuc=   6.0000000   6.0000000   6.0000000   6.0000000   8.0000000   6.0000000   6.0000000   6.0000000   6.0000000   6.0000000

  Atom        11          12          13          14          15          16          17          18          19          20
 IAtWgt=          12          12          12          12          12          12          12          12          12          12
 AtmWgt=  12.0000000  12.0000000  12.0000000  12.0000000  12.0000000  12.0000000  12.0000000  12.0000000  12.0000000  12.0000000
 NucSpn=           0           0           0           0           0           0           0           0           0           0
 AtZEff=  -0.0000000  -0.0000000  -0.0000000  -0.0000000  -0.0000000  -0.0000000  -0.0000000  -0.0000000  -0.0000000  -0.0000000
 NQMom=    0.0000000   0.0000000   0.0000000   0.0000000   0.0000000   0.0000000   0.0000000   0.0000000   0.0000000   0.0000000
 NMagM=    0.0000000   0.0000000   0.0000000   0.0000000   0.0000000   0.0000000   0.0000000   0.0000000   0.0000000   0.0000000
 AtZNuc=   6.0000000   6.0000000   6.0000000   6.0000000   6.0000000   6.0000000   6.0000000   6.0000000   6.0000000   6.0000000

  Atom        21          22          23          24          25          26          27          28          29          30
 IAtWgt=          12          16          12          12          12          12          12          12          16          12
 AtmWgt=  12.0000000  15.9949146  12.0000000  12.0000000  12.0000000  12.0000000  12.0000000  12.0000000  15.9949146  12.0000000
 NucSpn=           0           0           0           0           0           0           0           0           0           0
 AtZEff=  -0.0000000  -0.0000000  -0.0000000  -0.0000000  -0.0000000  -0.0000000  -0.0000000  -0.0000000  -0.0000000  -0.0000000
 NQMom=    0.0000000   0.0000000   0.0000000   0.0000000   0.0000000   0.0000000   0.0000000   0.0000000   0.0000000   0.0000000
 NMagM=    0.0000000   0.0000000   0.0000000   0.0000000   0.0000000   0.0000000   0.0000000   0.0000000   0.0000000   0.0000000
 AtZNuc=   6.0000000   8.0000000   6.0000000   6.0000000   6.0000000   6.0000000   6.0000000   6.0000000   8.0000000   6.0000000

  Atom        31          32          33          34          35          36          37          38          39          40
 IAtWgt=          12          12          12          12          12          12          12          12          12          12
 AtmWgt=  12.0000000  12.0000000  12.0000000  12.0000000  12.0000000  12.0000000  12.0000000  12.0000000  12.0000000  12.0000000
 NucSpn=           0           0           0           0           0           0           0           0           0           0
 AtZEff=  -0.0000000  -0.0000000  -0.0000000  -0.0000000  -0.0000000  -0.0000000  -0.0000000  -0.0000000  -0.0000000  -0.0000000
 NQMom=    0.0000000   0.0000000   0.0000000   0.0000000   0.0000000   0.0000000   0.0000000   0.0000000   0.0000000   0.0000000
 NMagM=    0.0000000   0.0000000   0.0000000   0.0000000   0.0000000   0.0000000   0.0000000   0.0000000   0.0000000   0.0000000
 AtZNuc=   6.0000000   6.0000000   6.0000000   6.0000000   6.0000000   6.0000000   6.0000000   6.0000000   6.0000000   6.0000000

  Atom        41          42          43          44          45          46          47          48          49          50
 IAtWgt=          12          12          12          16          12          12           1           1           1           1
 AtmWgt=  12.0000000  12.0000000  12.0000000  15.9949146  12.0000000  12.0000000   1.0078250   1.0078250   1.0078250   1.0078250
 NucSpn=           0           0           0           0           0           0           1           1           1           1
 AtZEff=  -0.0000000  -0.0000000  -0.0000000  -0.0000000  -0.0000000  -0.0000000  -0.0000000  -0.0000000  -0.0000000  -0.0000000
 NQMom=    0.0000000   0.0000000   0.0000000   0.0000000   0.0000000   0.0000000   0.0000000   0.0000000   0.0000000   0.0000000
 NMagM=    0.0000000   0.0000000   0.0000000   0.0000000   0.0000000   0.0000000   2.7928460   2.7928460   2.7928460   2.7928460
 AtZNuc=   6.0000000   6.0000000   6.0000000   8.0000000   6.0000000   6.0000000   1.0000000   1.0000000   1.0000000   1.0000000

  Atom        51          52          53          54          55          56          57          58          59          60
 IAtWgt=           1           1           1           1           1           1           1           1           1           1
 AtmWgt=   1.0078250   1.0078250   1.0078250   1.0078250   1.0078250   1.0078250   1.0078250   1.0078250   1.0078250   1.0078250
 NucSpn=           1           1           1           1           1           1           1           1           1           1
 AtZEff=  -0.0000000  -0.0000000  -0.0000000  -0.0000000  -0.0000000  -0.0000000  -0.0000000  -0.0000000  -0.0000000  -0.0000000
 NQMom=    0.0000000   0.0000000   0.0000000   0.0000000   0.0000000   0.0000000   0.0000000   0.0000000   0.0000000   0.0000000
 NMagM=    2.7928460   2.7928460   2.7928460   2.7928460   2.7928460   2.7928460   2.7928460   2.7928460   2.7928460   2.7928460
 AtZNuc=   1.0000000   1.0000000   1.0000000   1.0000000   1.0000000   1.0000000   1.0000000   1.0000000   1.0000000   1.0000000

  Atom        61          62          63          64          65          66          67          68          69          70
 IAtWgt=           1           1           1           1           1           1           1           1           1           1
 AtmWgt=   1.0078250   1.0078250   1.0078250   1.0078250   1.0078250   1.0078250   1.0078250   1.0078250   1.0078250   1.0078250
 NucSpn=           1           1           1           1           1           1           1           1           1           1
 AtZEff=  -0.0000000  -0.0000000  -0.0000000  -0.0000000  -0.0000000  -0.0000000  -0.0000000  -0.0000000  -0.0000000  -0.0000000
 NQMom=    0.0000000   0.0000000   0.0000000   0.0000000   0.0000000   0.0000000   0.0000000   0.0000000   0.0000000   0.0000000
 NMagM=    2.7928460   2.7928460   2.7928460   2.7928460   2.7928460   2.7928460   2.7928460   2.7928460   2.7928460   2.7928460
 AtZNuc=   1.0000000   1.0000000   1.0000000   1.0000000   1.0000000   1.0000000   1.0000000   1.0000000   1.0000000   1.0000000

  Atom        71          72          73          74          75          76          77          78          79          80
 IAtWgt=           1           1           1           1           1           1           1           1           1           1
 AtmWgt=   1.0078250   1.0078250   1.0078250   1.0078250   1.0078250   1.0078250   1.0078250   1.0078250   1.0078250   1.0078250
 NucSpn=           1           1           1           1           1           1           1           1           1           1
 AtZEff=  -0.0000000  -0.0000000  -0.0000000  -0.0000000  -0.0000000  -0.0000000  -0.0000000  -0.0000000  -0.0000000  -0.0000000
 NQMom=    0.0000000   0.0000000   0.0000000   0.0000000   0.0000000   0.0000000   0.0000000   0.0000000   0.0000000   0.0000000
 NMagM=    2.7928460   2.7928460   2.7928460   2.7928460   2.7928460   2.7928460   2.7928460   2.7928460   2.7928460   2.7928460
 AtZNuc=   1.0000000   1.0000000   1.0000000   1.0000000   1.0000000   1.0000000   1.0000000   1.0000000   1.0000000   1.0000000

  Atom        81          82          83          84          85          86          87
 IAtWgt=           1           1           1           1           1           1          63
 AtmWgt=   1.0078250   1.0078250   1.0078250   1.0078250   1.0078250   1.0078250  62.9295992
 NucSpn=           1           1           1           1           1           1           3
 AtZEff=  -0.0000000  -0.0000000  -0.0000000  -0.0000000  -0.0000000  -0.0000000  -0.0000000
 NQMom=    0.0000000   0.0000000   0.0000000   0.0000000   0.0000000   0.0000000 -22.0000000
 NMagM=    2.7928460   2.7928460   2.7928460   2.7928460   2.7928460   2.7928460   2.2233000
 AtZNuc=   1.0000000   1.0000000   1.0000000   1.0000000   1.0000000   1.0000000  29.0000000
 Leave Link  101 at Sat Feb  8 07:15:26 2025, MaxMem= 13421772800 cpu:               4.8 elap:               0.2
 (Enter /public/software/apps/Gaussian/g16/l103.exe)

 GradGradGradGradGradGradGradGradGradGradGradGradGradGradGradGradGradGrad
 Berny optimization.
 Initialization pass.
                           ----------------------------
                           !    Initial Parameters    !
                           ! (Angstroms and Degrees)  !
 --------------------------                            --------------------------
 ! Name  Definition              Value          Derivative Info.                !
 --------------------------------------------------------------------------------
 ! R1    R(1,2)                  1.5457         estimate D2E/DX2                !
 ! R2    R(1,47)                 1.1111         estimate D2E/DX2                !
 ! R3    R(1,48)                 1.1086         estimate D2E/DX2                !
 ! R4    R(1,49)                 1.1116         estimate D2E/DX2                !
 ! R5    R(2,3)                  1.5384         estimate D2E/DX2                !
 ! R6    R(2,4)                  1.5484         estimate D2E/DX2                !
 ! R7    R(2,5)                  1.4268         estimate D2E/DX2                !
 ! R8    R(3,50)                 1.1116         estimate D2E/DX2                !
 ! R9    R(3,51)                 1.1119         estimate D2E/DX2                !
 ! R10   R(3,52)                 1.1116         estimate D2E/DX2                !
 ! R11   R(4,53)                 1.1112         estimate D2E/DX2                !
 ! R12   R(4,54)                 1.1089         estimate D2E/DX2                !
 ! R13   R(4,55)                 1.1116         estimate D2E/DX2                !
 ! R14   R(5,6)                  1.4191         estimate D2E/DX2                !
 ! R15   R(6,7)                  1.5047         estimate D2E/DX2                !
 ! R16   R(6,56)                 1.1103         estimate D2E/DX2                !
 ! R17   R(6,57)                 1.1096         estimate D2E/DX2                !
 ! R18   R(7,8)                  1.4031         estimate D2E/DX2                !
 ! R19   R(7,46)                 1.4037         estimate D2E/DX2                !
 ! R20   R(8,9)                  1.3975         estimate D2E/DX2                !
 ! R21   R(8,58)                 1.0832         estimate D2E/DX2                !
 ! R22   R(9,10)                 1.405          estimate D2E/DX2                !
 ! R23   R(9,59)                 1.0832         estimate D2E/DX2                !
 ! R24   R(10,11)                1.483          estimate D2E/DX2                !
 ! R25   R(10,45)                1.405          estimate D2E/DX2                !
 ! R26   R(11,12)                1.4018         estimate D2E/DX2                !
 ! R27   R(11,43)                1.4075         estimate D2E/DX2                !
 ! R28   R(12,13)                1.4002         estimate D2E/DX2                !
 ! R29   R(12,60)                1.0846         estimate D2E/DX2                !
 ! R30   R(13,14)                1.4044         estimate D2E/DX2                !
 ! R31   R(13,18)                1.418          estimate D2E/DX2                !
 ! R32   R(14,15)                1.3955         estimate D2E/DX2                !
 ! R33   R(14,61)                1.0837         estimate D2E/DX2                !
 ! R34   R(15,16)                1.3946         estimate D2E/DX2                !
 ! R35   R(15,62)                1.0824         estimate D2E/DX2                !
 ! R36   R(16,17)                1.3967         estimate D2E/DX2                !
 ! R37   R(16,63)                1.0826         estimate D2E/DX2                !
 ! R38   R(17,18)                1.4119         estimate D2E/DX2                !
 ! R39   R(17,64)                1.0819         estimate D2E/DX2                !
 ! R40   R(18,19)                1.4176         estimate D2E/DX2                !
 ! R41   R(19,20)                1.488          estimate D2E/DX2                !
 ! R42   R(19,43)                1.4074         estimate D2E/DX2                !
 ! R43   R(20,21)                1.4073         estimate D2E/DX2                !
 ! R44   R(20,42)                1.4175         estimate D2E/DX2                !
 ! R45   R(21,22)                1.3932         estimate D2E/DX2                !
 ! R46   R(21,23)                1.4075         estimate D2E/DX2                !
 ! R47   R(22,87)                1.9624         estimate D2E/DX2                !
 ! R48   R(23,24)                1.483          estimate D2E/DX2                !
 ! R49   R(23,36)                1.4017         estimate D2E/DX2                !
 ! R50   R(24,25)                1.4051         estimate D2E/DX2                !
 ! R51   R(24,35)                1.4053         estimate D2E/DX2                !
 ! R52   R(25,26)                1.3978         estimate D2E/DX2                !
 ! R53   R(25,65)                1.0832         estimate D2E/DX2                !
 ! R54   R(26,27)                1.4032         estimate D2E/DX2                !
 ! R55   R(26,66)                1.0831         estimate D2E/DX2                !
 ! R56   R(27,28)                1.5009         estimate D2E/DX2                !
 ! R57   R(27,34)                1.403          estimate D2E/DX2                !
 ! R58   R(28,29)                1.4162         estimate D2E/DX2                !
 ! R59   R(28,67)                1.1121         estimate D2E/DX2                !
 ! R60   R(28,68)                1.11           estimate D2E/DX2                !
 ! R61   R(29,30)                1.4273         estimate D2E/DX2                !
 ! R62   R(30,31)                1.5451         estimate D2E/DX2                !
 ! R63   R(30,32)                1.5492         estimate D2E/DX2                !
 ! R64   R(30,33)                1.5382         estimate D2E/DX2                !
 ! R65   R(31,69)                1.1089         estimate D2E/DX2                !
 ! R66   R(31,70)                1.1116         estimate D2E/DX2                !
 ! R67   R(31,71)                1.1111         estimate D2E/DX2                !
 ! R68   R(32,72)                1.1115         estimate D2E/DX2                !
 ! R69   R(32,73)                1.1104         estimate D2E/DX2                !
 ! R70   R(32,74)                1.1111         estimate D2E/DX2                !
 ! R71   R(33,75)                1.1116         estimate D2E/DX2                !
 ! R72   R(33,76)                1.1118         estimate D2E/DX2                !
 ! R73   R(33,77)                1.1115         estimate D2E/DX2                !
 ! R74   R(34,35)                1.3977         estimate D2E/DX2                !
 ! R75   R(34,78)                1.0834         estimate D2E/DX2                !
 ! R76   R(35,79)                1.083          estimate D2E/DX2                !
 ! R77   R(36,37)                1.4002         estimate D2E/DX2                !
 ! R78   R(36,80)                1.0846         estimate D2E/DX2                !
 ! R79   R(37,38)                1.4044         estimate D2E/DX2                !
 ! R80   R(37,42)                1.4179         estimate D2E/DX2                !
 ! R81   R(38,39)                1.3956         estimate D2E/DX2                !
 ! R82   R(38,81)                1.0837         estimate D2E/DX2                !
 ! R83   R(39,40)                1.3946         estimate D2E/DX2                !
 ! R84   R(39,82)                1.0824         estimate D2E/DX2                !
 ! R85   R(40,41)                1.3967         estimate D2E/DX2                !
 ! R86   R(40,83)                1.0824         estimate D2E/DX2                !
 ! R87   R(41,42)                1.4118         estimate D2E/DX2                !
 ! R88   R(41,84)                1.0819         estimate D2E/DX2                !
 ! R89   R(43,44)                1.3933         estimate D2E/DX2                !
 ! R90   R(44,87)                1.9624         estimate D2E/DX2                !
 ! R91   R(45,46)                1.3976         estimate D2E/DX2                !
 ! R92   R(45,85)                1.0831         estimate D2E/DX2                !
 ! R93   R(46,86)                1.0828         estimate D2E/DX2                !
 ! A1    A(2,1,47)             110.1572         estimate D2E/DX2                !
 ! A2    A(2,1,48)             112.0976         estimate D2E/DX2                !
 ! A3    A(2,1,49)             110.599          estimate D2E/DX2                !
 ! A4    A(47,1,48)            108.399          estimate D2E/DX2                !
 ! A5    A(47,1,49)            108.4958         estimate D2E/DX2                !
 ! A6    A(48,1,49)            106.9638         estimate D2E/DX2                !
 ! A7    A(1,2,3)              107.8812         estimate D2E/DX2                !
 ! A8    A(1,2,4)              110.8501         estimate D2E/DX2                !
 ! A9    A(1,2,5)              111.2457         estimate D2E/DX2                !
 ! A10   A(3,2,4)              107.7126         estimate D2E/DX2                !
 ! A11   A(3,2,5)              106.0491         estimate D2E/DX2                !
 ! A12   A(4,2,5)              112.8023         estimate D2E/DX2                !
 ! A13   A(2,3,50)             110.3354         estimate D2E/DX2                !
 ! A14   A(2,3,51)             111.3309         estimate D2E/DX2                !
 ! A15   A(2,3,52)             110.25           estimate D2E/DX2                !
 ! A16   A(50,3,51)            108.3955         estimate D2E/DX2                !
 ! A17   A(50,3,52)            107.977          estimate D2E/DX2                !
 ! A18   A(51,3,52)            108.4571         estimate D2E/DX2                !
 ! A19   A(2,4,53)             110.2598         estimate D2E/DX2                !
 ! A20   A(2,4,54)             111.793          estimate D2E/DX2                !
 ! A21   A(2,4,55)             110.6079         estimate D2E/DX2                !
 ! A22   A(53,4,54)            108.71           estimate D2E/DX2                !
 ! A23   A(53,4,55)            108.4645         estimate D2E/DX2                !
 ! A24   A(54,4,55)            106.8839         estimate D2E/DX2                !
 ! A25   A(2,5,6)              115.1048         estimate D2E/DX2                !
 ! A26   A(5,6,7)              109.8582         estimate D2E/DX2                !
 ! A27   A(5,6,56)             107.8041         estimate D2E/DX2                !
 ! A28   A(5,6,57)             114.5545         estimate D2E/DX2                !
 ! A29   A(7,6,56)             107.8101         estimate D2E/DX2                !
 ! A30   A(7,6,57)             111.1404         estimate D2E/DX2                !
 ! A31   A(56,6,57)            105.3165         estimate D2E/DX2                !
 ! A32   A(6,7,8)              119.9637         estimate D2E/DX2                !
 ! A33   A(6,7,46)             120.7388         estimate D2E/DX2                !
 ! A34   A(8,7,46)             119.2957         estimate D2E/DX2                !
 ! A35   A(7,8,9)              120.383          estimate D2E/DX2                !
 ! A36   A(7,8,58)             120.2983         estimate D2E/DX2                !
 ! A37   A(9,8,58)             119.3184         estimate D2E/DX2                !
 ! A38   A(8,9,10)             120.4163         estimate D2E/DX2                !
 ! A39   A(8,9,59)             119.1143         estimate D2E/DX2                !
 ! A40   A(10,9,59)            120.4646         estimate D2E/DX2                !
 ! A41   A(9,10,11)            120.3006         estimate D2E/DX2                !
 ! A42   A(9,10,45)            119.1182         estimate D2E/DX2                !
 ! A43   A(11,10,45)           120.5718         estimate D2E/DX2                !
 ! A44   A(10,11,12)           119.5049         estimate D2E/DX2                !
 ! A45   A(10,11,43)           121.0703         estimate D2E/DX2                !
 ! A46   A(12,11,43)           119.4244         estimate D2E/DX2                !
 ! A47   A(11,12,13)           120.8027         estimate D2E/DX2                !
 ! A48   A(11,12,60)           119.5099         estimate D2E/DX2                !
 ! A49   A(13,12,60)           119.6865         estimate D2E/DX2                !
 ! A50   A(12,13,14)           119.9795         estimate D2E/DX2                !
 ! A51   A(12,13,18)           120.0371         estimate D2E/DX2                !
 ! A52   A(14,13,18)           119.9833         estimate D2E/DX2                !
 ! A53   A(13,14,15)           120.3114         estimate D2E/DX2                !
 ! A54   A(13,14,61)           120.6831         estimate D2E/DX2                !
 ! A55   A(15,14,61)           119.0051         estimate D2E/DX2                !
 ! A56   A(14,15,16)           120.1295         estimate D2E/DX2                !
 ! A57   A(14,15,62)           119.9504         estimate D2E/DX2                !
 ! A58   A(16,15,62)           119.9194         estimate D2E/DX2                !
 ! A59   A(15,16,17)           120.2648         estimate D2E/DX2                !
 ! A60   A(15,16,63)           119.8484         estimate D2E/DX2                !
 ! A61   A(17,16,63)           119.8866         estimate D2E/DX2                !
 ! A62   A(16,17,18)           120.5599         estimate D2E/DX2                !
 ! A63   A(16,17,64)           118.0025         estimate D2E/DX2                !
 ! A64   A(18,17,64)           121.437          estimate D2E/DX2                !
 ! A65   A(13,18,17)           118.7421         estimate D2E/DX2                !
 ! A66   A(13,18,19)           119.3333         estimate D2E/DX2                !
 ! A67   A(17,18,19)           121.9215         estimate D2E/DX2                !
 ! A68   A(18,19,20)           121.6398         estimate D2E/DX2                !
 ! A69   A(18,19,43)           119.7203         estimate D2E/DX2                !
 ! A70   A(20,19,43)           118.6327         estimate D2E/DX2                !
 ! A71   A(19,20,21)           118.636          estimate D2E/DX2                !
 ! A72   A(19,20,42)           121.6447         estimate D2E/DX2                !
 ! A73   A(21,20,42)           119.7122         estimate D2E/DX2                !
 ! A74   A(20,21,22)           119.3528         estimate D2E/DX2                !
 ! A75   A(20,21,23)           120.6428         estimate D2E/DX2                !
 ! A76   A(22,21,23)           119.993          estimate D2E/DX2                !
 ! A77   A(21,22,87)            94.654          estimate D2E/DX2                !
 ! A78   A(21,23,24)           121.098          estimate D2E/DX2                !
 ! A79   A(21,23,36)           119.419          estimate D2E/DX2                !
 ! A80   A(24,23,36)           119.4825         estimate D2E/DX2                !
 ! A81   A(23,24,25)           120.2856         estimate D2E/DX2                !
 ! A82   A(23,24,35)           120.5864         estimate D2E/DX2                !
 ! A83   A(25,24,35)           119.1234         estimate D2E/DX2                !
 ! A84   A(24,25,26)           120.4296         estimate D2E/DX2                !
 ! A85   A(24,25,65)           120.4404         estimate D2E/DX2                !
 ! A86   A(26,25,65)           119.1228         estimate D2E/DX2                !
 ! A87   A(25,26,27)           120.3182         estimate D2E/DX2                !
 ! A88   A(25,26,66)           119.2527         estimate D2E/DX2                !
 ! A89   A(27,26,66)           120.429          estimate D2E/DX2                !
 ! A90   A(26,27,28)           120.4848         estimate D2E/DX2                !
 ! A91   A(26,27,34)           119.3641         estimate D2E/DX2                !
 ! A92   A(28,27,34)           120.0719         estimate D2E/DX2                !
 ! A93   A(27,28,29)           108.5635         estimate D2E/DX2                !
 ! A94   A(27,28,67)           109.251          estimate D2E/DX2                !
 ! A95   A(27,28,68)           108.3397         estimate D2E/DX2                !
 ! A96   A(29,28,67)           109.7678         estimate D2E/DX2                !
 ! A97   A(29,28,68)           112.9975         estimate D2E/DX2                !
 ! A98   A(67,28,68)           107.8598         estimate D2E/DX2                !
 ! A99   A(28,29,30)           114.3802         estimate D2E/DX2                !
 ! A100  A(29,30,31)           110.8862         estimate D2E/DX2                !
 ! A101  A(29,30,32)           113.2086         estimate D2E/DX2                !
 ! A102  A(29,30,33)           106.1593         estimate D2E/DX2                !
 ! A103  A(31,30,32)           110.528          estimate D2E/DX2                !
 ! A104  A(31,30,33)           107.9602         estimate D2E/DX2                !
 ! A105  A(32,30,33)           107.8239         estimate D2E/DX2                !
 ! A106  A(30,31,69)           111.9202         estimate D2E/DX2                !
 ! A107  A(30,31,70)           110.672          estimate D2E/DX2                !
 ! A108  A(30,31,71)           110.1673         estimate D2E/DX2                !
 ! A109  A(69,31,70)           106.9461         estimate D2E/DX2                !
 ! A110  A(69,31,71)           108.4872         estimate D2E/DX2                !
 ! A111  A(70,31,71)           108.5249         estimate D2E/DX2                !
 ! A112  A(30,32,72)           110.6274         estimate D2E/DX2                !
 ! A113  A(30,32,73)           111.447          estimate D2E/DX2                !
 ! A114  A(30,32,74)           110.2534         estimate D2E/DX2                !
 ! A115  A(72,32,73)           107.1861         estimate D2E/DX2                !
 ! A116  A(72,32,74)           108.5022         estimate D2E/DX2                !
 ! A117  A(73,32,74)           108.7197         estimate D2E/DX2                !
 ! A118  A(30,33,75)           110.3366         estimate D2E/DX2                !
 ! A119  A(30,33,76)           111.3039         estimate D2E/DX2                !
 ! A120  A(30,33,77)           110.2571         estimate D2E/DX2                !
 ! A121  A(75,33,76)           108.4333         estimate D2E/DX2                !
 ! A122  A(75,33,77)           107.9816         estimate D2E/DX2                !
 ! A123  A(76,33,77)           108.4344         estimate D2E/DX2                !
 ! A124  A(27,34,35)           120.3322         estimate D2E/DX2                !
 ! A125  A(27,34,78)           120.3227         estimate D2E/DX2                !
 ! A126  A(35,34,78)           119.3448         estimate D2E/DX2                !
 ! A127  A(24,35,34)           120.4181         estimate D2E/DX2                !
 ! A128  A(24,35,79)           120.4957         estimate D2E/DX2                !
 ! A129  A(34,35,79)           119.0827         estimate D2E/DX2                !
 ! A130  A(23,36,37)           120.7956         estimate D2E/DX2                !
 ! A131  A(23,36,80)           119.5054         estimate D2E/DX2                !
 ! A132  A(37,36,80)           119.6982         estimate D2E/DX2                !
 ! A133  A(36,37,38)           119.9635         estimate D2E/DX2                !
 ! A134  A(36,37,42)           120.0479         estimate D2E/DX2                !
 ! A135  A(38,37,42)           119.9884         estimate D2E/DX2                !
 ! A136  A(37,38,39)           120.3021         estimate D2E/DX2                !
 ! A137  A(37,38,81)           120.6747         estimate D2E/DX2                !
 ! A138  A(39,38,81)           119.0228         estimate D2E/DX2                !
 ! A139  A(38,39,40)           120.1248         estimate D2E/DX2                !
 ! A140  A(38,39,82)           119.9622         estimate D2E/DX2                !
 ! A141  A(40,39,82)           119.9123         estimate D2E/DX2                !
 ! A142  A(39,40,41)           120.2737         estimate D2E/DX2                !
 ! A143  A(39,40,83)           119.8573         estimate D2E/DX2                !
 ! A144  A(41,40,83)           119.8688         estimate D2E/DX2                !
 ! A145  A(40,41,42)           120.5511         estimate D2E/DX2                !
 ! A146  A(40,41,84)           118.0055         estimate D2E/DX2                !
 ! A147  A(42,41,84)           121.4426         estimate D2E/DX2                !
 ! A148  A(20,42,37)           119.3329         estimate D2E/DX2                !
 ! A149  A(20,42,41)           121.913          estimate D2E/DX2                !
 ! A150  A(37,42,41)           118.7508         estimate D2E/DX2                !
 ! A151  A(11,43,19)           120.6321         estimate D2E/DX2                !
 ! A152  A(11,43,44)           119.9903         estimate D2E/DX2                !
 ! A153  A(19,43,44)           119.3664         estimate D2E/DX2                !
 ! A154  A(43,44,87)           119.1657         estimate D2E/DX2                !
 ! A155  A(10,45,46)           120.4383         estimate D2E/DX2                !
 ! A156  A(10,45,85)           120.4882         estimate D2E/DX2                !
 ! A157  A(46,45,85)           119.0667         estimate D2E/DX2                !
 ! A158  A(7,46,45)            120.3411         estimate D2E/DX2                !
 ! A159  A(7,46,86)            120.5604         estimate D2E/DX2                !
 ! A160  A(45,46,86)           119.0984         estimate D2E/DX2                !
 ! A161  A(22,87,44)            99.9999         estimate D2E/DX2                !
 ! D1    D(47,1,2,3)            67.4578         estimate D2E/DX2                !
 ! D2    D(47,1,2,4)          -174.8342         estimate D2E/DX2                !
 ! D3    D(47,1,2,5)           -48.462          estimate D2E/DX2                !
 ! D4    D(48,1,2,3)          -171.7504         estimate D2E/DX2                !
 ! D5    D(48,1,2,4)           -54.0424         estimate D2E/DX2                !
 ! D6    D(48,1,2,5)            72.3299         estimate D2E/DX2                !
 ! D7    D(49,1,2,3)           -52.475          estimate D2E/DX2                !
 ! D8    D(49,1,2,4)            65.233          estimate D2E/DX2                !
 ! D9    D(49,1,2,5)          -168.3947         estimate D2E/DX2                !
 ! D10   D(1,2,3,50)           -60.3942         estimate D2E/DX2                !
 ! D11   D(1,2,3,51)            60.0053         estimate D2E/DX2                !
 ! D12   D(1,2,3,52)          -179.5746         estimate D2E/DX2                !
 ! D13   D(4,2,3,50)           179.8935         estimate D2E/DX2                !
 ! D14   D(4,2,3,51)           -59.7069         estimate D2E/DX2                !
 ! D15   D(4,2,3,52)            60.7131         estimate D2E/DX2                !
 ! D16   D(5,2,3,50)            58.8816         estimate D2E/DX2                !
 ! D17   D(5,2,3,51)           179.2811         estimate D2E/DX2                !
 ! D18   D(5,2,3,52)           -60.2989         estimate D2E/DX2                !
 ! D19   D(1,2,4,53)           174.3758         estimate D2E/DX2                !
 ! D20   D(1,2,4,54)            53.3225         estimate D2E/DX2                !
 ! D21   D(1,2,4,55)           -65.6585         estimate D2E/DX2                !
 ! D22   D(3,2,4,53)           -67.8134         estimate D2E/DX2                !
 ! D23   D(3,2,4,54)           171.1333         estimate D2E/DX2                !
 ! D24   D(3,2,4,55)            52.1523         estimate D2E/DX2                !
 ! D25   D(5,2,4,53)            48.8722         estimate D2E/DX2                !
 ! D26   D(5,2,4,54)           -72.181          estimate D2E/DX2                !
 ! D27   D(5,2,4,55)           168.8379         estimate D2E/DX2                !
 ! D28   D(1,2,5,6)            -70.4435         estimate D2E/DX2                !
 ! D29   D(3,2,5,6)            172.5147         estimate D2E/DX2                !
 ! D30   D(4,2,5,6)             54.8458         estimate D2E/DX2                !
 ! D31   D(2,5,6,7)           -106.9675         estimate D2E/DX2                !
 ! D32   D(2,5,6,56)           135.8036         estimate D2E/DX2                !
 ! D33   D(2,5,6,57)            18.9479         estimate D2E/DX2                !
 ! D34   D(5,6,7,8)            -56.7579         estimate D2E/DX2                !
 ! D35   D(5,6,7,46)           123.732          estimate D2E/DX2                !
 ! D36   D(56,6,7,8)            60.4673         estimate D2E/DX2                !
 ! D37   D(56,6,7,46)         -119.0428         estimate D2E/DX2                !
 ! D38   D(57,6,7,8)           175.4086         estimate D2E/DX2                !
 ! D39   D(57,6,7,46)           -4.1015         estimate D2E/DX2                !
 ! D40   D(6,7,8,9)            179.8667         estimate D2E/DX2                !
 ! D41   D(6,7,8,58)             0.0734         estimate D2E/DX2                !
 ! D42   D(46,7,8,9)            -0.6161         estimate D2E/DX2                !
 ! D43   D(46,7,8,58)          179.5906         estimate D2E/DX2                !
 ! D44   D(6,7,46,45)         -179.7922         estimate D2E/DX2                !
 ! D45   D(6,7,46,86)            0.2971         estimate D2E/DX2                !
 ! D46   D(8,7,46,45)            0.6944         estimate D2E/DX2                !
 ! D47   D(8,7,46,86)         -179.2162         estimate D2E/DX2                !
 ! D48   D(7,8,9,10)            -0.1181         estimate D2E/DX2                !
 ! D49   D(7,8,9,59)          -179.3198         estimate D2E/DX2                !
 ! D50   D(58,8,9,10)          179.6772         estimate D2E/DX2                !
 ! D51   D(58,8,9,59)            0.4755         estimate D2E/DX2                !
 ! D52   D(8,9,10,11)          179.6637         estimate D2E/DX2                !
 ! D53   D(8,9,10,45)            0.7705         estimate D2E/DX2                !
 ! D54   D(59,9,10,11)          -1.1454         estimate D2E/DX2                !
 ! D55   D(59,9,10,45)         179.9614         estimate D2E/DX2                !
 ! D56   D(9,10,11,12)         -49.4486         estimate D2E/DX2                !
 ! D57   D(9,10,11,43)         130.318          estimate D2E/DX2                !
 ! D58   D(45,10,11,12)        129.4284         estimate D2E/DX2                !
 ! D59   D(45,10,11,43)        -50.8051         estimate D2E/DX2                !
 ! D60   D(9,10,45,46)          -0.692          estimate D2E/DX2                !
 ! D61   D(9,10,45,85)         178.3505         estimate D2E/DX2                !
 ! D62   D(11,10,45,46)       -179.5821         estimate D2E/DX2                !
 ! D63   D(11,10,45,85)         -0.5396         estimate D2E/DX2                !
 ! D64   D(10,11,12,13)        179.7262         estimate D2E/DX2                !
 ! D65   D(10,11,12,60)         -0.6228         estimate D2E/DX2                !
 ! D66   D(43,11,12,13)         -0.0442         estimate D2E/DX2                !
 ! D67   D(43,11,12,60)        179.6068         estimate D2E/DX2                !
 ! D68   D(10,11,43,19)        178.645          estimate D2E/DX2                !
 ! D69   D(10,11,43,44)         -2.5854         estimate D2E/DX2                !
 ! D70   D(12,11,43,19)         -1.5883         estimate D2E/DX2                !
 ! D71   D(12,11,43,44)        177.1814         estimate D2E/DX2                !
 ! D72   D(11,12,13,14)       -179.341          estimate D2E/DX2                !
 ! D73   D(11,12,13,18)          0.5062         estimate D2E/DX2                !
 ! D74   D(60,12,13,14)          1.0087         estimate D2E/DX2                !
 ! D75   D(60,12,13,18)       -179.1442         estimate D2E/DX2                !
 ! D76   D(12,13,14,15)        179.3057         estimate D2E/DX2                !
 ! D77   D(12,13,14,61)         -0.4372         estimate D2E/DX2                !
 ! D78   D(18,13,14,15)         -0.5416         estimate D2E/DX2                !
 ! D79   D(18,13,14,61)        179.7156         estimate D2E/DX2                !
 ! D80   D(12,13,18,17)       -178.7384         estimate D2E/DX2                !
 ! D81   D(12,13,18,19)          0.6413         estimate D2E/DX2                !
 ! D82   D(14,13,18,17)          1.1088         estimate D2E/DX2                !
 ! D83   D(14,13,18,19)       -179.5116         estimate D2E/DX2                !
 ! D84   D(13,14,15,16)         -0.1769         estimate D2E/DX2                !
 ! D85   D(13,14,15,62)       -179.8773         estimate D2E/DX2                !
 ! D86   D(61,14,15,16)        179.5702         estimate D2E/DX2                !
 ! D87   D(61,14,15,62)         -0.1302         estimate D2E/DX2                !
 ! D88   D(14,15,16,17)          0.3104         estimate D2E/DX2                !
 ! D89   D(14,15,16,63)       -179.572          estimate D2E/DX2                !
 ! D90   D(62,15,16,17)       -179.9892         estimate D2E/DX2                !
 ! D91   D(62,15,16,63)          0.1285         estimate D2E/DX2                !
 ! D92   D(15,16,17,18)          0.2801         estimate D2E/DX2                !
 ! D93   D(15,16,17,64)       -179.4432         estimate D2E/DX2                !
 ! D94   D(63,16,17,18)       -179.8376         estimate D2E/DX2                !
 ! D95   D(63,16,17,64)          0.4391         estimate D2E/DX2                !
 ! D96   D(16,17,18,13)         -0.9824         estimate D2E/DX2                !
 ! D97   D(16,17,18,19)        179.6548         estimate D2E/DX2                !
 ! D98   D(64,17,18,13)        178.7313         estimate D2E/DX2                !
 ! D99   D(64,17,18,19)         -0.6315         estimate D2E/DX2                !
 ! D100  D(13,18,19,20)        178.7416         estimate D2E/DX2                !
 ! D101  D(13,18,19,43)         -2.2425         estimate D2E/DX2                !
 ! D102  D(17,18,19,20)         -1.8992         estimate D2E/DX2                !
 ! D103  D(17,18,19,43)        177.1167         estimate D2E/DX2                !
 ! D104  D(18,19,20,21)        108.6592         estimate D2E/DX2                !
 ! D105  D(18,19,20,42)        -72.3189         estimate D2E/DX2                !
 ! D106  D(43,19,20,21)        -70.3671         estimate D2E/DX2                !
 ! D107  D(43,19,20,42)        108.6548         estimate D2E/DX2                !
 ! D108  D(18,19,43,11)          2.7355         estimate D2E/DX2                !
 ! D109  D(18,19,43,44)       -176.0418         estimate D2E/DX2                !
 ! D110  D(20,19,43,11)       -178.2191         estimate D2E/DX2                !
 ! D111  D(20,19,43,44)          3.0037         estimate D2E/DX2                !
 ! D112  D(19,20,21,22)          3.0091         estimate D2E/DX2                !
 ! D113  D(19,20,21,23)       -178.2162         estimate D2E/DX2                !
 ! D114  D(42,20,21,22)       -176.0321         estimate D2E/DX2                !
 ! D115  D(42,20,21,23)          2.7425         estimate D2E/DX2                !
 ! D116  D(19,20,42,37)        178.8056         estimate D2E/DX2                !
 ! D117  D(19,20,42,41)         -1.8649         estimate D2E/DX2                !
 ! D118  D(21,20,42,37)         -2.1828         estimate D2E/DX2                !
 ! D119  D(21,20,42,41)        177.1467         estimate D2E/DX2                !
 ! D120  D(20,21,22,87)         84.4254         estimate D2E/DX2                !
 ! D121  D(23,21,22,87)        -94.3574         estimate D2E/DX2                !
 ! D122  D(20,21,23,24)        178.5998         estimate D2E/DX2                !
 ! D123  D(20,21,23,36)         -1.6582         estimate D2E/DX2                !
 ! D124  D(22,21,23,24)         -2.6333         estimate D2E/DX2                !
 ! D125  D(22,21,23,36)        177.1087         estimate D2E/DX2                !
 ! D126  D(21,22,87,44)        -69.5171         estimate D2E/DX2                !
 ! D127  D(21,23,24,25)        130.0514         estimate D2E/DX2                !
 ! D128  D(21,23,24,35)        -50.7354         estimate D2E/DX2                !
 ! D129  D(36,23,24,25)        -49.6904         estimate D2E/DX2                !
 ! D130  D(36,23,24,35)        129.5227         estimate D2E/DX2                !
 ! D131  D(21,23,36,37)          0.0217         estimate D2E/DX2                !
 ! D132  D(21,23,36,80)        179.6988         estimate D2E/DX2                !
 ! D133  D(24,23,36,37)        179.7679         estimate D2E/DX2                !
 ! D134  D(24,23,36,80)         -0.555          estimate D2E/DX2                !
 ! D135  D(23,24,25,26)        179.5967         estimate D2E/DX2                !
 ! D136  D(23,24,25,65)         -1.3864         estimate D2E/DX2                !
 ! D137  D(35,24,25,26)          0.3721         estimate D2E/DX2                !
 ! D138  D(35,24,25,65)        179.3889         estimate D2E/DX2                !
 ! D139  D(23,24,35,34)       -179.5586         estimate D2E/DX2                !
 ! D140  D(23,24,35,79)         -0.2503         estimate D2E/DX2                !
 ! D141  D(25,24,35,34)         -0.3364         estimate D2E/DX2                !
 ! D142  D(25,24,35,79)        178.9719         estimate D2E/DX2                !
 ! D143  D(24,25,26,27)         -0.887          estimate D2E/DX2                !
 ! D144  D(24,25,26,66)        179.0085         estimate D2E/DX2                !
 ! D145  D(65,25,26,27)       -179.9167         estimate D2E/DX2                !
 ! D146  D(65,25,26,66)         -0.0212         estimate D2E/DX2                !
 ! D147  D(25,26,27,28)        178.1145         estimate D2E/DX2                !
 ! D148  D(25,26,27,34)          1.3487         estimate D2E/DX2                !
 ! D149  D(66,26,27,28)         -1.7797         estimate D2E/DX2                !
 ! D150  D(66,26,27,34)       -178.5455         estimate D2E/DX2                !
 ! D151  D(26,27,28,29)        -92.1973         estimate D2E/DX2                !
 ! D152  D(26,27,28,67)         27.4847         estimate D2E/DX2                !
 ! D153  D(26,27,28,68)        144.7431         estimate D2E/DX2                !
 ! D154  D(34,27,28,29)         84.5456         estimate D2E/DX2                !
 ! D155  D(34,27,28,67)       -155.7724         estimate D2E/DX2                !
 ! D156  D(34,27,28,68)        -38.514          estimate D2E/DX2                !
 ! D157  D(26,27,34,35)         -1.3132         estimate D2E/DX2                !
 ! D158  D(26,27,34,78)        178.8719         estimate D2E/DX2                !
 ! D159  D(28,27,34,35)       -178.0926         estimate D2E/DX2                !
 ! D160  D(28,27,34,78)          2.0925         estimate D2E/DX2                !
 ! D161  D(27,28,29,30)       -161.3412         estimate D2E/DX2                !
 ! D162  D(67,28,29,30)         79.3002         estimate D2E/DX2                !
 ! D163  D(68,28,29,30)        -41.1351         estimate D2E/DX2                !
 ! D164  D(28,29,30,31)         75.1417         estimate D2E/DX2                !
 ! D165  D(28,29,30,32)        -49.7474         estimate D2E/DX2                !
 ! D166  D(28,29,30,33)       -167.8456         estimate D2E/DX2                !
 ! D167  D(29,30,31,69)        -73.4529         estimate D2E/DX2                !
 ! D168  D(29,30,31,70)        167.3616         estimate D2E/DX2                !
 ! D169  D(29,30,31,71)         47.3392         estimate D2E/DX2                !
 ! D170  D(32,30,31,69)         52.937          estimate D2E/DX2                !
 ! D171  D(32,30,31,70)        -66.2485         estimate D2E/DX2                !
 ! D172  D(32,30,31,71)        173.7291         estimate D2E/DX2                !
 ! D173  D(33,30,31,69)        170.6451         estimate D2E/DX2                !
 ! D174  D(33,30,31,70)         51.4595         estimate D2E/DX2                !
 ! D175  D(33,30,31,71)        -68.5628         estimate D2E/DX2                !
 ! D176  D(29,30,32,72)       -170.7085         estimate D2E/DX2                !
 ! D177  D(29,30,32,73)         70.1427         estimate D2E/DX2                !
 ! D178  D(29,30,32,74)        -50.6873         estimate D2E/DX2                !
 ! D179  D(31,30,32,72)         64.2088         estimate D2E/DX2                !
 ! D180  D(31,30,32,73)        -54.9399         estimate D2E/DX2                !
 ! D181  D(31,30,32,74)       -175.77           estimate D2E/DX2                !
 ! D182  D(33,30,32,72)        -53.5829         estimate D2E/DX2                !
 ! D183  D(33,30,32,73)       -172.7316         estimate D2E/DX2                !
 ! D184  D(33,30,32,74)         66.4383         estimate D2E/DX2                !
 ! D185  D(29,30,33,75)        -58.8151         estimate D2E/DX2                !
 ! D186  D(29,30,33,76)       -179.2454         estimate D2E/DX2                !
 ! D187  D(29,30,33,77)         60.3761         estimate D2E/DX2                !
 ! D188  D(31,30,33,75)         60.1395         estimate D2E/DX2                !
 ! D189  D(31,30,33,76)        -60.2908         estimate D2E/DX2                !
 ! D190  D(31,30,33,77)        179.3308         estimate D2E/DX2                !
 ! D191  D(32,30,33,75)        179.5745         estimate D2E/DX2                !
 ! D192  D(32,30,33,76)         59.1443         estimate D2E/DX2                !
 ! D193  D(32,30,33,77)        -61.2342         estimate D2E/DX2                !
 ! D194  D(27,34,35,24)          0.8156         estimate D2E/DX2                !
 ! D195  D(27,34,35,79)       -178.5024         estimate D2E/DX2                !
 ! D196  D(78,34,35,24)       -179.3678         estimate D2E/DX2                !
 ! D197  D(78,34,35,79)          1.3143         estimate D2E/DX2                !
 ! D198  D(23,36,37,38)       -179.3636         estimate D2E/DX2                !
 ! D199  D(23,36,37,42)          0.5069         estimate D2E/DX2                !
 ! D200  D(80,36,37,38)          0.96           estimate D2E/DX2                !
 ! D201  D(80,36,37,42)       -179.1695         estimate D2E/DX2                !
 ! D202  D(36,37,38,39)        179.3547         estimate D2E/DX2                !
 ! D203  D(36,37,38,81)         -0.4309         estimate D2E/DX2                !
 ! D204  D(42,37,38,39)         -0.5159         estimate D2E/DX2                !
 ! D205  D(42,37,38,81)        179.6985         estimate D2E/DX2                !
 ! D206  D(36,37,42,20)          0.5778         estimate D2E/DX2                !
 ! D207  D(36,37,42,41)       -178.773          estimate D2E/DX2                !
 ! D208  D(38,37,42,20)       -179.5518         estimate D2E/DX2                !
 ! D209  D(38,37,42,41)          1.0974         estimate D2E/DX2                !
 ! D210  D(37,38,39,40)         -0.1902         estimate D2E/DX2                !
 ! D211  D(37,38,39,82)       -179.8961         estimate D2E/DX2                !
 ! D212  D(81,38,39,40)        179.5989         estimate D2E/DX2                !
 ! D213  D(81,38,39,82)         -0.107          estimate D2E/DX2                !
 ! D214  D(38,39,40,41)          0.297          estimate D2E/DX2                !
 ! D215  D(38,39,40,83)       -179.5641         estimate D2E/DX2                !
 ! D216  D(82,39,40,41)       -179.9969         estimate D2E/DX2                !
 ! D217  D(82,39,40,83)          0.142          estimate D2E/DX2                !
 ! D218  D(39,40,41,42)          0.3076         estimate D2E/DX2                !
 ! D219  D(39,40,41,84)       -179.3684         estimate D2E/DX2                !
 ! D220  D(83,40,41,42)       -179.8313         estimate D2E/DX2                !
 ! D221  D(83,40,41,84)          0.4927         estimate D2E/DX2                !
 ! D222  D(40,41,42,20)        179.6694         estimate D2E/DX2                !
 ! D223  D(40,41,42,37)         -0.9973         estimate D2E/DX2                !
 ! D224  D(84,41,42,20)         -0.6659         estimate D2E/DX2                !
 ! D225  D(84,41,42,37)        178.6674         estimate D2E/DX2                !
 ! D226  D(11,43,44,87)       -120.7322         estimate D2E/DX2                !
 ! D227  D(19,43,44,87)         58.0531         estimate D2E/DX2                !
 ! D228  D(43,44,87,22)        -17.4003         estimate D2E/DX2                !
 ! D229  D(10,45,46,7)          -0.0394         estimate D2E/DX2                !
 ! D230  D(10,45,46,86)        179.8726         estimate D2E/DX2                !
 ! D231  D(85,45,46,7)        -179.0953         estimate D2E/DX2                !
 ! D232  D(85,45,46,86)          0.8166         estimate D2E/DX2                !
 --------------------------------------------------------------------------------
 Trust Radius=3.00D-01 FncErr=1.00D-07 GrdErr=1.00D-06 EigMax=2.50D+02 EigMin=1.00D-04
 Number of steps in this run=    496 maximum allowed number of steps=    522.
 GradGradGradGradGradGradGradGradGradGradGradGradGradGradGradGradGradGrad

 Leave Link  103 at Sat Feb  8 07:15:26 2025, MaxMem= 13421772800 cpu:               0.8 elap:               0.0
 (Enter /public/software/apps/Gaussian/g16/l202.exe)
 Symmetry turned off by external request.
 Stoichiometry    C42H40CuO4(2)
 Framework group  C1[X(C42H40CuO4)]
 Deg. of freedom   255
 Full point group                 C1      NOp   1
                          Input orientation:                          
 ---------------------------------------------------------------------
 Center     Atomic      Atomic             Coordinates (Angstroms)
 Number     Number       Type             X           Y           Z
 ---------------------------------------------------------------------
      1          6           0       -7.391297   -5.110636    0.845686
      2          6           0       -6.075524   -4.477464    1.352691
      3          6           0       -5.367158   -5.511041    2.245193
      4          6           0       -5.130608   -4.149288    0.170779
      5          8           0       -6.332651   -3.347610    2.185282
      6          6           0       -6.837262   -2.205304    1.511148
      7          6           0       -5.767991   -1.150355    1.422340
      8          6           0       -5.155713   -0.673014    2.591078
      9          6           0       -4.159725    0.304638    2.518574
     10          6           0       -3.757678    0.819580    1.274758
     11          6           0       -2.705767    1.862335    1.201324
     12          6           0       -2.799054    2.995987    2.020581
     13          6           0       -1.818296    3.994421    1.977552
     14          6           0       -1.921765    5.116329    2.815918
     15          6           0       -0.940782    6.108457    2.789099
     16          6           0        0.151820    5.989518    1.930698
     17          6           0        0.268058    4.881334    1.088619
     18          6           0       -0.719015    3.871782    1.090286
     19          6           0       -0.633723    2.738697    0.242727
     20          6           0        0.482335    2.571601   -0.727066
     21          6           0        1.457300    1.589663   -0.470661
     22          8           0        1.318305    0.763570    0.642577
     23          6           0        2.551204    1.420653   -1.340043
     24          6           0        3.600608    0.409959   -1.063241
     25          6           0        3.996530   -0.492924   -2.064431
     26          6           0        4.991212   -1.441233   -1.809428
     27          6           0        5.618829   -1.489749   -0.555344
     28          6           0        6.657401   -2.533295   -0.263499
     29          8           0        6.018275   -3.655066    0.318510
     30          6           0        6.895865   -4.534170    1.021410
     31          6           0        7.311306   -3.927300    2.380197
     32          6           0        8.146921   -4.933582    0.199566
     33          6           0        6.087746   -5.812951    1.300285
     34          6           0        5.218553   -0.596020    0.449308
     35          6           0        4.223425    0.352029    0.195178
     36          6           0        2.646900    2.217558   -2.489238
     37          6           0        1.669223    3.176795   -2.779851
     38          6           0        1.775480    3.956520   -3.943054
     39          6           0        0.798036    4.905293   -4.246514
     40          6           0       -0.293646    5.081916   -3.396868
     41          6           0       -0.412796    4.315990   -2.235051
     42          6           0        0.570763    3.359483   -1.902078
     43          6           0       -1.611886    1.730240    0.325518
     44          8           0       -1.476336    0.581495   -0.451143
     45          6           0       -4.381631    0.350421    0.106563
     46          6           0       -5.378781   -0.626123    0.179761
     47          1           0       -8.097185   -5.255590    1.691367
     48          1           0       -7.888002   -4.482606    0.079038
     49          1           0       -7.194461   -6.099286    0.377231
     50          1           0       -6.009512   -5.777391    3.112414
     51          1           0       -5.135416   -6.441012    1.681456
     52          1           0       -4.415843   -5.091811    2.638831
     53          1           0       -4.233725   -3.603824    0.535193
     54          1           0       -5.634392   -3.530897   -0.599629
     55          1           0       -4.795106   -5.081893   -0.332497
     56          1           0       -7.670888   -1.793644    2.118041
     57          1           0       -7.276402   -2.414947    0.513932
     58          1           0       -5.448249   -1.061369    3.558976
     59          1           0       -3.693032    0.650362    3.432882
     60          1           0       -3.644675    3.102267    2.691315
     61          1           0       -2.759413    5.223825    3.495023
     62          1           0       -1.025355    6.969773    3.439237
     63          1           0        0.913733    6.758473    1.918608
     64          1           0        1.135145    4.821696    0.444255
     65          1           0        3.523896   -0.473666   -3.038925
     66          1           0        5.270270   -2.138466   -2.589824
     67          1           0        7.152727   -2.833273   -1.212995
     68          1           0        7.428947   -2.083435    0.395607
     69          1           0        8.035758   -3.096657    2.258424
     70          1           0        7.801540   -4.693771    3.018850
     71          1           0        6.418173   -3.540155    2.915943
     72          1           0        8.711562   -5.741328    0.713524
     73          1           0        8.841373   -4.076149    0.074618
     74          1           0        7.846230   -5.298369   -0.805910
     75          1           0        5.180667   -5.574319    1.896941
     76          1           0        6.692046   -6.558227    1.862051
     77          1           0        5.758127   -6.275901    0.345017
     78          1           0        5.679887   -0.631953    1.428900
     79          1           0        3.947259    1.048002    0.977641
     80          1           0        3.491810    2.091895   -3.157574
     81          1           0        2.612822    3.829564   -4.619152
     82          1           0        0.884552    5.502099   -5.145382
     83          1           0       -1.052874    5.814094   -3.640077
     84          1           0       -1.279728    4.475934   -1.607789
     85          1           0       -4.107754    0.751270   -0.861626
     86          1           0       -5.846634   -0.970541   -0.734031
     87         29           0        0.136837   -0.519033   -0.257438
 ---------------------------------------------------------------------
 Rotational constants (GHZ):           0.0562532           0.0372698           0.0260145
 Leave Link  202 at Sat Feb  8 07:15:26 2025, MaxMem= 13421772800 cpu:               1.3 elap:               0.0
 (Enter /public/software/apps/Gaussian/g16/l301.exe)
 Standard basis: def2SVPP (5D, 7F)
 Ernie: Thresh=  0.10000D-02 Tol=  0.10000D-05 Strict=F.
   748 basis functions,  1381 primitive gaussians,   796 cartesian basis functions
   177 alpha electrons      176 beta electrons
       nuclear repulsion energy      6112.5637169359 Hartrees.
 IExCor=  402 DFT=T Ex+Corr=B3LYP ExCW=0 ScaHFX=  0.200000
 ScaDFX=  0.800000  0.720000  1.000000  0.810000 ScalE2=  1.000000  1.000000
 IRadAn=      5 IRanWt=     -1 IRanGd=            0 ICorTp=0 IEmpDi=141
 NAtoms=   87 NActive=   87 NUniq=   87 SFac= 1.00D+00 NAtFMM=   60 NAOKFM=T Big=T
 Integral buffers will be    131072 words long.
 Raffenetti 2 integral format.
 Two-electron integral symmetry is turned off.
 R6Disp:  Grimme-D3(BJ) Dispersion energy=       -0.2147766387 Hartrees.
 Nuclear repulsion after empirical dispersion term =     6112.3489402972 Hartrees.
 Leave Link  301 at Sat Feb  8 07:15:26 2025, MaxMem= 13421772800 cpu:               1.8 elap:               0.2
 (Enter /public/software/apps/Gaussian/g16/l302.exe)
 NPDir=0 NMtPBC=     1 NCelOv=     1 NCel=       1 NClECP=     1 NCelD=      1
         NCelK=      1 NCelE2=     1 NClLst=     1 CellRange=     0.0.
 One-electron integrals computed using PRISM.
   1 Symmetry operations used in ECPInt.
 ECPInt:  NShTT=   67161 NPrTT=  274928 LenC2=   47355 LenP2D=  114566.
 LDataN:  DoStor=T MaxTD1= 4 Len=   56
 NBasis=   748 RedAO= T EigKep=  1.64D-04  NBF=   748
 NBsUse=   748 1.00D-06 EigRej= -1.00D+00 NBFU=   748
 Precomputing XC quadrature grid using
 IXCGrd= 4 IRadAn=           5 IRanWt=          -1 IRanGd=           0 AccXCQ= 0.00D+00.
 Generated NRdTot=       0 NPtTot=           0 NUsed=           0 NTot=          32
 NSgBfM=   754   753   753   753   754 MxSgAt=    87 MxSgA2=    87.
 Leave Link  302 at Sat Feb  8 07:15:28 2025, MaxMem= 13421772800 cpu:              34.4 elap:               1.1
 (Enter /public/software/apps/Gaussian/g16/l303.exe)
 DipDrv:  MaxL=1.
 Leave Link  303 at Sat Feb  8 07:15:28 2025, MaxMem= 13421772800 cpu:               3.2 elap:               0.1
 (Enter /public/software/apps/Gaussian/g16/l401.exe)
 ExpMin= 3.30D-02 ExpMax= 7.64D+04 ExpMxC= 1.15D+04 IAcc=3 IRadAn=         5 AccDes= 0.00D+00
 Harris functional with IExCor=  402 and IRadAn=       5 diagonalized for initial guess.
 HarFok:  IExCor=  402 AccDes= 0.00D+00 IRadAn=         5 IDoV= 1 UseB2=F ITyADJ=14
 ICtDFT=  3500011 ScaDFX=  1.000000  1.000000  1.000000  1.000000
 FoFCou: FMM=F IPFlag=           0 FMFlag=      100000 FMFlg1=        2001
         NFxFlg=           0 DoJE=T BraDBF=F KetDBF=T FulRan=T
         wScrn=  0.000000 ICntrl=       500 IOpCl=  0 I1Cent=   200000004 NGrid=           0
         NMat0=    1 NMatS0=      1 NMatT0=    0 NMatD0=    1 NMtDS0=    0 NMtDT0=    0
 Symmetry not used in FoFCou.
 Harris En= -3564.77263274261    
 JPrj=0 DoOrth=F DoCkMO=F.
 Initial guess <Sx>= 0.0000 <Sy>= 0.0000 <Sz>= 0.5000 <S**2>= 0.7500 S= 0.5000
 Leave Link  401 at Sat Feb  8 07:15:30 2025, MaxMem= 13421772800 cpu:              69.6 elap:               2.2
 (Enter /public/software/apps/Gaussian/g16/l502.exe)
 Two-electron integral symmetry not used.
 UHF open shell SCF:
 Using DIIS extrapolation, IDIIS=  1040.
 NGot= 13421772800 LenX= 13420471252 LenY= 13419836840
 Requested convergence on RMS density matrix=1.00D-08 within 128 cycles.
 Requested convergence on MAX density matrix=1.00D-06.
 Requested convergence on             energy=1.00D-06.
 No special actions if energy rises.
 Fock matrices will be formed incrementally for  20 cycles.

 Cycle   1  Pass 1  IDiag  1:
 FoFJK:  IHMeth= 1 ICntrl=       0 DoSepK=F KAlg= 0 I1Cent=           0 FoldK=F
 IRaf= 780000000 NMat=       1 IRICut=       1 DoRegI=T DoRafI=F ISym2E= 0 IDoP0=0 IntGTp=1.
 FoFCou: FMM=T IPFlag=           0 FMFlag=      100000 FMFlg1=        2001
         NFxFlg=           0 DoJE=F BraDBF=F KetDBF=F FulRan=T
         wScrn=  0.000000 ICntrl=         0 IOpCl=  1 I1Cent=           0 NGrid=           0
         NMat0=    1 NMatS0=      1 NMatT0=    0 NMatD0=    1 NMtDS0=    0 NMtDT0=    0
 Symmetry not used in FoFCou.
 FMM levels:  10  Number of levels for PrismC:   9
 E= -3545.90459071395    
 DIIS: error= 2.47D-01 at cycle   1 NSaved=   1.
 NSaved= 1 IEnMin= 1 EnMin= -3545.90459071395     IErMin= 1 ErrMin= 2.47D-01
 ErrMax= 2.47D-01  0.00D+00 EMaxC= 1.00D-01 BMatC= 8.83D+01 BMatP= 8.83D+01
 IDIUse=3 WtCom= 0.00D+00 WtEn= 1.00D+00
 Coeff-Com:  0.100D+01
 Coeff-En:   0.100D+01
 Coeff:      0.100D+01
 Gap=    -1.429 Goal=   None    Shift=    0.000
 Gap=     0.974 Goal=   None    Shift=    0.000
 GapD=   -1.429 DampG=0.250 DampE=0.125 DampFc=0.1250 IDamp=-1.
 Damping current iteration by 1.25D-01
 RMSDP=5.98D-02 MaxDP=1.37D+01              OVMax= 9.91D-01

 Cycle   2  Pass 1  IDiag  1:
 RMSU=  7.45D-03    CP:  1.04D+00
 E= -3552.14083433122     Delta-E=       -6.236243617266 Rises=F Damp=T
 DIIS: error= 1.60D-01 at cycle   2 NSaved=   2.
 NSaved= 2 IEnMin= 2 EnMin= -3552.14083433122     IErMin= 2 ErrMin= 1.60D-01
 ErrMax= 1.60D-01  0.00D+00 EMaxC= 1.00D-01 BMatC= 3.40D+01 BMatP= 8.83D+01
 IDIUse=3 WtCom= 0.00D+00 WtEn= 1.00D+00
 Coeff-Com: -0.129D+01 0.229D+01
 Coeff-En:   0.000D+00 0.100D+01
 Coeff:      0.000D+00 0.100D+01
 Gap=    -0.043 Goal=   None    Shift=    0.000
 Gap=    -0.012 Goal=   None    Shift=    0.000
 RMSDP=1.49D-02 MaxDP=4.23D+00 DE=-6.24D+00 OVMax= 9.35D-01

 Cycle   3  Pass 1  IDiag  1:
 RMSU=  1.42D-02    CP:  9.58D-01  1.59D+00
 E= -3517.81871491361     Delta-E=       34.322119417604 Rises=F Damp=F
 DIIS: error= 1.46D-01 at cycle   3 NSaved=   3.
 NSaved= 3 IEnMin= 2 EnMin= -3552.14083433122     IErMin= 3 ErrMin= 1.46D-01
 ErrMax= 1.46D-01  0.00D+00 EMaxC= 1.00D-01 BMatC= 8.78D+01 BMatP= 3.40D+01
 IDIUse=2 WtCom= 0.00D+00 WtEn= 1.00D+00
 EnCoef did    10 forward-backward iterations
 Coeff-En:   0.652D+00 0.288D-02 0.345D+00
 Coeff:      0.652D+00 0.288D-02 0.345D+00
 Gap=    -0.541 Goal=   None    Shift=    0.000
 Gap=     0.390 Goal=   None    Shift=    0.000
 RMSDP=2.21D-02 MaxDP=3.68D+00 DE= 3.43D+01 OVMax= 9.50D-01

 Cycle   4  Pass 1  IDiag  1:
 RMSU=  1.61D-02    CP:  9.00D-01  2.62D-01  1.92D-01
 E= -3524.46160227875     Delta-E=       -6.642887365135 Rises=F Damp=F
 DIIS: error= 1.22D-01 at cycle   4 NSaved=   4.
 NSaved= 4 IEnMin= 2 EnMin= -3552.14083433122     IErMin= 4 ErrMin= 1.22D-01
 ErrMax= 1.22D-01  0.00D+00 EMaxC= 1.00D-01 BMatC= 7.31D+01 BMatP= 3.40D+01
 IDIUse=2 WtCom= 0.00D+00 WtEn= 1.00D+00
 EnCoef did   100 forward-backward iterations
 Coeff-En:   0.570D+00 0.237D-02 0.262D+00 0.166D+00
 Coeff:      0.570D+00 0.237D-02 0.262D+00 0.166D+00
 Gap=     0.479 Goal=   None    Shift=    0.000
 Gap=     0.216 Goal=   None    Shift=    0.000
 RMSDP=1.61D-02 MaxDP=3.73D+00 DE=-6.64D+00 OVMax= 8.77D-01

 Cycle   5  Pass 1  IDiag  1:
 RMSU=  4.84D-03    CP:  8.94D-01  3.80D-02  1.42D-01  5.32D-02
 E= -3559.36830514383     Delta-E=      -34.906702865086 Rises=F Damp=F
 DIIS: error= 1.12D-01 at cycle   5 NSaved=   5.
 NSaved= 5 IEnMin= 5 EnMin= -3559.36830514383     IErMin= 5 ErrMin= 1.12D-01
 ErrMax= 1.12D-01  0.00D+00 EMaxC= 1.00D-01 BMatC= 1.49D+01 BMatP= 3.40D+01
 IDIUse=3 WtCom= 0.00D+00 WtEn= 1.00D+00
 EnCoef did   100 forward-backward iterations
 Coeff-Com: -0.692D+00 0.128D+01-0.386D-02 0.160D-02 0.417D+00
 Coeff-En:   0.226D+00 0.104D-01 0.000D+00 0.123D+00 0.641D+00
 Coeff:      0.226D+00 0.104D-01 0.000D+00 0.123D+00 0.641D+00
 Gap=    -0.354 Goal=   None    Shift=    0.000
 Gap=     0.134 Goal=   None    Shift=    0.000
 RMSDP=8.40D-03 MaxDP=9.38D-01 DE=-3.49D+01 OVMax= 9.03D-01

 Cycle   6  Pass 1  IDiag  1:
 RMSU=  6.55D-03    CP:  9.05D-01  9.34D-02  1.06D-01  2.75D-01  2.15D-01
 E= -3555.67901513361     Delta-E=        3.689290010227 Rises=F Damp=F
 DIIS: error= 6.46D-02 at cycle   6 NSaved=   6.
 NSaved= 6 IEnMin= 5 EnMin= -3559.36830514383     IErMin= 6 ErrMin= 6.46D-02
 ErrMax= 6.46D-02  0.00D+00 EMaxC= 1.00D-01 BMatC= 1.82D+01 BMatP= 1.49D+01
 IDIUse=2 WtCom= 0.00D+00 WtEn= 1.00D+00
 EnCoef did   100 forward-backward iterations
 Coeff-En:   0.161D+00 0.627D-02 0.000D+00 0.000D+00 0.513D+00 0.320D+00
 Coeff:      0.161D+00 0.627D-02 0.000D+00 0.000D+00 0.513D+00 0.320D+00
 Gap=     0.100 Goal=   None    Shift=    0.000
 Gap=     0.209 Goal=   None    Shift=    0.000
 RMSDP=7.65D-03 MaxDP=9.28D-01 DE= 3.69D+00 OVMax= 8.49D-01

 Cycle   7  Pass 1  IDiag  1:
 RMSU=  3.44D-03    CP:  9.00D-01  9.70D-03  5.42D-02  7.48D-02  4.76D-01
                    CP:  1.12D-01
 E= -3562.40812866979     Delta-E=       -6.729113536181 Rises=F Damp=F
 DIIS: error= 4.15D-02 at cycle   7 NSaved=   7.
 NSaved= 7 IEnMin= 7 EnMin= -3562.40812866979     IErMin= 7 ErrMin= 4.15D-02
 ErrMax= 4.15D-02  0.00D+00 EMaxC= 1.00D-01 BMatC= 4.49D+00 BMatP= 1.49D+01
 IDIUse=3 WtCom= 5.85D-01 WtEn= 4.15D-01
 EnCoef did     3 forward-backward iterations
 Coeff-Com: -0.144D+00 0.311D+00-0.853D-02-0.811D-01 0.284D+00 0.204D+00
 Coeff-Com:  0.435D+00
 Coeff-En:   0.993D-01 0.000D+00 0.000D+00 0.000D+00 0.305D+00 0.130D+00
 Coeff-En:   0.465D+00
 Coeff:     -0.431D-01 0.182D+00-0.499D-02-0.474D-01 0.293D+00 0.173D+00
 Coeff:      0.447D+00
 Gap=     0.207 Goal=   None    Shift=    0.000
 Gap=     0.039 Goal=   None    Shift=    0.000
 RMSDP=4.18D-03 MaxDP=2.81D-01 DE=-6.73D+00 OVMax= 9.41D-01

 Cycle   8  Pass 1  IDiag  1:
 RMSU=  2.85D-03    CP:  9.03D-01 -3.50D-02  7.25D-02  3.68D-02  6.12D-01
                    CP:  1.42D-01  1.61D-01
 E= -3561.71699540532     Delta-E=        0.691133264470 Rises=F Damp=F
 DIIS: error= 2.91D-02 at cycle   8 NSaved=   8.
 NSaved= 8 IEnMin= 7 EnMin= -3562.40812866979     IErMin= 8 ErrMin= 2.91D-02
 ErrMax= 2.91D-02  0.00D+00 EMaxC= 1.00D-01 BMatC= 5.86D+00 BMatP= 4.49D+00
 IDIUse=2 WtCom= 0.00D+00 WtEn= 1.00D+00
 Coeff-En:   0.000D+00 0.000D+00 0.000D+00 0.000D+00 0.000D+00 0.000D+00
 Coeff-En:   0.550D+00 0.450D+00
 Coeff:      0.000D+00 0.000D+00 0.000D+00 0.000D+00 0.000D+00 0.000D+00
 Coeff:      0.550D+00 0.450D+00
 Gap=     0.314 Goal=   None    Shift=    0.000
 Gap=    -0.084 Goal=   None    Shift=    0.000
 RMSDP=3.39D-03 MaxDP=3.54D-01 DE= 6.91D-01 OVMax= 9.44D-01

 Cycle   9  Pass 1  IDiag  1:
 RMSU=  2.29D-03    CP:  8.98D-01 -6.38D-03  5.81D-02  3.33D-02  5.44D-01
                    CP:  1.11D-01  4.33D-01  2.06D-01
 E= -3563.70724075952     Delta-E=       -1.990245354200 Rises=F Damp=F
 DIIS: error= 2.29D-02 at cycle   9 NSaved=   9.
 NSaved= 9 IEnMin= 9 EnMin= -3563.70724075952     IErMin= 9 ErrMin= 2.29D-02
 ErrMax= 2.29D-02  0.00D+00 EMaxC= 1.00D-01 BMatC= 2.56D+00 BMatP= 4.49D+00
 IDIUse=3 WtCom= 7.71D-01 WtEn= 2.29D-01
 EnCoef did     4 forward-backward iterations
 Coeff-Com: -0.458D-01 0.878D-01-0.220D-02-0.554D-02 0.385D-01 0.401D-01
 Coeff-Com:  0.313D+00 0.278D+00 0.295D+00
 Coeff-En:   0.000D+00 0.000D+00 0.000D+00 0.000D+00 0.000D+00 0.000D+00
 Coeff-En:   0.297D+00 0.255D+00 0.448D+00
 Coeff:     -0.353D-01 0.677D-01-0.169D-02-0.427D-02 0.297D-01 0.310D-01
 Coeff:      0.310D+00 0.273D+00 0.330D+00
 Gap=     0.211 Goal=   None    Shift=    0.000
 Gap=     0.037 Goal=   None    Shift=    0.000
 RMSDP=2.21D-03 MaxDP=1.77D-01 DE=-1.99D+00 OVMax= 5.58D-01

 Cycle  10  Pass 1  IDiag  1:
 RMSU=  1.48D-03    CP:  8.98D-01 -2.73D-02  6.12D-02  5.00D-02  5.71D-01
                    CP:  1.28D-01  5.28D-01  3.16D-01  3.27D-01
 E= -3564.41921508739     Delta-E=       -0.711974327876 Rises=F Damp=F
 DIIS: error= 9.17D-03 at cycle  10 NSaved=  10.
 NSaved=10 IEnMin=10 EnMin= -3564.41921508739     IErMin=10 ErrMin= 9.17D-03
 ErrMax= 9.17D-03  0.00D+00 EMaxC= 1.00D-01 BMatC= 3.13D-01 BMatP= 2.56D+00
 IDIUse=3 WtCom= 9.08D-01 WtEn= 9.17D-02
 Coeff-Com: -0.839D-01 0.135D+00-0.232D-03 0.118D-02 0.191D-01 0.109D-01
 Coeff-Com:  0.421D-01 0.613D-01 0.195D+00 0.620D+00
 Coeff-En:   0.000D+00 0.000D+00 0.000D+00 0.000D+00 0.000D+00 0.000D+00
 Coeff-En:   0.000D+00 0.000D+00 0.977D-01 0.902D+00
 Coeff:     -0.762D-01 0.123D+00-0.211D-03 0.107D-02 0.174D-01 0.994D-02
 Coeff:      0.382D-01 0.557D-01 0.186D+00 0.646D+00
 Gap=     0.170 Goal=   None    Shift=    0.000
 Gap=     0.025 Goal=   None    Shift=    0.000
 RMSDP=9.57D-04 MaxDP=6.24D-02 DE=-7.12D-01 OVMax= 2.74D-01

 Cycle  11  Pass 1  IDiag  1:
 RMSU=  8.09D-04    CP:  8.93D-01 -3.19D-02  6.44D-02  4.77D-02  5.81D-01
                    CP:  1.35D-01  4.87D-01  2.86D-01  4.27D-01  7.25D-01
 E= -3564.45663112699     Delta-E=       -0.037416039593 Rises=F Damp=F
 DIIS: error= 1.35D-02 at cycle  11 NSaved=  11.
 NSaved=11 IEnMin=11 EnMin= -3564.45663112699     IErMin=10 ErrMin= 9.17D-03
 ErrMax= 1.35D-02  0.00D+00 EMaxC= 1.00D-01 BMatC= 2.59D-01 BMatP= 3.13D-01
 IDIUse=3 WtCom= 9.08D-01 WtEn= 9.17D-02
 Coeff-Com: -0.302D-01 0.499D-01 0.231D-02-0.154D-02-0.173D-01 0.247D-02
 Coeff-Com:  0.168D-01 0.342D-02 0.143D+00 0.457D+00 0.374D+00
 Coeff-En:   0.000D+00 0.000D+00 0.000D+00 0.000D+00 0.000D+00 0.000D+00
 Coeff-En:   0.000D+00 0.000D+00 0.000D+00 0.358D+00 0.642D+00
[...]
 0025726,0.00028719,0.00014000,0.00068080,-0.00044162,0.00047744,-0.000
 10561,-0.00002653,0.00002039,-0.00001432,0.00000260,0.00000208,0.00000
 386,-0.00000320,-0.00000413,-0.00000264,0.00000002,-0.00000048,0.00000
 031,-0.00000116,0.00000095,0.00000132,-0.00000076,-0.00000374,0.000000
 51,-0.00000350,0.00000112,0.00000167,-0.00000126,0.00000243,0.00000117
 ,-0.00000099,0.00000236,-0.00000109,0.00000073,0.00000004,-0.00000034,
 -0.00000036,0.00000018,-0.00000035,0.00000015,0.00000027,0.00000070,-0
 .00000022,0.00000041,0.,0.00000032,-0.00000014,-0.00000021,0.00000063,
 0.00000030,0.00000017,-0.00000004,0.00000015,0.00000051,-0.00000001,0.
 00000028,-0.00000036,0.00000054,0.00000029,0.00000020,-0.00000035,-0.0
 0000067,-0.00000081,0.00000559,0.00000063,0.00000532,-0.00000318,-0.00
 000211,0.00000327,-0.00000355,-0.00000087,0.00000105,-0.00000111,-0.00
 000282,0.00000039,0.00000134,-0.00000412,-0.00000074,0.00000066,-0.000
 00403,-0.00000398,-0.00111092,0.00285975,-0.00006202,0.06830229,-0.000
 00186,0.00001102,0.00002408,-0.00002763,-0.00000195,0.00004005,0.00002
 770,-0.00001283,0.00000841,-0.00001754,0.00006576,0.00008769,-0.000332
 56,-0.00004965,-0.00031502,0.00238723,-0.00115764,0.00180753,0.0025544
 6,0.00654445,0.00816863,-0.00362940,0.00329278,0.00169344,-0.00013141,
 -0.00075937,0.00056035,-0.00642621,0.00148312,0.00049301,0.00021282,0.
 00020546,-0.00098484,-0.00019263,-0.00011360,0.00012207,0.00010213,-0.
 00005323,-0.00004334,-0.00000999,0.00000558,0.00001992,-0.00001734,0.0
 0000171,0.00000419,-0.00002551,-0.00002102,0.00000023,-0.00000671,-0.0
 0000280,-0.00000023,-0.00002633,0.00002093,0.00001298,-0.00011558,-0.0
 0007776,0.00006450,-0.00010058,0.00008997,0.00001598,0.00008959,-0.000
 09231,0.00006095,-0.00003521,0.00010640,-0.00008860,0.00004702,-0.0000
 1979,-0.00004399,0.00000187,-0.00000491,0.00000324,0.00000157,0.000001
 90,-0.00000792,-0.00000395,0.00000469,-0.00000457,0.00000310,0.0000010
 4,0.00000247,0.00000243,-0.00000916,0.00000624,-0.00001059,0.00001236,
 -0.00000758,0.00001102,-0.00000826,0.00000481,-0.00000219,0.00000041,-
 0.00000065,-0.00000168,0.00000138,-0.00000003,-0.00000064,0.00000064,-
 0.00000059,-0.00000311,-0.00000129,0.00000575,-0.00000166,-0.00000124,
 -0.00000146,0.00002117,-0.00004897,0.00003162,-0.00002139,0.00003523,-
 0.00001757,0.00003605,-0.00004650,0.00002095,-0.00003199,0.00000688,0.
 00002111,-0.00000267,0.00001718,-0.00000436,-0.00001191,0.00000062,0.0
 0001583,-0.00000307,-0.00000918,-0.00001041,0.00016809,-0.00000676,0.0
 0003538,0.00002422,-0.00010157,0.00003905,-0.00567410,-0.00312531,-0.0
 2034549,-0.03865342,-0.08138444,-0.08551361,0.00001146,0.00000309,-0.0
 0000699,-0.00000944,-0.00001208,-0.00001991,-0.00000216,0.00001194,-0.
 00000786,0.00001084,0.00000555,-0.00001202,-0.00000091,0.00000014,0.00
 000085,-0.00000622,-0.00000039,-0.00000495,0.00000125,0.00000405,-0.00
 001726,0.00001751,-0.00002700,-0.00006578,-0.00000251,0.00002509,-0.00
 003461,0.00041100,0.00021757,-0.00004670,0.00000501,-0.00018513,-0.000
 60412,-0.00002781,0.00034051,0.00049576,0.00048993,-0.00054169,-0.0000
 2903,0.00003169,0.00002379,-0.00001877,0.00000161,0.00000388,0.0000002
 0,-0.00000325,-0.00000464,-0.00000459,-0.00000052,-0.00000082,0.000000
 51,0.00000075,0.00000481,0.00000273,0.00000061,-0.00000231,-0.00000034
 ,-0.00000226,0.00000203,0.00000185,-0.00000067,0.00000252,0.00000018,-
 0.00000284,0.00000238,-0.00000187,0.00000113,-0.00000029,-0.00000003,-
 0.00000100,0.00000087,-0.00000090,0.00000061,0.00000006,0.00000082,-0.
 00000085,0.00000109,-0.00000058,0.00000072,-0.00000057,0.00000007,0.00
 000030,-0.00000071,-0.00000006,0.00000062,0.00000013,0.00000105,-0.000
 00102,0.00000092,-0.00000066,0.00000025,-0.00000099,-0.00000008,0.0000
 0079,-0.00000013,-0.00000102,0.00000788,0.00000130,0.00000566,-0.00000
 316,-0.00000129,0.00000471,-0.00000407,-0.00000038,0.00000208,-0.00000
 208,-0.00000420,0.00000173,0.00000245,-0.00000961,0.00000033,-0.000000
 10,-0.00000238,-0.00000766,0.00267579,-0.00180007,0.00060299,0.0462089
 0,0.07712449,0.00000986,0.00001012,-0.00006397,0.00001625,-0.00002932,
 -0.00005873,-0.00004032,-0.00001797,-0.00001763,-0.00002484,0.00001610
 ,-0.00020913,0.00001109,0.00033858,0.00057037,-0.00165417,-0.00205775,
 -0.00001250,-0.00903466,-0.01034837,-0.01913238,0.00352763,0.00236368,
 -0.00284397,0.00062040,0.00063868,0.00041879,0.00047040,-0.00017770,0.
 00188221,0.00028737,0.00009439,-0.00008876,-0.00005308,0.00005662,0.00
 003877,-0.00000376,-0.00002089,-0.00003509,0.00001652,0.00003051,0.000
 02630,-0.00002581,-0.00000202,0.00001746,-0.00001809,-0.00001684,-0.00
 000055,-0.00001369,-0.00000936,-0.00000002,-0.00000753,0.00002264,0.00
 000428,-0.00014151,-0.00008577,0.00006086,-0.00011257,0.00009557,0.000
 01218,0.00009863,-0.00011390,0.00008183,-0.00004754,0.00014039,-0.0001
 1736,0.00005751,-0.00002704,-0.00005092,0.00000419,-0.00000781,0.00000
 517,0.00000326,0.00000363,-0.00000919,-0.00000571,0.00000733,-0.000007
 43,0.00000493,0.00000256,0.00000352,0.00000189,-0.00001790,0.00001177,
 -0.00001314,0.00002285,-0.00001387,0.00001504,-0.00001448,0.00000798,-
 0.00000324,0.00000131,-0.00000132,-0.00000336,0.00000173,-0.00000036,-
 0.00000195,0.00000030,-0.00000159,-0.00000386,-0.00000046,0.00000759,-
 0.00000293,-0.00000081,-0.00000163,0.00002327,-0.00005123,0.00003251,-
 0.00002162,0.00003700,-0.00001946,0.00003677,-0.00004898,0.00002188,-0
 .00003316,0.00000928,0.00001719,-0.00000503,0.00001511,-0.00000656,-0.
 00001359,0.00000051,0.00001179,-0.00000393,-0.00001931,-0.00000754,0.0
 0012066,0.00006894,0.00001251,-0.00011580,-0.00009034,-0.00007925,0.00
 100284,0.00097992,0.00202588,-0.06901239,-0.08629340,-0.27244905,-0.00
 000749,-0.00000248,0.00001406,0.00001328,0.00003041,0.00005112,0.00000
 406,-0.00001080,0.00002116,-0.00000384,-0.00000434,0.00001461,0.000003
 30,0.00000259,0.00000802,0.00001411,-0.00000072,0.00002647,0.00004929,
 -0.00003455,0.00009016,-0.00006507,0.00004490,0.00000793,0.00001309,0.
 00000274,0.00006093,0.00018301,0.00027862,-0.00006431,0.00065111,0.001
 00800,0.00061208,-0.00058939,-0.00066220,-0.00101212,-0.00011036,-0.00
 001613,-0.00004962,-0.00000629,0.00001836,0.00001011,0.00000017,0.0000
 0539,0.00000102,-0.00000133,-0.00000321,-0.00000423,-0.00000101,-0.000
 00055,0.00000039,0.00000207,0.00000570,0.00000256,0.00000106,-0.000003
 34,-0.00000140,-0.00000364,0.00000211,0.00000305,-0.00000149,0.0000040
 4,0.00000054,-0.00000343,0.00000445,-0.00000296,0.00000213,-0.00000003
 ,-0.00000060,-0.00000156,0.00000105,-0.00000123,0.00000076,0.00000015,
 0.00000152,-0.00000138,0.00000153,-0.00000064,0.00000145,-0.00000046,-
 0.00000044,0.00000090,-0.00000068,0.00000046,0.00000052,0.00000002,0.0
 0000138,-0.00000118,0.00000125,-0.00000111,0.00000094,-0.00000057,0.00
 000054,0.00000021,-0.00000089,-0.00000206,0.00000935,0.00000107,0.0000
 0745,-0.00000389,-0.00000190,0.00000622,-0.00000469,0.00000031,0.00000
 280,-0.00000108,-0.00000348,0.00000245,0.00000359,-0.00000500,0.000000
 57,0.00000216,-0.00000229,-0.00000128,-0.00042493,0.00008538,0.0008283
 1,0.07435555,0.09381652,0.28934448,0.00002578,0.00000941,-0.00000727,-
 0.00007378,-0.00008439,0.00002556,0.00002434,0.00000040,-0.00000158,0.
 00004695,-0.00001178,-0.00000991,0.00006683,0.00014603,-0.00006404,-0.
 00007977,-0.00013460,0.00003479,-0.00003730,0.00003338,0.00004809,-0.0
 0003984,-0.00005950,-0.00011424,0.00023817,-0.00020520,0.00009173,-0.0
 0060218,-0.00033554,-0.00002990,0.00283931,-0.00115111,-0.00254713,0.0
 0110355,0.00192920,0.00109761,-0.00019205,-0.00133871,-0.00102504,0.00
 077437,0.00142102,0.00080404,-0.00085958,-0.00046283,0.00011426,-0.000
 24527,-0.00026650,-0.00003163,-0.00038091,-0.00053253,-0.00029352,-0.0
 0108483,0.00161350,0.00136584,-0.00190828,-0.00626757,-0.00284063,-0.0
 0192472,0.00658081,-0.00396919,-0.00776597,-0.02414213,0.01765587,-0.0
 6202817,-0.03339282,-0.03373427,0.00340950,0.00091600,-0.00301884,-0.0
 0066883,0.00046046,-0.00008633,0.00026316,0.00017345,0.00008117,-0.000
 01644,0.00004518,-0.00012713,-0.00005450,-0.00001862,0.00003751,-0.000
 06727,0.00012822,-0.00006830,0.00015587,-0.00017221,0.00010366,-0.0001
 4868,0.00012216,-0.00008327,0.00002943,-0.00001076,0.00001438,0.000025
 90,-0.00002055,0.00000524,0.00001183,-0.00000875,0.00001396,-0.0000203
 9,0.00013869,-0.00009116,-0.00005208,0.00008030,0.00034804,0.00110688,
 -0.00229969,0.00142498,-0.00010714,0.00148195,-0.00131652,0.00074595,-
 0.00167875,0.00109292,-0.00099380,0.00065937,0.00010421,-0.00023733,0.
 00034209,-0.00014265,-0.00034551,0.00059096,-0.00032037,-0.00133654,-0
 .00150547,0.00179211,-0.00418878,0.02245107,0.01366539,-0.05586247,0.0
 3491908,-0.03447225,-0.00008158,-0.00006174,0.00024378,-0.00003881,-0.
 00011113,-0.00005337,0.00001947,0.00000494,0.00000235,-0.00000606,-0.0
 0000751,-0.00000979,-0.00000691,0.00001054,-0.00000007,0.00001620,0.00
 000224,-0.00001070,-0.00000711,0.00001059,0.00000011,-0.00000311,-0.00
 000354,0.00001177,0.00000474,0.00000341,0.00005632,-0.00001685,-0.0000
 1577,-0.00005097,-0.00000318,0.00002521,-0.00000204,0.00003761,0.00001
 989,-0.00000868,-0.00000219,0.00000969,0.00000461,-0.00001406,0.000018
 68,-0.00001532,-0.00003387,0.00004073,-0.00002671,0.00000165,-0.000065
 74,-0.00012002,-0.00002163,0.00001827,0.00002232,-0.00001476,0.0000035
 7,-0.00000426,0.00003677,-0.00001339,-0.00000573,0.00001736,0.00001924
 ,0.00001647,-0.00004428,-0.00004064,-0.00002652,-0.00000518,-0.0000329
 4,-0.00002327,0.00000437,-0.00002472,-0.00000086,0.00004118,-0.0000210
 1,0.00001452,-0.00001536,0.00000122,0.00000091,0.00001543,-0.00000949,
 0.00000979,-0.00000904,0.00000043,-0.00001065,0.00001326,-0.00001422,0
 .00000540,-0.00001145,0.00000456,0.00000183,-0.00000433,0.00001097,-0.
 00000181,-0.00000797,0.00000198,-0.00001417,0.00001464,-0.00001258,0.0
 0000816,-0.00000458,0.00001229,-0.00000439,-0.00002404,0.00000975,0.00
 000543,-0.00009875,-0.00003235,-0.00018253,0.00000638,0.00006884,-0.00
 015606,-0.00002376,-0.00001532,0.00002790,-0.00001525,0.00000319,-0.00
 000031,0.00004089,0.00000827,-0.00001246,0.00001896,-0.00000686,0.0000
 2620,-0.00006787,0.00000758,-0.00012304,-0.00001342,0.00001821,0.00000
 873,0.13076105,0.00005783,-0.00003993,-0.00003468,-0.00031586,0.000341
 91,0.00002668,0.00006108,-0.00001970,0.00000744,0.00020184,-0.00003028
 ,-0.00003275,0.00008619,-0.00047846,0.00014905,0.00011815,0.00033538,-
 0.00012307,-0.00006251,-0.00020408,0.00031531,-0.00025797,-0.00023456,
 -0.00004292,0.00011554,-0.00001022,-0.00019234,0.00086742,0.00057122,0
 .00034317,-0.00343387,0.00317706,0.00369535,-0.00214797,-0.00353860,-0
 .00131647,0.00035261,0.00227233,0.00190929,-0.00141349,-0.00275712,-0.
 00167380,0.00204855,0.00097191,-0.00037548,0.00020817,0.00062032,0.000
 85635,0.00040281,0.00066931,-0.00029680,0.00117863,-0.00274202,-0.0027
 7004,0.00471772,0.00352282,0.00557951,-0.00436238,0.00291789,-0.005606
 43,-0.01513149,-0.03105940,0.01891269,-0.03638608,-0.01627160,-0.02309
 846,0.00353441,0.00264926,-0.00375345,-0.00076396,0.00057423,-0.000366
 24,-0.00013773,-0.00001317,0.00018111,0.00021061,-0.00028235,0.0000477
 8,0.00000069,-0.00019996,-0.00026649,-0.00001037,0.00020036,-0.0001671
 7,0.00003878,-0.00025380,0.00014262,-0.00008865,0.00012167,-0.00006931
 ,0.00002385,-0.00001601,0.00001731,0.00003682,-0.00000692,0.00001150,0
 .00003353,0.00000909,0.00001649,-0.00004776,0.00025451,-0.00023212,0.0
 0015190,-0.00007856,0.00092623,0.00171007,-0.00340096,0.00144562,-0.00
 014270,0.00200572,-0.00196732,0.00105562,-0.00255346,0.00179044,-0.001
 84585,0.00113576,0.00025877,-0.00011197,0.00052238,-0.00092020,-0.0002
 8534,0.00065626,0.00027039,-0.00130654,-0.00213773,0.00281410,0.012753
 36,-0.03607169,-0.01722992,0.03849235,-0.01975547,0.02726166,-0.000166
 08,-0.00013828,-0.00090467,0.00011904,0.00025465,0.00019555,0.00002343
 ,0.00001402,0.00000204,-0.00001800,0.00001758,0.00001273,-0.00000677,-
 0.00003794,0.00000487,0.00001937,0.00001201,-0.00001694,-0.00000388,-0
 .00003391,0.00001177,-0.00001993,0.00001360,-0.00000354,-0.00006599,0.
 00005852,0.00002406,-0.00007155,0.00005299,-0.00001647,-0.00001900,-0.
 00010653,0.00002388,-0.00003257,-0.00006832,0.00001585,-0.00003145,-0.
 00004094,-0.00002262,-0.00005472,0.00002231,0.00002935,0.00003703,0.00
 001963,0.00000453,-0.00001840,0.00021947,0.00026315,-0.00001963,0.0000
 0845,-0.00004776,0.00000563,0.00006216,-0.00003781,-0.00002710,0.00000
 312,0.00006421,-0.00007426,0.00011478,-0.00014440,-0.00002282,0.000035
 86,-0.00001546,0.00007624,-0.00001071,-0.00003473,0.00004395,-0.000053
 60,-0.00000863,0.00001657,-0.00004697,0.00003108,-0.00002328,-0.000004
 96,0.00001025,0.00001064,-0.00000689,0.00000724,-0.00000494,0.00000021
 ,-0.00001495,0.00000577,-0.00001211,0.00000008,-0.00001637,0.00000047,
 0.00001075,-0.00000730,-0.00000423,-0.00000908,0.00000652,0.00000758,-
 0.00000232,-0.00000746,-0.00000986,0.00000971,-0.00000775,-0.00001970,
 -0.00001109,0.00006054,0.00005206,0.00004336,-0.00021985,-0.00019032,-
 0.00054185,0.00003927,0.00019070,-0.00028203,0.00002554,0.00001099,0.0
 0004316,0.00000349,0.00006818,0.00003476,0.00002223,-0.00000090,-0.000
 06210,0.00008355,0.00012610,0.00013436,0.00020055,-0.00016013,0.000543
 17,-0.00007829,0.00001843,-0.00006712,0.00001196,0.09818911,-0.0000430
 0,0.00000681,0.00002434,0.00011022,-0.00005411,-0.00002254,-0.00000281
 ,0.00001321,0.00000827,-0.00004215,0.00003422,0.00009935,-0.00006290,0
 .00005915,-0.00008800,0.00000670,-0.00001383,0.00006851,0.00001328,-0.
 00000427,-0.00010766,0.00011434,0.00017379,-0.00009193,-0.00013827,0.0
 0013635,-0.00001611,-0.00030277,-0.00003195,-0.00007639,0.00115930,-0.
 00206193,-0.00159538,0.00047287,0.00044068,-0.00026428,0.00000359,-0.0
 0023279,-0.00031101,0.00005012,0.00017144,0.00008827,-0.00007200,-0.00
 010308,-0.00006592,-0.00006064,0.00002553,-0.00004137,-0.00010220,-0.0
 0017941,-0.00012744,-0.00045611,0.00019730,0.00042872,-0.00025340,-0.0
 0221799,-0.00068995,0.00033520,0.00185705,-0.00029133,0.00341215,0.001
 14772,0.00242520,-0.02507250,-0.01647251,-0.01039213,0.00099993,0.0015
 6573,-0.00140548,-0.00023307,-0.00000392,-0.00004051,-0.00013829,-0.00
 012133,-0.00004041,0.00005999,-0.00016198,-0.00008936,0.00002039,0.000
 00826,-0.00005387,0.00001920,-0.00007202,0.00012707,-0.00003909,0.0000
 8375,-0.00015347,0.00005051,-0.00005082,0.00007096,-0.00001557,0.00001
 266,-0.00000631,-0.00000558,0.00001422,-0.00000990,-0.00000872,0.00001
 588,0.00000378,-0.00000301,0.00007022,-0.00002792,-0.00000547,0.000007
 03,0.00031275,0.00026711,-0.00017965,-0.00035951,0.00003569,0.00001051
 ,-0.00013779,-0.00006633,0.00007392,-0.00006723,0.00011029,-0.00000426
 ,-0.00009666,-0.00005130,-0.00007201,0.00004360,-0.00005781,0.00011282
 ,-0.00016271,-0.00033911,0.00008978,0.00017224,0.00216637,0.00187038,0
 .00411372,-0.02682789,0.01973821,-0.01444968,0.00002246,0.00004241,0.0
 0038307,-0.00002053,-0.00012172,-0.00002211,-0.00001462,-0.00001075,-0
 .00001012,-0.00000275,0.00000707,-0.00001670,0.00000374,0.00000113,0.0
 0000768,-0.00001515,-0.00000351,-0.00000150,0.00000781,0.00000986,0.00
 000077,0.00000836,-0.00001721,-0.00001868,0.00003871,-0.00004012,-0.00
 006298,-0.00000957,0.00001322,-0.00000769,0.00000765,0.00001530,0.0000
 1823,-0.00001571,-0.00000234,0.00000559,-0.00000402,-0.00001665,-0.000
 02018,0.00003376,-0.00000609,-0.00000774,0.00005184,-0.00008158,-0.000
 08992,0.00004580,-0.00014710,-0.00008720,0.00001562,-0.00000875,0.0000
 0560,0.00000725,-0.00001366,0.00001451,0.00000693,-0.00001996,0.000004
 84,0.00001673,-0.00002569,0.00003220,0.00006487,0.00006867,-0.00009398
 ,0.00003361,0.00000392,-0.00000856,0.00000982,-0.00000731,-0.00002783,
 -0.00001288,0.00001730,-0.00001762,0.00001327,0.00000499,-0.00000773,-
 0.00000672,0.00000142,-0.00000315,0.00000079,-0.00000923,-0.00000030,-
 0.00000702,0.00000457,-0.00000120,0.00001285,0.00000014,-0.00001078,-0
 .00000321,-0.00000923,0.00000532,-0.00000882,-0.00001633,-0.00001110,0
 .00000461,0.00000252,-0.00000751,-0.00000162,0.00000881,0.00001174,-0.
 00005079,0.00002497,-0.00001647,-0.00007703,-0.00011417,-0.00007042,0.
 00005768,0.00011841,-0.00007088,0.00001400,0.00000668,0.00000123,0.000
 00830,0.00000780,0.00001035,0.00000653,0.00001916,0.00000902,0.0000118
 7,0.00001613,0.00001731,-0.00008016,0.00013043,-0.00013052,-0.00005246
 ,-0.00003250,-0.00002095,0.04487094,-0.00571979,0.02361186\\0.00000019
 ,-0.00000109,0.00000010,0.00000051,-0.00000064,-0.00000059,0.00000032,
 0.00000020,-0.00000041,-0.00000002,0.00000018,0.00000031,-0.00000084,-
 0.00000032,0.00000107,0.00000073,0.00000109,-0.00000080,-0.00000044,-0
 .00000038,0.00000029,-0.00000058,-0.00000038,-0.00000037,0.00000018,0.
 00000052,-0.00000002,0.00000032,-0.00000100,0.00000077,-0.00000079,0.0
 0000069,0.00000041,-0.00000013,-0.00000065,0.00000017,0.00000031,0.000
 00002,-0.00000006,-0.00000022,-0.00000031,0.00000017,0.00000037,-0.000
 00003,0.00000007,-0.00000030,0.00000016,0.00000062,-0.00000070,-0.0000
 0081,-0.00000037,0.00000057,0.00000098,0.00000081,-0.00000014,-0.00000
 126,-0.00000097,0.00000024,0.00000025,0.00000068,-0.00000162,-0.000000
 58,-0.00000006,0.00000073,-0.00000094,0.00000049,0.00000154,0.00000108
 ,-0.00000033,-0.00000116,-0.00000011,0.00000074,0.00000044,-0.00000011
 ,-0.00000026,-0.00000027,0.00000049,-0.00000043,0.00000039,-0.00000021
 ,0.00000099,0.00000080,0.00000109,-0.00000052,-0.00000032,-0.00000440,
 -0.00000070,0.00000079,0.00000314,0.00000104,0.00000104,0.,-0.00000063
 ,-0.00000111,0.00000072,-0.00000065,-0.00000058,0.00000013,0.00000003,
 0.00000031,-0.00000029,-0.00000071,0.00000062,0.00000060,-0.00000020,0
 .00000014,-0.00000087,0.00000046,-0.00000031,0.00000050,-0.00000017,0.
 00000014,-0.00000033,0.00000040,-0.00000067,0.00000040,0.00000028,0.00
 000031,0.00000025,-0.00000027,0.00000038,-0.00000063,0.00000064,-0.000
 00066,0.00000077,0.00000020,0.00000109,0.00000109,0.00000093,-0.000000
 33,-0.00000198,-0.00000142,-0.00000096,-0.00000002,-0.00000066,0.00000
 066,-0.00000006,0.,0.00000012,-0.00000014,0.00000003,0.00000012,-0.000
 00019,0.00000035,-0.00000007,-0.00000045,-0.00000041,0.00000014,-0.000
 00015,0.,0.00000002,-0.00000013,-0.00000021,0.00000023,-0.00000008,-0.
 00000008,0.00000015,-0.00000039,0.00000007,0.00000009,0.00000009,-0.00
 000005,-0.00000007,-0.00000023,-0.00000010,0.00000006,-0.00000024,0.00
 000034,-0.00000014,0.00000039,0.00000014,0.00000014,-0.00000004,0.0000
 0020,-0.00000005,-0.00000010,0.00000011,-0.00000004,-0.00000011,0.0000
 0018,-0.00000005,-0.00000014,0.00000020,-0.00000004,-0.00000013,0.0000
 0031,0.,-0.00000010,0.00000016,0.00000006,0.00000005,0.,0.00000007,0.0
 0000046,-0.00000016,-0.00000022,0.00000010,-0.00000019,0.00000006,-0.0
 0000005,-0.00000046,-0.00000037,0.00000002,-0.00000026,0.00000051,0.00
 000007,0.00000027,0.00000015,0.00000021,-0.00000031,0.00000002,-0.0000
 0005,-0.00000019,-0.00000002,0.00000038,-0.00000026,-0.00000022,0.0000
 0057,-0.00000078,-0.00000009,0.00000013,-0.00000032,0.00000015,-0.0000
 0006,-0.00000030,-0.00000004,0.00000013,-0.00000074,-0.00000020,-0.000
 00015,-0.00000005,-0.00000016,0.00000009,0.00000001,0.00000037,-0.0000
 0016,-0.00000014,-0.00000002,0.00000007,-0.00000019,-0.00000016,0.0000
 0026,0.00000010,-0.00000013,0.00000017,0.00000021,-0.00000023,0.000000
 07,0.00000031,-0.00000026,0.00000005,0.00000034,-0.00000058,-0.0000000
 6,0.00000040,-0.00000014,-0.00000001,0.00000014,-0.00000009,0.00000289
 ,0.00000026\\\@
 The archive entry for this job was punched.


 Where a calculator on the ENIAC is equipped with 18,000
 vacuum tubes and weighs 30 tons, computers inthe future
 may  have only 1,000 vacuum tubes and weigh only 1 1/2 tons.
              ---Popular Mechanics, March 1949
 Job cpu time:       1 days  7 hours 58 minutes 22.6 seconds.
 Elapsed time:       0 days  1 hours  0 minutes 15.5 seconds.
 File lengths (MBytes):  RWF=  10653 Int=      0 D2E=      0 Chk=     67 Scr=      1
 Normal termination of Gaussian 16 at Sat Feb  8 09:30:28 2025.
