 Entering Gaussian System, Link 0=g16
 Initial command:
 /public/software/apps/Gaussian/g16/l1.exe "/tmp/Gau-26017.inp" -scrdir="/tmp/"
 Entering Link 1 = /public/software/apps/Gaussian/g16/l1.exe PID=     26018.
  
 Copyright (c) 1988-2019, Gaussian, Inc.  All Rights Reserved.
  
 This is part of the Gaussian(R) 16 program.  It is based on
 the Gaussian(R) 09 system (copyright 2009, Gaussian, Inc.),
 the Gaussian(R) 03 system (copyright 2003, Gaussian, Inc.),
 the Gaussian(R) 98 system (copyright 1998, Gaussian, Inc.),
 the Gaussian(R) 94 system (copyright 1995, Gaussian, Inc.),
 the Gaussian 92(TM) system (copyright 1992, Gaussian, Inc.),
 the Gaussian 90(TM) system (copyright 1990, Gaussian, Inc.),
 the Gaussian 88(TM) system (copyright 1988, Gaussian, Inc.),
 the Gaussian 86(TM) system (copyright 1986, Carnegie Mellon
 University), and the Gaussian 82(TM) system (copyright 1983,
 Carnegie Mellon University). Gaussian is a federally registered
 trademark of Gaussian, Inc.
  
 This software contains proprietary and confidential information,
 including trade secrets, belonging to Gaussian, Inc.
  
 This software is provided under written license and may be
 used, copied, transmitted, or stored only in accord with that
 written license.
  
 The following legend is applicable only to US Government
 contracts under FAR:
  
                    RESTRICTED RIGHTS LEGEND
  
 Use, reproduction and disclosure by the US Government is
 subject to restrictions as set forth in subparagraphs (a)
 and (c) of the Commercial Computer Software - Restricted
 Rights clause in FAR 52.227-19.
  
 Gaussian, Inc.
 340 Quinnipiac St., Bldg. 40, Wallingford CT 06492
  
  
 ---------------------------------------------------------------
 Warning -- This program may not be used in any manner that
 competes with the business of Gaussian, Inc. or will provide
 assistance to any competitor of Gaussian, Inc.  The licensee
 of this program is prohibited from giving any competitor of
 Gaussian, Inc. access to this program.  By using this program,
 the user acknowledges that Gaussian, Inc. is engaged in the
 business of creating and licensing software in the field of
 computational chemistry and represents and warrants to the
 licensee that it is not a competitor of Gaussian, Inc. and that
 it will not use this program in any manner prohibited above.
 ---------------------------------------------------------------
  

 Cite this work as:
 Gaussian 16, Revision C.01,
 M. J. Frisch, G. W. Trucks, H. B. Schlegel, G. E. Scuseria, 
 M. A. Robb, J. R. Cheeseman, G. Scalmani, V. Barone, 
 G. A. Petersson, H. Nakatsuji, X. Li, M. Caricato, A. V. Marenich, 
 J. Bloino, B. G. Janesko, R. Gomperts, B. Mennucci, H. P. Hratchian, 
 J. V. Ortiz, A. F. Izmaylov, J. L. Sonnenberg, D. Williams-Young, 
 F. Ding, F. Lipparini, F. Egidi, J. Goings, B. Peng, A. Petrone, 
 T. Henderson, D. Ranasinghe, V. G. Zakrzewski, J. Gao, N. Rega, 
 G. Zheng, W. Liang, M. Hada, M. Ehara, K. Toyota, R. Fukuda, 
 J. Hasegawa, M. Ishida, T. Nakajima, Y. Honda, O. Kitao, H. Nakai, 
 T. Vreven, K. Throssell, J. A. Montgomery, Jr., J. E. Peralta, 
 F. Ogliaro, M. J. Bearpark, J. J. Heyd, E. N. Brothers, K. N. Kudin, 
 V. N. Staroverov, T. A. Keith, R. Kobayashi, J. Normand, 
 K. Raghavachari, A. P. Rendell, J. C. Burant, S. S. Iyengar, 
 J. Tomasi, M. Cossi, J. M. Millam, M. Klene, C. Adamo, R. Cammi, 
 J. W. Ochterski, R. L. Martin, K. Morokuma, O. Farkas, 
 J. B. Foresman, and D. J. Fox, Gaussian, Inc., Wallingford CT, 2019.
 
 ******************************************
 Gaussian 16:  ES64L-G16RevC.01  3-Jul-2019
                 8-Feb-2025 
 ******************************************
 %nprocshared=32
 Will use up to   32 processors via shared memory.
 %mem=100GB
 ------------------------------------------
 #p opt freq b3lyp/def2svpp em=gd3bj nosymm
 ------------------------------------------
 1/18=20,19=15,26=3,38=1/1,3;
 2/9=110,12=2,15=1,17=6,18=5,40=1/2;
 3/5=43,7=202,11=2,25=1,30=1,71=1,74=-5,124=41/1,2,3;
 4//1;
 5/5=2,38=5/2;
 6/7=2,8=2,9=2,10=2,28=1/1;
 7/30=1/1,2,3,16;
 1/18=20,19=15,26=3/3(2);
 2/9=110,15=1/2;
 99//99;
 2/9=110,15=1/2;
 3/5=43,7=202,11=2,25=1,30=1,71=1,74=-5,124=41/1,2,3;
 4/5=5,16=3,69=1/1;
 5/5=2,38=5/2;
 7/30=1/1,2,3,16;
 1/18=20,19=15,26=3/3(-5);
 2/9=110,15=1/2;
 6/7=2,8=2,9=2,10=2,19=2,28=1/1;
 99/9=1/99;
 Leave Link    1 at Sat Feb  8 08:24:09 2025, MaxMem= 13421772800 cpu:               1.8 elap:               0.1
 (Enter /public/software/apps/Gaussian/g16/l101.exe)
 ------------------
 $$$$Title####0????
 ------------------
 Symbolic Z-matrix:
 Charge =  0 Multiplicity = 2
 C                     13.23413   4.34656   2.48196 
 C                     12.07522   3.89632   3.36735 
 C                     10.94767   3.27616   2.53398 
 C                     9.78585   2.8308    3.42889 
 C                     8.68365   2.22117   2.6045 
 C                     8.6919    0.84824   2.31817 
 C                     7.6837    0.28473   1.53128 
 C                     6.65156   1.08599   1.00944 
 C                     5.57519   0.48485   0.17985 
 C                     5.08759   1.15245  -0.95802 
 C                     4.07968   0.5806   -1.74005 
 C                     3.53436  -0.66753  -1.39846 
 C                     2.48867  -1.28939  -2.24803 
 C                     2.68044  -1.36378  -3.63497 
 C                     1.72329  -1.96647  -4.46028 
 C                     1.92908  -2.02329  -5.8484 
 C                     0.97745  -2.61823  -6.67769 
 C                    -0.18759  -3.15708  -6.13261 
 C                    -0.40609  -3.11048  -4.75384 
 C                     0.54873  -2.52371  -3.89506 
 C                     0.36036  -2.46886  -2.49126 
 C                    -0.82977  -3.07877  -1.8389 
 C                    -1.81655  -2.23034  -1.30376 
 O                    -1.62114  -0.85113  -1.33614 
 C                    -2.98013  -2.7641   -0.71739 
 C                    -4.04862  -1.88026  -0.19036 
 C                    -4.57189  -0.84267  -0.97855 
 C                    -5.59838  -0.02947  -0.48972 
 C                    -6.1257   -0.23937   0.79721 
 C                    -7.22633   0.61485   1.31364 
 C                    -8.27986   1.01065   0.47004 
 C                    -9.31712   1.81071   0.95672 
 C                    -9.3223    2.22813   2.29655 
 C                    -10.42854   3.10699   2.81958 
 C                    -9.97734   4.56099   3.0384 
 C                    -9.63198   5.30389   1.73219 
 C                    -8.13888   5.25942   1.40698 
 C                    -8.27412   1.83531   3.14178 
 C                    -7.23602   1.03612   2.6559 
 C                    -5.59991  -1.27931   1.58405 
 C                    -4.57405  -2.09188   1.09434 
 C                    -3.13162  -4.15551  -0.63124 
 C                    -2.1427   -5.01612  -1.12286 
 C                    -2.30583  -6.40712  -1.01479 
 C                    -1.31927  -7.27092  -1.49208 
 C                    -0.16215  -6.7568   -2.07626 
 C                     0.0142   -5.37646  -2.19376 
 C                    -0.97629  -4.48427  -1.72872 
 C                     1.31477  -1.82347  -1.68375 
 O                     1.07818  -1.69724  -0.31648 
 C                     4.02316  -1.33729  -0.26532 
 C                     5.02998  -0.76623   0.51702 
 C                     6.65644   2.465     1.28677 
 C                     7.66631   3.02776   2.07272 
 H                     12.88945   5.11324   1.75534 
 H                     13.65766   3.4802    1.92971 
 H                     14.03309   4.78967   3.114 
 H                     12.45206   3.15077   4.10154 
 H                     11.68694   4.77639   3.92566 
 H                     10.57827   4.0246    1.79807 
 H                     11.34143   2.39665   1.97712 
 H                     10.14969   2.08992   4.17509 
 H                     9.39148   3.70338   3.99513 
 H                     9.48229   0.21388   2.70059 
 H                     7.7215   -0.77597   1.31737 
 H                     5.49874   2.10865  -1.25568 
 H                     3.7232    1.11471  -2.61219 
 H                     3.58756  -0.96105  -4.07184 
 H                     2.82434  -1.60422  -6.29232 
 H                     1.14226  -2.65797  -7.74658 
 H                    -0.92514  -3.61303  -6.78084 
 H                    -1.32547  -3.53216  -4.37028 
 H                    -4.19757  -0.67184  -1.98023 
 H                    -5.97269   0.77032  -1.11625 
 H                    -8.31125   0.68747  -0.56276 
 H                    -10.11542   2.10486   0.287 
 H                    -11.3044   3.08832   2.13474 
 H                    -10.78025   2.69536   3.79064 
 H                    -9.12906   4.5981    3.75706 
 H                    -10.82304   5.09675   3.52221 
 H                    -10.21314   4.89488   0.87701 
 H                    -9.92082   6.37204   1.84378 
 H                    -7.94597   5.84202   0.4818 
 H                    -7.55001   5.70892   2.23457 
 H                    -7.79513   4.21941   1.24062 
 H                    -8.25902   2.15242   4.17725 
 H                    -6.43132   0.76248   3.32668 
 H                    -5.99547  -1.47891   2.57191 
 H                    -4.18582  -2.88433   1.72198 
 H                    -4.02855  -4.56984  -0.18325 
 H                    -3.19539  -6.82584  -0.55892 
 H                    -1.44969  -8.34204  -1.40536 
 H                     0.60369  -7.43014  -2.43843 
 H                     0.93024  -5.01846  -2.64521 
 H                     3.63768  -2.31218   0.0057 
 H                     5.37635  -1.30135   1.39188 
 H                     5.87139   3.10695   0.90761 
 H                     7.65142   4.09227   2.27228 
 Cu                   -0.32415  -0.37619   0.05835 
 
 ITRead=  0  0  0  0  0  0  0  0  0  0  0  0  0  0  0  0  0  0  0  0
 ITRead=  0  0  0  0  0  0  0  0  0  0  0  0  0  0  0  0  0  0  0  0
 ITRead=  0  0  0  0  0  0  0  0  0  0  0  0  0  0  0  0  0  0  0  0
 ITRead=  0  0  0  0  0  0  0  0  0  0  0  0  0  0  0  0  0  0  0  0
 ITRead=  0  0  0  0  0  0  0  0  0  0  0  0  0  0  0  0  0  0  0
 MicOpt= -1 -1 -1 -1 -1 -1 -1 -1 -1 -1 -1 -1 -1 -1 -1 -1 -1 -1 -1 -1
 MicOpt= -1 -1 -1 -1 -1 -1 -1 -1 -1 -1 -1 -1 -1 -1 -1 -1 -1 -1 -1 -1
 MicOpt= -1 -1 -1 -1 -1 -1 -1 -1 -1 -1 -1 -1 -1 -1 -1 -1 -1 -1 -1 -1
 MicOpt= -1 -1 -1 -1 -1 -1 -1 -1 -1 -1 -1 -1 -1 -1 -1 -1 -1 -1 -1 -1
 MicOpt= -1 -1 -1 -1 -1 -1 -1 -1 -1 -1 -1 -1 -1 -1 -1 -1 -1 -1 -1
 NAtoms=     99 NQM=       99 NQMF=       0 NMMI=      0 NMMIF=      0
                NMic=       0 NMicF=      0.
                    Isotopes and Nuclear Properties:
 (Nuclear quadrupole moments (NQMom) in fm**2, nuclear magnetic moments (NMagM)
  in nuclear magnetons)

  Atom         1           2           3           4           5           6           7           8           9          10
 IAtWgt=          12          12          12          12          12          12          12          12          12          12
 AtmWgt=  12.0000000  12.0000000  12.0000000  12.0000000  12.0000000  12.0000000  12.0000000  12.0000000  12.0000000  12.0000000
 NucSpn=           0           0           0           0           0           0           0           0           0           0
 AtZEff=  -0.0000000  -0.0000000  -0.0000000  -0.0000000  -0.0000000  -0.0000000  -0.0000000  -0.0000000  -0.0000000  -0.0000000
 NQMom=    0.0000000   0.0000000   0.0000000   0.0000000   0.0000000   0.0000000   0.0000000   0.0000000   0.0000000   0.0000000
 NMagM=    0.0000000   0.0000000   0.0000000   0.0000000   0.0000000   0.0000000   0.0000000   0.0000000   0.0000000   0.0000000
 AtZNuc=   6.0000000   6.0000000   6.0000000   6.0000000   6.0000000   6.0000000   6.0000000   6.0000000   6.0000000   6.0000000

  Atom        11          12          13          14          15          16          17          18          19          20
 IAtWgt=          12          12          12          12          12          12          12          12          12          12
 AtmWgt=  12.0000000  12.0000000  12.0000000  12.0000000  12.0000000  12.0000000  12.0000000  12.0000000  12.0000000  12.0000000
 NucSpn=           0           0           0           0           0           0           0           0           0           0
 AtZEff=  -0.0000000  -0.0000000  -0.0000000  -0.0000000  -0.0000000  -0.0000000  -0.0000000  -0.0000000  -0.0000000  -0.0000000
 NQMom=    0.0000000   0.0000000   0.0000000   0.0000000   0.0000000   0.0000000   0.0000000   0.0000000   0.0000000   0.0000000
 NMagM=    0.0000000   0.0000000   0.0000000   0.0000000   0.0000000   0.0000000   0.0000000   0.0000000   0.0000000   0.0000000
 AtZNuc=   6.0000000   6.0000000   6.0000000   6.0000000   6.0000000   6.0000000   6.0000000   6.0000000   6.0000000   6.0000000

  Atom        21          22          23          24          25          26          27          28          29          30
 IAtWgt=          12          12          12          16          12          12          12          12          12          12
 AtmWgt=  12.0000000  12.0000000  12.0000000  15.9949146  12.0000000  12.0000000  12.0000000  12.0000000  12.0000000  12.0000000
 NucSpn=           0           0           0           0           0           0           0           0           0           0
 AtZEff=  -0.0000000  -0.0000000  -0.0000000  -0.0000000  -0.0000000  -0.0000000  -0.0000000  -0.0000000  -0.0000000  -0.0000000
 NQMom=    0.0000000   0.0000000   0.0000000   0.0000000   0.0000000   0.0000000   0.0000000   0.0000000   0.0000000   0.0000000
 NMagM=    0.0000000   0.0000000   0.0000000   0.0000000   0.0000000   0.0000000   0.0000000   0.0000000   0.0000000   0.0000000
 AtZNuc=   6.0000000   6.0000000   6.0000000   8.0000000   6.0000000   6.0000000   6.0000000   6.0000000   6.0000000   6.0000000

  Atom        31          32          33          34          35          36          37          38          39          40
 IAtWgt=          12          12          12          12          12          12          12          12          12          12
 AtmWgt=  12.0000000  12.0000000  12.0000000  12.0000000  12.0000000  12.0000000  12.0000000  12.0000000  12.0000000  12.0000000
 NucSpn=           0           0           0           0           0           0           0           0           0           0
 AtZEff=  -0.0000000  -0.0000000  -0.0000000  -0.0000000  -0.0000000  -0.0000000  -0.0000000  -0.0000000  -0.0000000  -0.0000000
 NQMom=    0.0000000   0.0000000   0.0000000   0.0000000   0.0000000   0.0000000   0.0000000   0.0000000   0.0000000   0.0000000
 NMagM=    0.0000000   0.0000000   0.0000000   0.0000000   0.0000000   0.0000000   0.0000000   0.0000000   0.0000000   0.0000000
 AtZNuc=   6.0000000   6.0000000   6.0000000   6.0000000   6.0000000   6.0000000   6.0000000   6.0000000   6.0000000   6.0000000

  Atom        41          42          43          44          45          46          47          48          49          50
 IAtWgt=          12          12          12          12          12          12          12          12          12          16
 AtmWgt=  12.0000000  12.0000000  12.0000000  12.0000000  12.0000000  12.0000000  12.0000000  12.0000000  12.0000000  15.9949146
 NucSpn=           0           0           0           0           0           0           0           0           0           0
 AtZEff=  -0.0000000  -0.0000000  -0.0000000  -0.0000000  -0.0000000  -0.0000000  -0.0000000  -0.0000000  -0.0000000  -0.0000000
 NQMom=    0.0000000   0.0000000   0.0000000   0.0000000   0.0000000   0.0000000   0.0000000   0.0000000   0.0000000   0.0000000
 NMagM=    0.0000000   0.0000000   0.0000000   0.0000000   0.0000000   0.0000000   0.0000000   0.0000000   0.0000000   0.0000000
 AtZNuc=   6.0000000   6.0000000   6.0000000   6.0000000   6.0000000   6.0000000   6.0000000   6.0000000   6.0000000   8.0000000

  Atom        51          52          53          54          55          56          57          58          59          60
 IAtWgt=          12          12          12          12           1           1           1           1           1           1
 AtmWgt=  12.0000000  12.0000000  12.0000000  12.0000000   1.0078250   1.0078250   1.0078250   1.0078250   1.0078250   1.0078250
 NucSpn=           0           0           0           0           1           1           1           1           1           1
 AtZEff=  -0.0000000  -0.0000000  -0.0000000  -0.0000000  -0.0000000  -0.0000000  -0.0000000  -0.0000000  -0.0000000  -0.0000000
 NQMom=    0.0000000   0.0000000   0.0000000   0.0000000   0.0000000   0.0000000   0.0000000   0.0000000   0.0000000   0.0000000
 NMagM=    0.0000000   0.0000000   0.0000000   0.0000000   2.7928460   2.7928460   2.7928460   2.7928460   2.7928460   2.7928460
 AtZNuc=   6.0000000   6.0000000   6.0000000   6.0000000   1.0000000   1.0000000   1.0000000   1.0000000   1.0000000   1.0000000

  Atom        61          62          63          64          65          66          67          68          69          70
 IAtWgt=           1           1           1           1           1           1           1           1           1           1
 AtmWgt=   1.0078250   1.0078250   1.0078250   1.0078250   1.0078250   1.0078250   1.0078250   1.0078250   1.0078250   1.0078250
 NucSpn=           1           1           1           1           1           1           1           1           1           1
 AtZEff=  -0.0000000  -0.0000000  -0.0000000  -0.0000000  -0.0000000  -0.0000000  -0.0000000  -0.0000000  -0.0000000  -0.0000000
 NQMom=    0.0000000   0.0000000   0.0000000   0.0000000   0.0000000   0.0000000   0.0000000   0.0000000   0.0000000   0.0000000
 NMagM=    2.7928460   2.7928460   2.7928460   2.7928460   2.7928460   2.7928460   2.7928460   2.7928460   2.7928460   2.7928460
 AtZNuc=   1.0000000   1.0000000   1.0000000   1.0000000   1.0000000   1.0000000   1.0000000   1.0000000   1.0000000   1.0000000

  Atom        71          72          73          74          75          76          77          78          79          80
 IAtWgt=           1           1           1           1           1           1           1           1           1           1
 AtmWgt=   1.0078250   1.0078250   1.0078250   1.0078250   1.0078250   1.0078250   1.0078250   1.0078250   1.0078250   1.0078250
 NucSpn=           1           1           1           1           1           1           1           1           1           1
 AtZEff=  -0.0000000  -0.0000000  -0.0000000  -0.0000000  -0.0000000  -0.0000000  -0.0000000  -0.0000000  -0.0000000  -0.0000000
 NQMom=    0.0000000   0.0000000   0.0000000   0.0000000   0.0000000   0.0000000   0.0000000   0.0000000   0.0000000   0.0000000
 NMagM=    2.7928460   2.7928460   2.7928460   2.7928460   2.7928460   2.7928460   2.7928460   2.7928460   2.7928460   2.7928460
 AtZNuc=   1.0000000   1.0000000   1.0000000   1.0000000   1.0000000   1.0000000   1.0000000   1.0000000   1.0000000   1.0000000

  Atom        81          82          83          84          85          86          87          88          89          90
 IAtWgt=           1           1           1           1           1           1           1           1           1           1
 AtmWgt=   1.0078250   1.0078250   1.0078250   1.0078250   1.0078250   1.0078250   1.0078250   1.0078250   1.0078250   1.0078250
 NucSpn=           1           1           1           1           1           1           1           1           1           1
 AtZEff=  -0.0000000  -0.0000000  -0.0000000  -0.0000000  -0.0000000  -0.0000000  -0.0000000  -0.0000000  -0.0000000  -0.0000000
 NQMom=    0.0000000   0.0000000   0.0000000   0.0000000   0.0000000   0.0000000   0.0000000   0.0000000   0.0000000   0.0000000
 NMagM=    2.7928460   2.7928460   2.7928460   2.7928460   2.7928460   2.7928460   2.7928460   2.7928460   2.7928460   2.7928460
 AtZNuc=   1.0000000   1.0000000   1.0000000   1.0000000   1.0000000   1.0000000   1.0000000   1.0000000   1.0000000   1.0000000

  Atom        91          92          93          94          95          96          97          98          99
 IAtWgt=           1           1           1           1           1           1           1           1          63
 AtmWgt=   1.0078250   1.0078250   1.0078250   1.0078250   1.0078250   1.0078250   1.0078250   1.0078250  62.9295992
 NucSpn=           1           1           1           1           1           1           1           1           3
 AtZEff=  -0.0000000  -0.0000000  -0.0000000  -0.0000000  -0.0000000  -0.0000000  -0.0000000  -0.0000000  -0.0000000
 NQMom=    0.0000000   0.0000000   0.0000000   0.0000000   0.0000000   0.0000000   0.0000000   0.0000000 -22.0000000
 NMagM=    2.7928460   2.7928460   2.7928460   2.7928460   2.7928460   2.7928460   2.7928460   2.7928460   2.2233000
 AtZNuc=   1.0000000   1.0000000   1.0000000   1.0000000   1.0000000   1.0000000   1.0000000   1.0000000  29.0000000
 Leave Link  101 at Sat Feb  8 08:24:10 2025, MaxMem= 13421772800 cpu:               5.3 elap:               0.2
 (Enter /public/software/apps/Gaussian/g16/l103.exe)

 GradGradGradGradGradGradGradGradGradGradGradGradGradGradGradGradGradGrad
 Berny optimization.
 Initialization pass.
                           ----------------------------
                           !    Initial Parameters    !
                           ! (Angstroms and Degrees)  !
 --------------------------                            --------------------------
 ! Name  Definition              Value          Derivative Info.                !
 --------------------------------------------------------------------------------
 ! R1    R(1,2)                  1.5263         estimate D2E/DX2                !
 ! R2    R(1,55)                 1.1111         estimate D2E/DX2                !
 ! R3    R(1,56)                 1.1113         estimate D2E/DX2                !
 ! R4    R(1,57)                 1.1109         estimate D2E/DX2                !
 ! R5    R(2,3)                  1.5331         estimate D2E/DX2                !
 ! R6    R(2,58)                 1.1122         estimate D2E/DX2                !
 ! R7    R(2,59)                 1.1122         estimate D2E/DX2                !
 ! R8    R(3,4)                  1.5327         estimate D2E/DX2                !
 ! R9    R(3,60)                 1.1127         estimate D2E/DX2                !
 ! R10   R(3,61)                 1.113          estimate D2E/DX2                !
 ! R11   R(4,5)                  1.5054         estimate D2E/DX2                !
 ! R12   R(4,62)                 1.1127         estimate D2E/DX2                !
 ! R13   R(4,63)                 1.1125         estimate D2E/DX2                !
 ! R14   R(5,6)                  1.4025         estimate D2E/DX2                !
 ! R15   R(5,54)                 1.403          estimate D2E/DX2                !
 ! R16   R(6,7)                  1.3976         estimate D2E/DX2                !
 ! R17   R(6,64)                 1.0832         estimate D2E/DX2                !
 ! R18   R(7,8)                  1.407          estimate D2E/DX2                !
 ! R19   R(7,65)                 1.0827         estimate D2E/DX2                !
 ! R20   R(8,9)                  1.486          estimate D2E/DX2                !
 ! R21   R(8,53)                 1.4066         estimate D2E/DX2                !
 ! R22   R(9,10)                 1.4065         estimate D2E/DX2                !
 ! R23   R(9,52)                 1.4058         estimate D2E/DX2                !
 ! R24   R(10,11)                1.398          estimate D2E/DX2                !
 ! R25   R(10,66)                1.0826         estimate D2E/DX2                !
 ! R26   R(11,12)                1.4042         estimate D2E/DX2                !
 ! R27   R(11,67)                1.083          estimate D2E/DX2                !
 ! R28   R(12,13)                1.4839         estimate D2E/DX2                !
 ! R29   R(12,51)                1.4041         estimate D2E/DX2                !
 ! R30   R(13,14)                1.4021         estimate D2E/DX2                !
 ! R31   R(13,49)                1.4077         estimate D2E/DX2                !
 ! R32   R(14,15)                1.4002         estimate D2E/DX2                !
 ! R33   R(14,68)                1.0844         estimate D2E/DX2                !
 ! R34   R(15,16)                1.4044         estimate D2E/DX2                !
 ! R35   R(15,20)                1.4176         estimate D2E/DX2                !
 ! R36   R(16,17)                1.3954         estimate D2E/DX2                !
 ! R37   R(16,69)                1.0836         estimate D2E/DX2                !
 ! R38   R(17,18)                1.3946         estimate D2E/DX2                !
 ! R39   R(17,70)                1.0822         estimate D2E/DX2                !
 ! R40   R(18,19)                1.3968         estimate D2E/DX2                !
 ! R41   R(18,71)                1.0826         estimate D2E/DX2                !
 ! R42   R(19,20)                1.4119         estimate D2E/DX2                !
 ! R43   R(19,72)                1.0818         estimate D2E/DX2                !
 ! R44   R(20,21)                1.4174         estimate D2E/DX2                !
 ! R45   R(21,22)                1.4879         estimate D2E/DX2                !
 ! R46   R(21,49)                1.4069         estimate D2E/DX2                !
 ! R47   R(22,23)                1.4071         estimate D2E/DX2                !
 ! R48   R(22,48)                1.4174         estimate D2E/DX2                !
 ! R49   R(23,24)                1.3934         estimate D2E/DX2                !
 ! R50   R(23,25)                1.4081         estimate D2E/DX2                !
 ! R51   R(24,99)                1.9627         estimate D2E/DX2                !
 ! R52   R(25,26)                1.4834         estimate D2E/DX2                !
 ! R53   R(25,42)                1.4023         estimate D2E/DX2                !
 ! R54   R(26,27)                1.4042         estimate D2E/DX2                !
 ! R55   R(26,41)                1.404          estimate D2E/DX2                !
 ! R56   R(27,28)                1.3978         estimate D2E/DX2                !
 ! R57   R(27,73)                1.0829         estimate D2E/DX2                !
 ! R58   R(28,29)                1.4065         estimate D2E/DX2                !
 ! R59   R(28,74)                1.0827         estimate D2E/DX2                !
 ! R60   R(29,30)                1.4859         estimate D2E/DX2                !
 ! R61   R(29,40)                1.4061         estimate D2E/DX2                !
 ! R62   R(30,31)                1.4065         estimate D2E/DX2                !
 ! R63   R(30,39)                1.4068         estimate D2E/DX2                !
 ! R64   R(31,32)                1.3974         estimate D2E/DX2                !
 ! R65   R(31,75)                1.0826         estimate D2E/DX2                !
 ! R66   R(32,33)                1.4034         estimate D2E/DX2                !
 ! R67   R(32,76)                1.0827         estimate D2E/DX2                !
 ! R68   R(33,34)                1.5066         estimate D2E/DX2                !
 ! R69   R(33,38)                1.4026         estimate D2E/DX2                !
 ! R70   R(34,35)                1.538          estimate D2E/DX2                !
 ! R71   R(34,77)                1.112          estimate D2E/DX2                !
 ! R72   R(34,78)                1.1118         estimate D2E/DX2                !
 ! R73   R(35,36)                1.5419         estimate D2E/DX2                !
 ! R74   R(35,79)                1.1124         estimate D2E/DX2                !
 ! R75   R(35,80)                1.1119         estimate D2E/DX2                !
 ! R76   R(36,37)                1.5287         estimate D2E/DX2                !
 ! R77   R(36,81)                1.1119         estimate D2E/DX2                !
 ! R78   R(36,82)                1.1121         estimate D2E/DX2                !
 ! R79   R(37,83)                1.1102         estimate D2E/DX2                !
 ! R80   R(37,84)                1.1107         estimate D2E/DX2                !
 ! R81   R(37,85)                1.1079         estimate D2E/DX2                !
 ! R82   R(38,39)                1.3973         estimate D2E/DX2                !
 ! R83   R(38,86)                1.083          estimate D2E/DX2                !
 ! R84   R(39,87)                1.0828         estimate D2E/DX2                !
 ! R85   R(40,41)                1.3973         estimate D2E/DX2                !
 ! R86   R(40,88)                1.0827         estimate D2E/DX2                !
 ! R87   R(41,89)                1.0829         estimate D2E/DX2                !
 ! R88   R(42,43)                1.4001         estimate D2E/DX2                !
 ! R89   R(42,90)                1.0848         estimate D2E/DX2                !
 ! R90   R(43,44)                1.4047         estimate D2E/DX2                !
 ! R91   R(43,48)                1.4179         estimate D2E/DX2                !
 ! R92   R(44,45)                1.3954         estimate D2E/DX2                !
 ! R93   R(44,91)                1.0837         estimate D2E/DX2                !
 ! R94   R(45,46)                1.3945         estimate D2E/DX2                !
 ! R95   R(45,92)                1.0825         estimate D2E/DX2                !
 ! R96   R(46,47)                1.3965         estimate D2E/DX2                !
 ! R97   R(46,93)                1.0822         estimate D2E/DX2                !
 ! R98   R(47,48)                1.4119         estimate D2E/DX2                !
 ! R99   R(47,94)                1.0822         estimate D2E/DX2                !
 ! R100  R(49,50)                1.3933         estimate D2E/DX2                !
 ! R101  R(50,99)                1.9627         estimate D2E/DX2                !
 ! R102  R(51,52)                1.3971         estimate D2E/DX2                !
 ! R103  R(51,95)                1.0828         estimate D2E/DX2                !
 ! R104  R(52,96)                1.0825         estimate D2E/DX2                !
 ! R105  R(53,54)                1.3979         estimate D2E/DX2                !
 ! R106  R(53,97)                1.0827         estimate D2E/DX2                !
 ! R107  R(54,98)                1.0832         estimate D2E/DX2                !
 ! A1    A(2,1,55)             110.3248         estimate D2E/DX2                !
 ! A2    A(2,1,56)             110.3454         estimate D2E/DX2                !
 ! A3    A(2,1,57)             109.4926         estimate D2E/DX2                !
 ! A4    A(55,1,56)            109.3406         estimate D2E/DX2                !
 ! A5    A(55,1,57)            108.6589         estimate D2E/DX2                !
 ! A6    A(56,1,57)            108.6387         estimate D2E/DX2                !
 ! A7    A(1,2,3)              111.2487         estimate D2E/DX2                !
 ! A8    A(1,2,58)             108.8695         estimate D2E/DX2                !
 ! A9    A(1,2,59)             108.8353         estimate D2E/DX2                !
 ! A10   A(3,2,58)             109.6866         estimate D2E/DX2                !
 ! A11   A(3,2,59)             109.6452         estimate D2E/DX2                !
 ! A12   A(58,2,59)            108.503          estimate D2E/DX2                !
 ! A13   A(2,3,4)              110.9564         estimate D2E/DX2                !
 ! A14   A(2,3,60)             109.364          estimate D2E/DX2                !
 ! A15   A(2,3,61)             109.3556         estimate D2E/DX2                !
 ! A16   A(4,3,60)             109.2662         estimate D2E/DX2                !
 ! A17   A(4,3,61)             109.3121         estimate D2E/DX2                !
 ! A18   A(60,3,61)            108.5468         estimate D2E/DX2                !
 ! A19   A(3,4,5)              110.6671         estimate D2E/DX2                !
 ! A20   A(3,4,62)             109.7053         estimate D2E/DX2                !
 ! A21   A(3,4,63)             109.7561         estimate D2E/DX2                !
 ! A22   A(5,4,62)             109.696          estimate D2E/DX2                !
 ! A23   A(5,4,63)             109.6838         estimate D2E/DX2                !
 ! A24   A(62,4,63)            107.2678         estimate D2E/DX2                !
 ! A25   A(4,5,6)              120.2604         estimate D2E/DX2                !
 ! A26   A(4,5,54)             120.3765         estimate D2E/DX2                !
 ! A27   A(6,5,54)             119.319          estimate D2E/DX2                !
 ! A28   A(5,6,7)              120.3592         estimate D2E/DX2                !
 ! A29   A(5,6,64)             120.3642         estimate D2E/DX2                !
 ! A30   A(7,6,64)             119.276          estimate D2E/DX2                !
 ! A31   A(6,7,8)              120.5573         estimate D2E/DX2                !
 ! A32   A(6,7,65)             118.7551         estimate D2E/DX2                !
 ! A33   A(8,7,65)             120.6796         estimate D2E/DX2                !
 ! A34   A(7,8,9)              120.5336         estimate D2E/DX2                !
 ! A35   A(7,8,53)             118.8575         estimate D2E/DX2                !
 ! A36   A(9,8,53)             120.6089         estimate D2E/DX2                !
 ! A37   A(8,9,10)             120.7138         estimate D2E/DX2                !
 ! A38   A(8,9,52)             120.4677         estimate D2E/DX2                !
 ! A39   A(10,9,52)            118.818          estimate D2E/DX2                !
 ! A40   A(9,10,11)            120.5525         estimate D2E/DX2                !
 ! A41   A(9,10,66)            120.6665         estimate D2E/DX2                !
 ! A42   A(11,10,66)           118.7701         estimate D2E/DX2                !
 ! A43   A(10,11,12)           120.4955         estimate D2E/DX2                !
 ! A44   A(10,11,67)           119.0798         estimate D2E/DX2                !
 ! A45   A(12,11,67)           120.4245         estimate D2E/DX2                !
 ! A46   A(11,12,13)           120.4554         estimate D2E/DX2                !
 ! A47   A(11,12,51)           119.0188         estimate D2E/DX2                !
 ! A48   A(13,12,51)           120.4953         estimate D2E/DX2                !
 ! A49   A(12,13,14)           119.4844         estimate D2E/DX2                !
 ! A50   A(12,13,49)           121.1408         estimate D2E/DX2                !
 ! A51   A(14,13,49)           119.3687         estimate D2E/DX2                !
 ! A52   A(13,14,15)           120.8237         estimate D2E/DX2                !
 ! A53   A(13,14,68)           119.5523         estimate D2E/DX2                !
 ! A54   A(15,14,68)           119.619          estimate D2E/DX2                !
 ! A55   A(14,15,16)           119.9891         estimate D2E/DX2                !
 ! A56   A(14,15,20)           120.0381         estimate D2E/DX2                !
 ! A57   A(16,15,20)           119.9724         estimate D2E/DX2                !
 ! A58   A(15,16,17)           120.3116         estimate D2E/DX2                !
 ! A59   A(15,16,69)           120.6854         estimate D2E/DX2                !
 ! A60   A(17,16,69)           119.0025         estimate D2E/DX2                !
 ! A61   A(16,17,18)           120.1438         estimate D2E/DX2                !
 ! A62   A(16,17,70)           119.917          estimate D2E/DX2                !
 ! A63   A(18,17,70)           119.9388         estimate D2E/DX2                !
 ! A64   A(17,18,19)           120.2398         estimate D2E/DX2                !
 ! A65   A(17,18,71)           119.8574         estimate D2E/DX2                !
 ! A66   A(19,18,71)           119.9028         estimate D2E/DX2                !
 ! A67   A(18,19,20)           120.5636         estimate D2E/DX2                !
 ! A68   A(18,19,72)           118.0311         estimate D2E/DX2                !
 ! A69   A(20,19,72)           121.405          estimate D2E/DX2                !
 ! A70   A(15,20,19)           118.7615         estimate D2E/DX2                !
 ! A71   A(15,20,21)           119.3256         estimate D2E/DX2                !
 ! A72   A(19,20,21)           121.9112         estimate D2E/DX2                !
 ! A73   A(20,21,22)           121.6438         estimate D2E/DX2                !
 ! A74   A(20,21,49)           119.7373         estimate D2E/DX2                !
 ! A75   A(22,21,49)           118.6188         estimate D2E/DX2                !
 ! A76   A(21,22,23)           118.7187         estimate D2E/DX2                !
 ! A77   A(21,22,48)           121.5484         estimate D2E/DX2                !
 ! A78   A(23,22,48)           119.7253         estimate D2E/DX2                !
 ! A79   A(22,23,24)           119.3174         estimate D2E/DX2                !
 ! A80   A(22,23,25)           120.6195         estimate D2E/DX2                !
 ! A81   A(24,23,25)           120.0523         estimate D2E/DX2                !
 ! A82   A(23,24,99)           108.4021         estimate D2E/DX2                !
 ! A83   A(23,25,26)           121.1523         estimate D2E/DX2                !
 ! A84   A(23,25,42)           119.4054         estimate D2E/DX2                !
 ! A85   A(26,25,42)           119.4423         estimate D2E/DX2                !
 ! A86   A(25,26,27)           120.6146         estimate D2E/DX2                !
 ! A87   A(25,26,41)           120.3198         estimate D2E/DX2                !
 ! A88   A(27,26,41)           119.0472         estimate D2E/DX2                !
 ! A89   A(26,27,28)           120.4805         estimate D2E/DX2                !
 ! A90   A(26,27,73)           120.4629         estimate D2E/DX2                !
 ! A91   A(28,27,73)           119.0485         estimate D2E/DX2                !
 ! A92   A(27,28,29)           120.5623         estimate D2E/DX2                !
 ! A93   A(27,28,74)           118.7658         estimate D2E/DX2                !
 ! A94   A(29,28,74)           120.6693         estimate D2E/DX2                !
 ! A95   A(28,29,30)           120.6592         estimate D2E/DX2                !
 ! A96   A(28,29,40)           118.8288         estimate D2E/DX2                !
 ! A97   A(30,29,40)           120.5102         estimate D2E/DX2                !
 ! A98   A(29,30,31)           120.5411         estimate D2E/DX2                !
 ! A99   A(29,30,39)           120.5876         estimate D2E/DX2                !
 ! A100  A(31,30,39)           118.8706         estimate D2E/DX2                !
 ! A101  A(30,31,32)           120.5439         estimate D2E/DX2                !
 ! A102  A(30,31,75)           120.6571         estimate D2E/DX2                !
 ! A103  A(32,31,75)           118.7907         estimate D2E/DX2                !
 ! A104  A(31,32,33)           120.3669         estimate D2E/DX2                !
 ! A105  A(31,32,76)           119.1684         estimate D2E/DX2                !
 ! A106  A(33,32,76)           120.4647         estimate D2E/DX2                !
 ! A107  A(32,33,34)           120.5094         estimate D2E/DX2                !
 ! A108  A(32,33,38)           119.2917         estimate D2E/DX2                !
 ! A109  A(34,33,38)           120.1917         estimate D2E/DX2                !
 ! A110  A(33,34,35)           112.6726         estimate D2E/DX2                !
 ! A111  A(33,34,77)           110.779          estimate D2E/DX2                !
 ! A112  A(33,34,78)           108.6346         estimate D2E/DX2                !
 ! A113  A(35,34,77)           109.5456         estimate D2E/DX2                !
 ! A114  A(35,34,78)           108.575          estimate D2E/DX2                !
 ! A115  A(77,34,78)           106.4109         estimate D2E/DX2                !
 ! A116  A(34,35,36)           113.6201         estimate D2E/DX2                !
 ! A117  A(34,35,79)           110.3134         estimate D2E/DX2                !
 ! A118  A(34,35,80)           107.1155         estimate D2E/DX2                !
 ! A119  A(36,35,79)           111.126          estimate D2E/DX2                !
 ! A120  A(36,35,80)           107.8679         estimate D2E/DX2                !
 ! A121  A(79,35,80)           106.4286         estimate D2E/DX2                !
 ! A122  A(35,36,37)           112.6418         estimate D2E/DX2                !
 ! A123  A(35,36,81)           110.9315         estimate D2E/DX2                !
 ! A124  A(35,36,82)           108.6377         estimate D2E/DX2                !
 ! A125  A(37,36,81)           109.6437         estimate D2E/DX2                !
 ! A126  A(37,36,82)           107.6342         estimate D2E/DX2                !
 ! A127  A(81,36,82)           107.1406         estimate D2E/DX2                !
 ! A128  A(36,37,83)           109.3733         estimate D2E/DX2                !
 ! A129  A(36,37,84)           110.3364         estimate D2E/DX2                !
 ! A130  A(36,37,85)           111.2402         estimate D2E/DX2                !
 ! A131  A(83,37,84)           108.4466         estimate D2E/DX2                !
 ! A132  A(83,37,85)           108.2734         estimate D2E/DX2                !
 ! A133  A(84,37,85)           109.103          estimate D2E/DX2                !
 ! A134  A(33,38,39)           120.3867         estimate D2E/DX2                !
 ! A135  A(33,38,86)           120.3015         estimate D2E/DX2                !
 ! A136  A(39,38,86)           119.3112         estimate D2E/DX2                !
 ! A137  A(30,39,38)           120.5401         estimate D2E/DX2                !
 ! A138  A(30,39,87)           120.6821         estimate D2E/DX2                !
 ! A139  A(38,39,87)           118.7689         estimate D2E/DX2                !
 ! A140  A(29,40,41)           120.5649         estimate D2E/DX2                !
 ! A141  A(29,40,88)           120.6854         estimate D2E/DX2                !
 ! A142  A(41,40,88)           118.7377         estimate D2E/DX2                !
 ! A143  A(26,41,40)           120.5159         estimate D2E/DX2                !
 ! A144  A(26,41,89)           120.4289         estimate D2E/DX2                !
 ! A145  A(40,41,89)           119.0544         estimate D2E/DX2                !
 ! A146  A(25,42,43)           120.7995         estimate D2E/DX2                !
 ! A147  A(25,42,90)           119.5818         estimate D2E/DX2                !
 ! A148  A(43,42,90)           119.6178         estimate D2E/DX2                !
 ! A149  A(42,43,44)           119.976          estimate D2E/DX2                !
 ! A150  A(42,43,48)           120.0337         estimate D2E/DX2                !
 ! A151  A(44,43,48)           119.9904         estimate D2E/DX2                !
 ! A152  A(43,44,45)           120.3018         estimate D2E/DX2                !
 ! A153  A(43,44,91)           120.6836         estimate D2E/DX2                !
 ! A154  A(45,44,91)           119.0144         estimate D2E/DX2                !
 ! A155  A(44,45,46)           120.1143         estimate D2E/DX2                !
 ! A156  A(44,45,92)           119.9952         estimate D2E/DX2                !
 ! A157  A(46,45,92)           119.89           estimate D2E/DX2                !
 ! A158  A(45,46,47)           120.2948         estimate D2E/DX2                !
 ! A159  A(45,46,93)           119.8712         estimate D2E/DX2                !
 ! A160  A(47,46,93)           119.8339         estimate D2E/DX2                !
 ! A161  A(46,47,48)           120.5513         estimate D2E/DX2                !
 ! A162  A(46,47,94)           117.9678         estimate D2E/DX2                !
 ! A163  A(48,47,94)           121.4802         estimate D2E/DX2                !
 ! A164  A(22,48,43)           119.3536         estimate D2E/DX2                !
 ! A165  A(22,48,47)           121.9041         estimate D2E/DX2                !
 ! A166  A(43,48,47)           118.7392         estimate D2E/DX2                !
 ! A167  A(13,49,21)           120.6409         estimate D2E/DX2                !
 ! A168  A(13,49,50)           120.0381         estimate D2E/DX2                !
 ! A169  A(21,49,50)           119.3131         estimate D2E/DX2                !
 ! A170  A(49,50,99)           111.6978         estimate D2E/DX2                !
 ! A171  A(12,51,52)           120.519          estimate D2E/DX2                !
 ! A172  A(12,51,95)           120.499          estimate D2E/DX2                !
 ! A173  A(52,51,95)           118.9734         estimate D2E/DX2                !
 ! A174  A(9,52,51)            120.5944         estimate D2E/DX2                !
 ! A175  A(9,52,96)            120.6449         estimate D2E/DX2                !
 ! A176  A(51,52,96)           118.7588         estimate D2E/DX2                !
 ! A177  A(8,53,54)            120.5312         estimate D2E/DX2                !
 ! A178  A(8,53,97)            120.6457         estimate D2E/DX2                !
 ! A179  A(54,53,97)           118.8174         estimate D2E/DX2                !
 ! A180  A(5,54,53)            120.3641         estimate D2E/DX2                !
 ! A181  A(5,54,98)            120.3413         estimate D2E/DX2                !
 ! A182  A(53,54,98)           119.2934         estimate D2E/DX2                !
 ! A183  A(24,99,50)            99.9962         estimate D2E/DX2                !
 ! D1    D(55,1,2,3)            60.4985         estimate D2E/DX2                !
 ! D2    D(55,1,2,58)         -178.5122         estimate D2E/DX2                !
 ! D3    D(55,1,2,59)          -60.4168         estimate D2E/DX2                !
 ! D4    D(56,1,2,3)           -60.4335         estimate D2E/DX2                !
 ! D5    D(56,1,2,58)           60.5558         estimate D2E/DX2                !
 ! D6    D(56,1,2,59)          178.6512         estimate D2E/DX2                !
 ! D7    D(57,1,2,3)          -179.9614         estimate D2E/DX2                !
 ! D8    D(57,1,2,58)          -58.9721         estimate D2E/DX2                !
 ! D9    D(57,1,2,59)           59.1233         estimate D2E/DX2                !
 ! D10   D(1,2,3,4)           -179.8117         estimate D2E/DX2                !
 ! D11   D(1,2,3,60)           -59.2067         estimate D2E/DX2                !
 ! D12   D(1,2,3,61)            59.5316         estimate D2E/DX2                !
 ! D13   D(58,2,3,4)            59.6793         estimate D2E/DX2                !
 ! D14   D(58,2,3,60)         -179.7157         estimate D2E/DX2                !
 ! D15   D(58,2,3,61)          -60.9774         estimate D2E/DX2                !
 ! D16   D(59,2,3,4)           -59.373          estimate D2E/DX2                !
 ! D17   D(59,2,3,60)           61.2321         estimate D2E/DX2                !
 ! D18   D(59,2,3,61)          179.9703         estimate D2E/DX2                !
 ! D19   D(2,3,4,5)           -179.9147         estimate D2E/DX2                !
 ! D20   D(2,3,4,62)           -58.7354         estimate D2E/DX2                !
 ! D21   D(2,3,4,63)            58.8879         estimate D2E/DX2                !
 ! D22   D(60,3,4,5)            59.4224         estimate D2E/DX2                !
 ! D23   D(60,3,4,62)         -179.3983         estimate D2E/DX2                !
 ! D24   D(60,3,4,63)          -61.775          estimate D2E/DX2                !
 ! D25   D(61,3,4,5)           -59.2322         estimate D2E/DX2                !
 ! D26   D(61,3,4,62)           61.9471         estimate D2E/DX2                !
 ! D27   D(61,3,4,63)          179.5704         estimate D2E/DX2                !
 ! D28   D(3,4,5,6)             88.7904         estimate D2E/DX2                !
 ! D29   D(3,4,5,54)           -88.781          estimate D2E/DX2                !
 ! D30   D(62,4,5,6)           -32.3945         estimate D2E/DX2                !
 ! D31   D(62,4,5,54)          150.0342         estimate D2E/DX2                !
 ! D32   D(63,4,5,6)          -149.9695         estimate D2E/DX2                !
 ! D33   D(63,4,5,54)           32.4591         estimate D2E/DX2                !
 ! D34   D(4,5,6,7)           -178.7512         estimate D2E/DX2                !
 ! D35   D(4,5,6,64)             0.9576         estimate D2E/DX2                !
 ! D36   D(54,5,6,7)            -1.1542         estimate D2E/DX2                !
 ! D37   D(54,5,6,64)          178.5546         estimate D2E/DX2                !
 ! D38   D(4,5,54,53)          178.8233         estimate D2E/DX2                !
 ! D39   D(4,5,54,98)           -1.5832         estimate D2E/DX2                !
 ! D40   D(6,5,54,53)            1.2291         estimate D2E/DX2                !
 ! D41   D(6,5,54,98)         -179.1774         estimate D2E/DX2                !
 ! D42   D(5,6,7,8)              0.3548         estimate D2E/DX2                !
 ! D43   D(5,6,7,65)           179.3309         estimate D2E/DX2                !
 ! D44   D(64,6,7,8)          -179.3572         estimate D2E/DX2                !
 ! D45   D(64,6,7,65)           -0.3811         estimate D2E/DX2                !
 ! D46   D(6,7,8,9)           -179.6174         estimate D2E/DX2                !
 ! D47   D(6,7,8,53)             0.3757         estimate D2E/DX2                !
 ! D48   D(65,7,8,9)             1.4263         estimate D2E/DX2                !
 ! D49   D(65,7,8,53)         -178.5806         estimate D2E/DX2                !
 ! D50   D(7,8,9,10)          -139.7518         estimate D2E/DX2                !
 ! D51   D(7,8,9,52)            39.9799         estimate D2E/DX2                !
 ! D52   D(53,8,9,10)           40.2552         estimate D2E/DX2                !
 ! D53   D(53,8,9,52)         -140.0131         estimate D2E/DX2                !
 ! D54   D(7,8,53,54)           -0.3006         estimate D2E/DX2                !
 ! D55   D(7,8,53,97)         -179.4285         estimate D2E/DX2                !
 ! D56   D(9,8,53,54)          179.6925         estimate D2E/DX2                !
 ! D57   D(9,8,53,97)            0.5646         estimate D2E/DX2                !
 ! D58   D(8,9,10,11)          179.6661         estimate D2E/DX2                !
 ! D59   D(8,9,10,66)            0.8823         estimate D2E/DX2                !
 ! D60   D(52,9,10,11)          -0.07           estimate D2E/DX2                !
 ! D61   D(52,9,10,66)        -178.8538         estimate D2E/DX2                !
 ! D62   D(8,9,52,51)         -179.6399         estimate D2E/DX2                !
 ! D63   D(8,9,52,96)            0.8694         estimate D2E/DX2                !
 ! D64   D(10,9,52,51)           0.0969         estimate D2E/DX2                !
 ! D65   D(10,9,52,96)        -179.3939         estimate D2E/DX2                !
 ! D66   D(9,10,11,12)           0.2556         estimate D2E/DX2                !
 ! D67   D(9,10,11,67)        -179.8906         estimate D2E/DX2                !
 ! D68   D(66,10,11,12)        179.0622         estimate D2E/DX2                !
 ! D69   D(66,10,11,67)         -1.084          estimate D2E/DX2                !
 ! D70   D(10,11,12,13)       -178.4593         estimate D2E/DX2                !
 ! D71   D(10,11,12,51)         -0.4599         estimate D2E/DX2                !
 ! D72   D(67,11,12,13)          1.6889         estimate D2E/DX2                !
 ! D73   D(67,11,12,51)        179.6883         estimate D2E/DX2                !
 ! D74   D(11,12,13,14)         48.619          estimate D2E/DX2                !
 ! D75   D(11,12,13,49)       -132.2881         estimate D2E/DX2                !
 ! D76   D(51,12,13,14)       -129.3507         estimate D2E/DX2                !
 ! D77   D(51,12,13,49)         49.7422         estimate D2E/DX2                !
 ! D78   D(11,12,51,52)          0.4869         estimate D2E/DX2                !
 ! D79   D(11,12,51,95)       -178.4373         estimate D2E/DX2                !
 ! D80   D(13,12,51,52)        178.4854         estimate D2E/DX2                !
 ! D81   D(13,12,51,95)         -0.4387         estimate D2E/DX2                !
 ! D82   D(12,13,14,15)        178.8257         estimate D2E/DX2                !
 ! D83   D(12,13,14,68)         -0.3613         estimate D2E/DX2                !
 ! D84   D(49,13,14,15)         -0.2833         estimate D2E/DX2                !
 ! D85   D(49,13,14,68)       -179.4704         estimate D2E/DX2                !
 ! D86   D(12,13,49,21)       -176.8741         estimate D2E/DX2                !
 ! D87   D(12,13,49,50)          4.1555         estimate D2E/DX2                !
 ! D88   D(14,13,49,21)          2.2197         estimate D2E/DX2                !
 ! D89   D(14,13,49,50)       -176.7506         estimate D2E/DX2                !
 ! D90   D(13,14,15,16)        179.5671         estimate D2E/DX2                !
 ! D91   D(13,14,15,20)         -0.66           estimate D2E/DX2                !
 ! D92   D(68,14,15,16)         -1.2464         estimate D2E/DX2                !
 ! D93   D(68,14,15,20)        178.5265         estimate D2E/DX2                !
 ! D94   D(14,15,16,17)       -179.7781         estimate D2E/DX2                !
 ! D95   D(14,15,16,69)         -0.0058         estimate D2E/DX2                !
 ! D96   D(20,15,16,17)          0.4489         estimate D2E/DX2                !
 ! D97   D(20,15,16,69)       -179.7789         estimate D2E/DX2                !
 ! D98   D(14,15,20,19)        179.2452         estimate D2E/DX2                !
 ! D99   D(14,15,20,21)         -0.3064         estimate D2E/DX2                !
 ! D100  D(16,15,20,19)         -0.9819         estimate D2E/DX2                !
 ! D101  D(16,15,20,21)        179.4665         estimate D2E/DX2                !
 ! D102  D(15,16,17,18)          0.2048         estimate D2E/DX2                !
 ! D103  D(15,16,17,70)        179.9624         estimate D2E/DX2                !
 ! D104  D(69,16,17,18)       -179.5713         estimate D2E/DX2                !
 ! D105  D(69,16,17,70)          0.1863         estimate D2E/DX2                !
 ! D106  D(16,17,18,19)         -0.3094         estimate D2E/DX2                !
 ! D107  D(16,17,18,71)        179.6864         estimate D2E/DX2                !
 ! D108  D(70,17,18,19)        179.9331         estimate D2E/DX2                !
 ! D109  D(70,17,18,71)         -0.0711         estimate D2E/DX2                !
 ! D110  D(17,18,19,20)         -0.2444         estimate D2E/DX2                !
 ! D111  D(17,18,19,72)        179.5258         estimate D2E/DX2                !
 ! D112  D(71,18,19,20)        179.7599         estimate D2E/DX2                !
 ! D113  D(71,18,19,72)         -0.47           estimate D2E/DX2                !
 ! D114  D(18,19,20,15)          0.8836         estimate D2E/DX2                !
 ! D115  D(18,19,20,21)       -179.577          estimate D2E/DX2                !
 ! D116  D(72,19,20,15)       -178.8787         estimate D2E/DX2                !
 ! D117  D(72,19,20,21)          0.6608         estimate D2E/DX2                !
 ! D118  D(15,20,21,22)       -177.8479         estimate D2E/DX2                !
 ! D119  D(15,20,21,49)          2.2081         estimate D2E/DX2                !
 ! D120  D(19,20,21,22)          2.6151         estimate D2E/DX2                !
 ! D121  D(19,20,21,49)       -177.3289         estimate D2E/DX2                !
 ! D122  D(20,21,22,23)       -108.8393         estimate D2E/DX2                !
 ! D123  D(20,21,22,48)         72.1693         estimate D2E/DX2                !
 ! D124  D(49,21,22,23)         71.1053         estimate D2E/DX2                !
 ! D125  D(49,21,22,48)       -107.8861         estimate D2E/DX2                !
 ! D126  D(20,21,49,13)         -3.1867         estimate D2E/DX2                !
 ! D127  D(20,21,49,50)        175.791          estimate D2E/DX2                !
 ! D128  D(22,21,49,13)        176.8676         estimate D2E/DX2                !
 ! D129  D(22,21,49,50)         -4.1547         estimate D2E/DX2                !
 ! D130  D(21,22,23,24)         -3.3199         estimate D2E/DX2                !
 ! D131  D(21,22,23,25)        177.8761         estimate D2E/DX2                !
 ! D132  D(48,22,23,24)        175.6903         estimate D2E/DX2                !
 ! D133  D(48,22,23,25)         -3.1137         estimate D2E/DX2                !
 ! D134  D(21,22,48,43)       -178.6923         estimate D2E/DX2                !
 ! D135  D(21,22,48,47)          1.9565         estimate D2E/DX2                !
 ! D136  D(23,22,48,43)          2.3263         estimate D2E/DX2                !
 ! D137  D(23,22,48,47)       -177.0249         estimate D2E/DX2                !
 ! D138  D(22,23,24,99)        -75.877          estimate D2E/DX2                !
 ! D139  D(25,23,24,99)        102.934          estimate D2E/DX2                !
 ! D140  D(22,23,25,26)       -177.9392         estimate D2E/DX2                !
 ! D141  D(22,23,25,42)          2.011          estimate D2E/DX2                !
 ! D142  D(24,23,25,26)          3.2655         estimate D2E/DX2                !
 ! D143  D(24,23,25,42)       -176.7843         estimate D2E/DX2                !
 ! D144  D(23,24,99,50)         48.7283         estimate D2E/DX2                !
 ! D145  D(23,25,26,27)         50.4111         estimate D2E/DX2                !
 ! D146  D(23,25,26,41)       -131.1662         estimate D2E/DX2                !
 ! D147  D(42,25,26,27)       -129.5391         estimate D2E/DX2                !
 ! D148  D(42,25,26,41)         48.8836         estimate D2E/DX2                !
 ! D149  D(23,25,42,43)         -0.1283         estimate D2E/DX2                !
 ! D150  D(23,25,42,90)       -179.7813         estimate D2E/DX2                !
 ! D151  D(26,25,42,43)        179.8227         estimate D2E/DX2                !
 ! D152  D(26,25,42,90)          0.1698         estimate D2E/DX2                !
 ! D153  D(25,26,27,28)        178.6356         estimate D2E/DX2                !
 ! D154  D(25,26,27,73)         -0.315          estimate D2E/DX2                !
 ! D155  D(41,26,27,28)          0.193          estimate D2E/DX2                !
 ! D156  D(41,26,27,73)       -178.7576         estimate D2E/DX2                !
 ! D157  D(25,26,41,40)       -178.6573         estimate D2E/DX2                !
 ! D158  D(25,26,41,89)          1.6777         estimate D2E/DX2                !
 ! D159  D(27,26,41,40)         -0.21           estimate D2E/DX2                !
 ! D160  D(27,26,41,89)       -179.875          estimate D2E/DX2                !
 ! D161  D(26,27,28,29)         -0.1652         estimate D2E/DX2                !
 ! D162  D(26,27,28,74)        179.2432         estimate D2E/DX2                !
 ! D163  D(73,27,28,29)        178.8001         estimate D2E/DX2                !
 ! D164  D(73,27,28,74)         -1.7915         estimate D2E/DX2                !
 ! D165  D(27,28,29,30)       -179.3695         estimate D2E/DX2                !
 ! D166  D(27,28,29,40)          0.1488         estimate D2E/DX2                !
 ! D167  D(74,28,29,30)          1.2334         estimate D2E/DX2                !
 ! D168  D(74,28,29,40)       -179.2482         estimate D2E/DX2                !
 ! D169  D(28,29,30,31)         39.8136         estimate D2E/DX2                !
 ! D170  D(28,29,30,39)       -140.4971         estimate D2E/DX2                !
 ! D171  D(40,29,30,31)       -139.6966         estimate D2E/DX2                !
 ! D172  D(40,29,30,39)         39.9926         estimate D2E/DX2                !
 ! D173  D(28,29,40,41)         -0.1657         estimate D2E/DX2                !
 ! D174  D(28,29,40,88)       -178.8924         estimate D2E/DX2                !
 ! D175  D(30,29,40,41)        179.3533         estimate D2E/DX2                !
 ! D176  D(30,29,40,88)          0.6267         estimate D2E/DX2                !
 ! D177  D(29,30,31,32)        179.8064         estimate D2E/DX2                !
 ! D178  D(29,30,31,75)          0.8685         estimate D2E/DX2                !
 ! D179  D(39,30,31,32)          0.1119         estimate D2E/DX2                !
 ! D180  D(39,30,31,75)       -178.826          estimate D2E/DX2                !
 ! D181  D(29,30,39,38)       -179.7616         estimate D2E/DX2                !
 ! D182  D(29,30,39,87)          1.3411         estimate D2E/DX2                !
 ! D183  D(31,30,39,38)         -0.0673         estimate D2E/DX2                !
 ! D184  D(31,30,39,87)       -178.9645         estimate D2E/DX2                !
 ! D185  D(30,31,32,33)         -0.1245         estimate D2E/DX2                !
 ! D186  D(30,31,32,76)        179.8146         estimate D2E/DX2                !
 ! D187  D(75,31,32,33)        178.833          estimate D2E/DX2                !
 ! D188  D(75,31,32,76)         -1.2279         estimate D2E/DX2                !
 ! D189  D(31,32,33,34)        179.1183         estimate D2E/DX2                !
 ! D190  D(31,32,33,38)          0.0898         estimate D2E/DX2                !
 ! D191  D(76,32,33,34)         -0.8199         estimate D2E/DX2                !
 ! D192  D(76,32,33,38)       -179.8485         estimate D2E/DX2                !
 ! D193  D(32,33,34,35)       -106.0846         estimate D2E/DX2                !
 ! D194  D(32,33,34,77)         17.0297         estimate D2E/DX2                !
 ! D195  D(32,33,34,78)        133.5714         estimate D2E/DX2                !
 ! D196  D(38,33,34,35)         72.9352         estimate D2E/DX2                !
 ! D197  D(38,33,34,77)       -163.9505         estimate D2E/DX2                !
 ! D198  D(38,33,34,78)        -47.4088         estimate D2E/DX2                !
 ! D199  D(32,33,38,39)         -0.0452         estimate D2E/DX2                !
 ! D200  D(32,33,38,86)        179.6768         estimate D2E/DX2                !
 ! D201  D(34,33,38,39)       -179.0769         estimate D2E/DX2                !
 ! D202  D(34,33,38,86)          0.6452         estimate D2E/DX2                !
 ! D203  D(33,34,35,36)         66.8804         estimate D2E/DX2                !
 ! D204  D(33,34,35,79)        -58.6648         estimate D2E/DX2                !
 ! D205  D(33,34,35,80)       -174.1033         estimate D2E/DX2                !
 ! D206  D(77,34,35,36)        -56.9193         estimate D2E/DX2                !
 ! D207  D(77,34,35,79)        177.5355         estimate D2E/DX2                !
 ! D208  D(77,34,35,80)         62.097          estimate D2E/DX2                !
 ! D209  D(78,34,35,36)       -172.7413         estimate D2E/DX2                !
 ! D210  D(78,34,35,79)         61.7135         estimate D2E/DX2                !
 ! D211  D(78,34,35,80)        -53.725          estimate D2E/DX2                !
 ! D212  D(34,35,36,37)        -95.055          estimate D2E/DX2                !
 ! D213  D(34,35,36,81)         28.2792         estimate D2E/DX2                !
 ! D214  D(34,35,36,82)        145.796          estimate D2E/DX2                !
 ! D215  D(79,35,36,37)         30.0566         estimate D2E/DX2                !
 ! D216  D(79,35,36,81)        153.3908         estimate D2E/DX2                !
 ! D217  D(79,35,36,82)        -89.0925         estimate D2E/DX2                !
 ! D218  D(80,35,36,37)        146.36           estimate D2E/DX2                !
 ! D219  D(80,35,36,81)        -90.3058         estimate D2E/DX2                !
 ! D220  D(80,35,36,82)         27.2109         estimate D2E/DX2                !
 ! D221  D(35,36,37,83)       -177.7821         estimate D2E/DX2                !
 ! D222  D(35,36,37,84)        -58.5706         estimate D2E/DX2                !
 ! D223  D(35,36,37,85)         62.6623         estimate D2E/DX2                !
 ! D224  D(81,36,37,83)         58.1696         estimate D2E/DX2                !
 ! D225  D(81,36,37,84)        177.3811         estimate D2E/DX2                !
 ! D226  D(81,36,37,85)        -61.386          estimate D2E/DX2                !
 ! D227  D(82,36,37,83)        -58.0507         estimate D2E/DX2                !
 ! D228  D(82,36,37,84)         61.1608         estimate D2E/DX2                !
 ! D229  D(82,36,37,85)       -177.6063         estimate D2E/DX2                !
 ! D230  D(33,38,39,30)          0.0349         estimate D2E/DX2                !
 ! D231  D(33,38,39,87)        178.9529         estimate D2E/DX2                !
 ! D232  D(86,38,39,30)       -179.6899         estimate D2E/DX2                !
 ! D233  D(86,38,39,87)         -0.7719         estimate D2E/DX2                !
 ! D234  D(29,40,41,26)          0.1993         estimate D2E/DX2                !
 ! D235  D(29,40,41,89)        179.8689         estimate D2E/DX2                !
 ! D236  D(88,40,41,26)        178.9504         estimate D2E/DX2                !
 ! D237  D(88,40,41,89)         -1.38           estimate D2E/DX2                !
 ! D238  D(25,42,43,44)        179.3241         estimate D2E/DX2                !
 ! D239  D(25,42,43,48)         -0.6254         estimate D2E/DX2                !
 ! D240  D(90,42,43,44)         -1.023          estimate D2E/DX2                !
 ! D241  D(90,42,43,48)        179.0274         estimate D2E/DX2                !
 ! D242  D(42,43,44,45)       -179.4474         estimate D2E/DX2                !
 ! D243  D(42,43,44,91)          0.4015         estimate D2E/DX2                !
 ! D244  D(48,43,44,45)          0.5022         estimate D2E/DX2                !
 ! D245  D(48,43,44,91)       -179.6489         estimate D2E/DX2                !
 ! D246  D(42,43,48,22)         -0.4778         estimate D2E/DX2                !
 ! D247  D(42,43,48,47)        178.894          estimate D2E/DX2                !
 ! D248  D(44,43,48,22)        179.5727         estimate D2E/DX2                !
 ! D249  D(44,43,48,47)         -1.0555         estimate D2E/DX2                !
 ! D250  D(43,44,45,46)          0.1977         estimate D2E/DX2                !
 ! D251  D(43,44,45,92)        179.9397         estimate D2E/DX2                !
 ! D252  D(91,44,45,46)       -179.6537         estimate D2E/DX2                !
 ! D253  D(91,44,45,92)          0.0883         estimate D2E/DX2                !
 ! D254  D(44,45,46,47)         -0.3273         estimate D2E/DX2                !
 ! D255  D(44,45,46,93)        179.5466         estimate D2E/DX2                !
 ! D256  D(92,45,46,47)        179.9304         estimate D2E/DX2                !
 ! D257  D(92,45,46,93)         -0.1957         estimate D2E/DX2                !
 ! D258  D(45,46,47,48)         -0.2481         estimate D2E/DX2                !
 ! D259  D(45,46,47,94)        179.4657         estimate D2E/DX2                !
 ! D260  D(93,46,47,48)        179.8779         estimate D2E/DX2                !
 ! D261  D(93,46,47,94)         -0.4083         estimate D2E/DX2                !
 ! D262  D(46,47,48,22)       -179.7124         estimate D2E/DX2                !
 ! D263  D(46,47,48,43)          0.9325         estimate D2E/DX2                !
 ! D264  D(94,47,48,22)          0.584          estimate D2E/DX2                !
 ! D265  D(94,47,48,43)       -178.771          estimate D2E/DX2                !
 ! D266  D(13,49,50,99)        106.7586         estimate D2E/DX2                !
 ! D267  D(21,49,50,99)        -72.2254         estimate D2E/DX2                !
 ! D268  D(49,50,99,24)         42.8282         estimate D2E/DX2                !
 ! D269  D(12,51,52,9)          -0.3097         estimate D2E/DX2                !
 ! D270  D(12,51,52,96)        179.1905         estimate D2E/DX2                !
 ! D271  D(95,51,52,9)         178.6306         estimate D2E/DX2                !
 ! D272  D(95,51,52,96)         -1.8691         estimate D2E/DX2                !
 ! D273  D(8,53,54,5)           -0.5051         estimate D2E/DX2                !
 ! D274  D(8,53,54,98)         179.8972         estimate D2E/DX2                !
 ! D275  D(97,53,54,5)         178.6386         estimate D2E/DX2                !
 ! D276  D(97,53,54,98)         -0.9591         estimate D2E/DX2                !
 --------------------------------------------------------------------------------
 Trust Radius=3.00D-01 FncErr=1.00D-07 GrdErr=1.00D-06 EigMax=2.50D+02 EigMin=1.00D-04
 Number of steps in this run=    576 maximum allowed number of steps=    594.
 GradGradGradGradGradGradGradGradGradGradGradGradGradGradGradGradGradGrad

 Leave Link  103 at Sat Feb  8 08:24:10 2025, MaxMem= 13421772800 cpu:               0.8 elap:               0.0
 (Enter /public/software/apps/Gaussian/g16/l202.exe)
 Symmetry turned off by external request.
 Stoichiometry    C52H44CuO2(2)
 Framework group  C1[X(C52H44CuO2)]
 Deg. of freedom   291
 Full point group                 C1      NOp   1
                          Input orientation:                          
 ---------------------------------------------------------------------
 Center     Atomic      Atomic             Coordinates (Angstroms)
 Number     Number       Type             X           Y           Z
 ---------------------------------------------------------------------
      1          6           0       13.234133    4.346556    2.481955
      2          6           0       12.075220    3.896319    3.367354
      3          6           0       10.947669    3.276157    2.533981
      4          6           0        9.785855    2.830799    3.428891
      5          6           0        8.683652    2.221173    2.604497
      6          6           0        8.691895    0.848241    2.318174
      7          6           0        7.683704    0.284726    1.531279
      8          6           0        6.651560    1.085986    1.009442
      9          6           0        5.575189    0.484847    0.179847
     10          6           0        5.087594    1.152454   -0.958015
     11          6           0        4.079680    0.580596   -1.740050
     12          6           0        3.534361   -0.667534   -1.398458
     13          6           0        2.488671   -1.289385   -2.248028
     14          6           0        2.680443   -1.363784   -3.634969
     15          6           0        1.723293   -1.966470   -4.460283
     16          6           0        1.929075   -2.023286   -5.848403
     17          6           0        0.977448   -2.618232   -6.677693
     18          6           0       -0.187593   -3.157084   -6.132613
     19          6           0       -0.406086   -3.110477   -4.753840
     20          6           0        0.548725   -2.523714   -3.895061
     21          6           0        0.360361   -2.468859   -2.491259
     22          6           0       -0.829773   -3.078769   -1.838902
     23          6           0       -1.816551   -2.230342   -1.303759
     24          8           0       -1.621140   -0.851128   -1.336141
     25          6           0       -2.980134   -2.764096   -0.717387
     26          6           0       -4.048617   -1.880263   -0.190364
     27          6           0       -4.571893   -0.842672   -0.978554
     28          6           0       -5.598381   -0.029474   -0.489716
     29          6           0       -6.125699   -0.239367    0.797210
     30          6           0       -7.226333    0.614850    1.313643
     31          6           0       -8.279858    1.010650    0.470036
     32          6           0       -9.317116    1.810707    0.956722
     33          6           0       -9.322296    2.228134    2.296552
     34          6           0      -10.428535    3.106988    2.819579
     35          6           0       -9.977343    4.560989    3.038398
     36          6           0       -9.631979    5.303885    1.732187
     37          6           0       -8.138883    5.259423    1.406979
     38          6           0       -8.274121    1.835313    3.141776
     39          6           0       -7.236015    1.036121    2.655901
     40          6           0       -5.599912   -1.279313    1.584048
     41          6           0       -4.574047   -2.091879    1.094342
     42          6           0       -3.131623   -4.155506   -0.631242
     43          6           0       -2.142696   -5.016123   -1.122863
     44          6           0       -2.305833   -6.407123   -1.014789
     45          6           0       -1.319274   -7.270919   -1.492082
     46          6           0       -0.162150   -6.756801   -2.076263
     47          6           0        0.014196   -5.376462   -2.193763
     48          6           0       -0.976288   -4.484270   -1.728720
     49          6           0        1.314774   -1.823474   -1.683753
     50          8           0        1.078178   -1.697239   -0.316478
     51          6           0        4.023158   -1.337286   -0.265321
     52          6           0        5.029981   -0.766234    0.517023
     53          6           0        6.656437    2.465002    1.286772
     54          6           0        7.666310    3.027762    2.072716
     55          1           0       12.889447    5.113235    1.755341
     56          1           0       13.657660    3.480201    1.929705
     57          1           0       14.033089    4.789668    3.113998
     58          1           0       12.452056    3.150772    4.101543
     59          1           0       11.686940    4.776391    3.925664
     60          1           0       10.578268    4.024604    1.798071
     61          1           0       11.341431    2.396650    1.977120
     62          1           0       10.149693    2.089923    4.175087
     63          1           0        9.391479    3.703375    3.995133
     64          1           0        9.482293    0.213875    2.700592
     65          1           0        7.721503   -0.775973    1.317371
     66          1           0        5.498741    2.108652   -1.255680
     67          1           0        3.723195    1.114712   -2.612186
     68          1           0        3.587557   -0.961046   -4.071839
     69          1           0        2.824336   -1.604219   -6.292323
     70          1           0        1.142262   -2.657965   -7.746581
     71          1           0       -0.925144   -3.613035   -6.780839
     72          1           0       -1.325471   -3.532155   -4.370277
     73          1           0       -4.197566   -0.671839   -1.980233
     74          1           0       -5.972685    0.770316   -1.116251
     75          1           0       -8.311254    0.687474   -0.562760
     76          1           0      -10.115422    2.104860    0.287000
     77          1           0      -11.304398    3.088321    2.134741
     78          1           0      -10.780251    2.695358    3.790644
     79          1           0       -9.129058    4.598100    3.757057
     80          1           0      -10.823041    5.096752    3.522210
     81          1           0      -10.213143    4.894882    0.877008
     82          1           0       -9.920817    6.372035    1.843781
     83          1           0       -7.945967    5.842018    0.481796
     84          1           0       -7.550008    5.708921    2.234575
     85          1           0       -7.795131    4.219413    1.240620
     86          1           0       -8.259017    2.152421    4.177251
     87          1           0       -6.431320    0.762479    3.326675
     88          1           0       -5.995468   -1.478906    2.571909
     89          1           0       -4.185822   -2.884331    1.721978
     90          1           0       -4.028555   -4.569845   -0.183251
     91          1           0       -3.195389   -6.825843   -0.558918
     92          1           0       -1.449687   -8.342041   -1.405360
     93          1           0        0.603693   -7.430138   -2.438434
     94          1           0        0.930237   -5.018461   -2.645212
     95          1           0        3.637682   -2.312183    0.005698
     96          1           0        5.376348   -1.301350    1.391883
     97          1           0        5.871388    3.106948    0.907607
     98          1           0        7.651417    4.092269    2.272276
     99         29           0       -0.324154   -0.376186    0.058350
 ---------------------------------------------------------------------
 Rotational constants (GHZ):           0.0459773           0.0174363           0.0138364
 Leave Link  202 at Sat Feb  8 08:24:10 2025, MaxMem= 13421772800 cpu:               0.3 elap:               0.0
 (Enter /public/software/apps/Gaussian/g16/l301.exe)
 Standard basis: def2SVPP (5D, 7F)
 Ernie: Thresh=  0.10000D-02 Tol=  0.10000D-05 Strict=F.
   868 basis functions,  1597 primitive gaussians,   924 cartesian basis functions
   201 alpha electrons      200 beta electrons
       nuclear repulsion energy      7012.8350818948 Hartrees.
 IExCor=  402 DFT=T Ex+Corr=B3LYP ExCW=0 ScaHFX=  0.200000
 ScaDFX=  0.800000  0.720000  1.000000  0.810000 ScalE2=  1.000000  1.000000
 IRadAn=      5 IRanWt=     -1 IRanGd=            0 ICorTp=0 IEmpDi=141
 NAtoms=   99 NActive=   99 NUniq=   99 SFac= 1.00D+00 NAtFMM=   60 NAOKFM=T Big=T
 Integral buffers will be    131072 words long.
 Raffenetti 2 integral format.
 Two-electron integral symmetry is turned off.
 R6Disp:  Grimme-D3(BJ) Dispersion energy=       -0.2512122952 Hartrees.
 Nuclear repulsion after empirical dispersion term =     7012.5838695996 Hartrees.
 Leave Link  301 at Sat Feb  8 08:24:10 2025, MaxMem= 13421772800 cpu:               0.7 elap:               0.0
 (Enter /public/software/apps/Gaussian/g16/l302.exe)
 NPDir=0 NMtPBC=     1 NCelOv=     1 NCel=       1 NClECP=     1 NCelD=      1
         NCelK=      1 NCelE2=     1 NClLst=     1 CellRange=     0.0.
 One-electron integrals computed using PRISM.
   1 Symmetry operations used in ECPInt.
 ECPInt:  NShTT=   89253 NPrTT=  364252 LenC2=   51328 LenP2D=  125315.
 LDataN:  DoStor=T MaxTD1= 4 Len=   56
 NBasis=   868 RedAO= T EigKep=  1.67D-04  NBF=   868
 NBsUse=   868 1.00D-06 EigRej= -1.00D+00 NBFU=   868
 Precomputing XC quadrature grid using
 IXCGrd= 4 IRadAn=           5 IRanWt=          -1 IRanGd=           0 AccXCQ= 0.00D+00.
 Generated NRdTot=       0 NPtTot=           0 NUsed=           0 NTot=          32
 NSgBfM=   796   794   794   795   796 MxSgAt=    99 MxSgA2=    99.
 Leave Link  302 at Sat Feb  8 08:24:11 2025, MaxMem= 13421772800 cpu:              44.0 elap:               1.4
 (Enter /public/software/apps/Gaussian/g16/l303.exe)
 DipDrv:  MaxL=1.
 Leave Link  303 at Sat Feb  8 08:24:11 2025, MaxMem= 13421772800 cpu:               3.5 elap:               0.1
 (Enter /public/software/apps/Gaussian/g16/l401.exe)
 ExpMin= 3.30D-02 ExpMax= 7.64D+04 ExpMxC= 1.15D+04 IAcc=3 IRadAn=         5 AccDes= 0.00D+00
 Harris functional with IExCor=  402 and IRadAn=       5 diagonalized for initial guess.
 HarFok:  IExCor=  402 AccDes= 0.00D+00 IRadAn=         5 IDoV= 1 UseB2=F ITyADJ=14
 ICtDFT=  3500011 ScaDFX=  1.000000  1.000000  1.000000  1.000000
 FoFCou: FMM=F IPFlag=           0 FMFlag=      100000 FMFlg1=        2001
         NFxFlg=           0 DoJE=T BraDBF=F KetDBF=T FulRan=T
         wScrn=  0.000000 ICntrl=       500 IOpCl=  0 I1Cent=   200000004 NGrid=           0
         NMat0=    1 NMatS0=      1 NMatT0=    0 NMatD0=    1 NMtDS0=    0 NMtDT0=    0
 Symmetry not used in FoFCou.
 Harris En= -3797.73312155347    
 JPrj=0 DoOrth=F DoCkMO=F.
 Initial guess <Sx>= 0.0000 <Sy>= 0.0000 <Sz>= 0.5000 <S**2>= 0.7500 S= 0.5000
 Leave Link  401 at Sat Feb  8 08:24:14 2025, MaxMem= 13421772800 cpu:              79.9 elap:               2.5
 (Enter /public/software/apps/Gaussian/g16/l502.exe)
 Two-electron integral symmetry not used.
 UHF open shell SCF:
 Using DIIS extrapolation, IDIIS=  1040.
 NGot= 13421772800 LenX= 13420025548 LenY= 13419170848
 Requested convergence on RMS density matrix=1.00D-08 within 128 cycles.
 Requested convergence on MAX density matrix=1.00D-06.
 Requested convergence on             energy=1.00D-06.
 No special actions if energy rises.
 Fock matrices will be formed incrementally for  20 cycles.

 Cycle   1  Pass 1  IDiag  1:
[...]
 ,-0.00000376,0.00000470,-0.00000232,-0.00001117,-0.00001352,0.00005921
 ,0.00002506,0.00007353,-0.00004259,-0.00002128,-0.00011861,-0.00003881
 ,-0.00001513,0.00003838,-0.00011852,-0.00006065,-0.00021721,0.00085831
 ,-0.01124534,0.00274051,-0.02130362,-0.32836119,0.01836974,0.00001193,
 0.00001092,-0.00000768,-0.00000538,0.00000599,0.00000312,0.00000176,-0
 .00000128,-0.00001237,-0.00005379,-0.00002089,-0.00003838,0.00000370,0
 .00001318,0.00001851,0.00019174,0.00003946,-0.00017787,-0.00011537,0.0
 0005396,-0.00002987,-0.00018413,0.00025132,0.00000962,0.00043439,0.000
 63861,0.00056061,-0.00016731,-0.00068022,0.00004263,0.00002231,-0.0001
 1427,-0.00008101,0.00001249,-0.00000691,0.00001406,-0.00001338,-0.0000
 0344,-0.00002124,-0.00000120,-0.00000029,0.00001155,0.00000094,0.00000
 103,0.00000245,0.00000016,-0.00000062,-0.00000372,-0.00000060,-0.00000
 113,-0.00000016,0.00000152,0.00000177,0.00000448,0.00000639,-0.0000030
 8,0.00000476,-0.00000051,0.00000227,-0.00000097,0.00000129,-0.00000124
 ,0.00000094,-0.00000135,0.00000092,-0.00000076,-0.00000082,0.00000091,
 -0.00000033,-0.00000142,0.00000122,0.00000096,0.00000044,-0.00000026,-
 0.00000042,-0.00000061,0.00000208,0.00000086,0.00000006,-0.00000055,-0
 .00000041,-0.00000005,0.00000181,0.00000080,0.00000047,0.00000136,-0.0
 0000088,-0.00000026,-0.00000082,0.00000011,-0.00000047,-0.00000004,0.0
 0000130,-0.00000074,-0.00000001,0.00000170,0.00000037,-0.00000080,-0.0
 0000191,-0.00000190,-0.00000078,0.00000156,0.00000129,0.00000007,-0.00
 000225,-0.00000249,-0.00000392,0.00000241,-0.00000303,-0.00000109,0.00
 000173,-0.00000015,-0.00000255,0.00000018,0.00000281,-0.00000171,-0.00
 000056,0.00000245,-0.00000155,0.00000004,-0.00000855,-0.00001938,-0.00
 000962,0.00002614,0.00000526,-0.00000271,0.00021175,0.00093144,-0.0005
 3395,0.02388774,0.34943917,0.00002100,0.00001053,0.00006123,0.00006422
 ,0.00007309,-0.00018000,0.00005599,-0.00002428,0.00031467,0.00249633,0
 .00127826,-0.00095269,0.00081547,0.01922167,0.00233019,-0.00556499,0.0
 0191626,0.00094284,-0.00023433,-0.00009129,-0.00077526,-0.00558038,-0.
 00064399,0.00216498,0.00000404,-0.00068398,0.00043256,-0.00000180,-0.0
 0001130,-0.00001729,-0.00001925,0.00000905,-0.00000906,0.00000535,0.00
 000177,0.00001257,0.00001656,0.00000118,-0.00000682,-0.00000671,-0.000
 00445,0.00000565,0.00000046,0.00000221,-0.00000286,-0.00000355,-0.0000
 0091,0.00000170,-0.00000056,-0.00000011,0.00000028,-0.00000151,-0.0000
 0093,-0.00000140,0.00000076,0.00000033,-0.00000097,-0.00000066,0.00000
 036,-0.00000017,-0.00000805,-0.00000588,-0.00000083,-0.00000826,0.0000
 0512,0.00000378,0.00000651,-0.00001444,-0.00000029,0.00000065,0.000016
 04,0.00000027,0.00000450,0.00000215,-0.00000330,0.00000015,-0.00000045
 ,-0.00000006,-0.00000060,-0.00000007,0.00000031,-0.00000003,-0.0000006
 3,0.00000019,0.00000005,-0.00000017,0.00000015,0.00000023,-0.00000016,
 -0.00000025,-0.00000016,0.00000010,0.00000035,0.00000007,0.00000005,0.
 00000026,-0.00000003,-0.00000008,-0.00000021,0.00000028,-0.00000002,0.
 00000018,0.00000006,-0.00000020,0.00000022,0.00000016,0.,0.00000008,0.
 00000009,-0.00000035,0.00000043,-0.00000027,0.00000005,-0.00000007,0.0
 0000003,-0.00000009,0.00000020,-0.00000045,0.00000044,-0.00000037,-0.0
 0000003,0.00000028,-0.00000040,0.00000193,-0.00000448,-0.00000106,-0.0
 0000132,0.00000352,0.00000039,0.00000286,-0.00000420,-0.00000111,-0.00
 000293,-0.00000013,0.00000108,-0.00000051,0.00000152,0.00000004,-0.000
 00148,-0.00000064,0.00000052,-0.00000023,-0.00000176,-0.00000136,0.000
 00490,0.00000345,0.00000789,-0.00001111,-0.00000056,-0.00001656,-0.000
 06485,-0.00002331,0.00001689,-0.00010652,-0.00012410,-0.00022381,-0.00
 131620,-0.01850102,0.00474152,-0.00852157,0.01796159,-0.04778329,0.000
 00314,0.00001027,-0.00000992,0.00000894,-0.00000655,-0.00000539,0.0000
 2326,0.00000547,-0.00001074,-0.00001203,-0.00001467,-0.00001072,-0.000
 01101,-0.00002762,-0.00000535,0.00010272,0.00007154,-0.00004016,0.0000
 9302,-0.00002003,-0.00000947,-0.00006631,-0.00028833,-0.00006864,-0.00
 004790,-0.00085061,-0.00033619,0.00008170,0.00103659,0.00013160,0.0005
 2010,-0.00009398,-0.00050162,-0.00001598,-0.00002590,-0.00002133,-0.00
 000869,-0.00000435,-0.00000995,0.00000082,-0.00000055,0.00000168,0.000
 00114,0.00000015,-0.00000009,-0.00000019,-0.00000054,-0.00000104,-0.00
 000011,-0.00000026,-0.00000014,0.00000019,0.00000019,0.00000058,0.0000
 0067,-0.00000037,0.00000036,-0.00000021,0.00000037,0.00000012,0.000000
 12,-0.00000019,-0.00000011,-0.00000025,0.00000019,-0.00000007,-0.00000
 017,0.00000009,-0.00000024,-0.00000003,0.00000007,0.00000010,-0.000000
 12,0.00000016,-0.00000028,-0.00000003,0.00000011,0.00000010,-0.0000003
 6,-0.00000001,-0.00000031,0.00000008,-0.00000005,0.00000012,0.00000016
 ,0.00000027,0.00000013,-0.00000007,0.00000018,-0.00000050,-0.00000009,
 -0.00000015,0.00000009,0.00000019,-0.00000002,-0.00000006,-0.00000002,
 0.00000025,-0.00000014,0.00000014,0.00000010,0.00000010,0.00000018,0.0
 0000027,-0.00000008,-0.00000011,-0.00000025,0.00000036,-0.00000018,-0.
 00000008,0.00000028,-0.00000005,-0.00000027,0.00000015,0.00000037,-0.0
 0000034,0.,0.00000029,0.00000008,0.00000020,-0.00001839,-0.00000726,-0
 .00000757,0.00001366,-0.00000023,-0.00001299,0.00272917,-0.00002255,-0
 .00188840,0.01455461,-0.02012234,0.04174060,0.00000247,0.00000567,0.00
 001109,0.00000088,-0.00000876,-0.00001928,-0.00000420,0.00001105,0.000
 02774,0.00000595,-0.00001186,-0.00002913,-0.00000979,0.00000053,0.0000
 0463,-0.00000889,0.00001313,-0.00000539,0.00004713,0.00001365,0.000037
 84,-0.00009332,-0.00007769,-0.00010816,-0.00003377,0.00000050,0.000047
 59,-0.00004004,0.00004470,-0.00012431,0.00026753,-0.00019004,-0.000044
 26,-0.00064617,-0.00027642,-0.00036049,0.00336480,0.00094110,-0.002571
 98,0.00099833,0.00081035,0.00245529,-0.00002559,-0.00032889,-0.0018612
 2,0.00069356,0.00058442,0.00183935,-0.00095655,-0.00049951,-0.00034254
 ,-0.00024186,-0.00017592,-0.00028639,-0.00034673,-0.00025234,-0.000639
 05,-0.00135878,0.00022283,0.00227376,-0.00167207,-0.00258138,-0.006970
 84,-0.00178237,0.00688220,0.00143764,-0.00589962,-0.02664000,-0.003453
 40,-0.05343022,-0.00294383,-0.04946271,0.00309044,0.00227152,-0.001212
 30,-0.00062151,0.00032936,0.00018311,-0.00007954,-0.00013982,0.0002422
 0,-0.00002188,0.00014363,0.00004589,-0.00003634,-0.00005131,0.00002263
 ,-0.00009443,0.00011140,0.00005616,0.00004316,-0.00003643,-0.00000362,
 -0.00000862,-0.00000122,-0.00001335,0.00000317,-0.00000034,0.00000382,
 -0.00002282,0.00000751,-0.00000710,0.00001695,0.00000997,0.00000779,-0
 .00000903,0.00000575,-0.00000301,0.00000359,0.00000862,0.00000526,0.00
 000555,-0.00000200,0.00002062,0.00003618,-0.00001339,-0.00004185,-0.00
 005425,0.00012325,-0.00005904,0.00026205,0.00009409,0.00018365,0.00101
 576,-0.00231034,-0.00028356,-0.00009781,0.00172918,0.00001165,0.000720
 79,-0.00170508,-0.00021845,-0.00088137,0.00034466,0.00035465,-0.000250
 91,0.00024638,0.00013186,-0.00036128,0.00063603,0.00009456,-0.00119168
 ,-0.00213471,0.00007905,-0.00812649,0.00849660,0.02741947,-0.05715803,
 0.04841238,-0.00827261,-0.00007103,-0.00024769,0.00022320,-0.00001790,
 -0.00007420,-0.00015348,0.00003867,0.00004616,0.00001150,0.00000703,-0
 .00002024,0.00000480,-0.00000157,-0.00000135,-0.00000265,-0.00000143,-
 0.00000162,-0.00000225,0.00001055,0.00000399,0.00000126,0.00000252,-0.
 00000052,0.00000323,0.00000088,0.00000406,0.00000143,-0.00000236,-0.00
 000131,0.00000128,-0.00000280,0.00000048,0.00000068,0.00000903,-0.0000
 0055,0.00001000,0.00000450,0.00001177,0.00000439,0.00001092,-0.0000041
 6,0.00001184,-0.00001909,0.00001117,-0.00001117,-0.00000346,0.00003594
 ,-0.00000135,-0.00003885,0.00004757,0.00000951,0.00001145,0.00004081,-
 0.00015197,-0.00002494,-0.00000350,0.00002863,-0.00001517,0.00000144,-
 0.00000299,0.00004016,-0.00000102,-0.00001181,0.00001774,-0.00000643,0
 .00002668,-0.00006936,0.00008263,-0.00011863,-0.00001634,-0.00001493,-
 0.00000378,-0.00001741,0.00000827,-0.00001274,0.00001090,-0.00001008,0
 .00000565,0.00000663,-0.00000825,0.00000416,0.00001272,-0.00000693,-0.
 00001115,-0.00000378,0.00000241,0.00000493,0.00000809,-0.00001543,-0.0
 0000770,0.00000318,0.00000343,0.00000400,0.00000237,-0.00001271,-0.000
 00677,-0.00000251,-0.00000609,0.00000386,0.00000146,0.00000508,0.00000
 419,-0.00000074,-0.00000161,-0.00001087,0.00000322,-0.00000437,-0.0000
 1375,-0.00000817,-0.00000022,0.00002603,-0.00000621,-0.00000581,-0.000
 03497,-0.00003430,-0.00002046,-0.00004698,0.00000562,0.00012427,-0.000
 06062,-0.00002491,-0.00002748,0.00000517,-0.00001487,0.00000053,-0.000
 00624,0.00003801,0.00001130,0.00000302,0.00001525,-0.00002482,0.000001
 51,-0.00008107,0.00012774,-0.00012350,-0.00001281,0.00000204,0.0000152
 1,-0.00000728,-0.00002672,0.00000357,0.00000343,0.00001607,0.00000336,
 0.12522173,-0.00000214,-0.00000069,-0.00000451,-0.00000262,0.00000637,
 0.00000666,-0.00000167,-0.00000249,-0.00001543,-0.00000654,0.00000860,
 0.00001402,-0.00000282,-0.00000574,-0.00000940,0.00000771,-0.00002381,
 0.00000872,-0.00002463,0.00000396,-0.00001850,0.00008546,-0.00001267,0
 .00008033,-0.00005801,-0.00024318,0.00012141,-0.00021621,-0.00025589,-
 0.00018391,0.00018205,0.00000102,-0.00013785,0.00076010,0.00013961,0.0
 0058163,-0.00375640,0.00018687,0.00490297,-0.00158703,-0.00161238,-0.0
 0263420,0.00002215,0.00025816,0.00238551,-0.00080335,-0.00070944,-0.00
 243949,0.00147513,0.00074734,0.00050251,0.00011026,-0.00012835,0.00079
 062,0.00031146,0.00054119,0.00033482,0.00142342,0.00003237,-0.00297593
 ,0.00311174,-0.00011811,0.00628738,-0.00326794,0.00338103,-0.00254597,
 -0.01236182,-0.02637799,-0.00822969,-0.01025815,0.00585346,-0.00984139
 ,0.00199973,0.00194481,-0.00059085,-0.00044546,0.00049110,0.00006939,0
 .00008806,-0.00038998,0.00032281,-0.00005105,0.00020367,-0.00002443,0.
 00004545,0.00003211,-0.00020640,-0.00010925,0.00007268,0.00002770,0.00
 002900,-0.00003528,-0.00002046,-0.00000415,-0.00002542,-0.00002850,0.0
 0000942,-0.00000329,0.00000699,-0.00001566,0.00000801,-0.00001193,0.00
 002071,0.00002568,0.00000826,0.00001435,-0.00000206,-0.00001000,-0.000
 01323,0.00001193,0.00001353,0.00001517,-0.00001487,0.00001321,0.000027
 83,-0.00006226,-0.00002000,0.00010317,-0.00013050,0.00001103,-0.000013
 16,-0.00004813,0.00015511,0.00121506,-0.00265264,-0.00054675,-0.000164
 15,0.00202610,-0.00002854,0.00091765,-0.00236596,-0.00021992,-0.001523
 69,0.00042143,0.00061760,-0.00005693,0.00078772,-0.00022201,-0.0002415
 4,0.00011991,0.00048916,-0.00072995,-0.00263190,0.00024808,0.01080379,
 -0.00979233,-0.02876018,0.04522872,-0.03841137,0.00754230,-0.00005906,
 0.00053874,-0.00079439,0.00004927,0.00007030,0.00031990,-0.00005270,0.
 00000688,-0.00008425,-0.00000390,-0.00001095,-0.00000624,0.00000033,0.
 00000023,0.00000219,0.00000153,-0.00000172,-0.00000019,-0.00000298,-0.
 00000036,-0.00000015,-0.00000060,-0.00000039,0.00000075,0.00000026,-0.
 00000472,-0.00000205,0.00000106,0.00000037,0.00000215,0.00000405,-0.00
 000324,-0.00000109,-0.00000308,-0.00000182,-0.00000221,-0.00000392,-0.
 00001188,-0.00000492,-0.00000214,0.00000077,-0.00000280,0.00001721,-0.
 00001617,0.00001023,-0.00008133,-0.00000667,0.00001998,-0.00002246,0.0
 0001273,0.00009473,-0.00007739,0.00001618,0.00035290,-0.00002433,0.000
 03464,-0.00002200,-0.00000341,0.00006670,0.00000876,-0.00002726,-0.000
 01770,0.00004036,-0.00006528,0.00016210,-0.00003002,-0.00008837,0.0001
 9655,-0.00031080,0.00008655,-0.00003954,0.00005076,-0.00000790,0.00002
 263,-0.00000628,0.00001867,-0.00000718,0.00000480,0.00000775,-0.000006
 65,0.00000047,0.00000925,-0.00001437,-0.00000490,-0.00000062,0.0000000
 1,0.00000111,-0.00000615,-0.00001830,-0.00000301,-0.00000847,0.0000054
 2,0.00000207,-0.00000679,-0.00000856,0.00000023,-0.00000327,-0.0000319
 4,0.00000818,0.00000546,0.00000548,-0.00001206,0.00001914,0.00001533,-
 0.00000739,0.00001175,0.00000190,-0.00001503,0.00000175,0.00002052,0.0
 0001854,0.00003452,0.00000926,-0.00000960,-0.00006128,-0.00004964,0.00
 001815,-0.00000380,0.00015469,-0.00007236,0.00000585,-0.00001794,0.000
 02741,-0.00000819,0.00001939,0.00004233,0.00001787,0.00002415,-0.00004
 708,0.00004246,0.00000150,0.00012403,0.00019963,-0.00047795,0.00025500
 ,-0.00002104,0.00005342,-0.00000055,-0.00000357,0.00000489,0.00002615,
 -0.00001725,-0.00001789,-0.00000388,-0.03215785,0.06807238,-0.00000232
 ,-0.00000380,-0.00000411,-0.00000133,0.00000397,0.00001267,-0.00000082
 ,-0.00001069,-0.00001646,-0.00000819,0.00000773,0.00002449,-0.00000062
 ,-0.00000282,-0.00001508,0.00000727,-0.00002321,-0.00001486,-0.0000249
 7,-0.00003075,-0.00002519,0.00008577,0.00004148,0.00005164,-0.00003297
 ,-0.00015964,0.00004735,-0.00006365,0.00003119,-0.00011019,-0.00000854
 ,0.00013808,-0.00005359,0.00026506,0.00013618,0.00037842,-0.00129097,-
 0.00031678,0.00099900,-0.00076936,-0.00073831,-0.00203518,0.00007342,0
 .00026638,0.00153529,-0.00064310,-0.00051561,-0.00185347,0.00120250,0.
 00060495,0.00026978,-0.00000046,-0.00007115,0.00067877,0.00014935,0.00
 041422,-0.00004393,0.00053672,-0.00015780,-0.00201985,0.00265371,-0.00
 194077,0.00252754,-0.00288178,0.00583591,-0.00080114,-0.00753676,-0.02
 747864,-0.00394643,-0.04529768,-0.00239280,-0.04207224,0.00339573,0.00
 486840,-0.00048495,-0.00075060,0.00050346,0.00000666,0.00004649,-0.000
 63763,0.00063230,-0.00005717,0.00029916,0.00002024,0.00005516,0.000073
 16,-0.00022639,-0.00007543,0.00006831,-0.00003046,0.00002033,-0.000013
 26,0.00001300,-0.00000660,0.00000383,-0.00002346,0.00000727,-0.0000015
 9,-0.00000033,-0.00000740,0.00000221,-0.00000786,0.00001547,0.00000417
 ,0.00001311,0.00000362,0.00000043,-0.00000667,-0.00000154,-0.00000094,
 0.00002114,0.00000456,-0.00000640,-0.00001243,0.00005171,-0.00007205,0
 .00002495,0.00021678,-0.00019061,-0.00022159,-0.00016530,-0.00013259,-
 0.00000008,0.00161660,-0.00247741,-0.00101225,-0.00009972,0.00215212,-
 0.00015066,0.00081179,-0.00218842,-0.00022905,-0.00132146,0.00050521,0
 .00051322,-0.00013792,0.00063653,-0.00022328,-0.00032767,0.00042098,0.
 00039003,-0.00125569,-0.00267450,0.00045134,0.01178670,-0.01014957,-0.
 01825433,0.00002324,0.00047482,0.00630770,-0.00007563,0.00014712,-0.00
 030194,0.00003467,-0.00000408,0.00014881,-0.00001632,-0.00002981,-0.00
 004485,-0.00001169,0.00001280,-0.00001228,0.00000076,0.00000233,-0.000
 00107,0.00000141,-0.00000007,0.00000136,-0.00000456,-0.00000194,-0.000
 00030,-0.00000240,0.00000197,-0.00000487,-0.00000039,-0.00000365,-0.00
 000042,0.00000245,0.00000376,-0.00000403,0.00000367,-0.00000128,-0.000
 00001,-0.00001010,0.00000168,-0.00001116,-0.00000467,-0.00001121,-0.00
 000299,-0.00001771,0.00000202,-0.00000781,0.00000435,0.00000218,0.0000
 2080,-0.00002151,-0.00000649,0.00000573,0.00006593,0.00001238,-0.00006
 616,0.00001400,-0.00004801,0.00009975,-0.00000319,0.00001782,-0.000017
 77,0.00000566,0.00003467,0.00001087,-0.00001076,-0.00004056,0.00002420
 ,-0.00003573,0.00009363,-0.00001509,-0.00017848,0.00013300,-0.00047814
 ,0.00000345,0.00001561,0.00004537,-0.00001621,0.00000356,-0.00001814,0
 .00000021,-0.00000139,0.00000135,-0.00000105,-0.00000123,-0.00000342,0
 .00000805,-0.00000484,-0.00000327,-0.00000365,0.00000301,-0.00000618,-
 0.00000095,-0.00000727,-0.00000268,-0.00001081,0.00000396,-0.00000407,
 -0.00000075,-0.00000488,0.00000093,0.00000160,0.00000021,0.00000335,0.
 00000137,0.00000051,-0.00001940,0.00000506,-0.00000154,0.00000249,0.00
 001543,-0.00000632,-0.00001378,0.00000273,0.00002430,-0.00000122,0.000
 07587,0.00002074,-0.00000732,0.00002744,0.00010504,-0.00000784,0.00006
 631,0.00033827,-0.00002985,0.00002181,-0.00001291,0.00003482,0.0000008
 1,0.00001697,0.00005740,0.00002548,0.00003478,-0.00001547,0.00005299,-
 0.00000076,0.00014799,0.00005334,-0.00018463,0.00020505,-0.00008507,0.
 00003125,-0.00005079,-0.00000208,0.00001936,0.00001280,-0.00000940,-0.
 00001173,0.00000302,0.03976903,0.03419652,0.05930309\\0.00000090,-0.00
 000023,-0.00000091,-0.00000042,0.00000039,0.00000142,0.00000019,-0.000
 00065,-0.00000152,-0.00000032,0.00000014,0.00000068,0.00000067,-0.0000
 0009,0.00000040,-0.00000017,0.00000017,-0.00000025,-0.00000047,0.00000
 072,0.00000006,-0.00000169,-0.00000122,-0.00000165,0.00000219,-0.00000
 071,0.00000378,-0.00000255,-0.00000081,-0.00000193,0.00000184,0.000002
 15,0.00000125,-0.00000136,-0.00000444,-0.00000067,-0.00000211,0.000002
 21,0.00000477,-0.00000169,-0.00000115,-0.00000173,0.00000250,0.0000016
 9,0.00000182,-0.00000048,-0.00000005,-0.00000089,0.00000009,0.00000018
 ,0.00000048,-0.00000011,0.00000016,-0.00000068,0.00000092,0.00000077,0
 .00000104,-0.00000280,-0.00000184,-0.00000146,0.00000147,0.00000142,0.
 00000173,0.00000047,-0.00000019,0.00000089,-0.00000408,-0.00000042,-0.
 00000462,0.00000537,-0.00000788,0.00000632,-0.00000077,0.00000550,0.00
 000039,0.00000249,-0.00000180,-0.00000252,0.00000054,-0.00000066,0.000
 00027,-0.00000200,-0.00000080,0.00000254,-0.00000175,0.00000396,-0.000
 00111,0.00000213,-0.00000240,0.00000090,-0.00000050,0.00000147,0.00000
 038,0.00000163,-0.00000079,-0.00000065,-0.00000137,0.00000005,0.000000
 86,-0.00000014,-0.00000155,0.00000002,0.00000141,0.00000185,-0.0000012
 8,-0.00000104,-0.00000180,0.00000167,0.00000108,-0.00000050,-0.0000009
 9,-0.00000105,0.00000070,-0.00000077,0.00000039,0.00000029,-0.00000117
 ,0.00000215,-0.00000180,-0.00000035,-0.00000275,0.00000133,0.00000111,
 0.00000199,-0.00000186,-0.00000036,-0.00000287,0.00000149,0.00000110,0
 .00000048,-0.00000068,-0.00000011,-0.00000034,0.00000060,-0.00000025,0
 .00000013,-0.00000035,-0.00000012,-0.00000095,0.00000081,0.00000025,0.
 00000222,-0.00000065,-0.00000127,0.00000137,0.00000388,-0.00000630,0.0
 0000016,-0.00000816,0.00000357,-0.00000228,0.00000079,-0.00000221,0.00
 000197,0.00000232,-0.00000124,0.00000076,-0.00000045,0.00000014,-0.000
 00026,-0.00000042,-0.00000028,-0.00000004,-0.00000011,0.00000009,-0.00
 000006,-0.00000004,0.00000003,-0.00000007,-0.00000020,-0.00000015,0.00
 000021,-0.00000037,-0.00000051,0.00000017,-0.00000025,-0.00000050,0.00
 000002,0.00000012,0.00000027,0.00000005,0.,0.00000028,0.00000014,-0.00
 000030,-0.00000044,0.00000009,-0.00000024,-0.00000027,-0.00000001,-0.0
 0000049,-0.00000019,0.00000069,-0.00000004,0.00000026,-0.00000021,-0.0
 0000011,-0.00000073,0.00000027,0.00000063,0.00000015,-0.00000027,-0.00
 000018,-0.00000031,-0.00000006,0.00000014,-0.00000032,-0.00000010,0.00
 000028,-0.00000035,-0.00000030,-0.00000007,-0.00000011,-0.00000043,-0.
 00000013,-0.00000015,-0.00000104,0.00000050,0.00000007,0.00000078,-0.0
 0000006,-0.00000088,-0.00000030,0.00000006,-0.00000007,-0.00000016,0.0
 0000030,0.00000024,0.00000007,0.00000021,0.00000083,0.00000079,0.00000
 068,0.00000115,0.00000059,0.00000006,0.00000008,-0.00000102,-0.0000000
 2,-0.00000030,-0.00000065,-0.00000004,0.00000037,0.00000047,-0.0000001
 8,0.00000068,-0.00000003,0.00000017,0.00000093,0.,-0.00000016,0.000000
 39,0.00000048,0.00000067,0.00000017,0.00000003,-0.00000020,0.00000093,
 -0.00000043,0.00000028,0.00000080,0.00000021,-0.00000059,0.00000010,-0
 .00000033,0.00000015,0.00000060,0.00000002,-0.00000025,-0.00000024,-0.
 00000013,-0.00000018,0.00000004,-0.00000012,-0.00000014,0.00000003,-0.
 00000008,0.00000005,-0.00000031,0.00000011,0.00000005,-0.00000025,0.00
 000011,-0.00000003,0.00000049,-0.00000109,-0.00000101,-0.00000027,0.00
 000029,0.00000058,0.00000021,-0.00000009,0.00000006,-0.00000036,0.0000
 0019,0.00000970,-0.00000301\\\@
 The archive entry for this job was punched.


 WE HAVE LEARNED THAT NOTHING IS SIMPLE AND
 RATIONAL EXCEPT WHAT WE OURSELVES HAVE INVENTED;
 THAT GOD THINKS IN TERMS NEITHER OF EUCLID OR RIEMANN; THAT SCIENCE HAS "EXPLAINED" NOTHING;
 THAT THE MORE WE KNOW THE MORE FANTASTIC THE WORLD BECOMES
 AND THE PROFOUNDER THE SURROUNDING DARKNESS.
   --  ALDOUS HUXLEY
 Job cpu time:       1 days 18 hours 51 minutes 54.6 seconds.
 Elapsed time:       0 days  1 hours 20 minutes 48.4 seconds.
 File lengths (MBytes):  RWF=  16197 Int=      0 D2E=      0 Chk=     89 Scr=      1
 Normal termination of Gaussian 16 at Sat Feb  8 10:37:53 2025.
