 Entering Gaussian System, Link 0=g16
 Initial command:
 /public/software/apps/Gaussian/g16/l1.exe "/tmp/Gau-109004.inp" -scrdir="/tmp/"
 Entering Link 1 = /public/software/apps/Gaussian/g16/l1.exe PID=    109005.
  
 Copyright (c) 1988-2019, Gaussian, Inc.  All Rights Reserved.
  
 This is part of the Gaussian(R) 16 program.  It is based on
 the Gaussian(R) 09 system (copyright 2009, Gaussian, Inc.),
 the Gaussian(R) 03 system (copyright 2003, Gaussian, Inc.),
 the Gaussian(R) 98 system (copyright 1998, Gaussian, Inc.),
 the Gaussian(R) 94 system (copyright 1995, Gaussian, Inc.),
 the Gaussian 92(TM) system (copyright 1992, Gaussian, Inc.),
 the Gaussian 90(TM) system (copyright 1990, Gaussian, Inc.),
 the Gaussian 88(TM) system (copyright 1988, Gaussian, Inc.),
 the Gaussian 86(TM) system (copyright 1986, Carnegie Mellon
 University), and the Gaussian 82(TM) system (copyright 1983,
 Carnegie Mellon University). Gaussian is a federally registered
 trademark of Gaussian, Inc.
  
 This software contains proprietary and confidential information,
 including trade secrets, belonging to Gaussian, Inc.
  
 This software is provided under written license and may be
 used, copied, transmitted, or stored only in accord with that
 written license.
  
 The following legend is applicable only to US Government
 contracts under FAR:
  
                    RESTRICTED RIGHTS LEGEND
  
 Use, reproduction and disclosure by the US Government is
 subject to restrictions as set forth in subparagraphs (a)
 and (c) of the Commercial Computer Software - Restricted
 Rights clause in FAR 52.227-19.
  
 Gaussian, Inc.
 340 Quinnipiac St., Bldg. 40, Wallingford CT 06492
  
  
 ---------------------------------------------------------------
 Warning -- This program may not be used in any manner that
 competes with the business of Gaussian, Inc. or will provide
 assistance to any competitor of Gaussian, Inc.  The licensee
 of this program is prohibited from giving any competitor of
 Gaussian, Inc. access to this program.  By using this program,
 the user acknowledges that Gaussian, Inc. is engaged in the
 business of creating and licensing software in the field of
 computational chemistry and represents and warrants to the
 licensee that it is not a competitor of Gaussian, Inc. and that
 it will not use this program in any manner prohibited above.
 ---------------------------------------------------------------
  

 Cite this work as:
 Gaussian 16, Revision C.01,
 M. J. Frisch, G. W. Trucks, H. B. Schlegel, G. E. Scuseria, 
 M. A. Robb, J. R. Cheeseman, G. Scalmani, V. Barone, 
 G. A. Petersson, H. Nakatsuji, X. Li, M. Caricato, A. V. Marenich, 
 J. Bloino, B. G. Janesko, R. Gomperts, B. Mennucci, H. P. Hratchian, 
 J. V. Ortiz, A. F. Izmaylov, J. L. Sonnenberg, D. Williams-Young, 
 F. Ding, F. Lipparini, F. Egidi, J. Goings, B. Peng, A. Petrone, 
 T. Henderson, D. Ranasinghe, V. G. Zakrzewski, J. Gao, N. Rega, 
 G. Zheng, W. Liang, M. Hada, M. Ehara, K. Toyota, R. Fukuda, 
 J. Hasegawa, M. Ishida, T. Nakajima, Y. Honda, O. Kitao, H. Nakai, 
 T. Vreven, K. Throssell, J. A. Montgomery, Jr., J. E. Peralta, 
 F. Ogliaro, M. J. Bearpark, J. J. Heyd, E. N. Brothers, K. N. Kudin, 
 V. N. Staroverov, T. A. Keith, R. Kobayashi, J. Normand, 
 K. Raghavachari, A. P. Rendell, J. C. Burant, S. S. Iyengar, 
 J. Tomasi, M. Cossi, J. M. Millam, M. Klene, C. Adamo, R. Cammi, 
 J. W. Ochterski, R. L. Martin, K. Morokuma, O. Farkas, 
 J. B. Foresman, and D. J. Fox, Gaussian, Inc., Wallingford CT, 2019.
 
 ******************************************
 Gaussian 16:  ES64L-G16RevC.01  3-Jul-2019
                 8-Feb-2025 
 ******************************************
 %nprocshared=32
 Will use up to   32 processors via shared memory.
 %mem=100GB
 ------------------------------------------
 #p opt freq b3lyp/def2svpp em=gd3bj nosymm
 ------------------------------------------
 1/18=20,19=15,26=3,38=1/1,3;
 2/9=110,12=2,15=1,17=6,18=5,40=1/2;
 3/5=43,7=202,11=2,25=1,30=1,71=1,74=-5,124=41/1,2,3;
 4//1;
 5/5=2,38=5/2;
 6/7=2,8=2,9=2,10=2,28=1/1;
 7/30=1/1,2,3,16;
 1/18=20,19=15,26=3/3(2);
 2/9=110,15=1/2;
 99//99;
 2/9=110,15=1/2;
 3/5=43,7=202,11=2,25=1,30=1,71=1,74=-5,124=41/1,2,3;
 4/5=5,16=3,69=1/1;
 5/5=2,38=5/2;
 7/30=1/1,2,3,16;
 1/18=20,19=15,26=3/3(-5);
 2/9=110,15=1/2;
 6/7=2,8=2,9=2,10=2,19=2,28=1/1;
 99/9=1/99;
 Leave Link    1 at Sat Feb  8 07:18:32 2025, MaxMem= 13421772800 cpu:               1.7 elap:               0.1
 (Enter /public/software/apps/Gaussian/g16/l101.exe)
 ------------------
 $$$$Title####0????
 ------------------
 Symbolic Z-matrix:
 Charge =  0 Multiplicity = 2
 C                     7.90138   5.28401   2.08015 
 C                     7.96359   4.31164   0.93945 
 C                     8.99586   4.39813  -0.00549 
 C                     9.03076   3.51959  -1.08996 
 C                     8.03042   2.55749  -1.24784 
 C                     6.97701   2.46586  -0.3202 
 C                     5.90833   1.44864  -0.49053 
 C                     5.40951   0.74383   0.61914 
 C                     4.40512  -0.21455   0.45864 
 C                     3.87418  -0.48372  -0.81323 
 C                     2.81674  -1.509    -0.98836 
 C                     2.9693   -2.49703  -1.97114 
 C                     1.98695  -3.47627  -2.162 
 C                     2.15159  -4.44982  -3.1607 
 C                     1.17095  -5.42123  -3.36556 
 C                     0.01784  -5.42821  -2.58135 
 C                    -0.16014  -4.46815  -1.58268 
 C                     0.82493  -3.48393  -1.34957 
 C                     0.67748  -2.50056  -0.33927 
 C                    -0.50725  -2.4775    0.56059 
 C                    -1.45995  -1.45493   0.39552 
 O                    -1.23809  -0.462    -0.55629 
 C                    -2.616    -1.41531   1.19752 
 C                    -3.64271  -0.3615    1.01 
 C                    -4.12312   0.36424   2.11195 
 C                    -5.09969   1.34922   1.94084 
 C                    -5.61898   1.62607   0.66391 
 C                    -6.65753   2.67194   0.48111 
 C                    -7.70785   2.80514   1.40719 
 C                    -8.67939   3.79445   1.23814 
 C                    -8.61888   4.6587    0.14336 
 C                    -7.58979   4.5307   -0.80038 
 C                    -7.49918   5.48715  -1.95247 
 C                    -6.60413   3.54751  -0.61975 
 C                    -5.14122   0.89373  -0.43708 
 C                    -4.16561  -0.09194  -0.26513 
 C                    -2.79772  -2.38668   2.19184 
 C                    -1.84471  -3.39213   2.39456 
 C                    -2.03804  -4.34856   3.40452 
 C                    -1.08668  -5.34618   3.62107 
 C                     0.0656   -5.3966    2.83723 
 C                     0.27191  -4.45399   1.82749 
 C                    -0.68356  -3.44383   1.58257 
 C                     1.66015  -1.50486  -0.18617 
 O                     1.46788  -0.49448   0.75365 
 C                     4.37545   0.21436  -1.92363 
 C                     5.38079   1.17194  -1.76416 
 C                     6.94976   3.35535   0.7704 
 H                     7.41824   4.81819   2.96538 
 H                     7.3145    6.17511   1.77414 
 H                     8.9221    5.60661   2.37708 
 H                     9.77376   5.14466   0.09766 
 H                     9.83589   3.58402  -1.81049 
 H                     8.08807   1.87645  -2.08769 
 H                     5.81193   0.91752   1.60934 
 H                     4.05554  -0.76012   1.32639 
 H                     3.86237  -2.50546  -2.5865 
 H                     3.03719  -4.45718  -3.78525 
 H                     1.30318  -6.16801  -4.13781 
 H                    -0.74305  -6.17958  -2.74914 
 H                    -1.07269  -4.50156  -1.00237 
 H                    -3.73121   0.17805   3.10441 
 H                    -5.43545   1.90748   2.80574 
 H                    -7.78462   2.13661   2.25537 
 H                    -9.48158   3.89156   1.95834 
 H                    -9.3744    5.42658   0.03127 
 H                    -6.88499   6.36317  -1.6569 
 H                    -7.03129   4.99649  -2.83251 
 H                    -8.50974   5.83771  -2.25241 
 H                    -5.78755   3.47763  -1.32855 
 H                    -5.53848   1.06767  -1.42922 
 H                    -3.83263  -0.65787  -1.12643 
 H                    -3.69069  -2.36148   2.80689 
 H                    -2.92332  -4.32225   4.02886 
 H                    -1.24081  -6.07938   4.40225 
 H                     0.80376  -6.16837   3.01368 
 H                     1.18301  -4.52126   1.24786 
 H                     3.97758   0.02804  -2.91371 
 H                     5.73269   1.70942  -2.63576 
 H                     6.13185   3.31756   1.47998 
 Cu                    0.11839   0.78292   0.12272 
 
 ITRead=  0  0  0  0  0  0  0  0  0  0  0  0  0  0  0  0  0  0  0  0
 ITRead=  0  0  0  0  0  0  0  0  0  0  0  0  0  0  0  0  0  0  0  0
 ITRead=  0  0  0  0  0  0  0  0  0  0  0  0  0  0  0  0  0  0  0  0
 ITRead=  0  0  0  0  0  0  0  0  0  0  0  0  0  0  0  0  0  0  0  0
 ITRead=  0
 MicOpt= -1 -1 -1 -1 -1 -1 -1 -1 -1 -1 -1 -1 -1 -1 -1 -1 -1 -1 -1 -1
 MicOpt= -1 -1 -1 -1 -1 -1 -1 -1 -1 -1 -1 -1 -1 -1 -1 -1 -1 -1 -1 -1
 MicOpt= -1 -1 -1 -1 -1 -1 -1 -1 -1 -1 -1 -1 -1 -1 -1 -1 -1 -1 -1 -1
 MicOpt= -1 -1 -1 -1 -1 -1 -1 -1 -1 -1 -1 -1 -1 -1 -1 -1 -1 -1 -1 -1
 MicOpt= -1
 NAtoms=     81 NQM=       81 NQMF=       0 NMMI=      0 NMMIF=      0
                NMic=       0 NMicF=      0.
                    Isotopes and Nuclear Properties:
 (Nuclear quadrupole moments (NQMom) in fm**2, nuclear magnetic moments (NMagM)
  in nuclear magnetons)

  Atom         1           2           3           4           5           6           7           8           9          10
 IAtWgt=          12          12          12          12          12          12          12          12          12          12
 AtmWgt=  12.0000000  12.0000000  12.0000000  12.0000000  12.0000000  12.0000000  12.0000000  12.0000000  12.0000000  12.0000000
 NucSpn=           0           0           0           0           0           0           0           0           0           0
 AtZEff=  -0.0000000  -0.0000000  -0.0000000  -0.0000000  -0.0000000  -0.0000000  -0.0000000  -0.0000000  -0.0000000  -0.0000000
 NQMom=    0.0000000   0.0000000   0.0000000   0.0000000   0.0000000   0.0000000   0.0000000   0.0000000   0.0000000   0.0000000
 NMagM=    0.0000000   0.0000000   0.0000000   0.0000000   0.0000000   0.0000000   0.0000000   0.0000000   0.0000000   0.0000000
 AtZNuc=   6.0000000   6.0000000   6.0000000   6.0000000   6.0000000   6.0000000   6.0000000   6.0000000   6.0000000   6.0000000

  Atom        11          12          13          14          15          16          17          18          19          20
 IAtWgt=          12          12          12          12          12          12          12          12          12          12
 AtmWgt=  12.0000000  12.0000000  12.0000000  12.0000000  12.0000000  12.0000000  12.0000000  12.0000000  12.0000000  12.0000000
 NucSpn=           0           0           0           0           0           0           0           0           0           0
 AtZEff=  -0.0000000  -0.0000000  -0.0000000  -0.0000000  -0.0000000  -0.0000000  -0.0000000  -0.0000000  -0.0000000  -0.0000000
 NQMom=    0.0000000   0.0000000   0.0000000   0.0000000   0.0000000   0.0000000   0.0000000   0.0000000   0.0000000   0.0000000
 NMagM=    0.0000000   0.0000000   0.0000000   0.0000000   0.0000000   0.0000000   0.0000000   0.0000000   0.0000000   0.0000000
 AtZNuc=   6.0000000   6.0000000   6.0000000   6.0000000   6.0000000   6.0000000   6.0000000   6.0000000   6.0000000   6.0000000

  Atom        21          22          23          24          25          26          27          28          29          30
 IAtWgt=          12          16          12          12          12          12          12          12          12          12
 AtmWgt=  12.0000000  15.9949146  12.0000000  12.0000000  12.0000000  12.0000000  12.0000000  12.0000000  12.0000000  12.0000000
 NucSpn=           0           0           0           0           0           0           0           0           0           0
 AtZEff=  -0.0000000  -0.0000000  -0.0000000  -0.0000000  -0.0000000  -0.0000000  -0.0000000  -0.0000000  -0.0000000  -0.0000000
 NQMom=    0.0000000   0.0000000   0.0000000   0.0000000   0.0000000   0.0000000   0.0000000   0.0000000   0.0000000   0.0000000
 NMagM=    0.0000000   0.0000000   0.0000000   0.0000000   0.0000000   0.0000000   0.0000000   0.0000000   0.0000000   0.0000000
 AtZNuc=   6.0000000   8.0000000   6.0000000   6.0000000   6.0000000   6.0000000   6.0000000   6.0000000   6.0000000   6.0000000

  Atom        31          32          33          34          35          36          37          38          39          40
 IAtWgt=          12          12          12          12          12          12          12          12          12          12
 AtmWgt=  12.0000000  12.0000000  12.0000000  12.0000000  12.0000000  12.0000000  12.0000000  12.0000000  12.0000000  12.0000000
 NucSpn=           0           0           0           0           0           0           0           0           0           0
 AtZEff=  -0.0000000  -0.0000000  -0.0000000  -0.0000000  -0.0000000  -0.0000000  -0.0000000  -0.0000000  -0.0000000  -0.0000000
 NQMom=    0.0000000   0.0000000   0.0000000   0.0000000   0.0000000   0.0000000   0.0000000   0.0000000   0.0000000   0.0000000
 NMagM=    0.0000000   0.0000000   0.0000000   0.0000000   0.0000000   0.0000000   0.0000000   0.0000000   0.0000000   0.0000000
 AtZNuc=   6.0000000   6.0000000   6.0000000   6.0000000   6.0000000   6.0000000   6.0000000   6.0000000   6.0000000   6.0000000

  Atom        41          42          43          44          45          46          47          48          49          50
 IAtWgt=          12          12          12          12          16          12          12          12           1           1
 AtmWgt=  12.0000000  12.0000000  12.0000000  12.0000000  15.9949146  12.0000000  12.0000000  12.0000000   1.0078250   1.0078250
 NucSpn=           0           0           0           0           0           0           0           0           1           1
 AtZEff=  -0.0000000  -0.0000000  -0.0000000  -0.0000000  -0.0000000  -0.0000000  -0.0000000  -0.0000000  -0.0000000  -0.0000000
 NQMom=    0.0000000   0.0000000   0.0000000   0.0000000   0.0000000   0.0000000   0.0000000   0.0000000   0.0000000   0.0000000
 NMagM=    0.0000000   0.0000000   0.0000000   0.0000000   0.0000000   0.0000000   0.0000000   0.0000000   2.7928460   2.7928460
 AtZNuc=   6.0000000   6.0000000   6.0000000   6.0000000   8.0000000   6.0000000   6.0000000   6.0000000   1.0000000   1.0000000

  Atom        51          52          53          54          55          56          57          58          59          60
 IAtWgt=           1           1           1           1           1           1           1           1           1           1
 AtmWgt=   1.0078250   1.0078250   1.0078250   1.0078250   1.0078250   1.0078250   1.0078250   1.0078250   1.0078250   1.0078250
 NucSpn=           1           1           1           1           1           1           1           1           1           1
 AtZEff=  -0.0000000  -0.0000000  -0.0000000  -0.0000000  -0.0000000  -0.0000000  -0.0000000  -0.0000000  -0.0000000  -0.0000000
 NQMom=    0.0000000   0.0000000   0.0000000   0.0000000   0.0000000   0.0000000   0.0000000   0.0000000   0.0000000   0.0000000
 NMagM=    2.7928460   2.7928460   2.7928460   2.7928460   2.7928460   2.7928460   2.7928460   2.7928460   2.7928460   2.7928460
 AtZNuc=   1.0000000   1.0000000   1.0000000   1.0000000   1.0000000   1.0000000   1.0000000   1.0000000   1.0000000   1.0000000

  Atom        61          62          63          64          65          66          67          68          69          70
 IAtWgt=           1           1           1           1           1           1           1           1           1           1
 AtmWgt=   1.0078250   1.0078250   1.0078250   1.0078250   1.0078250   1.0078250   1.0078250   1.0078250   1.0078250   1.0078250
 NucSpn=           1           1           1           1           1           1           1           1           1           1
 AtZEff=  -0.0000000  -0.0000000  -0.0000000  -0.0000000  -0.0000000  -0.0000000  -0.0000000  -0.0000000  -0.0000000  -0.0000000
 NQMom=    0.0000000   0.0000000   0.0000000   0.0000000   0.0000000   0.0000000   0.0000000   0.0000000   0.0000000   0.0000000
 NMagM=    2.7928460   2.7928460   2.7928460   2.7928460   2.7928460   2.7928460   2.7928460   2.7928460   2.7928460   2.7928460
 AtZNuc=   1.0000000   1.0000000   1.0000000   1.0000000   1.0000000   1.0000000   1.0000000   1.0000000   1.0000000   1.0000000

  Atom        71          72          73          74          75          76          77          78          79          80
 IAtWgt=           1           1           1           1           1           1           1           1           1           1
 AtmWgt=   1.0078250   1.0078250   1.0078250   1.0078250   1.0078250   1.0078250   1.0078250   1.0078250   1.0078250   1.0078250
 NucSpn=           1           1           1           1           1           1           1           1           1           1
 AtZEff=  -0.0000000  -0.0000000  -0.0000000  -0.0000000  -0.0000000  -0.0000000  -0.0000000  -0.0000000  -0.0000000  -0.0000000
 NQMom=    0.0000000   0.0000000   0.0000000   0.0000000   0.0000000   0.0000000   0.0000000   0.0000000   0.0000000   0.0000000
 NMagM=    2.7928460   2.7928460   2.7928460   2.7928460   2.7928460   2.7928460   2.7928460   2.7928460   2.7928460   2.7928460
 AtZNuc=   1.0000000   1.0000000   1.0000000   1.0000000   1.0000000   1.0000000   1.0000000   1.0000000   1.0000000   1.0000000

  Atom        81
 IAtWgt=          63
 AtmWgt=  62.9295992
 NucSpn=           3
 AtZEff=  -0.0000000
 NQMom=  -22.0000000
 NMagM=    2.2233000
 AtZNuc=  29.0000000
 Leave Link  101 at Sat Feb  8 07:18:32 2025, MaxMem= 13421772800 cpu:               3.3 elap:               0.1
 (Enter /public/software/apps/Gaussian/g16/l103.exe)

 GradGradGradGradGradGradGradGradGradGradGradGradGradGradGradGradGradGrad
 Berny optimization.
 Initialization pass.
                           ----------------------------
                           !    Initial Parameters    !
                           ! (Angstroms and Degrees)  !
 --------------------------                            --------------------------
 ! Name  Definition              Value          Derivative Info.                !
 --------------------------------------------------------------------------------
 ! R1    R(1,2)                  1.5002         estimate D2E/DX2                !
 ! R2    R(1,49)                 1.1109         estimate D2E/DX2                !
 ! R3    R(1,50)                 1.11           estimate D2E/DX2                !
 ! R4    R(1,51)                 1.1109         estimate D2E/DX2                !
 ! R5    R(2,3)                  1.4021         estimate D2E/DX2                !
 ! R6    R(2,48)                 1.4039         estimate D2E/DX2                !
 ! R7    R(3,4)                  1.3961         estimate D2E/DX2                !
 ! R8    R(3,52)                 1.0831         estimate D2E/DX2                !
 ! R9    R(4,5)                  1.3969         estimate D2E/DX2                !
 ! R10   R(4,53)                 1.0824         estimate D2E/DX2                !
 ! R11   R(5,6)                  1.4066         estimate D2E/DX2                !
 ! R12   R(5,54)                 1.0828         estimate D2E/DX2                !
 ! R13   R(6,7)                  1.4852         estimate D2E/DX2                !
 ! R14   R(6,48)                 1.4076         estimate D2E/DX2                !
 ! R15   R(7,8)                  1.406          estimate D2E/DX2                !
 ! R16   R(7,47)                 1.4061         estimate D2E/DX2                !
 ! R17   R(8,9)                  1.3975         estimate D2E/DX2                !
 ! R18   R(8,55)                 1.0829         estimate D2E/DX2                !
 ! R19   R(9,10)                 1.4043         estimate D2E/DX2                !
 ! R20   R(9,56)                 1.083          estimate D2E/DX2                !
 ! R21   R(10,11)                1.4833         estimate D2E/DX2                !
 ! R22   R(10,46)                1.4041         estimate D2E/DX2                !
 ! R23   R(11,12)                1.4019         estimate D2E/DX2                !
 ! R24   R(11,44)                1.4076         estimate D2E/DX2                !
 ! R25   R(12,13)                1.4001         estimate D2E/DX2                !
 ! R26   R(12,57)                1.0846         estimate D2E/DX2                !
 ! R27   R(13,14)                1.4044         estimate D2E/DX2                !
 ! R28   R(13,18)                1.4179         estimate D2E/DX2                !
 ! R29   R(14,15)                1.3954         estimate D2E/DX2                !
 ! R30   R(14,58)                1.0837         estimate D2E/DX2                !
 ! R31   R(15,16)                1.3945         estimate D2E/DX2                !
 ! R32   R(15,59)                1.0824         estimate D2E/DX2                !
 ! R33   R(16,17)                1.3967         estimate D2E/DX2                !
 ! R34   R(16,60)                1.0824         estimate D2E/DX2                !
 ! R35   R(17,18)                1.4119         estimate D2E/DX2                !
 ! R36   R(17,61)                1.082          estimate D2E/DX2                !
 ! R37   R(18,19)                1.4176         estimate D2E/DX2                !
 ! R38   R(19,20)                1.4879         estimate D2E/DX2                !
 ! R39   R(19,44)                1.4073         estimate D2E/DX2                !
 ! R40   R(20,21)                1.4073         estimate D2E/DX2                !
 ! R41   R(20,43)                1.4175         estimate D2E/DX2                !
 ! R42   R(21,22)                1.3932         estimate D2E/DX2                !
 ! R43   R(21,23)                1.4076         estimate D2E/DX2                !
 ! R44   R(22,81)                1.9624         estimate D2E/DX2                !
 ! R45   R(23,24)                1.4832         estimate D2E/DX2                !
 ! R46   R(23,37)                1.4019         estimate D2E/DX2                !
 ! R47   R(24,25)                1.4042         estimate D2E/DX2                !
 ! R48   R(24,36)                1.4043         estimate D2E/DX2                !
 ! R49   R(25,26)                1.3976         estimate D2E/DX2                !
 ! R50   R(25,62)                1.0832         estimate D2E/DX2                !
 ! R51   R(26,27)                1.406          estimate D2E/DX2                !
 ! R52   R(26,63)                1.0828         estimate D2E/DX2                !
 ! R53   R(27,28)                1.4852         estimate D2E/DX2                !
 ! R54   R(27,35)                1.406          estimate D2E/DX2                !
 ! R55   R(28,29)                1.4066         estimate D2E/DX2                !
 ! R56   R(28,34)                1.4076         estimate D2E/DX2                !
 ! R57   R(29,30)                1.3969         estimate D2E/DX2                !
 ! R58   R(29,64)                1.0827         estimate D2E/DX2                !
 ! R59   R(30,31)                1.3961         estimate D2E/DX2                !
 ! R60   R(30,65)                1.0824         estimate D2E/DX2                !
 ! R61   R(31,32)                1.4022         estimate D2E/DX2                !
 ! R62   R(31,66)                1.0831         estimate D2E/DX2                !
 ! R63   R(32,33)                1.5001         estimate D2E/DX2                !
 ! R64   R(32,34)                1.4039         estimate D2E/DX2                !
 ! R65   R(33,67)                1.11           estimate D2E/DX2                !
 ! R66   R(33,68)                1.1109         estimate D2E/DX2                !
 ! R67   R(33,69)                1.1109         estimate D2E/DX2                !
 ! R68   R(34,70)                1.0836         estimate D2E/DX2                !
 ! R69   R(35,36)                1.3975         estimate D2E/DX2                !
 ! R70   R(35,71)                1.0828         estimate D2E/DX2                !
 ! R71   R(36,72)                1.083          estimate D2E/DX2                !
 ! R72   R(37,38)                1.4001         estimate D2E/DX2                !
 ! R73   R(37,73)                1.0846         estimate D2E/DX2                !
 ! R74   R(38,39)                1.4043         estimate D2E/DX2                !
 ! R75   R(38,43)                1.4178         estimate D2E/DX2                !
 ! R76   R(39,40)                1.3954         estimate D2E/DX2                !
 ! R77   R(39,74)                1.0836         estimate D2E/DX2                !
 ! R78   R(40,41)                1.3945         estimate D2E/DX2                !
 ! R79   R(40,75)                1.0824         estimate D2E/DX2                !
 ! R80   R(41,42)                1.3967         estimate D2E/DX2                !
 ! R81   R(41,76)                1.0824         estimate D2E/DX2                !
 ! R82   R(42,43)                1.4118         estimate D2E/DX2                !
 ! R83   R(42,77)                1.0819         estimate D2E/DX2                !
 ! R84   R(44,45)                1.3932         estimate D2E/DX2                !
 ! R85   R(45,81)                1.9624         estimate D2E/DX2                !
 ! R86   R(46,47)                1.3975         estimate D2E/DX2                !
 ! R87   R(46,78)                1.0832         estimate D2E/DX2                !
 ! R88   R(47,79)                1.0828         estimate D2E/DX2                !
 ! R89   R(48,80)                1.0835         estimate D2E/DX2                !
 ! A1    A(2,1,49)             110.6193         estimate D2E/DX2                !
 ! A2    A(2,1,50)             109.4287         estimate D2E/DX2                !
 ! A3    A(2,1,51)             110.6927         estimate D2E/DX2                !
 ! A4    A(49,1,50)            109.049          estimate D2E/DX2                !
 ! A5    A(49,1,51)            107.962          estimate D2E/DX2                !
 ! A6    A(50,1,51)            109.048          estimate D2E/DX2                !
 ! A7    A(1,2,3)              120.1974         estimate D2E/DX2                !
 ! A8    A(1,2,48)             120.2069         estimate D2E/DX2                !
 ! A9    A(3,2,48)             119.5071         estimate D2E/DX2                !
 ! A10   A(2,3,4)              120.2038         estimate D2E/DX2                !
 ! A11   A(2,3,52)             120.4717         estimate D2E/DX2                !
 ! A12   A(4,3,52)             119.3244         estimate D2E/DX2                !
 ! A13   A(3,4,5)              120.2195         estimate D2E/DX2                !
 ! A14   A(3,4,53)             119.8826         estimate D2E/DX2                !
 ! A15   A(5,4,53)             119.898          estimate D2E/DX2                !
 ! A16   A(4,5,6)              120.4398         estimate D2E/DX2                !
 ! A17   A(4,5,54)             118.8639         estimate D2E/DX2                !
 ! A18   A(6,5,54)             120.6909         estimate D2E/DX2                !
 ! A19   A(5,6,7)              120.5209         estimate D2E/DX2                !
 ! A20   A(5,6,48)             118.9663         estimate D2E/DX2                !
 ! A21   A(7,6,48)             120.5126         estimate D2E/DX2                !
 ! A22   A(6,7,8)              120.5371         estimate D2E/DX2                !
 ! A23   A(6,7,47)             120.5728         estimate D2E/DX2                !
 ! A24   A(8,7,47)             118.89           estimate D2E/DX2                !
 ! A25   A(7,8,9)              120.5371         estimate D2E/DX2                !
 ! A26   A(7,8,55)             120.6255         estimate D2E/DX2                !
 ! A27   A(9,8,55)             118.823          estimate D2E/DX2                !
 ! A28   A(8,9,10)             120.4775         estimate D2E/DX2                !
 ! A29   A(8,9,56)             119.0414         estimate D2E/DX2                !
 ! A30   A(10,9,56)            120.4708         estimate D2E/DX2                !
 ! A31   A(9,10,11)            120.5963         estimate D2E/DX2                !
 ! A32   A(9,10,46)            119.0763         estimate D2E/DX2                !
 ! A33   A(11,10,46)           120.3172         estimate D2E/DX2                !
 ! A34   A(10,11,12)           119.4958         estimate D2E/DX2                !
 ! A35   A(10,11,44)           121.0959         estimate D2E/DX2                !
 ! A36   A(12,11,44)           119.4081         estimate D2E/DX2                !
 ! A37   A(11,12,13)           120.8052         estimate D2E/DX2                !
 ! A38   A(11,12,57)           119.5269         estimate D2E/DX2                !
 ! A39   A(13,12,57)           119.6669         estimate D2E/DX2                !
 ! A40   A(12,13,14)           119.9677         estimate D2E/DX2                !
 ! A41   A(12,13,18)           120.0453         estimate D2E/DX2                !
 ! A42   A(14,13,18)           119.9869         estimate D2E/DX2                !
 ! A43   A(13,14,15)           120.3034         estimate D2E/DX2                !
 ! A44   A(13,14,58)           120.6868         estimate D2E/DX2                !
 ! A45   A(15,14,58)           119.0094         estimate D2E/DX2                !
 ! A46   A(14,15,16)           120.1337         estimate D2E/DX2                !
 ! A47   A(14,15,59)           119.9463         estimate D2E/DX2                !
 ! A48   A(16,15,59)           119.9193         estimate D2E/DX2                !
 ! A49   A(15,16,17)           120.2665         estimate D2E/DX2                !
 ! A50   A(15,16,60)           119.8385         estimate D2E/DX2                !
 ! A51   A(17,16,60)           119.8949         estimate D2E/DX2                !
 ! A52   A(16,17,18)           120.5524         estimate D2E/DX2                !
 ! A53   A(16,17,61)           118.0184         estimate D2E/DX2                !
 ! A54   A(18,17,61)           121.4286         estimate D2E/DX2                !
 ! A55   A(13,18,17)           118.7483         estimate D2E/DX2                !
 ! A56   A(13,18,19)           119.3316         estimate D2E/DX2                !
 ! A57   A(17,18,19)           121.917          estimate D2E/DX2                !
 ! A58   A(18,19,20)           121.6412         estimate D2E/DX2                !
 ! A59   A(18,19,44)           119.7176         estimate D2E/DX2                !
 ! A60   A(20,19,44)           118.635          estimate D2E/DX2                !
 ! A61   A(19,20,21)           118.643          estimate D2E/DX2                !
 ! A62   A(19,20,43)           121.6344         estimate D2E/DX2                !
 ! A63   A(21,20,43)           119.7164         estimate D2E/DX2                !
 ! A64   A(20,21,22)           119.3521         estimate D2E/DX2                !
 ! A65   A(20,21,23)           120.6387         estimate D2E/DX2                !
 ! A66   A(22,21,23)           119.9989         estimate D2E/DX2                !
 ! A67   A(21,22,81)           109.015          estimate D2E/DX2                !
 ! A68   A(21,23,24)           121.0983         estimate D2E/DX2                !
 ! A69   A(21,23,37)           119.4124         estimate D2E/DX2                !
 ! A70   A(24,23,37)           119.4891         estimate D2E/DX2                !
 ! A71   A(23,24,25)           120.3197         estimate D2E/DX2                !
 ! A72   A(23,24,36)           120.5937         estimate D2E/DX2                !
 ! A73   A(25,24,36)           119.0763         estimate D2E/DX2                !
 ! A74   A(24,25,26)           120.4804         estimate D2E/DX2                !
 ! A75   A(24,25,62)           120.4252         estimate D2E/DX2                !
 ! A76   A(26,25,62)           119.0885         estimate D2E/DX2                !
 ! A77   A(25,26,27)           120.5344         estimate D2E/DX2                !
 ! A78   A(25,26,63)           118.8325         estimate D2E/DX2                !
 ! A79   A(27,26,63)           120.6234         estimate D2E/DX2                !
 ! A80   A(26,27,28)           120.5779         estimate D2E/DX2                !
 ! A81   A(26,27,35)           118.8897         estimate D2E/DX2                !
 ! A82   A(28,27,35)           120.5322         estimate D2E/DX2                !
 ! A83   A(27,28,29)           120.5166         estimate D2E/DX2                !
 ! A84   A(27,28,34)           120.5147         estimate D2E/DX2                !
 ! A85   A(29,28,34)           118.9685         estimate D2E/DX2                !
 ! A86   A(28,29,30)           120.4465         estimate D2E/DX2                !
 ! A87   A(28,29,64)           120.6807         estimate D2E/DX2                !
 ! A88   A(30,29,64)           118.8686         estimate D2E/DX2                !
 ! A89   A(29,30,31)           120.2108         estimate D2E/DX2                !
 ! A90   A(29,30,65)           119.8989         estimate D2E/DX2                !
 ! A91   A(31,30,65)           119.8903         estimate D2E/DX2                !
 ! A92   A(30,31,32)           120.2047         estimate D2E/DX2                !
 ! A93   A(30,31,66)           119.3281         estimate D2E/DX2                !
 ! A94   A(32,31,66)           120.4673         estimate D2E/DX2                !
 ! A95   A(31,32,33)           120.201          estimate D2E/DX2                !
 ! A96   A(31,32,34)           119.5136         estimate D2E/DX2                !
 ! A97   A(33,32,34)           120.1955         estimate D2E/DX2                !
 ! A98   A(32,33,67)           109.3979         estimate D2E/DX2                !
 ! A99   A(32,33,68)           110.6231         estimate D2E/DX2                !
 ! A100  A(32,33,69)           110.7088         estimate D2E/DX2                !
 ! A101  A(67,33,68)           109.0551         estimate D2E/DX2                !
 ! A102  A(67,33,69)           109.0393         estimate D2E/DX2                !
 ! A103  A(68,33,69)           107.9761         estimate D2E/DX2                !
 ! A104  A(28,34,32)           120.6394         estimate D2E/DX2                !
 ! A105  A(28,34,70)           120.0043         estimate D2E/DX2                !
 ! A106  A(32,34,70)           119.348          estimate D2E/DX2                !
 ! A107  A(27,35,36)           120.5477         estimate D2E/DX2                !
 ! A108  A(27,35,71)           120.6093         estimate D2E/DX2                !
 ! A109  A(36,35,71)           118.8287         estimate D2E/DX2                !
 ! A110  A(24,36,35)           120.4689         estimate D2E/DX2                !
 ! A111  A(24,36,72)           120.4864         estimate D2E/DX2                !
 ! A112  A(35,36,72)           119.0343         estimate D2E/DX2                !
 ! A113  A(23,37,38)           120.8013         estimate D2E/DX2                !
 ! A114  A(23,37,73)           119.5284         estimate D2E/DX2                !
 ! A115  A(38,37,73)           119.6692         estimate D2E/DX2                !
 ! A116  A(37,38,39)           119.9675         estimate D2E/DX2                !
 ! A117  A(37,38,43)           120.0471         estimate D2E/DX2                !
 ! A118  A(39,38,43)           119.9852         estimate D2E/DX2                !
 ! A119  A(38,39,40)           120.3075         estimate D2E/DX2                !
 ! A120  A(38,39,74)           120.6838         estimate D2E/DX2                !
 ! A121  A(40,39,74)           119.0083         estimate D2E/DX2                !
 ! A122  A(39,40,41)           120.1302         estimate D2E/DX2                !
 ! A123  A(39,40,75)           119.9462         estimate D2E/DX2                !
 ! A124  A(41,40,75)           119.9229         estimate D2E/DX2                !
 ! A125  A(40,41,42)           120.2662         estimate D2E/DX2                !
 ! A126  A(40,41,76)           119.8443         estimate D2E/DX2                !
 ! A127  A(42,41,76)           119.8893         estimate D2E/DX2                !
 ! A128  A(41,42,43)           120.553          estimate D2E/DX2                !
 ! A129  A(41,42,77)           118.0174         estimate D2E/DX2                !
 ! A130  A(43,42,77)           121.429          estimate D2E/DX2                !
 ! A131  A(20,43,38)           119.3336         estimate D2E/DX2                !
 ! A132  A(20,43,42)           121.9145         estimate D2E/DX2                !
 ! A133  A(38,43,42)           118.749          estimate D2E/DX2                !
 ! A134  A(11,44,19)           120.6423         estimate D2E/DX2                !
 ! A135  A(11,44,45)           119.9984         estimate D2E/DX2                !
 ! A136  A(19,44,45)           119.3488         estimate D2E/DX2                !
 ! A137  A(44,45,81)           110.4925         estimate D2E/DX2                !
 ! A138  A(10,46,47)           120.4793         estimate D2E/DX2                !
 ! A139  A(10,46,78)           120.411          estimate D2E/DX2                !
 ! A140  A(47,46,78)           119.1037         estimate D2E/DX2                !
 ! A141  A(7,47,46)            120.5372         estimate D2E/DX2                !
 ! A142  A(7,47,79)            120.6324         estimate D2E/DX2                !
 ! A143  A(46,47,79)           118.8207         estimate D2E/DX2                !
 ! A144  A(2,48,6)             120.6478         estimate D2E/DX2                !
 ! A145  A(2,48,80)            119.3439         estimate D2E/DX2                !
 ! A146  A(6,48,80)            119.9998         estimate D2E/DX2                !
 ! A147  A(22,81,45)            99.9998         estimate D2E/DX2                !
 ! D1    D(49,1,2,3)          -150.7759         estimate D2E/DX2                !
 ! D2    D(49,1,2,48)           32.6634         estimate D2E/DX2                !
 ! D3    D(50,1,2,3)            89.0596         estimate D2E/DX2                !
 ! D4    D(50,1,2,48)          -87.5011         estimate D2E/DX2                !
 ! D5    D(51,1,2,3)           -31.1498         estimate D2E/DX2                !
 ! D6    D(51,1,2,48)          152.2895         estimate D2E/DX2                !
 ! D7    D(1,2,3,4)           -178.0142         estimate D2E/DX2                !
 ! D8    D(1,2,3,52)             2.041          estimate D2E/DX2                !
 ! D9    D(48,2,3,4)            -1.4295         estimate D2E/DX2                !
 ! D10   D(48,2,3,52)          178.6258         estimate D2E/DX2                !
 ! D11   D(1,2,48,6)           178.0047         estimate D2E/DX2                !
 ! D12   D(1,2,48,80)           -0.9351         estimate D2E/DX2                !
 ! D13   D(3,2,48,6)             1.4203         estimate D2E/DX2                !
 ! D14   D(3,2,48,80)         -177.5196         estimate D2E/DX2                !
 ! D15   D(2,3,4,5)              0.635          estimate D2E/DX2                !
 ! D16   D(2,3,4,53)          -179.3402         estimate D2E/DX2                !
 ! D17   D(52,3,4,5)          -179.4197         estimate D2E/DX2                !
 ! D18   D(52,3,4,53)            0.6051         estimate D2E/DX2                !
 ! D19   D(3,4,5,6)              0.1872         estimate D2E/DX2                !
 ! D20   D(3,4,5,54)          -178.9808         estimate D2E/DX2                !
 ! D21   D(53,4,5,6)          -179.8376         estimate D2E/DX2                !
 ! D22   D(53,4,5,54)            0.9943         estimate D2E/DX2                !
 ! D23   D(4,5,6,7)            179.6527         estimate D2E/DX2                !
 ! D24   D(4,5,6,48)            -0.2003         estimate D2E/DX2                !
 ! D25   D(54,5,6,7)            -1.1946         estimate D2E/DX2                !
 ! D26   D(54,5,6,48)          178.9524         estimate D2E/DX2                !
 ! D27   D(5,6,7,8)            139.0953         estimate D2E/DX2                !
 ! D28   D(5,6,7,47)           -40.7496         estimate D2E/DX2                !
 ! D29   D(48,6,7,8)           -41.054          estimate D2E/DX2                !
 ! D30   D(48,6,7,47)          139.1011         estimate D2E/DX2                !
 ! D31   D(5,6,48,2)            -0.608          estimate D2E/DX2                !
 ! D32   D(5,6,48,80)          178.3249         estimate D2E/DX2                !
 ! D33   D(7,6,48,2)           179.539          estimate D2E/DX2                !
 ! D34   D(7,6,48,80)           -1.5281         estimate D2E/DX2                !
 ! D35   D(6,7,8,9)           -179.9182         estimate D2E/DX2                !
 ! D36   D(6,7,8,55)            -1.3133         estimate D2E/DX2                !
 ! D37   D(47,7,8,9)            -0.0706         estimate D2E/DX2                !
 ! D38   D(47,7,8,55)          178.5342         estimate D2E/DX2                !
 ! D39   D(6,7,47,46)          179.9829         estimate D2E/DX2                !
 ! D40   D(6,7,47,79)           -1.1617         estimate D2E/DX2                !
 ! D41   D(8,7,47,46)            0.1355         estimate D2E/DX2                !
 ! D42   D(8,7,47,79)          178.9909         estimate D2E/DX2                !
 ! D43   D(7,8,9,10)            -0.303          estimate D2E/DX2                !
 ! D44   D(7,8,9,56)           178.5349         estimate D2E/DX2                !
 ! D45   D(55,8,9,10)         -178.9327         estimate D2E/DX2                !
 ! D46   D(55,8,9,56)           -0.0948         estimate D2E/DX2                !
 ! D47   D(8,9,10,11)          179.4459         estimate D2E/DX2                !
 ! D48   D(8,9,10,46)            0.6051         estimate D2E/DX2                !
 ! D49   D(56,9,10,11)           0.6247         estimate D2E/DX2                !
 ! D50   D(56,9,10,46)        -178.2161         estimate D2E/DX2                !
 ! D51   D(9,10,11,12)        -129.6698         estimate D2E/DX2                !
 ! D52   D(9,10,11,44)          50.4901         estimate D2E/DX2                !
 ! D53   D(46,10,11,12)         49.1566         estimate D2E/DX2                !
 ! D54   D(46,10,11,44)       -130.6835         estimate D2E/DX2                !
 ! D55   D(9,10,46,47)          -0.5403         estimate D2E/DX2                !
 ! D56   D(9,10,46,78)        -179.6383         estimate D2E/DX2                !
 ! D57   D(11,10,46,47)       -179.3844         estimate D2E/DX2                !
 ! D58   D(11,10,46,78)          1.5176         estimate D2E/DX2                !
 ! D59   D(10,11,12,13)       -179.8603         estimate D2E/DX2                !
 ! D60   D(10,11,12,57)          0.5081         estimate D2E/DX2                !
 ! D61   D(44,11,12,13)         -0.0175         estimate D2E/DX2                !
 ! D62   D(44,11,12,57)       -179.649          estimate D2E/DX2                !
 ! D63   D(10,11,44,19)       -178.5017         estimate D2E/DX2                !
 ! D64   D(10,11,44,45)          2.6875         estimate D2E/DX2                !
 ! D65   D(12,11,44,19)          1.658          estimate D2E/DX2                !
 ! D66   D(12,11,44,45)       -177.1528         estimate D2E/DX2                !
 ! D67   D(11,12,13,14)        179.3605         estimate D2E/DX2                !
 ! D68   D(11,12,13,18)         -0.5089         estimate D2E/DX2                !
 ! D69   D(57,12,13,14)         -1.0085         estimate D2E/DX2                !
 ! D70   D(57,12,13,18)        179.1221         estimate D2E/DX2                !
 ! D71   D(12,13,14,15)       -179.3799         estimate D2E/DX2                !
 ! D72   D(12,13,14,58)          0.3966         estimate D2E/DX2                !
 ! D73   D(18,13,14,15)          0.4896         estimate D2E/DX2                !
 ! D74   D(18,13,14,58)       -179.734          estimate D2E/DX2                !
 ! D75   D(12,13,18,17)        178.7923         estimate D2E/DX2                !
 ! D76   D(12,13,18,19)         -0.582          estimate D2E/DX2                !
 ! D77   D(14,13,18,17)         -1.077          estimate D2E/DX2                !
 ! D78   D(14,13,18,19)        179.5487         estimate D2E/DX2                !
 ! D79   D(13,14,15,16)          0.2111         estimate D2E/DX2                !
 ! D80   D(13,14,15,59)        179.9164         estimate D2E/DX2                !
 ! D81   D(58,14,15,16)       -179.569          estimate D2E/DX2                !
 ! D82   D(58,14,15,59)          0.1362         estimate D2E/DX2                !
 ! D83   D(14,15,16,17)         -0.3067         estimate D2E/DX2                !
 ! D84   D(14,15,16,60)        179.557          estimate D2E/DX2                !
 ! D85   D(59,15,16,17)        179.9879         estimate D2E/DX2                !
 ! D86   D(59,15,16,60)         -0.1483         estimate D2E/DX2                !
 ! D87   D(15,16,17,18)         -0.3036         estimate D2E/DX2                !
 ! D88   D(15,16,17,61)        179.4133         estimate D2E/DX2                !
 ! D89   D(60,16,17,18)        179.8328         estimate D2E/DX2                !
 ! D90   D(60,16,17,61)         -0.4504         estimate D2E/DX2                !
 ! D91   D(16,17,18,13)          0.988          estimate D2E/DX2                !
 ! D92   D(16,17,18,19)       -179.6547         estimate D2E/DX2                !
 ! D93   D(61,17,18,13)       -178.7191         estimate D2E/DX2                !
 ! D94   D(61,17,18,19)          0.6382         estimate D2E/DX2                !
 ! D95   D(13,18,19,20)       -178.7276         estimate D2E/DX2                !
 ! D96   D(13,18,19,44)          2.1911         estimate D2E/DX2                !
 ! D97   D(17,18,19,20)          1.9187         estimate D2E/DX2                !
 ! D98   D(17,18,19,44)       -177.1627         estimate D2E/DX2                !
 ! D99   D(18,19,20,21)       -108.6884         estimate D2E/DX2                !
 ! D100  D(18,19,20,43)         72.2247         estimate D2E/DX2                !
 ! D101  D(44,19,20,21)         70.4027         estimate D2E/DX2                !
 ! D102  D(44,19,20,43)       -108.6843         estimate D2E/DX2                !
 ! D103  D(18,19,44,11)         -2.7487         estimate D2E/DX2                !
 ! D104  D(18,19,44,45)        176.0697         estimate D2E/DX2                !
 ! D105  D(20,19,44,11)        178.1423         estimate D2E/DX2                !
 ! D106  D(20,19,44,45)         -3.0392         estimate D2E/DX2                !
 ! D107  D(19,20,21,22)         -3.0367         estimate D2E/DX2                !
 ! D108  D(19,20,21,23)        178.1345         estimate D2E/DX2                !
 ! D109  D(43,20,21,22)        176.0682         estimate D2E/DX2                !
 ! D110  D(43,20,21,23)         -2.7606         estimate D2E/DX2                !
 ! D111  D(19,20,43,38)       -178.7154         estimate D2E/DX2                !
 ! D112  D(19,20,43,42)          1.9155         estimate D2E/DX2                !
 ! D113  D(21,20,43,38)          2.2073         estimate D2E/DX2                !
 ! D114  D(21,20,43,42)       -177.1619         estimate D2E/DX2                !
 ! D115  D(20,21,22,81)        -75.4318         estimate D2E/DX2                !
 ! D116  D(23,21,22,81)        103.4046         estimate D2E/DX2                !
 ! D117  D(20,21,23,24)       -178.4896         estimate D2E/DX2                !
 ! D118  D(20,21,23,37)          1.6548         estimate D2E/DX2                !
 ! D119  D(22,21,23,24)          2.6892         estimate D2E/DX2                !
 ! D120  D(22,21,23,37)       -177.1664         estimate D2E/DX2                !
 ! D121  D(21,22,81,45)         47.3651         estimate D2E/DX2                !
 ! D122  D(21,23,24,25)       -130.6927         estimate D2E/DX2                !
 ! D123  D(21,23,24,36)         50.4818         estimate D2E/DX2                !
 ! D124  D(37,23,24,25)         49.1628         estimate D2E/DX2                !
 ! D125  D(37,23,24,36)       -129.6628         estimate D2E/DX2                !
 ! D126  D(21,23,37,38)         -0.0034         estimate D2E/DX2                !
 ! D127  D(21,23,37,73)       -179.6307         estimate D2E/DX2                !
 ! D128  D(24,23,37,38)       -179.8614         estimate D2E/DX2                !
 ! D129  D(24,23,37,73)          0.5114         estimate D2E/DX2                !
 ! D130  D(23,24,25,26)       -179.3932         estimate D2E/DX2                !
 ! D131  D(23,24,25,62)          1.5004         estimate D2E/DX2                !
 ! D132  D(36,24,25,26)         -0.5499         estimate D2E/DX2                !
 ! D133  D(36,24,25,62)       -179.6564         estimate D2E/DX2                !
 ! D134  D(23,24,36,35)        179.4505         estimate D2E/DX2                !
 ! D135  D(23,24,36,72)          0.6357         estimate D2E/DX2                !
 ! D136  D(25,24,36,35)          0.6105         estimate D2E/DX2                !
 ! D137  D(25,24,36,72)       -178.2043         estimate D2E/DX2                !
 ! D138  D(24,25,26,27)          0.1868         estimate D2E/DX2                !
 ! D139  D(24,25,26,63)       -178.6849         estimate D2E/DX2                !
 ! D140  D(62,25,26,27)        179.3051         estimate D2E/DX2                !
 ! D141  D(62,25,26,63)          0.4334         estimate D2E/DX2                !
 ! D142  D(25,26,27,28)        179.9553         estimate D2E/DX2                !
 ! D143  D(25,26,27,35)          0.1215         estimate D2E/DX2                !
 ! D144  D(63,26,27,28)         -1.1933         estimate D2E/DX2                !
 ! D145  D(63,26,27,35)        178.973          estimate D2E/DX2                !
 ! D146  D(26,27,28,29)        -40.7557         estimate D2E/DX2                !
 ! D147  D(26,27,28,34)        139.0801         estimate D2E/DX2                !
 ! D148  D(35,27,28,29)        139.0753         estimate D2E/DX2                !
 ! D149  D(35,27,28,34)        -41.0889         estimate D2E/DX2                !
 ! D150  D(26,27,35,36)         -0.0609         estimate D2E/DX2                !
 ! D151  D(26,27,35,71)        178.5454         estimate D2E/DX2                !
 ! D152  D(28,27,35,36)       -179.8947         estimate D2E/DX2                !
 ! D153  D(28,27,35,71)         -1.2884         estimate D2E/DX2                !
 ! D154  D(27,28,29,30)        179.6168         estimate D2E/DX2                !
 ! D155  D(27,28,29,64)         -1.1344         estimate D2E/DX2                !
 ! D156  D(34,28,29,30)         -0.2216         estimate D2E/DX2                !
 ! D157  D(34,28,29,64)        179.0273         estimate D2E/DX2                !
 ! D158  D(27,28,34,32)        179.5328         estimate D2E/DX2                !
 ! D159  D(27,28,34,70)         -1.5183         estimate D2E/DX2                !
 ! D160  D(29,28,34,32)         -0.6289         estimate D2E/DX2                !
 ! D161  D(29,28,34,70)        178.32           estimate D2E/DX2                !
 ! D162  D(28,29,30,31)          0.2262         estimate D2E/DX2                !
 ! D163  D(28,29,30,65)       -179.757          estimate D2E/DX2                !
 ! D164  D(64,29,30,31)       -179.0361         estimate D2E/DX2                !
 ! D165  D(64,29,30,65)          0.9807         estimate D2E/DX2                !
 ! D166  D(29,30,31,32)          0.6206         estimate D2E/DX2                !
 ! D167  D(29,30,31,66)       -179.4289         estimate D2E/DX2                !
 ! D168  D(65,30,31,32)       -179.3962         estimate D2E/DX2                !
 ! D169  D(65,30,31,66)          0.5543         estimate D2E/DX2                !
 ! D170  D(30,31,32,33)       -178.0148         estimate D2E/DX2                !
 ! D171  D(30,31,32,34)         -1.4571         estimate D2E/DX2                !
 ! D172  D(66,31,32,33)          2.0353         estimate D2E/DX2                !
 ! D173  D(66,31,32,34)        178.593          estimate D2E/DX2                !
 ! D174  D(31,32,33,67)         89.1407         estimate D2E/DX2                !
 ! D175  D(31,32,33,68)       -150.7046         estimate D2E/DX2                !
 ! D176  D(31,32,33,69)        -31.0482         estimate D2E/DX2                !
 ! D177  D(34,32,33,67)        -87.3935         estimate D2E/DX2                !
 ! D178  D(34,32,33,68)         32.7612         estimate D2E/DX2                !
 ! D179  D(34,32,33,69)        152.4177         estimate D2E/DX2                !
 ! D180  D(31,32,34,28)          1.4654         estimate D2E/DX2                !
 ! D181  D(31,32,34,70)       -177.4903         estimate D2E/DX2                !
 ! D182  D(33,32,34,28)        178.0233         estimate D2E/DX2                !
 ! D183  D(33,32,34,70)         -0.9324         estimate D2E/DX2                !
 ! D184  D(27,35,36,24)         -0.3087         estimate D2E/DX2                !
 ! D185  D(27,35,36,72)        178.5232         estimate D2E/DX2                !
 ! D186  D(71,35,36,24)       -178.9395         estimate D2E/DX2                !
 ! D187  D(71,35,36,72)         -0.1077         estimate D2E/DX2                !
 ! D188  D(23,37,38,39)        179.3648         estimate D2E/DX2                !
 ! D189  D(23,37,38,43)         -0.5187         estimate D2E/DX2                !
 ! D190  D(73,37,38,39)         -1.0084         estimate D2E/DX2                !
 ! D191  D(73,37,38,43)        179.1081         estimate D2E/DX2                !
 ! D192  D(37,38,39,40)       -179.3917         estimate D2E/DX2                !
 ! D193  D(37,38,39,74)          0.3802         estimate D2E/DX2                !
 ! D194  D(43,38,39,40)          0.4918         estimate D2E/DX2                !
 ! D195  D(43,38,39,74)       -179.7362         estimate D2E/DX2                !
 ! D196  D(37,38,43,20)         -0.5875         estimate D2E/DX2                !
 ! D197  D(37,38,43,42)        178.8017         estimate D2E/DX2                !
 ! D198  D(39,38,43,20)        179.5291         estimate D2E/DX2                !
 ! D199  D(39,38,43,42)         -1.0817         estimate D2E/DX2                !
 ! D200  D(38,39,40,41)          0.2075         estimate D2E/DX2                !
 ! D201  D(38,39,40,75)        179.8945         estimate D2E/DX2                !
 ! D202  D(74,39,40,41)       -179.5683         estimate D2E/DX2                !
 ! D203  D(74,39,40,75)          0.1187         estimate D2E/DX2                !
 ! D204  D(39,40,41,42)         -0.2991         estimate D2E/DX2                !
 ! D205  D(39,40,41,76)        179.5805         estimate D2E/DX2                !
 ! D206  D(75,40,41,42)       -179.9861         estimate D2E/DX2                !
 ! D207  D(75,40,41,76)         -0.1066         estimate D2E/DX2                !
 ! D208  D(40,41,42,43)         -0.3139         estimate D2E/DX2                !
 ! D209  D(40,41,42,77)        179.4095         estimate D2E/DX2                !
 ! D210  D(76,41,42,43)        179.8066         estimate D2E/DX2                !
 ! D211  D(76,41,42,77)         -0.47           estimate D2E/DX2                !
 ! D212  D(41,42,43,20)       -179.6306         estimate D2E/DX2                !
 ! D213  D(41,42,43,38)          0.9968         estimate D2E/DX2                !
 ! D214  D(77,42,43,20)          0.6556         estimate D2E/DX2                !
 ! D215  D(77,42,43,38)       -178.717          estimate D2E/DX2                !
 ! D216  D(11,44,45,81)        104.9082         estimate D2E/DX2                !
 ! D217  D(19,44,45,81)        -73.918          estimate D2E/DX2                !
 ! D218  D(44,45,81,22)         44.4197         estimate D2E/DX2                !
 ! D219  D(10,46,47,7)           0.1728         estimate D2E/DX2                !
 ! D220  D(10,46,47,79)       -178.7031         estimate D2E/DX2                !
 ! D221  D(78,46,47,7)         179.2825         estimate D2E/DX2                !
 ! D222  D(78,46,47,79)          0.4066         estimate D2E/DX2                !
 --------------------------------------------------------------------------------
 Trust Radius=3.00D-01 FncErr=1.00D-07 GrdErr=1.00D-06 EigMax=2.50D+02 EigMin=1.00D-04
 Number of steps in this run=    468 maximum allowed number of steps=    486.
 GradGradGradGradGradGradGradGradGradGradGradGradGradGradGradGradGradGrad

 Leave Link  103 at Sat Feb  8 07:18:32 2025, MaxMem= 13421772800 cpu:               0.3 elap:               0.0
 (Enter /public/software/apps/Gaussian/g16/l202.exe)
 Symmetry turned off by external request.
 Stoichiometry    C46H32CuO2(2)
 Framework group  C1[X(C46H32CuO2)]
 Deg. of freedom   237
 Full point group                 C1      NOp   1
                          Input orientation:                          
 ---------------------------------------------------------------------
 Center     Atomic      Atomic             Coordinates (Angstroms)
 Number     Number       Type             X           Y           Z
 ---------------------------------------------------------------------
      1          6           0        7.901379    5.284014    2.080152
      2          6           0        7.963588    4.311640    0.939450
      3          6           0        8.995858    4.398134   -0.005487
      4          6           0        9.030757    3.519586   -1.089959
      5          6           0        8.030421    2.557487   -1.247839
      6          6           0        6.977011    2.465858   -0.320199
      7          6           0        5.908333    1.448638   -0.490525
      8          6           0        5.409507    0.743825    0.619139
      9          6           0        4.405125   -0.214546    0.458638
     10          6           0        3.874180   -0.483715   -0.813226
     11          6           0        2.816738   -1.509000   -0.988364
     12          6           0        2.969304   -2.497033   -1.971140
     13          6           0        1.986947   -3.476268   -2.161998
     14          6           0        2.151594   -4.449820   -3.160703
     15          6           0        1.170955   -5.421226   -3.365561
     16          6           0        0.017843   -5.428211   -2.581348
     17          6           0       -0.160136   -4.468149   -1.582676
     18          6           0        0.824925   -3.483933   -1.349568
     19          6           0        0.677483   -2.500559   -0.339267
     20          6           0       -0.507251   -2.477500    0.560589
     21          6           0       -1.459947   -1.454933    0.395521
     22          8           0       -1.238085   -0.462001   -0.556290
     23          6           0       -2.615995   -1.415306    1.197524
     24          6           0       -3.642712   -0.361496    1.009999
     25          6           0       -4.123125    0.364238    2.111948
     26          6           0       -5.099693    1.349220    1.940838
     27          6           0       -5.618981    1.626073    0.663914
     28          6           0       -6.657529    2.671936    0.481106
     29          6           0       -7.707850    2.805136    1.407194
     30          6           0       -8.679393    3.794454    1.238142
     31          6           0       -8.618879    4.658699    0.143356
     32          6           0       -7.589785    4.530695   -0.800384
     33          6           0       -7.499178    5.487152   -1.952466
     34          6           0       -6.604130    3.547505   -0.619747
     35          6           0       -5.141224    0.893730   -0.437084
     36          6           0       -4.165608   -0.091942   -0.265126
     37          6           0       -2.797719   -2.386675    2.191838
     38          6           0       -1.844709   -3.392133    2.394557
     39          6           0       -2.038043   -4.348562    3.404524
     40          6           0       -1.086682   -5.346181    3.621066
     41          6           0        0.065598   -5.396604    2.837231
     42          6           0        0.271906   -4.453985    1.827490
     43          6           0       -0.683556   -3.443835    1.582572
     44          6           0        1.660146   -1.504855   -0.186170
     45          8           0        1.467877   -0.494476    0.753654
     46          6           0        4.375449    0.214357   -1.923628
     47          6           0        5.380788    1.171940   -1.764163
     48          6           0        6.949761    3.355348    0.770403
     49          1           0        7.418244    4.818189    2.965377
     50          1           0        7.314502    6.175109    1.774135
     51          1           0        8.922099    5.606610    2.377080
     52          1           0        9.773761    5.144655    0.097655
     53          1           0        9.835889    3.584024   -1.810493
     54          1           0        8.088070    1.876453   -2.087685
     55          1           0        5.811926    0.917523    1.609338
     56          1           0        4.055540   -0.760119    1.326389
     57          1           0        3.862372   -2.505460   -2.586498
     58          1           0        3.037194   -4.457178   -3.785250
     59          1           0        1.303177   -6.168008   -4.137812
     60          1           0       -0.743050   -6.179580   -2.749144
     61          1           0       -1.072692   -4.501562   -1.002369
     62          1           0       -3.731211    0.178054    3.104410
     63          1           0       -5.435448    1.907482    2.805742
     64          1           0       -7.784623    2.136615    2.255374
     65          1           0       -9.481583    3.891560    1.958338
     66          1           0       -9.374401    5.426583    0.031270
     67          1           0       -6.884987    6.363166   -1.656900
     68          1           0       -7.031289    4.996485   -2.832507
     69          1           0       -8.509735    5.837708   -2.252410
     70          1           0       -5.787547    3.477627   -1.328548
     71          1           0       -5.538484    1.067675   -1.429215
     72          1           0       -3.832626   -0.657866   -1.126432
     73          1           0       -3.690688   -2.361483    2.806891
     74          1           0       -2.923319   -4.322248    4.028865
     75          1           0       -1.240812   -6.079376    4.402251
     76          1           0        0.803759   -6.168367    3.013681
     77          1           0        1.183008   -4.521262    1.247856
     78          1           0        3.977580    0.028042   -2.913710
     79          1           0        5.732687    1.709423   -2.635756
     80          1           0        6.131851    3.317561    1.479978
     81         29           0        0.118394    0.782922    0.122716
 ---------------------------------------------------------------------
 Rotational constants (GHZ):           0.0609029           0.0291701           0.0226810
 Leave Link  202 at Sat Feb  8 07:18:32 2025, MaxMem= 13421772800 cpu:               0.1 elap:               0.0
 (Enter /public/software/apps/Gaussian/g16/l301.exe)
 Standard basis: def2SVPP (5D, 7F)
 Ernie: Thresh=  0.10000D-02 Tol=  0.10000D-05 Strict=F.
   760 basis functions,  1399 primitive gaussians,   810 cartesian basis functions
   177 alpha electrons      176 beta electrons
       nuclear repulsion energy      6013.4573467986 Hartrees.
 IExCor=  402 DFT=T Ex+Corr=B3LYP ExCW=0 ScaHFX=  0.200000
 ScaDFX=  0.800000  0.720000  1.000000  0.810000 ScalE2=  1.000000  1.000000
 IRadAn=      5 IRanWt=     -1 IRanGd=            0 ICorTp=0 IEmpDi=141
 NAtoms=   81 NActive=   81 NUniq=   81 SFac= 1.00D+00 NAtFMM=   60 NAOKFM=T Big=T
 Integral buffers will be    131072 words long.
 Raffenetti 2 integral format.
 Two-electron integral symmetry is turned off.
 R6Disp:  Grimme-D3(BJ) Dispersion energy=       -0.2176985167 Hartrees.
 Nuclear repulsion after empirical dispersion term =     6013.2396482819 Hartrees.
 Leave Link  301 at Sat Feb  8 07:18:32 2025, MaxMem= 13421772800 cpu:               0.7 elap:               0.0
 (Enter /public/software/apps/Gaussian/g16/l302.exe)
 NPDir=0 NMtPBC=     1 NCelOv=     1 NCel=       1 NClECP=     1 NCelD=      1
         NCelK=      1 NCelE2=     1 NClLst=     1 CellRange=     0.0.
 One-electron integrals computed using PRISM.
   1 Symmetry operations used in ECPInt.
 ECPInt:  NShTT=   65703 NPrTT=  269038 LenC2=   44336 LenP2D=  108363.
 LDataN:  DoStor=T MaxTD1= 4 Len=   56
 NBasis=   760 RedAO= T EigKep=  1.66D-04  NBF=   760
 NBsUse=   760 1.00D-06 EigRej= -1.00D+00 NBFU=   760
 Precomputing XC quadrature grid using
 IXCGrd= 4 IRadAn=           5 IRanWt=          -1 IRanGd=           0 AccXCQ= 0.00D+00.
 Generated NRdTot=       0 NPtTot=           0 NUsed=           0 NTot=          32
 NSgBfM=   747   746   747   747   747 MxSgAt=    81 MxSgA2=    81.
 Leave Link  302 at Sat Feb  8 07:18:33 2025, MaxMem= 13421772800 cpu:              31.7 elap:               1.0
 (Enter /public/software/apps/Gaussian/g16/l303.exe)
 DipDrv:  MaxL=1.
 Leave Link  303 at Sat Feb  8 07:18:33 2025, MaxMem= 13421772800 cpu:               3.2 elap:               0.1
 (Enter /public/software/apps/Gaussian/g16/l401.exe)
 ExpMin= 3.30D-02 ExpMax= 7.64D+04 ExpMxC= 1.15D+04 IAcc=3 IRadAn=         5 AccDes= 0.00D+00
 Harris functional with IExCor=  402 and IRadAn=       5 diagonalized for initial guess.
 HarFok:  IExCor=  402 AccDes= 0.00D+00 IRadAn=         5 IDoV= 1 UseB2=F ITyADJ=14
 ICtDFT=  3500011 ScaDFX=  1.000000  1.000000  1.000000  1.000000
 FoFCou: FMM=F IPFlag=           0 FMFlag=      100000 FMFlg1=        2001
         NFxFlg=           0 DoJE=T BraDBF=F KetDBF=T FulRan=T
         wScrn=  0.000000 ICntrl=       500 IOpCl=  0 I1Cent=   200000004 NGrid=           0
         NMat0=    1 NMatS0=      1 NMatT0=    0 NMatD0=    1 NMtDS0=    0 NMtDT0=    0
 Symmetry not used in FoFCou.
 Harris En= -3562.00565637869    
 JPrj=0 DoOrth=F DoCkMO=F.
 Initial guess <Sx>= 0.0000 <Sy>= 0.0000 <Sz>= 0.5000 <S**2>= 0.7500 S= 0.5000
 Leave Link  401 at Sat Feb  8 07:18:35 2025, MaxMem= 13421772800 cpu:              67.2 elap:               2.1
 (Enter /public/software/apps/Gaussian/g16/l502.exe)
 Two-electron integral symmetry not used.
 UHF open shell SCF:
 Using DIIS extrapolation, IDIIS=  1040.
 NGot= 13421772800 LenX= 13420426090 LenY= 13419769180
 Requested convergence on RMS density matrix=1.00D-08 within 128 cycles.
 Requested convergence on MAX density matrix=1.00D-06.
 Requested convergence on             energy=1.00D-06.
 No special actions if energy rises.
 Fock matrices will be formed incrementally for  20 cycles.

 Cycle   1  Pass 1  IDiag  1:
 FoFJK:  IHMeth= 1 ICntrl=       0 DoSepK=F KAlg= 0 I1Cent=           0 FoldK=F
 IRaf= 740000000 NMat=       1 IRICut=       1 DoRegI=T DoRafI=F ISym2E= 0 IDoP0=0 IntGTp=1.
 FoFCou: FMM=T IPFlag=           0 FMFlag=      100000 FMFlg1=        2001
         NFxFlg=           0 DoJE=F BraDBF=F KetDBF=F FulRan=T
         wScrn=  0.000000 ICntrl=         0 IOpCl=  1 I1Cent=           0 NGrid=           0
         NMat0=    1 NMatS0=      1 NMatT0=    0 NMatD0=    1 NMtDS0=    0 NMtDT0=    0
 Symmetry not used in FoFCou.
 FMM levels:  10  Number of levels for PrismC:   9
 E= -3530.23574165835    
 DIIS: error= 3.95D-01 at cycle   1 NSaved=   1.
 NSaved= 1 IEnMin= 1 EnMin= -3530.23574165835     IErMin= 1 ErrMin= 3.95D-01
 ErrMax= 3.95D-01  0.00D+00 EMaxC= 1.00D-01 BMatC= 9.43D+01 BMatP= 9.43D+01
 IDIUse=3 WtCom= 0.00D+00 WtEn= 1.00D+00
 Coeff-Com:  0.100D+01
 Coeff-En:   0.100D+01
 Coeff:      0.100D+01
 Gap=    -2.675 Goal=   None    Shift=    0.000
 Gap=    -2.902 Goal=   None    Shift=    0.000
 GapD=   -2.902 DampG=0.250 DampE=0.125 DampFc=0.1250 IDamp=-1.
 Damping current iteration by 1.25D-01
 RMSDP=2.28D-01 MaxDP=5.13D+01              OVMax= 9.96D-01

 Cycle   2  Pass 1  IDiag  1:
 RMSU=  2.83D-02    CP:  1.18D+00
 E= -3541.06837771600     Delta-E=      -10.832636057647 Rises=F Damp=T
 DIIS: error= 2.56D-01 at cycle   2 NSaved=   2.
 NSaved= 2 IEnMin= 2 EnMin= -3541.06837771600     IErMin= 2 ErrMin= 2.56D-01
 ErrMax= 2.56D-01  0.00D+00 EMaxC= 1.00D-01 BMatC= 3.88D+01 BMatP= 9.43D+01
 IDIUse=3 WtCom= 0.00D+00 WtEn= 1.00D+00
 Coeff-Com: -0.129D+01 0.229D+01
 Coeff-En:   0.000D+00 0.100D+01
 Coeff:      0.000D+00 0.100D+01
 Gap=     0.039 Goal=   None    Shift=    0.000
 Gap=    -0.007 Goal=   None    Shift=    0.000
 RMSDP=3.09D-02 MaxDP=6.62D+00 DE=-1.08D+01 OVMax= 9.59D-01

 Cycle   3  Pass 1  IDiag  1:
 RMSU=  2.62D-02    CP:  9.47D-01  4.38D-01
 E= -3487.20870921432     Delta-E=       53.859668501682 Rises=F Damp=F
 DIIS: error= 1.22D-01 at cycle   3 NSaved=   3.
 NSaved= 3 IEnMin= 2 EnMin= -3541.06837771600     IErMin= 3 ErrMin= 1.22D-01
 ErrMax= 1.22D-01  0.00D+00 EMaxC= 1.00D-01 BMatC= 7.26D+01 BMatP= 3.88D+01
 IDIUse=2 WtCom= 0.00D+00 WtEn= 1.00D+00
 EnCoef did   100 forward-backward iterations
 Coeff-En:   0.634D+00 0.765D-02 0.358D+00
 Coeff:      0.634D+00 0.765D-02 0.358D+00
 Gap=    -0.210 Goal=   None    Shift=    0.000
 Gap=    -0.028 Goal=   None    Shift=    0.000
 RMSDP=2.77D-02 MaxDP=6.45D+00 DE= 5.39D+01 OVMax= 9.79D-01

 Cycle   4  Pass 1  IDiag  1:
 RMSU=  9.03D-03    CP:  9.08D-01  4.46D-02  9.63D-02
 E= -3545.11137307898     Delta-E=      -57.902663864663 Rises=F Damp=F
 DIIS: error= 2.01D-01 at cycle   4 NSaved=   4.
 NSaved= 4 IEnMin= 4 EnMin= -3545.11137307898     IErMin= 3 ErrMin= 1.22D-01
 ErrMax= 2.01D-01  0.00D+00 EMaxC= 1.00D-01 BMatC= 4.83D+01 BMatP= 3.88D+01
 IDIUse=2 WtCom= 0.00D+00 WtEn= 1.00D+00
 EnCoef did   100 forward-backward iterations
 Coeff-En:   0.387D+00 0.223D-01 0.175D+00 0.415D+00
 Coeff:      0.387D+00 0.223D-01 0.175D+00 0.415D+00
 Gap=     0.164 Goal=   None    Shift=    0.000
 Gap=    -0.144 Goal=   None    Shift=    0.000
 RMSDP=1.24D-02 MaxDP=1.94D+00 DE=-5.79D+01 OVMax= 9.70D-01

 Cycle   5  Pass 1  IDiag  1:
 RMSU=  8.98D-03    CP:  8.85D-01  4.96D-03  1.18D-01  6.57D-02
 E= -3518.42591054117     Delta-E=       26.685462537807 Rises=F Damp=F
 DIIS: error= 1.41D-01 at cycle   5 NSaved=   5.
 NSaved= 5 IEnMin= 4 EnMin= -3545.11137307898     IErMin= 3 ErrMin= 1.22D-01
 ErrMax= 1.41D-01  0.00D+00 EMaxC= 1.00D-01 BMatC= 6.76D+01 BMatP= 3.88D+01
 IDIUse=2 WtCom= 0.00D+00 WtEn= 1.00D+00
 EnCoef did   100 forward-backward iterations
 Coeff-En:   0.227D+00 0.112D-01 0.000D+00 0.516D+00 0.246D+00
 Coeff:      0.227D+00 0.112D-01 0.000D+00 0.516D+00 0.246D+00
 Gap=    -0.052 Goal=   None    Shift=    0.000
 Gap=     0.734 Goal=   None    Shift=    0.000
 RMSDP=1.22D-02 MaxDP=2.00D+00 DE= 2.67D+01 OVMax= 9.72D-01

 Cycle   6  Pass 1  IDiag  1:
 RMSU=  9.42D-03    CP:  9.05D-01  7.90D-02  2.15D-01  9.91D-02  2.29D-01
 E= -3510.87664005864     Delta-E=        7.549270482532 Rises=F Damp=F
 DIIS: error= 8.22D-02 at cycle   6 NSaved=   6.
 NSaved= 6 IEnMin= 4 EnMin= -3545.11137307898     IErMin= 6 ErrMin= 8.22D-02
 ErrMax= 8.22D-02  0.00D+00 EMaxC= 1.00D-01 BMatC= 7.58D+01 BMatP= 3.88D+01
 IDIUse=2 WtCom= 0.00D+00 WtEn= 1.00D+00
 EnCoef did   100 forward-backward iterations
 Coeff-En:   0.223D+00 0.661D-02 0.000D+00 0.436D+00 0.223D+00 0.113D+00
 Coeff:      0.223D+00 0.661D-02 0.000D+00 0.436D+00 0.223D+00 0.113D+00
 Gap=     0.079 Goal=   None    Shift=    0.000
 Gap=     0.377 Goal=   None    Shift=    0.000
 RMSDP=9.94D-03 MaxDP=1.76D+00 DE= 7.55D+00 OVMax= 9.68D-01

 Cycle   7  Pass 1  IDiag  1:
 RMSU=  4.00D-03    CP:  8.83D-01  6.46D-03  7.06D-02  1.36D-01  2.31D-01
                    CP:  1.51D-01
 E= -3559.01509580302     Delta-E=      -48.138455744378 Rises=F Damp=F
 DIIS: error= 5.32D-02 at cycle   7 NSaved=   7.
 NSaved= 7 IEnMin= 7 EnMin= -3559.01509580302     IErMin= 7 ErrMin= 5.32D-02
 ErrMax= 5.32D-02  0.00D+00 EMaxC= 1.00D-01 BMatC= 7.21D+00 BMatP= 3.88D+01
 IDIUse=3 WtCom= 4.68D-01 WtEn= 5.32D-01
 EnCoef did   100 forward-backward iterations
 Coeff-Com: -0.194D+00 0.456D+00 0.169D-01 0.141D+00 0.531D-01-0.384D-02
 Coeff-Com:  0.532D+00
 Coeff-En:   0.145D+00 0.283D-02 0.000D+00 0.370D-01 0.000D+00 0.000D+00
 Coeff-En:   0.816D+00
 Coeff:     -0.140D-01 0.215D+00 0.791D-02 0.856D-01 0.249D-01-0.180D-02
 Coeff:      0.682D+00
 Gap=    -0.050 Goal=   None    Shift=    0.000
 Gap=    -0.100 Goal=   None    Shift=    0.000
 RMSDP=8.81D-03 MaxDP=1.57D+00 DE=-4.81D+01 OVMax= 9.96D-01

 Cycle   8  Pass 1  IDiag  1:
 RMSU=  7.61D-03    CP:  8.97D-01  2.55D-02  2.20D-02  2.40D-01  1.57D-01
                    CP:  6.23D-02  1.22D-02
 E= -3533.89778744344     Delta-E=       25.117308359579 Rises=F Damp=F
 DIIS: error= 8.94D-02 at cycle   8 NSaved=   8.
 NSaved= 8 IEnMin= 7 EnMin= -3559.01509580302     IErMin= 7 ErrMin= 5.32D-02
 ErrMax= 8.94D-02  0.00D+00 EMaxC= 1.00D-01 BMatC= 5.24D+01 BMatP= 7.21D+00
 IDIUse=2 WtCom= 0.00D+00 WtEn= 1.00D+00
 EnCoef did   100 forward-backward iterations
 Coeff-En:   0.106D+00 0.243D-02 0.000D+00 0.000D+00 0.000D+00 0.000D+00
 Coeff-En:   0.792D+00 0.991D-01
 Coeff:      0.106D+00 0.243D-02 0.000D+00 0.000D+00 0.000D+00 0.000D+00
 Coeff:      0.792D+00 0.991D-01
 Gap=    -0.161 Goal=   None    Shift=    0.000
 Gap=     0.040 Goal=   None    Shift=    0.000
 RMSDP=7.37D-03 MaxDP=6.07D-01 DE= 2.51D+01 OVMax= 9.02D-01

 Cycle   9  Pass 1  IDiag  1:
 RMSU=  4.85D-03    CP:  9.02D-01  3.98D-02  7.57D-03  4.27D-01  5.52D-02
                    CP: -2.73D-02  2.26D-01  3.40D-01
 E= -3557.01170306274     Delta-E=      -23.113915619295 Rises=F Damp=F
 DIIS: error= 9.64D-02 at cycle   9 NSaved=   9.
 NSaved= 9 IEnMin= 7 EnMin= -3559.01509580302     IErMin= 7 ErrMin= 5.32D-02
 ErrMax= 9.64D-02  0.00D+00 EMaxC= 1.00D-01 BMatC= 1.76D+01 BMatP= 7.21D+00
 IDIUse=2 WtCom= 0.00D+00 WtEn= 1.00D+00
 EnCoef did     6 forward-backward iterations
 Coeff-En:   0.520D-01 0.000D+00 0.000D+00 0.000D+00 0.000D+00 0.000D+00
 Coeff-En:   0.603D+00 0.000D+00 0.345D+00
 Coeff:      0.520D-01 0.000D+00 0.000D+00 0.000D+00 0.000D+00 0.000D+00
 Coeff:      0.603D+00 0.000D+00 0.345D+00
 Gap=     0.054 Goal=   None    Shift=    0.000
 Gap=     0.029 Goal=   None    Shift=    0.000
 RMSDP=5.77D-03 MaxDP=1.10D+00 DE=-2.31D+01 OVMax= 9.92D-01

 Cycle  10  Pass 1  IDiag  1:
 RMSU=  3.16D-03    CP:  8.88D-01 -2.03D-03  1.73D-02  1.56D-01  1.04D-01
                    CP:  7.80D-02  3.74D-01  2.10D-01  2.51D-01
 E= -3556.20567216004     Delta-E=        0.806030902693 Rises=F Damp=F
 DIIS: error= 1.73D-01 at cycle  10 NSaved=  10.
 NSaved=10 IEnMin= 7 EnMin= -3559.01509580302     IErMin= 7 ErrMin= 5.32D-02
 ErrMax= 1.73D-01  0.00D+00 EMaxC= 1.00D-01 BMatC= 1.56D+01 BMatP= 7.21D+00
 IDIUse=2 WtCom= 0.00D+00 WtEn= 1.00D+00
 EnCoef did     2 forward-backward iterations
 Coeff-En:   0.000D+00 0.000D+00 0.000D+00 0.000D+00 0.000D+00 0.000D+00
 Coeff-En:   0.539D+00 0.000D+00 0.262D+00 0.199D+00
 Coeff:      0.000D+00 0.000D+00 0.000D+00 0.000D+00 0.000D+00 0.000D+00
 Coeff:      0.539D+00 0.000D+00 0.262D+00 0.199D+00
 Gap=    -0.262 Goal=   None    Shift=    0.000
 Gap=     0.082 Goal=   None    Shift=    0.000
 RMSDP=3.00D-03 MaxDP=4.56D-01 DE= 8.06D-01 OVMax= 8.25D-01

 Cycle  11  Pass 1  IDiag  1:
 RMSU=  1.92D-03    CP:  8.83D-01 -3.37D-03  2.19D-02  2.14D-01  1.23D-01
                    CP:  3.12D-02  5.52D-01  1.53D-01  3.28D-01  3.72D-01
 E= -3561.35939715156     Delta-E=       -5.153724991515 Rises=F Damp=F
 DIIS: error= 3.42D-02 at cycle  11 NSaved=  11.
 NSaved=11 IEnMin=11 EnMin= -3561.35939715156     IErMin=11 ErrMin= 3.42D-02
 ErrMax= 3.42D-02  0.00D+00 EMaxC= 1.00D-01 BMatC= 9.49D-01 BMatP= 7.21D+00
 IDIUse=3 WtCom= 6.58D-01 WtEn= 3.42D-01
 EnCoef did     4 forward-backward iterations
 Coeff-Com: -0.110D-01 0.647D-02 0.870D-02-0.128D-02-0.197D-01-0.503D-02
 Coeff-Com:  0.163D+00 0.210D-02 0.295D-01 0.154D+00 0.673D+00
 Coeff-En:   0.000D+00 0.000D+00 0.000D+00 0.000D+00 0.000D+00 0.000D+00
 Coeff-En:   0.262D-01 0.000D+00 0.000D+00 0.126D+00 0.848D+00
 Coeff:     -0.722D-02 0.425D-02 0.572D-02-0.839D-03-0.129D-01-0.331D-02
 Coeff:      0.117D+00 0.138D-02 0.194D-01 0.144D+00 0.733D+00
 Gap=     0.258 Goal=   None    Shift=    0.000
 Gap=    -0.089 Goal=   None    Shift=    0.000
 RMSDP=2.04D-03 MaxDP=1.78D-01 DE=-5.15D+00 OVMax= 4.96D-01

 Cycle  12  Pass 1  IDiag  1:
 RMSU=  1.69D-03    CP:  8.84D-01 -1.82D-03  2.54D-02  1.93D-01  1.22D-01
                    CP:  6.13D-02  6.15D-01  9.18D-02  2.04D-01  4.80D-01
                    CP:  6.55D-01
 E= -3561.49820352142     Delta-E=       -0.138806369860 Rises=F Damp=F
 DIIS: error= 1.07D-02 at cycle  12 NSaved=  12.
 NSaved=12 IEnMin=12 EnMin= -3561.49820352142     IErMin=12 ErrMin= 1.07D-02
 ErrMax= 1.07D-02  0.00D+00 EMaxC= 1.00D-01 BMatC= 7.47D-01 BMatP= 9.49D-01
 IDIUse=3 WtCom= 8.93D-01 WtEn= 1.07D-01
 Coeff-Com: -0.373D-01 0.609D-01 0.177D-02-0.161D-01-0.776D-02 0.169D-02
 Coeff-Com: -0.125D-01-0.141D-02 0.369D-02 0.335D-01 0.495D+00 0.478D+00
 Coeff-En:   0.000D+00 0.000D+00 0.000D+00 0.000D+00 0.000D+00 0.000D+00
 Coeff-En:   0.000D+00 0.000D+00 0.000D+00 0.000D+00 0.410D+00 0.590D+00
 Coeff:     -0.333D-01 0.544D-01 0.158D-02-0.143D-01-0.693D-02 0.151D-02
 Coeff:     -0.111D-01-0.126D-02 0.329D-02 0.299D-01 0.486D+00 0.490D+00
 Gap=     0.120 Goal=   None    Shift=    0.000
 Gap=     0.005 Goal=   None    Shift=    0.000
 RMSDP=1.23D-03 MaxDP=1.01D-01 DE=-1.39D-01 OVMax= 5.05D-01

 Cycle  13  Pass 1  IDiag  1:
 RMSU=  8.16D-04    CP:  8.82D-01 -3.88D-03  2.31D-02  2.03D-01  1.19D-01
                    CP:  4.63D-02  5.64D-01  1.27D-01  2.78D-01  4.58D-01
                    CP:  7.50D-01  5.66D-01
 E= -3561.70962061020     Delta-E=       -0.211417088782 Rises=F Damp=F
 DIIS: error= 6.02D-03 at cycle  13 NSaved=  13.
 NSaved=13 IEnMin=13 EnMin= -3561.70962061020     IErMin=13 ErrMin= 6.02D-03
 ErrMax= 6.02D-03  0.00D+00 EMaxC= 1.00D-01 BMatC= 1.24D-01 BMatP= 7.47D-01
 IDIUse=3 WtCom= 9.40D-01 WtEn= 6.02D-02
 Coeff-Com: -0.323D-01 0.536D-01 0.790D-03-0.111D-01-0.365D-02-0.790D-03
 Coeff-Com: -0.396D-02-0.292D-02-0.554D-02 0.822D-02 0.285D+00 0.270D+00
 Coeff-Com:  0.443D+00
 Coeff-En:   0.000D+00 0.000D+00 0.000D+00 0.000D+00 0.000D+00 0.000D+00
 Coeff-En:   0.000D+00 0.000D+00 0.000D+00 0.000D+00 0.000D+00 0.000D+00
 Coeff-En:   0.100D+01
 Coeff:     -0.303D-01 0.504D-01 0.743D-03-0.104D-01-0.343D-02-0.742D-03
 Coeff:     -0.372D-02-0.275D-02-0.520D-02 0.773D-02 0.268D+00 0.253D+00
 Coeff:      0.476D+00
 Gap=     0.136 Goal=   None    Shift=    0.000
 Gap=     0.025 Goal=   None    Shift=    0.000
 RMSDP=5.92D-04 MaxDP=4.34D-02 DE=-2.11D-01 OVMax= 2.49D-01

 Cycle  14  Pass 1  IDiag  1:
 RMSU=  4.43D-04    CP:  8.81D-01 -4.88D-03  2.42D-02  1.98D-01  1.22D-01
                    CP:  4.88D-02  5.85D-01  1.18D-01  2.60D-01  4.41D-01
                    CP:  7.64D-01  5.84D-01  5.66D-01
 E= -3561.72742967250     Delta-E=       -0.017809062299 Rises=F Damp=F
 DIIS: error= 7.88D-03 at cycle  14 NSaved=  14.
 NSaved=14 IEnMin=14 EnMin= -3561.72742967250     IErMin=13 ErrMin= 6.02D-03
 ErrMax= 7.88D-03  0.00D+00 EMaxC= 1.00D-01 BMatC= 7.99D-02 BMatP= 1.24D-01
 IDIUse=3 WtCom= 9.40D-01 WtEn= 6.02D-02
 Coeff-Com: -0.309D-01 0.506D-01 0.960D-03-0.916D-02-0.132D-02-0.237D-02
 Coeff-Com:  0.251D-02-0.502D-02-0.331D-02 0.511D-02 0.952D-01 0.512D-01
 Coeff-Com:  0.401D+00 0.446D+00
 Coeff-En:   0.000D+00 0.000D+00 0.000D+00 0.000D+00 0.000D+00 0.000D+00
 Coeff-En:   0.000D+00 0.000D+00 0.000D+00 0.000D+00 0.000D+00 0.000D+00
 Coeff-En:   0.333D+00 0.667D+00
 Coeff:     -0.290D-01 0.476D-01 0.902D-03-0.861D-02-0.124D-02-0.223D-02
 Coeff:      0.236D-02-0.472D-02-0.311D-02 0.481D-02 0.895D-01 0.481D-01
 Coeff:      0.397D+00 0.459D+00
 Gap=     0.130 Goal=   None    Shift=    0.000
 Gap=     0.033 Goal=   None    Shift=    0.000
[...]
 00401,0.00000737,0.00000180,-0.00000361,0.00000371,0.00000543,0.000002
 20,0.00000427,-0.00000578,-0.00000529,0.00002683,0.00002312,-0.0000079
 1,0.00002809,-0.00002425,-0.00000436,-0.00002640,0.00002645,-0.0000187
 9,0.00000781,-0.00003232,0.00002290,-0.00001356,0.00000454,0.00001244,
 -0.00000078,0.00000151,-0.00000124,-0.00000065,-0.00000124,0.00000218,
 0.00000105,-0.00000113,0.00000122,-0.00000037,0.00000023,-0.00000083,-
 0.00000142,0.00000136,-0.00000041,0.00000076,-0.00000102,0.00000026,-0
 .00000054,-0.00000029,-0.00000007,0.00000045,-0.00000081,0.00000004,0.
 00000040,0.00000050,-0.00000049,-0.00000003,0.00000026,0.00000015,0.00
 000027,-0.00000097,-0.00000013,0.00000052,-0.00000006,-0.00000145,0.00
 000047,0.00000033,0.00000069,-0.00000625,0.00001342,-0.00000836,0.0000
 0575,-0.00000959,0.00000551,-0.00001030,0.00001271,-0.00000644,0.00000
 921,-0.00000208,-0.00000524,0.00000070,-0.00000423,0.00000124,0.000003
 58,-0.00000063,-0.00000402,0.00000131,0.00000557,0.00000300,-0.0000146
 7,-0.00000101,0.00000164,0.00000107,0.00002585,0.00000754,0.00011350,0
 .00000595,-0.00011070,0.00010312,-0.00012437,-0.00007137,-0.23051991,0
 .00095149,0.13780870,0.00051716,-0.00050448,-0.00107715,0.00007600,0.0
 0020139,-0.00007226,0.00024473,-0.00006244,-0.00027094,-0.00075705,0.0
 0010720,0.00070800,-0.00027481,0.00029575,-0.00024508,0.00009893,-0.00
 022225,0.00010218,0.00002512,-0.00062131,-0.00056684,0.00007062,-0.000
 01682,0.00001560,0.00000127,-0.00000120,-0.00000314,0.00000071,-0.0000
 0113,0.00000003,-0.00000010,0.00000005,0.00000085,0.00000007,-0.000000
 10,-0.00000009,-0.00000037,-0.00000153,-0.00000038,-0.00000016,0.00000
 099,0.00000009,0.00000096,-0.00000042,-0.00000048,-0.00000023,0.000000
 37,0.00000029,0.00000051,0.,-0.00000007,0.00000031,-0.00000015,0.00000
 021,-0.00000011,-0.00000036,0.00000010,0.00000012,-0.00000005,-0.00000
 005,0.00000005,-0.00000007,0.00000014,0.00000010,0.00000046,-0.0000001
 3,-0.00000006,-0.00000008,0.00000033,-0.00000191,-0.00000038,-0.000001
 60,0.00000108,0.00000055,-0.00000116,0.00000133,0.00000023,-0.00000044
 ,0.00000054,0.00000129,-0.00000030,-0.00000074,0.00000218,0.00000027,-
 0.00000033,0.00000087,0.00000131,-0.00001208,0.00002857,-0.00000065,-0
 .00003887,0.00000592,-0.00004959,0.24210177,0.00081894,-0.00083660,0.0
 0284336,-0.01777823,0.00382738,0.01244371,-0.00429599,-0.00077307,-0.0
 0336521,0.00000183,-0.00074892,-0.00007255,-0.00215178,-0.00104739,-0.
 00483401,0.01803236,0.00408462,-0.01265743,0.00129030,-0.00092162,0.00
 154335,-0.00030706,-0.00108397,-0.00096409,-0.00016965,0.00003568,0.00
 033989,0.00002509,-0.00001218,-0.00003707,-0.00009513,-0.00004087,0.00
 007884,0.00000653,-0.00002020,-0.00002459,0.00000627,0.00002158,0.0000
 1378,-0.00001066,-0.00002470,-0.00001608,0.00002088,0.00000396,-0.0000
 0866,0.00000515,0.00001175,0.00000580,0.00000694,-0.00000010,-0.000002
 76,0.00000496,-0.00001285,0.00000180,0.00009365,0.00006884,-0.00002729
 ,0.00008025,-0.00006695,-0.00000901,-0.00006638,0.00008669,-0.00006348
 ,0.00002236,-0.00010874,0.00008427,-0.00004534,0.00001564,0.00003606,-
 0.00000329,0.00000633,-0.00000407,-0.00000285,-0.00000353,0.00000492,0
 .00000547,-0.00000431,0.00000604,-0.00000204,0.00000139,-0.00000344,-0
 .00000722,0.00000693,-0.00000138,0.00000373,-0.00000401,0.00000189,-0.
 00000222,-0.00000081,0.00000021,0.00000181,-0.00000417,0.00000171,0.00
 000171,0.00000508,-0.00000340,0.00000046,-0.00000015,-0.00000102,0.000
 00384,-0.00000567,-0.00000089,0.00000088,-0.00000137,-0.00000529,0.000
 00320,-0.00000008,0.00000149,-0.00001714,0.00003618,-0.00002158,0.0000
 1442,-0.00002583,0.00001532,-0.00002556,0.00003454,-0.00001547,0.00002
 440,-0.00000669,-0.00000949,0.00000375,-0.00000942,0.00000568,0.000011
 37,0.00000001,-0.00000612,0.00000153,0.00001714,0.00000118,-0.00007152
 ,-0.00009973,-0.00006690,0.00007899,0.00011788,0.00010677,-0.00007950,
 0.00006310,0.00021256,0.00014022,0.00034308,0.00007416,0.00045121,-0.0
 4997637,-0.01269450,-0.00011874,-0.00008799,-0.00046634,-0.00019756,-0
 .00047989,-0.00024352,0.00025064,0.00034184,0.00004322,-0.00091220,0.0
 0015199,0.00065473,0.00028022,-0.00028966,0.00037959,0.00088908,0.0002
 2004,-0.00078664,-0.00049574,-0.00169020,0.00046276,0.00000392,-0.0000
 3374,-0.00001000,0.00000201,-0.00001106,-0.00000902,-0.00000083,-0.000
 00206,-0.00000146,0.00000021,0.00000243,0.00000200,0.00000038,0.000000
 65,-0.00000037,-0.00000213,-0.00000432,-0.00000232,-0.00000115,0.00000
 191,0.00000185,0.00000215,-0.00000081,-0.00000204,-0.00000154,0.000000
 49,0.00000128,0.00000126,-0.00000019,-0.00000036,0.00000134,-0.0000008
 3,0.00000042,-0.00000016,-0.00000223,0.00000030,-0.00000020,0.00000079
 ,0.00000085,0.00000042,-0.00000068,0.00000101,-0.00000039,0.00000234,-
 0.00000056,0.00000121,-0.00000061,0.00000241,-0.00000625,-0.00000028,-
 0.00000549,0.00000256,0.00000152,-0.00000454,0.00000308,-0.00000034,-0
 .00000202,0.00000016,0.00000182,-0.00000165,-0.00000277,0.00000137,-0.
 00000060,-0.00000276,0.00000149,-0.00000175,0.00002073,0.00000662,0.00
 001906,0.00007667,-0.00002067,0.00012014,0.00419976,0.04890644,-0.0029
 1993,0.00133785,-0.00096772,-0.00201631,-0.00159976,0.00407978,0.00074
 318,-0.00262055,0.00367233,-0.00077209,-0.00023467,-0.00026921,0.00094
 209,-0.00563009,0.00049903,0.01765836,-0.00015041,-0.00965955,0.000556
 54,0.00306128,-0.00112948,-0.00003616,0.00089096,0.00020817,-0.0005347
 0,-0.00026230,-0.00012714,-0.00001859,-0.00001895,0.00048531,-0.000021
 22,-0.00005910,0.00004004,0.00000560,0.00000374,-0.00001848,-0.0000046
 4,0.00000014,0.00000199,0.00000039,-0.00000377,-0.00000532,0.00000365,
 -0.00000191,-0.00000410,0.00000635,0.00000536,-0.00000097,0.00000133,0
 .00000256,0.00000209,0.00000514,-0.00000601,-0.00000014,0.00004545,0.0
 0003652,-0.00001515,0.00005190,-0.00004767,-0.00000442,-0.00004516,0.0
 0006336,-0.00004373,-0.00000172,-0.00006731,0.00004115,-0.00002824,0.0
 0000683,0.00002538,-0.00000040,0.00000251,-0.00000191,-0.00000067,-0.0
 0000144,0.00000345,0.00000303,-0.00000152,0.00000315,-0.00000164,0.000
 00148,-0.00000159,-0.00000335,0.00000318,-0.00000060,0.00000240,-0.000
 00215,0.00000118,-0.00000135,-0.00000022,0.00000043,0.00000100,-0.0000
 0134,0.00000061,0.00000134,0.00000194,-0.00000135,-0.00000025,0.000000
 02,0.00000006,0.00000078,-0.00000183,0.00000084,0.00000166,0.00000009,
 -0.00000301,0.00000176,0.00000090,0.00000012,-0.00001284,0.00002750,-0
 .00001538,0.00001010,-0.00001985,0.00001285,-0.00002029,0.00002737,-0.
 00001295,0.00001954,-0.00000546,-0.00000826,0.00000224,-0.00000823,0.0
 0000468,0.00000896,-0.00000036,-0.00000678,0.00000185,0.00001227,0.000
 00054,-0.00003049,-0.00003083,-0.00001854,0.00003982,0.00006829,0.0000
 4879,0.00045889,0.00027514,-0.00017809,-0.00065412,-0.00059362,-0.0004
 9753,0.13719442,-0.01211466,-0.14605535,0.00017367,0.00011037,0.000057
 86,0.00015953,0.00046283,0.00027993,-0.00006319,-0.00033446,-0.0000404
 1,-0.00009186,-0.00005859,0.00030419,-0.00022661,0.00038661,-0.0004242
 8,0.00099174,-0.00003861,-0.00051024,0.00037131,0.00019665,0.00051068,
 -0.00001289,0.00001073,-0.00000779,-0.00000006,-0.00000658,-0.00000369
 ,-0.00000109,-0.00000155,0.00000079,0.00000034,0.00000176,0.00000218,0
 .00000069,0.00000054,0.00000003,-0.00000116,-0.00000350,-0.00000120,-0
 .00000098,0.00000080,0.00000074,0.00000074,-0.00000112,-0.00000098,-0.
 00000103,0.00000045,0.00000028,0.00000109,-0.00000021,-0.00000069,0.00
 000069,-0.00000093,0.00000022,-0.00000094,-0.00000001,0.00000034,-0.00
 000036,-0.00000037,-0.00000064,0.00000115,-0.00000022,0.00000042,-0.00
 000011,0.00000051,-0.00000135,-0.00000055,-0.00000088,0.00000084,-0.00
 000406,-0.00000101,-0.00000273,0.00000174,0.00000046,-0.00000268,0.000
 00231,-0.00000027,-0.00000141,0.00000066,0.00000194,-0.00000145,-0.000
 00213,0.00000281,-0.00000033,-0.00000123,0.00000009,0.00000065,-0.0000
 0575,-0.00002806,0.00000029,0.00000445,0.00002679,0.00007488,-0.151916
 29,0.01694832,0.14966919,0.00000220,0.00000287,-0.00000548,-0.00000478
 ,-0.00004656,-0.00002709,0.00002042,0.00003072,0.00001254,-0.00001522,
 -0.00001542,-0.00000671,0.00006032,0.00004872,0.00000315,-0.00009653,-
 0.00011671,-0.00003158,-0.00002443,0.00003340,0.00005365,-0.00005916,-
 0.00011373,-0.00005281,-0.00007470,-0.00005459,0.00028592,-0.00063611,
 -0.00039067,-0.00006222,0.00313201,-0.00103843,-0.00255214,0.00107179,
 0.00205220,0.00126128,-0.00012667,-0.00138948,-0.00114118,0.00075699,0
 .00151952,0.00094313,-0.00091821,-0.00052679,0.00008165,-0.00024963,-0
 .00029062,-0.00006953,-0.00037353,-0.00056401,-0.00032259,-0.00119869,
 0.00161348,0.00151244,-0.00187997,-0.00634838,-0.00335867,-0.00182112,
 0.00644473,-0.00359894,-0.00704572,-0.02378103,0.01573953,-0.05795807,
 -0.03300323,-0.03578150,0.00325755,0.00099240,-0.00266593,-0.00064695,
 0.00042399,-0.00007857,0.00025585,0.00016210,0.00007954,-0.00000840,0.
 00008327,-0.00013411,-0.00002393,-0.00003606,0.00004579,-0.00009677,0.
 00012198,-0.00003445,0.00006050,-0.00005231,0.00000431,-0.00001561,0.0
 0001566,-0.00000682,0.00002032,-0.00003280,0.00001352,-0.00000308,0.00
 004767,-0.00002829,0.00000231,-0.00000317,-0.00000622,0.00002034,-0.00
 005813,0.00004221,-0.00005874,0.00012143,-0.00006040,-0.00007003,0.000
 05823,0.00031130,0.00106484,-0.00216494,0.00132843,-0.00009248,0.00143
 866,-0.00121283,0.00074558,-0.00160421,0.00101256,-0.00095805,0.000584
 49,0.00008210,-0.00024444,0.00031291,-0.00009899,-0.00036664,0.0005887
 5,-0.00032187,-0.00128108,-0.00162602,0.00160997,-0.00595533,0.0232001
 0,0.01495472,-0.05597700,0.03367280,-0.03544147,0.00025488,-0.00016868
 ,0.00007619,-0.00001807,-0.00009116,-0.00013449,0.00001954,0.00005569,
 0.00004288,-0.00000402,-0.00000356,-0.00000188,-0.00000559,0.00000987,
 0.00000256,0.00001060,0.00000549,0.00000729,0.00001150,0.00000972,0.00
 000123,0.00001360,0.00000412,-0.00000609,-0.00001776,-0.00000077,0.000
 00349,-0.00001265,0.00000537,0.00000676,-0.00006914,0.00001488,-0.0001
 4510,0.00000432,-0.00006229,-0.00013228,-0.00002428,0.00001709,0.00002
 310,-0.00001504,0.00000245,-0.00000397,0.00003928,-0.00001012,-0.00000
 665,0.00001806,0.00001778,0.00001980,-0.00003985,-0.00004518,-0.000022
 08,-0.00001267,-0.00002975,-0.00001828,-0.00001838,0.00000156,0.000004
 10,0.00001384,-0.00000474,-0.00000606,0.00001150,-0.00001021,0.0000015
 4,-0.00000574,-0.00001047,0.00000290,-0.00000389,0.00000398,-0.0000012
 4,0.00001029,-0.00000602,0.00000761,-0.00000028,0.00002511,-0.00002320
 ,-0.00001059,-0.00000397,0.00000846,-0.00007552,-0.00001972,-0.0001603
 4,0.00000711,0.00006616,-0.00014077,-0.00002417,-0.00001582,0.00002459
 ,-0.00001515,-0.00000021,-0.00000290,0.00004033,0.00000891,-0.00000853
 ,0.00001971,-0.00001448,0.00002396,-0.00003799,0.00004708,-0.00002230,
 -0.00001361,0.00002979,-0.00001782,-0.00000111,-0.00002433,-0.00002341
 ,0.12776096,-0.00000955,-0.00000508,0.00002497,-0.00000492,0.00004385,
 0.00002207,-0.00003055,-0.00005534,-0.00002079,0.00003096,-0.00000501,
 -0.00000330,-0.00006173,-0.00006118,-0.00001767,0.00013686,0.00009664,
 0.00005126,-0.00006083,-0.00014626,0.00029586,0.00012134,0.00023349,0.
 00020872,-0.00013913,-0.00012113,-0.00092818,0.00081184,0.00056954,0.0
 0039053,-0.00358878,0.00298044,0.00355613,-0.00194180,-0.00345616,-0.0
 0143667,0.00023293,0.00215709,0.00193408,-0.00122335,-0.00266109,-0.00
 176816,0.00198498,0.00102884,-0.00025813,0.00013882,0.00057659,0.00089
 452,0.00036027,0.00065583,-0.00027006,0.00129280,-0.00247983,-0.002743
 30,0.00444220,0.00318048,0.00576786,-0.00430033,0.00307360,-0.00571565
 ,-0.01499140,-0.03281710,0.01753610,-0.03613737,-0.01719111,-0.0256912
 6,0.00359161,0.00282725,-0.00353507,-0.00078049,0.00057726,-0.00039640
 ,-0.00014110,-0.00002085,0.00017449,0.00024590,-0.00024440,0.00005529,
 0.00005722,-0.00015053,-0.00029648,-0.00013101,0.00009637,-0.00005175,
 0.00005809,-0.00006141,0.00001817,-0.00003056,-0.00000452,0.00000343,0
 .00002825,-0.00005502,0.00002097,0.00000657,0.00004188,-0.00002182,0.0
 0000885,-0.00000530,-0.00002441,0.00008581,-0.00008148,-0.00004847,-0.
 00011315,0.00023232,-0.00021022,0.00013693,-0.00011588,0.00092552,0.00
 181603,-0.00343501,0.00143823,-0.00016790,0.00209966,-0.00192886,0.001
 12505,-0.00262832,0.00177286,-0.00192748,0.00107296,0.00024146,-0.0001
 1589,0.00055976,-0.00089956,-0.00033115,0.00065431,0.00026919,-0.00133
 140,-0.00236168,0.00273300,0.01423484,-0.03409738,-0.01751572,0.036924
 81,-0.01870474,0.02676033,0.00013164,-0.00002109,-0.00017646,-0.000251
 41,-0.00023265,-0.00004967,-0.00008936,-0.00007983,0.00004827,-0.00000
 099,0.00001212,-0.00002231,-0.00000915,-0.00003085,-0.00000534,0.00000
 710,-0.00000919,-0.00001160,-0.00001028,-0.00000485,-0.00000653,-0.000
 01307,-0.00000421,0.00000080,0.00002356,0.00000583,-0.00002203,-0.0000
 7448,0.00003433,-0.00005662,0.00018800,-0.00016967,0.00054755,-0.00003
 316,0.00020545,0.00027174,-0.00002051,0.00001105,-0.00004629,0.0000034
 5,0.00006484,-0.00003731,-0.00002769,0.00000128,0.00006241,-0.00007147
 ,0.00012317,-0.00014469,-0.00002597,0.00003049,-0.00001127,0.00006564,
 -0.00000535,-0.00002790,-0.00002275,0.00000689,0.00002186,0.00001260,-
 0.00000445,-0.00000056,0.00000983,-0.00000475,0.00000659,0.00000830,-0
 .00003096,0.00000556,0.00000180,0.00001218,0.00002209,-0.00000764,-0.0
 0000863,0.00001140,0.00000404,0.00003600,0.00002097,0.00007522,0.00003
 319,0.00005576,-0.00019187,-0.00017170,-0.00054230,0.00003941,0.000200
 75,-0.00027166,0.00002176,0.00001153,0.00004546,-0.00000107,0.00006560
 ,0.00003679,0.00002658,-0.00000017,-0.00006215,0.00007440,0.00012385,0
 .00014294,0.00002860,0.00002758,0.00001058,-0.00006492,-0.00000395,0.0
 0002830,-0.00000280,0.00003634,-0.00002054,-0.00011639,0.09794748,-0.0
 0001319,-0.00001191,0.00002268,0.00000492,0.00002816,0.00000006,-0.000
 00633,-0.00001153,-0.00001240,0.00001005,0.00000272,-0.00000855,-0.000
 01132,-0.00000488,-0.00001395,0.00003857,0.00003270,-0.00002699,0.0000
 0965,0.00000583,-0.00006198,-0.00001185,-0.00010272,-0.00003668,-0.000
 00982,0.00000783,0.00035410,-0.00027522,-0.00002475,-0.00006801,0.0012
 3037,-0.00187088,-0.00157401,0.00042613,0.00038503,-0.00024160,0.00002
 927,-0.00017492,-0.00027736,0.00001632,0.00011159,0.00005518,-0.000016
 06,-0.00007721,-0.00007852,-0.00006550,0.00003816,-0.00000820,-0.00009
 104,-0.00016996,-0.00015924,-0.00046124,0.00012266,0.00036116,-0.00006
 589,-0.00227350,-0.00062208,0.00004936,0.00223063,-0.00058203,0.002485
 55,-0.00090974,0.00380330,-0.02743681,-0.01867092,-0.01400738,0.001242
 74,0.00178449,-0.00155361,-0.00026526,0.00002490,-0.00006291,-0.000122
 95,-0.00010979,-0.00002252,0.00008207,-0.00016117,-0.00008882,0.000008
 80,-0.00000511,-0.00005840,0.00003929,-0.00003545,-0.00002599,-0.00001
 194,0.00000587,-0.00001428,0.00001035,-0.00000308,-0.00000856,-0.00000
 633,0.00001228,-0.00001281,0.00000389,-0.00002895,0.00000063,-0.000012
 62,0.00001277,0.00002301,-0.00005948,0.00001782,0.00001792,-0.00000746
 ,0.00010005,-0.00003525,-0.00001146,-0.00000228,0.00034341,0.00039223,
 -0.00035813,-0.00025468,0.00003626,0.00014511,-0.00025616,-0.00000049,
 -0.00007943,0.00003508,0.00000947,0.00006368,-0.00008241,-0.00006507,-
 0.00004323,0.00000307,-0.00008217,0.00016255,-0.00016451,-0.00044855,-
 0.00007648,0.00032920,0.00233553,0.00129570,0.00399441,-0.02733542,0.0
 1950390,-0.01456425,-0.00012122,0.00011313,-0.00002124,0.00008978,0.00
 015999,-0.00009005,-0.00005876,-0.00001474,0.00001745,0.00000757,0.000
 00309,-0.00001042,0.00000026,-0.00000249,-0.00000300,-0.00000064,-0.00
 000406,-0.00000592,0.00000050,-0.00000363,0.00000231,0.00000366,-0.000
 00313,0.00000177,0.00001003,-0.00000921,-0.00000162,-0.00005288,-0.000
 02462,-0.00002223,-0.00008004,0.00012606,-0.00010770,0.00005242,-0.000
 13617,-0.00008327,0.00001390,-0.00000723,0.00000524,0.00000679,-0.0000
 1149,0.00001268,0.00000758,-0.00002021,0.00000684,0.00001397,-0.000021
 85,0.00002673,0.00006144,0.00007185,-0.00008985,0.00003547,0.00000341,
 -0.00000749,0.00001062,0.00000881,-0.00000201,0.00000360,0.00000310,0.
 00000175,0.00000049,0.00000372,0.00000218,0.00000013,0.00000291,-0.000
 00301,0.00000728,-0.00000370,-0.00001085,-0.00000037,0.00000407,-0.000
 00612,0.00000928,0.00000565,0.00001086,-0.00005312,0.00002553,-0.00002
 326,-0.00008175,-0.00012315,-0.00009959,0.00005591,0.00013121,-0.00008
 153,0.00001383,0.00000675,0.00000460,0.00000713,0.00001064,0.00001211,
 0.00000784,0.00002005,0.00000735,0.00001373,0.00002027,0.00002472,0.00
 005943,-0.00007524,-0.00008906,0.00003606,-0.00000449,-0.00000776,0.00
 000916,-0.00000625,0.00001116,0.04834357,-0.00113697,0.02625918\\0.000
 00090,-0.00000418,-0.00000220,0.00000172,0.00000277,0.00000301,-0.0000
 0012,0.,-0.00000075,0.00000073,0.00000063,-0.00000167,0.00000295,-0.00
 000291,-0.00000176,0.00000157,0.00000552,-0.00000010,-0.00000271,-0.00
 000583,-0.00000770,-0.00000439,-0.00000303,0.00000733,0.00000198,0.000
 00341,0.00000528,0.00000453,0.00000578,-0.00000294,0.00000186,-0.00000
 913,-0.00000845,0.00000217,0.00000102,-0.00000154,-0.00000680,-0.00000
 429,0.00000049,0.00000169,0.00000242,0.00000128,-0.00000090,-0.0000021
 9,-0.00000236,-0.00000074,-0.00000109,-0.00000023,-0.00000336,-0.00000
 225,-0.00000037,0.00001000,0.00000636,-0.00000186,0.00000051,-0.000004
 16,-0.00000193,-0.00000022,-0.00000447,0.00000152,0.00000314,-0.000000
 28,-0.00000580,-0.00000208,0.00001222,-0.00000008,-0.00000116,-0.00000
 870,0.00000779,-0.00000535,0.00000537,0.00000279,0.00000491,-0.0000050
 2,0.00000116,-0.00000393,0.00000533,0.00000064,0.00000221,-0.00000628,
 0.00000794,-0.00000128,0.00000575,0.00000008,-0.00000315,-0.00000296,0
 .00000207,-0.00000073,0.00000053,0.00000190,0.00000002,-0.00000016,0.0
 0000103,-0.00000170,0.00000287,-0.00000272,-0.00000117,-0.00000400,0.0
 0000271,0.00000351,-0.00000059,-0.00000192,0.00000445,-0.00000327,-0.0
 0000743,-0.00000102,0.00000338,-0.00000427,-0.00000251,0.00000091,0.00
 000125,0.00000679,-0.00000485,-0.00000064,-0.00000180,0.00000244,-0.00
 000161,0.00000088,-0.00000245,0.00000201,0.00000087,-0.00000120,-0.000
 00019,0.00000363,-0.00000273,0.00000007,-0.00000990,0.00000665,0.00000
 156,-0.00000380,-0.00000080,0.00000566,0.00000041,0.00001224,0.0000011
 8,-0.00000449,-0.00000506,-0.00000109,0.00000413,0.00000535,-0.0000006
 5,-0.00000353,-0.00000037,0.00000226,-0.00000090,0.00000015,0.00000011
 ,-0.00000042,0.00000162,-0.00000026,0.00000071,0.00000073,-0.00000012,
 -0.00000077,-0.00000117,0.00000009,-0.00000095,0.00000073,0.00000152,-
 0.00000158,0.00000057,0.00000148,0.00000212,0.00000171,-0.00000274,0.,
 -0.00000058,-0.00000246,-0.00000078,0.00000007,0.00000078,-0.00000039,
 0.00000077,0.00000109,-0.00000067,0.00000103,0.00000148,0.00000133,0.0
 0000123,-0.00000059,0.00000111,0.00000062,-0.00000108,0.00000053,0.000
 00010,-0.00000218,0.00000006,0.00000019,-0.00000215,0.00000155,0.00000
 035,-0.00000145,0.00000095,0.00000049,-0.00000131,0.00000072,-0.000001
 25,0.00000026,0.00000056,0.00000156,0.00000063,0.00000086,0.00000022,0
 .00000012,-0.00000071,0.00000086,0.00000051,-0.00000076,-0.00000151,0.
 00000110,-0.00000203,0.00000197,0.00000276,0.00000092,-0.00000064,0.00
 000183,0.00000086,-0.00000011,-0.00000094,0.00000049,0.00000045,-0.000
 00142,0.00000073,0.00000067,-0.00000188,-0.00000130,0.00000107,0.00000
 018,-0.00000121,0.00000056,0.00000086,-0.00000045,0.00000035,0.0000021
 2,-0.00000001,0.00000045,0.00000221,0.00000076,-0.00000156,-0.00000091
 ,-0.00000005,-0.00001036,-0.00000039\\\@
 The archive entry for this job was punched.


 ALL MY ATTEMPTS TO ADAPT THE THEORETICAL FOUNDATIONS OF PHYSICS
 TO THESE NEW NOTIONS FAILED COMPLETELY. IT WAS AS IF THE GROUND HAD
 BEEN PULLED OUT FROM UNDER ONE WITH NO FIRM FOUNDATION TO BE SEEN ANYWHERE,
 UPON WHICH ONE COULD HAVE BUILT.  -- A.EINSTEIN
 Job cpu time:       1 days  6 hours 16 minutes 23.5 seconds.
 Elapsed time:       0 days  0 hours 57 minutes  4.1 seconds.
 File lengths (MBytes):  RWF=  10158 Int=      0 D2E=      0 Chk=     68 Scr=      1
 Normal termination of Gaussian 16 at Sat Feb  8 09:15:02 2025.
