 Entering Gaussian System, Link 0=g16
 Initial command:
 /public/software/apps/Gaussian/g16/l1.exe "/tmp/Gau-92496.inp" -scrdir="/tmp/"
 Entering Link 1 = /public/software/apps/Gaussian/g16/l1.exe PID=     92497.
  
 Copyright (c) 1988-2019, Gaussian, Inc.  All Rights Reserved.
  
 This is part of the Gaussian(R) 16 program.  It is based on
 the Gaussian(R) 09 system (copyright 2009, Gaussian, Inc.),
 the Gaussian(R) 03 system (copyright 2003, Gaussian, Inc.),
 the Gaussian(R) 98 system (copyright 1998, Gaussian, Inc.),
 the Gaussian(R) 94 system (copyright 1995, Gaussian, Inc.),
 the Gaussian 92(TM) system (copyright 1992, Gaussian, Inc.),
 the Gaussian 90(TM) system (copyright 1990, Gaussian, Inc.),
 the Gaussian 88(TM) system (copyright 1988, Gaussian, Inc.),
 the Gaussian 86(TM) system (copyright 1986, Carnegie Mellon
 University), and the Gaussian 82(TM) system (copyright 1983,
 Carnegie Mellon University). Gaussian is a federally registered
 trademark of Gaussian, Inc.
  
 This software contains proprietary and confidential information,
 including trade secrets, belonging to Gaussian, Inc.
  
 This software is provided under written license and may be
 used, copied, transmitted, or stored only in accord with that
 written license.
  
 The following legend is applicable only to US Government
 contracts under FAR:
  
                    RESTRICTED RIGHTS LEGEND
  
 Use, reproduction and disclosure by the US Government is
 subject to restrictions as set forth in subparagraphs (a)
 and (c) of the Commercial Computer Software - Restricted
 Rights clause in FAR 52.227-19.
  
 Gaussian, Inc.
 340 Quinnipiac St., Bldg. 40, Wallingford CT 06492
  
  
 ---------------------------------------------------------------
 Warning -- This program may not be used in any manner that
 competes with the business of Gaussian, Inc. or will provide
 assistance to any competitor of Gaussian, Inc.  The licensee
 of this program is prohibited from giving any competitor of
 Gaussian, Inc. access to this program.  By using this program,
 the user acknowledges that Gaussian, Inc. is engaged in the
 business of creating and licensing software in the field of
 computational chemistry and represents and warrants to the
 licensee that it is not a competitor of Gaussian, Inc. and that
 it will not use this program in any manner prohibited above.
 ---------------------------------------------------------------
  

 Cite this work as:
 Gaussian 16, Revision C.01,
 M. J. Frisch, G. W. Trucks, H. B. Schlegel, G. E. Scuseria, 
 M. A. Robb, J. R. Cheeseman, G. Scalmani, V. Barone, 
 G. A. Petersson, H. Nakatsuji, X. Li, M. Caricato, A. V. Marenich, 
 J. Bloino, B. G. Janesko, R. Gomperts, B. Mennucci, H. P. Hratchian, 
 J. V. Ortiz, A. F. Izmaylov, J. L. Sonnenberg, D. Williams-Young, 
 F. Ding, F. Lipparini, F. Egidi, J. Goings, B. Peng, A. Petrone, 
 T. Henderson, D. Ranasinghe, V. G. Zakrzewski, J. Gao, N. Rega, 
 G. Zheng, W. Liang, M. Hada, M. Ehara, K. Toyota, R. Fukuda, 
 J. Hasegawa, M. Ishida, T. Nakajima, Y. Honda, O. Kitao, H. Nakai, 
 T. Vreven, K. Throssell, J. A. Montgomery, Jr., J. E. Peralta, 
 F. Ogliaro, M. J. Bearpark, J. J. Heyd, E. N. Brothers, K. N. Kudin, 
 V. N. Staroverov, T. A. Keith, R. Kobayashi, J. Normand, 
 K. Raghavachari, A. P. Rendell, J. C. Burant, S. S. Iyengar, 
 J. Tomasi, M. Cossi, J. M. Millam, M. Klene, C. Adamo, R. Cammi, 
 J. W. Ochterski, R. L. Martin, K. Morokuma, O. Farkas, 
 J. B. Foresman, and D. J. Fox, Gaussian, Inc., Wallingford CT, 2019.
 
 ******************************************
 Gaussian 16:  ES64L-G16RevC.01  3-Jul-2019
                 8-Feb-2025 
 ******************************************
 %nprocshared=32
 Will use up to   32 processors via shared memory.
 %mem=100GB
 ------------------------------------------
 #p opt freq b3lyp/def2svpp em=gd3bj nosymm
 ------------------------------------------
 1/18=20,19=15,26=3,38=1/1,3;
 2/9=110,12=2,15=1,17=6,18=5,40=1/2;
 3/5=43,7=202,11=2,25=1,30=1,71=1,74=-5,124=41/1,2,3;
 4//1;
 5/5=2,38=5/2;
 6/7=2,8=2,9=2,10=2,28=1/1;
 7/30=1/1,2,3,16;
 1/18=20,19=15,26=3/3(2);
 2/9=110,15=1/2;
 99//99;
 2/9=110,15=1/2;
 3/5=43,7=202,11=2,25=1,30=1,71=1,74=-5,124=41/1,2,3;
 4/5=5,16=3,69=1/1;
 5/5=2,38=5/2;
 7/30=1/1,2,3,16;
 1/18=20,19=15,26=3/3(-5);
 2/9=110,15=1/2;
 6/7=2,8=2,9=2,10=2,19=2,28=1/1;
 99/9=1/99;
 Leave Link    1 at Sat Feb  8 09:10:08 2025, MaxMem= 13421772800 cpu:               1.8 elap:               0.1
 (Enter /public/software/apps/Gaussian/g16/l101.exe)
 ------------------
 $$$$Title####0????
 ------------------
 Symbolic Z-matrix:
 Charge =  0 Multiplicity = 2
 O                    -1.44918   0.67406   0.33122 
 C                    -2.04244  -0.54241   0.00074 
 C                    -3.37685  -0.58125  -0.45271 
 C                    -4.17884   0.66676  -0.55395 
 C                    -5.39892   0.82344  -1.19324 
 C                    -5.752     2.14485  -1.02517 
 C                    -4.7284    2.72219  -0.29284 
 C                    -4.62993   4.13209   0.15072 
 C                    -3.50925   4.54905   0.89183 
 C                    -3.39581   5.8751    1.32039 
 C                    -4.39782   6.79832   1.01476 
 C                    -5.51539   6.3971    0.27978 
 C                    -5.63431   5.07204  -0.15166 
 O                    -3.81322   1.81618  -0.03185 
 C                    -3.94243  -1.8189   -0.80087 
 C                    -3.19515  -3.00065  -0.72088 
 C                    -3.77632  -4.22467  -1.09178 
 C                    -3.03413  -5.40469  -1.02947 
 C                    -1.70729  -5.37501  -0.60178 
 C                    -1.11564  -4.16669  -0.22722 
 C                    -1.85245  -2.96296  -0.27016 
 C                    -1.28522  -1.72356   0.11488 
 C                     0.10966  -1.62944   0.62612 
 C                     1.08836  -1.03151  -0.19083 
 O                     0.70552  -0.48791  -1.41398 
 C                     2.42994  -0.95438   0.23558 
 C                     3.49632  -0.35962  -0.60521 
 C                     3.53934  -0.29627  -1.98817 
 C                     4.73      0.32177  -2.30343 
 C                     5.34917   0.59645  -1.09508 
 C                     6.66112   1.25351  -0.89123 
 C                     7.43497   1.70726  -1.97713 
 C                     8.67035   2.32441  -1.75582 
 C                     9.14623   2.49554  -0.45414 
 C                     8.38747   2.05014   0.63011 
 C                     7.15157   1.43265   0.41504 
 O                     4.58971   0.17465  -0.10892 
 C                     2.77273  -1.43393   1.50721 
 C                     1.80726  -2.00131   2.34731 
 C                     2.17264  -2.46919   3.62021 
 C                     1.21383  -3.02455   4.46835 
 C                    -0.1159   -3.11383   4.05802 
 C                    -0.49501  -2.65426   2.79481 
 C                     0.46115  -2.10084   1.91551 
 H                    -5.96828   0.08002  -1.73349 
 H                    -6.64939   2.61514  -1.4021 
 H                    -2.72006   3.85006   1.14013 
 H                    -2.52977   6.18681   1.88992 
 H                    -4.30846   7.82442   1.34738 
 H                    -6.29136   7.11389   0.04374 
 H                    -6.51101   4.79217  -0.71864 
 H                    -4.97077  -1.87246  -1.13373 
 H                    -4.80363  -4.26818  -1.43396 
 H                    -3.48744  -6.34414  -1.31847 
 H                    -1.13356  -6.29198  -0.56151 
 H                    -0.08157  -4.18432   0.09062 
 H                     2.81909  -0.68278  -2.69546 
 H                     5.09428   0.52583  -3.30051 
 H                     7.09341   1.5905   -2.99602 
 H                     9.25933   2.67072  -2.59534 
 H                     10.10266   2.9734   -0.28576 
 H                     8.75682   2.18352   1.63875 
 H                     6.58      1.09493   1.27073 
 H                     3.80178  -1.36957   1.84408 
 H                     3.19935  -2.40242   3.9604 
 H                     1.50167  -3.38216   5.44857 
 H                    -0.85729  -3.53886   4.72236 
 H                    -1.53801  -2.73199   2.51799 
 Cu                   -0.32657   1.16738  -1.20079 
 
 ITRead=  0  0  0  0  0  0  0  0  0  0  0  0  0  0  0  0  0  0  0  0
 ITRead=  0  0  0  0  0  0  0  0  0  0  0  0  0  0  0  0  0  0  0  0
 ITRead=  0  0  0  0  0  0  0  0  0  0  0  0  0  0  0  0  0  0  0  0
 ITRead=  0  0  0  0  0  0  0  0  0
 MicOpt= -1 -1 -1 -1 -1 -1 -1 -1 -1 -1 -1 -1 -1 -1 -1 -1 -1 -1 -1 -1
 MicOpt= -1 -1 -1 -1 -1 -1 -1 -1 -1 -1 -1 -1 -1 -1 -1 -1 -1 -1 -1 -1
 MicOpt= -1 -1 -1 -1 -1 -1 -1 -1 -1 -1 -1 -1 -1 -1 -1 -1 -1 -1 -1 -1
 MicOpt= -1 -1 -1 -1 -1 -1 -1 -1 -1
 NAtoms=     69 NQM=       69 NQMF=       0 NMMI=      0 NMMIF=      0
                NMic=       0 NMicF=      0.
                    Isotopes and Nuclear Properties:
 (Nuclear quadrupole moments (NQMom) in fm**2, nuclear magnetic moments (NMagM)
  in nuclear magnetons)

  Atom         1           2           3           4           5           6           7           8           9          10
 IAtWgt=          16          12          12          12          12          12          12          12          12          12
 AtmWgt=  15.9949146  12.0000000  12.0000000  12.0000000  12.0000000  12.0000000  12.0000000  12.0000000  12.0000000  12.0000000
 NucSpn=           0           0           0           0           0           0           0           0           0           0
 AtZEff=  -0.0000000  -0.0000000  -0.0000000  -0.0000000  -0.0000000  -0.0000000  -0.0000000  -0.0000000  -0.0000000  -0.0000000
 NQMom=    0.0000000   0.0000000   0.0000000   0.0000000   0.0000000   0.0000000   0.0000000   0.0000000   0.0000000   0.0000000
 NMagM=    0.0000000   0.0000000   0.0000000   0.0000000   0.0000000   0.0000000   0.0000000   0.0000000   0.0000000   0.0000000
 AtZNuc=   8.0000000   6.0000000   6.0000000   6.0000000   6.0000000   6.0000000   6.0000000   6.0000000   6.0000000   6.0000000

  Atom        11          12          13          14          15          16          17          18          19          20
 IAtWgt=          12          12          12          16          12          12          12          12          12          12
 AtmWgt=  12.0000000  12.0000000  12.0000000  15.9949146  12.0000000  12.0000000  12.0000000  12.0000000  12.0000000  12.0000000
 NucSpn=           0           0           0           0           0           0           0           0           0           0
 AtZEff=  -0.0000000  -0.0000000  -0.0000000  -0.0000000  -0.0000000  -0.0000000  -0.0000000  -0.0000000  -0.0000000  -0.0000000
 NQMom=    0.0000000   0.0000000   0.0000000   0.0000000   0.0000000   0.0000000   0.0000000   0.0000000   0.0000000   0.0000000
 NMagM=    0.0000000   0.0000000   0.0000000   0.0000000   0.0000000   0.0000000   0.0000000   0.0000000   0.0000000   0.0000000
 AtZNuc=   6.0000000   6.0000000   6.0000000   8.0000000   6.0000000   6.0000000   6.0000000   6.0000000   6.0000000   6.0000000

  Atom        21          22          23          24          25          26          27          28          29          30
 IAtWgt=          12          12          12          12          16          12          12          12          12          12
 AtmWgt=  12.0000000  12.0000000  12.0000000  12.0000000  15.9949146  12.0000000  12.0000000  12.0000000  12.0000000  12.0000000
 NucSpn=           0           0           0           0           0           0           0           0           0           0
 AtZEff=  -0.0000000  -0.0000000  -0.0000000  -0.0000000  -0.0000000  -0.0000000  -0.0000000  -0.0000000  -0.0000000  -0.0000000
 NQMom=    0.0000000   0.0000000   0.0000000   0.0000000   0.0000000   0.0000000   0.0000000   0.0000000   0.0000000   0.0000000
 NMagM=    0.0000000   0.0000000   0.0000000   0.0000000   0.0000000   0.0000000   0.0000000   0.0000000   0.0000000   0.0000000
 AtZNuc=   6.0000000   6.0000000   6.0000000   6.0000000   8.0000000   6.0000000   6.0000000   6.0000000   6.0000000   6.0000000

  Atom        31          32          33          34          35          36          37          38          39          40
 IAtWgt=          12          12          12          12          12          12          16          12          12          12
 AtmWgt=  12.0000000  12.0000000  12.0000000  12.0000000  12.0000000  12.0000000  15.9949146  12.0000000  12.0000000  12.0000000
 NucSpn=           0           0           0           0           0           0           0           0           0           0
 AtZEff=  -0.0000000  -0.0000000  -0.0000000  -0.0000000  -0.0000000  -0.0000000  -0.0000000  -0.0000000  -0.0000000  -0.0000000
 NQMom=    0.0000000   0.0000000   0.0000000   0.0000000   0.0000000   0.0000000   0.0000000   0.0000000   0.0000000   0.0000000
 NMagM=    0.0000000   0.0000000   0.0000000   0.0000000   0.0000000   0.0000000   0.0000000   0.0000000   0.0000000   0.0000000
 AtZNuc=   6.0000000   6.0000000   6.0000000   6.0000000   6.0000000   6.0000000   8.0000000   6.0000000   6.0000000   6.0000000

  Atom        41          42          43          44          45          46          47          48          49          50
 IAtWgt=          12          12          12          12           1           1           1           1           1           1
 AtmWgt=  12.0000000  12.0000000  12.0000000  12.0000000   1.0078250   1.0078250   1.0078250   1.0078250   1.0078250   1.0078250
 NucSpn=           0           0           0           0           1           1           1           1           1           1
 AtZEff=  -0.0000000  -0.0000000  -0.0000000  -0.0000000  -0.0000000  -0.0000000  -0.0000000  -0.0000000  -0.0000000  -0.0000000
 NQMom=    0.0000000   0.0000000   0.0000000   0.0000000   0.0000000   0.0000000   0.0000000   0.0000000   0.0000000   0.0000000
 NMagM=    0.0000000   0.0000000   0.0000000   0.0000000   2.7928460   2.7928460   2.7928460   2.7928460   2.7928460   2.7928460
 AtZNuc=   6.0000000   6.0000000   6.0000000   6.0000000   1.0000000   1.0000000   1.0000000   1.0000000   1.0000000   1.0000000

  Atom        51          52          53          54          55          56          57          58          59          60
 IAtWgt=           1           1           1           1           1           1           1           1           1           1
 AtmWgt=   1.0078250   1.0078250   1.0078250   1.0078250   1.0078250   1.0078250   1.0078250   1.0078250   1.0078250   1.0078250
 NucSpn=           1           1           1           1           1           1           1           1           1           1
 AtZEff=  -0.0000000  -0.0000000  -0.0000000  -0.0000000  -0.0000000  -0.0000000  -0.0000000  -0.0000000  -0.0000000  -0.0000000
 NQMom=    0.0000000   0.0000000   0.0000000   0.0000000   0.0000000   0.0000000   0.0000000   0.0000000   0.0000000   0.0000000
 NMagM=    2.7928460   2.7928460   2.7928460   2.7928460   2.7928460   2.7928460   2.7928460   2.7928460   2.7928460   2.7928460
 AtZNuc=   1.0000000   1.0000000   1.0000000   1.0000000   1.0000000   1.0000000   1.0000000   1.0000000   1.0000000   1.0000000

  Atom        61          62          63          64          65          66          67          68          69
 IAtWgt=           1           1           1           1           1           1           1           1          63
 AtmWgt=   1.0078250   1.0078250   1.0078250   1.0078250   1.0078250   1.0078250   1.0078250   1.0078250  62.9295992
 NucSpn=           1           1           1           1           1           1           1           1           3
 AtZEff=  -0.0000000  -0.0000000  -0.0000000  -0.0000000  -0.0000000  -0.0000000  -0.0000000  -0.0000000  -0.0000000
 NQMom=    0.0000000   0.0000000   0.0000000   0.0000000   0.0000000   0.0000000   0.0000000   0.0000000 -22.0000000
 NMagM=    2.7928460   2.7928460   2.7928460   2.7928460   2.7928460   2.7928460   2.7928460   2.7928460   2.2233000
 AtZNuc=   1.0000000   1.0000000   1.0000000   1.0000000   1.0000000   1.0000000   1.0000000   1.0000000  29.0000000
 Leave Link  101 at Sat Feb  8 09:10:08 2025, MaxMem= 13421772800 cpu:               3.3 elap:               0.1
 (Enter /public/software/apps/Gaussian/g16/l103.exe)

 GradGradGradGradGradGradGradGradGradGradGradGradGradGradGradGradGradGrad
 Berny optimization.
 Initialization pass.
                           ----------------------------
                           !    Initial Parameters    !
                           ! (Angstroms and Degrees)  !
 --------------------------                            --------------------------
 ! Name  Definition              Value          Derivative Info.                !
 --------------------------------------------------------------------------------
 ! R1    R(1,2)                  1.3932         estimate D2E/DX2                !
 ! R2    R(1,69)                 1.9623         estimate D2E/DX2                !
 ! R3    R(2,3)                  1.4099         estimate D2E/DX2                !
 ! R4    R(2,22)                 1.4077         estimate D2E/DX2                !
 ! R5    R(3,4)                  1.4869         estimate D2E/DX2                !
 ! R6    R(3,15)                 1.4046         estimate D2E/DX2                !
 ! R7    R(4,5)                  1.3863         estimate D2E/DX2                !
 ! R8    R(4,14)                 1.3143         estimate D2E/DX2                !
 ! R9    R(5,6)                  1.378          estimate D2E/DX2                !
 ! R10   R(5,45)                 1.0811         estimate D2E/DX2                !
 ! R11   R(6,7)                  1.3847         estimate D2E/DX2                !
 ! R12   R(6,46)                 1.081          estimate D2E/DX2                !
 ! R13   R(7,8)                  1.4813         estimate D2E/DX2                !
 ! R14   R(7,14)                 1.314          estimate D2E/DX2                !
 ! R15   R(8,9)                  1.4068         estimate D2E/DX2                !
 ! R16   R(8,13)                 1.4085         estimate D2E/DX2                !
 ! R17   R(9,10)                 1.3982         estimate D2E/DX2                !
 ! R18   R(9,47)                 1.0831         estimate D2E/DX2                !
 ! R19   R(10,11)                1.3963         estimate D2E/DX2                !
 ! R20   R(10,48)                1.0824         estimate D2E/DX2                !
 ! R21   R(11,12)                1.3965         estimate D2E/DX2                !
 ! R22   R(11,49)                1.0824         estimate D2E/DX2                !
 ! R23   R(12,13)                1.3986         estimate D2E/DX2                !
 ! R24   R(12,50)                1.0824         estimate D2E/DX2                !
 ! R25   R(13,51)                1.0809         estimate D2E/DX2                !
 ! R26   R(15,16)                1.4005         estimate D2E/DX2                !
 ! R27   R(15,52)                1.0822         estimate D2E/DX2                !
 ! R28   R(16,17)                1.4048         estimate D2E/DX2                !
 ! R29   R(16,21)                1.4168         estimate D2E/DX2                !
 ! R30   R(17,18)                1.3954         estimate D2E/DX2                !
 ! R31   R(17,53)                1.0837         estimate D2E/DX2                !
 ! R32   R(18,19)                1.3944         estimate D2E/DX2                !
 ! R33   R(18,54)                1.0824         estimate D2E/DX2                !
 ! R34   R(19,20)                1.3966         estimate D2E/DX2                !
 ! R35   R(19,55)                1.0824         estimate D2E/DX2                !
 ! R36   R(20,21)                1.412          estimate D2E/DX2                !
 ! R37   R(20,56)                1.082          estimate D2E/DX2                !
 ! R38   R(21,22)                1.4164         estimate D2E/DX2                !
 ! R39   R(22,23)                1.4886         estimate D2E/DX2                !
 ! R40   R(23,24)                1.4081         estimate D2E/DX2                !
 ! R41   R(23,44)                1.4171         estimate D2E/DX2                !
 ! R42   R(24,25)                1.3922         estimate D2E/DX2                !
 ! R43   R(24,26)                1.4098         estimate D2E/DX2                !
 ! R44   R(25,69)                1.9623         estimate D2E/DX2                !
 ! R45   R(26,27)                1.4825         estimate D2E/DX2                !
 ! R46   R(26,38)                1.4016         estimate D2E/DX2                !
 ! R47   R(27,28)                1.3851         estimate D2E/DX2                !
 ! R48   R(27,37)                1.3143         estimate D2E/DX2                !
 ! R49   R(28,29)                1.3781         estimate D2E/DX2                !
 ! R50   R(28,57)                1.0809         estimate D2E/DX2                !
 ! R51   R(29,30)                1.3853         estimate D2E/DX2                !
 ! R52   R(29,58)                1.081          estimate D2E/DX2                !
 ! R53   R(30,31)                1.4814         estimate D2E/DX2                !
 ! R54   R(30,37)                1.3142         estimate D2E/DX2                !
 ! R55   R(31,32)                1.4085         estimate D2E/DX2                !
 ! R56   R(31,36)                1.4068         estimate D2E/DX2                !
 ! R57   R(32,33)                1.3986         estimate D2E/DX2                !
 ! R58   R(32,59)                1.0809         estimate D2E/DX2                !
 ! R59   R(33,34)                1.3965         estimate D2E/DX2                !
 ! R60   R(33,60)                1.0824         estimate D2E/DX2                !
 ! R61   R(34,35)                1.3963         estimate D2E/DX2                !
 ! R62   R(34,61)                1.0823         estimate D2E/DX2                !
 ! R63   R(35,36)                1.3982         estimate D2E/DX2                !
 ! R64   R(35,62)                1.0824         estimate D2E/DX2                !
 ! R65   R(36,63)                1.083          estimate D2E/DX2                !
 ! R66   R(38,39)                1.3999         estimate D2E/DX2                !
 ! R67   R(38,64)                1.0847         estimate D2E/DX2                !
 ! R68   R(39,40)                1.4045         estimate D2E/DX2                !
 ! R69   R(39,44)                1.4172         estimate D2E/DX2                !
 ! R70   R(40,41)                1.3954         estimate D2E/DX2                !
 ! R71   R(40,65)                1.0837         estimate D2E/DX2                !
 ! R72   R(41,42)                1.3945         estimate D2E/DX2                !
 ! R73   R(41,66)                1.0824         estimate D2E/DX2                !
 ! R74   R(42,43)                1.3967         estimate D2E/DX2                !
 ! R75   R(42,67)                1.0824         estimate D2E/DX2                !
 ! R76   R(43,44)                1.412          estimate D2E/DX2                !
 ! R77   R(43,68)                1.0819         estimate D2E/DX2                !
 ! A1    A(2,1,69)             106.1367         estimate D2E/DX2                !
 ! A2    A(1,2,3)              120.2243         estimate D2E/DX2                !
 ! A3    A(1,2,22)             118.97           estimate D2E/DX2                !
 ! A4    A(3,2,22)             120.8029         estimate D2E/DX2                !
 ! A5    A(2,3,4)              120.6141         estimate D2E/DX2                !
 ! A6    A(2,3,15)             119.0198         estimate D2E/DX2                !
 ! A7    A(4,3,15)             120.365          estimate D2E/DX2                !
 ! A8    A(3,4,5)              126.9377         estimate D2E/DX2                !
 ! A9    A(3,4,14)             123.8439         estimate D2E/DX2                !
 ! A10   A(5,4,14)             109.2183         estimate D2E/DX2                !
 ! A11   A(4,5,6)              106.119          estimate D2E/DX2                !
 ! A12   A(4,5,45)             128.0422         estimate D2E/DX2                !
 ! A13   A(6,5,45)             125.832          estimate D2E/DX2                !
 ! A14   A(5,6,7)              105.9565         estimate D2E/DX2                !
 ! A15   A(5,6,46)             125.969          estimate D2E/DX2                !
 ! A16   A(7,6,46)             128.0738         estimate D2E/DX2                !
 ! A17   A(6,7,8)              127.1826         estimate D2E/DX2                !
 ! A18   A(6,7,14)             109.4157         estimate D2E/DX2                !
 ! A19   A(8,7,14)             123.4016         estimate D2E/DX2                !
 ! A20   A(7,8,9)              119.526          estimate D2E/DX2                !
 ! A21   A(7,8,13)             121.5677         estimate D2E/DX2                !
 ! A22   A(9,8,13)             118.9064         estimate D2E/DX2                !
 ! A23   A(8,9,10)             120.4782         estimate D2E/DX2                !
 ! A24   A(8,9,47)             120.6607         estimate D2E/DX2                !
 ! A25   A(10,9,47)            118.861          estimate D2E/DX2                !
 ! A26   A(9,10,11)            120.1156         estimate D2E/DX2                !
 ! A27   A(9,10,48)            119.9548         estimate D2E/DX2                !
 ! A28   A(11,10,48)           119.9296         estimate D2E/DX2                !
 ! A29   A(10,11,12)           119.9681         estimate D2E/DX2                !
 ! A30   A(10,11,49)           120.0192         estimate D2E/DX2                !
 ! A31   A(12,11,49)           120.0127         estimate D2E/DX2                !
 ! A32   A(11,12,13)           120.1725         estimate D2E/DX2                !
 ! A33   A(11,12,50)           119.8825         estimate D2E/DX2                !
 ! A34   A(13,12,50)           119.945          estimate D2E/DX2                !
 ! A35   A(8,13,12)            120.3591         estimate D2E/DX2                !
 ! A36   A(8,13,51)            121.2113         estimate D2E/DX2                !
 ! A37   A(12,13,51)           118.4296         estimate D2E/DX2                !
 ! A38   A(4,14,7)             109.2905         estimate D2E/DX2                !
 ! A39   A(3,15,16)            120.9644         estimate D2E/DX2                !
 ! A40   A(3,15,52)            120.164          estimate D2E/DX2                !
 ! A41   A(16,15,52)           118.8713         estimate D2E/DX2                !
 ! A42   A(15,16,17)           119.9592         estimate D2E/DX2                !
 ! A43   A(15,16,21)           120.0924         estimate D2E/DX2                !
 ! A44   A(17,16,21)           119.9481         estimate D2E/DX2                !
 ! A45   A(16,17,18)           120.3296         estimate D2E/DX2                !
 ! A46   A(16,17,53)           120.6991         estimate D2E/DX2                !
 ! A47   A(18,17,53)           118.9707         estimate D2E/DX2                !
 ! A48   A(17,18,19)           120.1201         estimate D2E/DX2                !
 ! A49   A(17,18,54)           119.9529         estimate D2E/DX2                !
 ! A50   A(19,18,54)           119.9262         estimate D2E/DX2                !
 ! A51   A(18,19,20)           120.2522         estimate D2E/DX2                !
 ! A52   A(18,19,55)           119.8516         estimate D2E/DX2                !
 ! A53   A(20,19,55)           119.8961         estimate D2E/DX2                !
 ! A54   A(19,20,21)           120.5556         estimate D2E/DX2                !
 ! A55   A(19,20,56)           118.0075         estimate D2E/DX2                !
 ! A56   A(21,20,56)           121.4365         estimate D2E/DX2                !
 ! A57   A(16,21,20)           118.7847         estimate D2E/DX2                !
 ! A58   A(16,21,22)           119.2933         estimate D2E/DX2                !
 ! A59   A(20,21,22)           121.9206         estimate D2E/DX2                !
 ! A60   A(2,22,21)            119.7867         estimate D2E/DX2                !
 ! A61   A(2,22,23)            118.6107         estimate D2E/DX2                !
 ! A62   A(21,22,23)           121.5978         estimate D2E/DX2                !
 ! A63   A(22,23,24)           118.6122         estimate D2E/DX2                !
 ! A64   A(22,23,44)           121.592          estimate D2E/DX2                !
 ! A65   A(24,23,44)           119.7837         estimate D2E/DX2                !
 ! A66   A(23,24,25)           118.9736         estimate D2E/DX2                !
 ! A67   A(23,24,26)           120.6075         estimate D2E/DX2                !
 ! A68   A(25,24,26)           120.4012         estimate D2E/DX2                !
 ! A69   A(24,25,69)           112.2442         estimate D2E/DX2                !
 ! A70   A(24,26,27)           122.3373         estimate D2E/DX2                !
 ! A71   A(24,26,38)           119.2365         estimate D2E/DX2                !
 ! A72   A(27,26,38)           118.4171         estimate D2E/DX2                !
 ! A73   A(26,27,28)           127.3704         estimate D2E/DX2                !
 ! A74   A(26,27,37)           123.1856         estimate D2E/DX2                !
 ! A75   A(28,27,37)           109.4273         estimate D2E/DX2                !
 ! A76   A(27,28,29)           106.0081         estimate D2E/DX2                !
 ! A77   A(27,28,57)           128.0452         estimate D2E/DX2                !
 ! A78   A(29,28,57)           125.901          estimate D2E/DX2                !
 ! A79   A(28,29,30)           105.9957         estimate D2E/DX2                !
 ! A80   A(28,29,58)           125.9334         estimate D2E/DX2                !
 ! A81   A(30,29,58)           128.0637         estimate D2E/DX2                !
 ! A82   A(29,30,31)           127.145          estimate D2E/DX2                !
 ! A83   A(29,30,37)           109.4272         estimate D2E/DX2                !
 ! A84   A(31,30,37)           123.4272         estimate D2E/DX2                !
 ! A85   A(30,31,32)           121.5584         estimate D2E/DX2                !
 ! A86   A(30,31,36)           119.5396         estimate D2E/DX2                !
 ! A87   A(32,31,36)           118.9019         estimate D2E/DX2                !
 ! A88   A(31,32,33)           120.3618         estimate D2E/DX2                !
 ! A89   A(31,32,59)           121.2179         estimate D2E/DX2                !
 ! A90   A(33,32,59)           118.4203         estimate D2E/DX2                !
 ! A91   A(32,33,34)           120.1714         estimate D2E/DX2                !
 ! A92   A(32,33,60)           119.94           estimate D2E/DX2                !
 ! A93   A(34,33,60)           119.8886         estimate D2E/DX2                !
 ! A94   A(33,34,35)           119.9691         estimate D2E/DX2                !
 ! A95   A(33,34,61)           120.0164         estimate D2E/DX2                !
 ! A96   A(35,34,61)           120.0145         estimate D2E/DX2                !
 ! A97   A(34,35,36)           120.1158         estimate D2E/DX2                !
 ! A98   A(34,35,62)           119.9248         estimate D2E/DX2                !
 ! A99   A(36,35,62)           119.9594         estimate D2E/DX2                !
 ! A100  A(31,36,35)           120.4801         estimate D2E/DX2                !
 ! A101  A(31,36,63)           120.6602         estimate D2E/DX2                !
 ! A102  A(35,36,63)           118.8598         estimate D2E/DX2                !
 ! A103  A(27,37,30)           109.1399         estimate D2E/DX2                !
 ! A104  A(26,38,39)           120.9605         estimate D2E/DX2                !
 ! A105  A(26,38,64)           119.57           estimate D2E/DX2                !
 ! A106  A(39,38,64)           119.4688         estimate D2E/DX2                !
 ! A107  A(38,39,40)           119.9643         estimate D2E/DX2                !
 ! A108  A(38,39,44)           120.0457         estimate D2E/DX2                !
 ! A109  A(40,39,44)           119.9899         estimate D2E/DX2                !
 ! A110  A(39,40,41)           120.3106         estimate D2E/DX2                !
 ! A111  A(39,40,65)           120.6944         estimate D2E/DX2                !
 ! A112  A(41,40,65)           118.9947         estimate D2E/DX2                !
 ! A113  A(40,41,42)           120.1228         estimate D2E/DX2                !
 ! A114  A(40,41,66)           119.9475         estimate D2E/DX2                !
 ! A115  A(42,41,66)           119.929          estimate D2E/DX2                !
 ! A116  A(41,42,43)           120.2597         estimate D2E/DX2                !
 ! A117  A(41,42,67)           119.8461         estimate D2E/DX2                !
 ! A118  A(43,42,67)           119.894          estimate D2E/DX2                !
 ! A119  A(42,43,44)           120.5573         estimate D2E/DX2                !
 ! A120  A(42,43,68)           117.9987         estimate D2E/DX2                !
 ! A121  A(44,43,68)           121.4434         estimate D2E/DX2                !
 ! A122  A(23,44,39)           119.3052         estimate D2E/DX2                !
 ! A123  A(23,44,43)           121.9389         estimate D2E/DX2                !
 ! A124  A(39,44,43)           118.7511         estimate D2E/DX2                !
 ! A125  A(1,69,25)            100.0            estimate D2E/DX2                !
 ! D1    D(69,1,2,3)          -100.9306         estimate D2E/DX2                !
 ! D2    D(69,1,2,22)           78.461          estimate D2E/DX2                !
 ! D3    D(2,1,69,25)          -51.6773         estimate D2E/DX2                !
 ! D4    D(1,2,3,4)             -1.4628         estimate D2E/DX2                !
 ! D5    D(1,2,3,15)           178.9119         estimate D2E/DX2                !
 ! D6    D(22,2,3,4)           179.1569         estimate D2E/DX2                !
 ! D7    D(22,2,3,15)           -0.4685         estimate D2E/DX2                !
 ! D8    D(1,2,22,21)         -177.3344         estimate D2E/DX2                !
 ! D9    D(1,2,22,23)            1.8873         estimate D2E/DX2                !
 ! D10   D(3,2,22,21)            2.0536         estimate D2E/DX2                !
 ! D11   D(3,2,22,23)         -178.7247         estimate D2E/DX2                !
 ! D12   D(2,3,4,5)            167.7224         estimate D2E/DX2                !
 ! D13   D(2,3,4,14)           -12.1549         estimate D2E/DX2                !
 ! D14   D(15,3,4,5)           -12.6573         estimate D2E/DX2                !
 ! D15   D(15,3,4,14)          167.4654         estimate D2E/DX2                !
 ! D16   D(2,3,15,16)           -0.9077         estimate D2E/DX2                !
 ! D17   D(2,3,15,52)          178.8705         estimate D2E/DX2                !
 ! D18   D(4,3,15,16)          179.466          estimate D2E/DX2                !
 ! D19   D(4,3,15,52)           -0.7558         estimate D2E/DX2                !
 ! D20   D(3,4,5,6)           -179.9114         estimate D2E/DX2                !
 ! D21   D(3,4,5,45)            -0.8254         estimate D2E/DX2                !
 ! D22   D(14,4,5,6)            -0.0194         estimate D2E/DX2                !
 ! D23   D(14,4,5,45)          179.0667         estimate D2E/DX2                !
 ! D24   D(3,4,14,7)           179.924          estimate D2E/DX2                !
 ! D25   D(5,4,14,7)             0.0278         estimate D2E/DX2                !
 ! D26   D(4,5,6,7)              0.004          estimate D2E/DX2                !
 ! D27   D(4,5,6,46)           179.7246         estimate D2E/DX2                !
 ! D28   D(45,5,6,7)          -179.1082         estimate D2E/DX2                !
 ! D29   D(45,5,6,46)            0.6124         estimate D2E/DX2                !
 ! D30   D(5,6,7,8)            179.9348         estimate D2E/DX2                !
 ! D31   D(5,6,7,14)             0.0126         estimate D2E/DX2                !
 ! D32   D(46,6,7,8)             0.2221         estimate D2E/DX2                !
 ! D33   D(46,6,7,14)         -179.7001         estimate D2E/DX2                !
 ! D34   D(6,7,8,9)           -179.944          estimate D2E/DX2                !
 ! D35   D(6,7,8,13)             0.0485         estimate D2E/DX2                !
 ! D36   D(14,7,8,9)            -0.0318         estimate D2E/DX2                !
 ! D37   D(14,7,8,13)          179.9606         estimate D2E/DX2                !
 ! D38   D(6,7,14,4)            -0.0253         estimate D2E/DX2                !
 ! D39   D(8,7,14,4)          -179.951          estimate D2E/DX2                !
 ! D40   D(7,8,9,10)           179.9895         estimate D2E/DX2                !
 ! D41   D(7,8,9,47)             0.0027         estimate D2E/DX2                !
 ! D42   D(13,8,9,10)           -0.0032         estimate D2E/DX2                !
 ! D43   D(13,8,9,47)         -179.9899         estimate D2E/DX2                !
 ! D44   D(7,8,13,12)         -179.993          estimate D2E/DX2                !
 ! D45   D(7,8,13,51)            0.0093         estimate D2E/DX2                !
 ! D46   D(9,8,13,12)           -0.0006         estimate D2E/DX2                !
 ! D47   D(9,8,13,51)         -179.9983         estimate D2E/DX2                !
 ! D48   D(8,9,10,11)            0.0046         estimate D2E/DX2                !
 ! D49   D(8,9,10,48)         -179.9845         estimate D2E/DX2                !
 ! D50   D(47,9,10,11)         179.9916         estimate D2E/DX2                !
 ! D51   D(47,9,10,48)           0.0025         estimate D2E/DX2                !
 ! D52   D(9,10,11,12)          -0.0023         estimate D2E/DX2                !
 ! D53   D(9,10,11,49)         179.994          estimate D2E/DX2                !
 ! D54   D(48,10,11,12)        179.9868         estimate D2E/DX2                !
 ! D55   D(48,10,11,49)         -0.0169         estimate D2E/DX2                !
 ! D56   D(10,11,12,13)         -0.0015         estimate D2E/DX2                !
 ! D57   D(10,11,12,50)        179.9932         estimate D2E/DX2                !
 ! D58   D(49,11,12,13)       -179.9977         estimate D2E/DX2                !
 ! D59   D(49,11,12,50)         -0.003          estimate D2E/DX2                !
 ! D60   D(11,12,13,8)           0.0029         estimate D2E/DX2                !
 ! D61   D(11,12,13,51)       -179.9994         estimate D2E/DX2                !
 ! D62   D(50,12,13,8)        -179.9918         estimate D2E/DX2                !
 ! D63   D(50,12,13,51)          0.006          estimate D2E/DX2                !
 ! D64   D(3,15,16,17)        -179.1296         estimate D2E/DX2                !
 ! D65   D(3,15,16,21)           0.6819         estimate D2E/DX2                !
 ! D66   D(52,15,16,17)          1.0893         estimate D2E/DX2                !
 ! D67   D(52,15,16,21)       -179.0991         estimate D2E/DX2                !
 ! D68   D(15,16,17,18)        179.2741         estimate D2E/DX2                !
 ! D69   D(15,16,17,53)         -0.4654         estimate D2E/DX2                !
 ! D70   D(21,16,17,18)         -0.5377         estimate D2E/DX2                !
 ! D71   D(21,16,17,53)        179.7228         estimate D2E/DX2                !
 ! D72   D(15,16,21,20)       -178.6735         estimate D2E/DX2                !
 ! D73   D(15,16,21,22)          0.909          estimate D2E/DX2                !
 ! D74   D(17,16,21,20)          1.138          estimate D2E/DX2                !
 ! D75   D(17,16,21,22)       -179.2794         estimate D2E/DX2                !
 ! D76   D(16,17,18,19)         -0.2005         estimate D2E/DX2                !
 ! D77   D(16,17,18,54)       -179.8854         estimate D2E/DX2                !
 ! D78   D(53,17,18,19)        179.5435         estimate D2E/DX2                !
 ! D79   D(53,17,18,54)         -0.1414         estimate D2E/DX2                !
 ! D80   D(17,18,19,20)          0.3201         estimate D2E/DX2                !
 ! D81   D(17,18,19,55)       -179.5864         estimate D2E/DX2                !
 ! D82   D(54,18,19,20)       -179.995          estimate D2E/DX2                !
 ! D83   D(54,18,19,55)          0.0985         estimate D2E/DX2                !
 ! D84   D(18,19,20,21)          0.3038         estimate D2E/DX2                !
 ! D85   D(18,19,20,56)       -179.4788         estimate D2E/DX2                !
 ! D86   D(55,19,20,21)       -179.7897         estimate D2E/DX2                !
 ! D87   D(55,19,20,56)          0.4276         estimate D2E/DX2                !
 ! D88   D(19,20,21,16)         -1.026          estimate D2E/DX2                !
 ! D89   D(19,20,21,22)        179.4029         estimate D2E/DX2                !
 ! D90   D(56,20,21,16)        178.7491         estimate D2E/DX2                !
 ! D91   D(56,20,21,22)         -0.822          estimate D2E/DX2                !
 ! D92   D(16,21,22,2)          -2.2559         estimate D2E/DX2                !
 ! D93   D(16,21,22,23)        178.5463         estimate D2E/DX2                !
 ! D94   D(20,21,22,2)         177.3131         estimate D2E/DX2                !
 ! D95   D(20,21,22,23)         -1.8847         estimate D2E/DX2                !
 ! D96   D(2,22,23,24)         -70.3803         estimate D2E/DX2                !
 ! D97   D(2,22,23,44)         108.3523         estimate D2E/DX2                !
 ! D98   D(21,22,23,24)        108.8267         estimate D2E/DX2                !
 ! D99   D(21,22,23,44)        -72.4407         estimate D2E/DX2                !
 ! D100  D(22,23,24,25)          3.3359         estimate D2E/DX2                !
 ! D101  D(22,23,24,26)       -178.193          estimate D2E/DX2                !
 ! D102  D(44,23,24,25)       -175.4202         estimate D2E/DX2                !
 ! D103  D(44,23,24,26)          3.0509         estimate D2E/DX2                !
 ! D104  D(22,23,44,39)        179.2662         estimate D2E/DX2                !
 ! D105  D(22,23,44,43)         -1.5387         estimate D2E/DX2                !
 ! D106  D(24,23,44,39)         -2.0158         estimate D2E/DX2                !
 ! D107  D(24,23,44,43)        177.1793         estimate D2E/DX2                !
 ! D108  D(23,24,25,69)         71.7357         estimate D2E/DX2                !
 ! D109  D(26,24,25,69)       -106.7386         estimate D2E/DX2                !
 ! D110  D(23,24,26,27)        178.6611         estimate D2E/DX2                !
 ! D111  D(23,24,26,38)         -2.4509         estimate D2E/DX2                !
 ! D112  D(25,24,26,27)         -2.8897         estimate D2E/DX2                !
 ! D113  D(25,24,26,38)        175.9983         estimate D2E/DX2                !
 ! D114  D(24,25,69,1)         -40.5598         estimate D2E/DX2                !
 ! D115  D(24,26,27,28)        -27.6862         estimate D2E/DX2                !
 ! D116  D(24,26,27,37)        153.9637         estimate D2E/DX2                !
 ! D117  D(38,26,27,28)        153.4171         estimate D2E/DX2                !
 ! D118  D(38,26,27,37)        -24.933          estimate D2E/DX2                !
 ! D119  D(24,26,38,39)          0.8362         estimate D2E/DX2                !
 ! D120  D(24,26,38,64)       -179.4834         estimate D2E/DX2                !
 ! D121  D(27,26,38,39)        179.768          estimate D2E/DX2                !
 ! D122  D(27,26,38,64)         -0.5516         estimate D2E/DX2                !
 ! D123  D(26,27,28,29)       -178.9384         estimate D2E/DX2                !
 ! D124  D(26,27,28,57)         -1.3048         estimate D2E/DX2                !
 ! D125  D(37,27,28,29)         -0.4025         estimate D2E/DX2                !
 ! D126  D(37,27,28,57)        177.2311         estimate D2E/DX2                !
 ! D127  D(26,27,37,30)        179.0439         estimate D2E/DX2                !
 ! D128  D(28,27,37,30)          0.4342         estimate D2E/DX2                !
 ! D129  D(27,28,29,30)          0.2174         estimate D2E/DX2                !
 ! D130  D(27,28,29,58)        179.3031         estimate D2E/DX2                !
 ! D131  D(57,28,29,30)       -177.482          estimate D2E/DX2                !
 ! D132  D(57,28,29,58)          1.6038         estimate D2E/DX2                !
 ! D133  D(28,29,30,31)        179.7758         estimate D2E/DX2                !
 ! D134  D(28,29,30,37)          0.0353         estimate D2E/DX2                !
 ! D135  D(58,29,30,31)          0.716          estimate D2E/DX2                !
 ! D136  D(58,29,30,37)       -179.0245         estimate D2E/DX2                !
 ! D137  D(29,30,31,32)          1.1835         estimate D2E/DX2                !
 ! D138  D(29,30,31,36)       -178.8591         estimate D2E/DX2                !
 ! D139  D(37,30,31,32)       -179.1098         estimate D2E/DX2                !
 ! D140  D(37,30,31,36)          0.8476         estimate D2E/DX2                !
 ! D141  D(29,30,37,27)         -0.2917         estimate D2E/DX2                !
 ! D142  D(31,30,37,27)        179.9562         estimate D2E/DX2                !
 ! D143  D(30,31,32,33)        179.9974         estimate D2E/DX2                !
 ! D144  D(30,31,32,59)          0.0715         estimate D2E/DX2                !
 ! D145  D(36,31,32,33)          0.0397         estimate D2E/DX2                !
 ! D146  D(36,31,32,59)       -179.8862         estimate D2E/DX2                !
 ! D147  D(30,31,36,35)        179.9905         estimate D2E/DX2                !
 ! D148  D(30,31,36,63)          0.0227         estimate D2E/DX2                !
 ! D149  D(32,31,36,35)         -0.0509         estimate D2E/DX2                !
 ! D150  D(32,31,36,63)        179.9813         estimate D2E/DX2                !
 ! D151  D(31,32,33,34)         -0.0048         estimate D2E/DX2                !
 ! D152  D(31,32,33,60)       -179.9865         estimate D2E/DX2                !
 ! D153  D(59,32,33,34)        179.9231         estimate D2E/DX2                !
 ! D154  D(59,32,33,60)         -0.0585         estimate D2E/DX2                !
 ! D155  D(32,33,34,35)         -0.0196         estimate D2E/DX2                !
 ! D156  D(32,33,34,61)        179.9949         estimate D2E/DX2                !
 ! D157  D(60,33,34,35)        179.9621         estimate D2E/DX2                !
 ! D158  D(60,33,34,61)         -0.0234         estimate D2E/DX2                !
 ! D159  D(33,34,35,36)          0.0084         estimate D2E/DX2                !
 ! D160  D(33,34,35,62)       -179.9745         estimate D2E/DX2                !
 ! D161  D(61,34,35,36)        179.9939         estimate D2E/DX2                !
 ! D162  D(61,34,35,62)          0.011          estimate D2E/DX2                !
 ! D163  D(34,35,36,31)          0.0273         estimate D2E/DX2                !
 ! D164  D(34,35,36,63)        179.9956         estimate D2E/DX2                !
 ! D165  D(62,35,36,31)       -179.9899         estimate D2E/DX2                !
 ! D166  D(62,35,36,63)         -0.0215         estimate D2E/DX2                !
 ! D167  D(26,38,39,40)       -179.6826         estimate D2E/DX2                !
 ! D168  D(26,38,39,44)          0.1619         estimate D2E/DX2                !
 ! D169  D(64,38,39,40)          0.6367         estimate D2E/DX2                !
 ! D170  D(64,38,39,44)       -179.5188         estimate D2E/DX2                !
 ! D171  D(38,39,40,41)        179.3979         estimate D2E/DX2                !
 ! D172  D(38,39,40,65)         -0.405          estimate D2E/DX2                !
 ! D173  D(44,39,40,41)         -0.4467         estimate D2E/DX2                !
 ! D174  D(44,39,40,65)        179.7504         estimate D2E/DX2                !
 ! D175  D(38,39,44,23)          0.4263         estimate D2E/DX2                !
 ! D176  D(38,39,44,43)       -178.7946         estimate D2E/DX2                !
 ! D177  D(40,39,44,23)       -179.7293         estimate D2E/DX2                !
 ! D178  D(40,39,44,43)          1.0498         estimate D2E/DX2                !
 ! D179  D(39,40,41,42)         -0.2357         estimate D2E/DX2                !
 ! D180  D(39,40,41,66)       -179.9241         estimate D2E/DX2                !
 ! D181  D(65,40,41,42)        179.5706         estimate D2E/DX2                !
 ! D182  D(65,40,41,66)         -0.1178         estimate D2E/DX2                !
 ! D183  D(40,41,42,43)          0.2971         estimate D2E/DX2                !
 ! D184  D(40,41,42,67)       -179.5556         estimate D2E/DX2                !
 ! D185  D(66,41,42,43)        179.9855         estimate D2E/DX2                !
 ! D186  D(66,41,42,67)          0.1328         estimate D2E/DX2                !
 ! D187  D(41,42,43,44)          0.3287         estimate D2E/DX2                !
 ! D188  D(41,42,43,68)       -179.3829         estimate D2E/DX2                !
 ! D189  D(67,42,43,44)       -179.8187         estimate D2E/DX2                !
 ! D190  D(67,42,43,68)          0.4697         estimate D2E/DX2                !
 ! D191  D(42,43,44,23)        179.8058         estimate D2E/DX2                !
 ! D192  D(42,43,44,39)         -0.9947         estimate D2E/DX2                !
 ! D193  D(68,43,44,23)         -0.4927         estimate D2E/DX2                !
 ! D194  D(68,43,44,39)        178.7068         estimate D2E/DX2                !
 --------------------------------------------------------------------------------
 Trust Radius=3.00D-01 FncErr=1.00D-07 GrdErr=1.00D-06 EigMax=2.50D+02 EigMin=1.00D-04
 Number of steps in this run=    406 maximum allowed number of steps=    414.
 GradGradGradGradGradGradGradGradGradGradGradGradGradGradGradGradGradGrad

 Leave Link  103 at Sat Feb  8 09:10:08 2025, MaxMem= 13421772800 cpu:               0.3 elap:               0.0
 (Enter /public/software/apps/Gaussian/g16/l202.exe)
 Symmetry turned off by external request.
 Stoichiometry    C40H24CuO4(2)
 Framework group  C1[X(C40H24CuO4)]
 Deg. of freedom   201
 Full point group                 C1      NOp   1
                          Input orientation:                          
 ---------------------------------------------------------------------
 Center     Atomic      Atomic             Coordinates (Angstroms)
 Number     Number       Type             X           Y           Z
 ---------------------------------------------------------------------
      1          8           0       -1.449178    0.674063    0.331216
      2          6           0       -2.042441   -0.542405    0.000742
      3          6           0       -3.376854   -0.581254   -0.452706
      4          6           0       -4.178837    0.666758   -0.553949
      5          6           0       -5.398919    0.823442   -1.193235
      6          6           0       -5.751997    2.144847   -1.025174
      7          6           0       -4.728399    2.722194   -0.292838
      8          6           0       -4.629926    4.132087    0.150723
      9          6           0       -3.509254    4.549051    0.891832
     10          6           0       -3.395814    5.875103    1.320390
     11          6           0       -4.397824    6.798319    1.014763
     12          6           0       -5.515392    6.397101    0.279783
     13          6           0       -5.634310    5.072041   -0.151656
     14          8           0       -3.813216    1.816183   -0.031853
     15          6           0       -3.942433   -1.818900   -0.800874
     16          6           0       -3.195150   -3.000648   -0.720876
     17          6           0       -3.776324   -4.224669   -1.091776
     18          6           0       -3.034127   -5.404688   -1.029472
     19          6           0       -1.707293   -5.375009   -0.601780
     20          6           0       -1.115643   -4.166689   -0.227215
     21          6           0       -1.852448   -2.962960   -0.270160
     22          6           0       -1.285220   -1.723557    0.114878
     23          6           0        0.109656   -1.629442    0.626119
     24          6           0        1.088356   -1.031509   -0.190830
     25          8           0        0.705517   -0.487910   -1.413982
     26          6           0        2.429938   -0.954380    0.235578
     27          6           0        3.496316   -0.359623   -0.605209
     28          6           0        3.539341   -0.296274   -1.988173
     29          6           0        4.730000    0.321770   -2.303433
     30          6           0        5.349170    0.596454   -1.095081
     31          6           0        6.661124    1.253506   -0.891231
     32          6           0        7.434972    1.707256   -1.977128
     33          6           0        8.670347    2.324406   -1.755817
     34          6           0        9.146229    2.495536   -0.454142
     35          6           0        8.387468    2.050140    0.630108
     36          6           0        7.151574    1.432650    0.415035
     37          8           0        4.589706    0.174651   -0.108916
     38          6           0        2.772727   -1.433931    1.507208
     39          6           0        1.807257   -2.001314    2.347306
     40          6           0        2.172639   -2.469185    3.620210
     41          6           0        1.213826   -3.024555    4.468355
     42          6           0       -0.115900   -3.113829    4.058020
     43          6           0       -0.495009   -2.654257    2.794805
     44          6           0        0.461154   -2.100835    1.915509
     45          1           0       -5.968277    0.080020   -1.733492
     46          1           0       -6.649385    2.615142   -1.402099
     47          1           0       -2.720060    3.850059    1.140134
     48          1           0       -2.529768    6.186809    1.889916
     49          1           0       -4.308458    7.824419    1.347384
     50          1           0       -6.291359    7.113889    0.043740
     51          1           0       -6.511012    4.792165   -0.718636
     52          1           0       -4.970766   -1.872457   -1.133730
     53          1           0       -4.803625   -4.268180   -1.433960
     54          1           0       -3.487438   -6.344143   -1.318472
     55          1           0       -1.133555   -6.291981   -0.561508
     56          1           0       -0.081572   -4.184318    0.090620
     57          1           0        2.819088   -0.682776   -2.695464
     58          1           0        5.094277    0.525831   -3.300510
     59          1           0        7.093410    1.590495   -2.996019
     60          1           0        9.259329    2.670723   -2.595338
     61          1           0       10.102659    2.973404   -0.285762
     62          1           0        8.756821    2.183521    1.638746
     63          1           0        6.579999    1.094930    1.270730
     64          1           0        3.801784   -1.369573    1.844081
     65          1           0        3.199350   -2.402421    3.960400
     66          1           0        1.501674   -3.382158    5.448571
     67          1           0       -0.857291   -3.538863    4.722359
     68          1           0       -1.538005   -2.731985    2.517994
     69         29           0       -0.326571    1.167382   -1.200786
 ---------------------------------------------------------------------
 Rotational constants (GHZ):           0.0773100           0.0415930           0.0317796
 Leave Link  202 at Sat Feb  8 09:10:08 2025, MaxMem= 13421772800 cpu:               0.1 elap:               0.0
 (Enter /public/software/apps/Gaussian/g16/l301.exe)
 Standard basis: def2SVPP (5D, 7F)
 Ernie: Thresh=  0.10000D-02 Tol=  0.10000D-05 Strict=F.
   688 basis functions,  1267 primitive gaussians,   734 cartesian basis functions
   163 alpha electrons      162 beta electrons
       nuclear repulsion energy      5492.1632300476 Hartrees.
 IExCor=  402 DFT=T Ex+Corr=B3LYP ExCW=0 ScaHFX=  0.200000
 ScaDFX=  0.800000  0.720000  1.000000  0.810000 ScalE2=  1.000000  1.000000
 IRadAn=      5 IRanWt=     -1 IRanGd=            0 ICorTp=0 IEmpDi=141
 NAtoms=   69 NActive=   69 NUniq=   69 SFac= 1.00D+00 NAtFMM=   60 NAOKFM=T Big=T
 Integral buffers will be    131072 words long.
 Raffenetti 2 integral format.
 Two-electron integral symmetry is turned off.
 R6Disp:  Grimme-D3(BJ) Dispersion energy=       -0.1841219817 Hartrees.
 Nuclear repulsion after empirical dispersion term =     5491.9791080659 Hartrees.
 Leave Link  301 at Sat Feb  8 09:10:08 2025, MaxMem= 13421772800 cpu:               0.7 elap:               0.0
 (Enter /public/software/apps/Gaussian/g16/l302.exe)
 NPDir=0 NMtPBC=     1 NCelOv=     1 NCel=       1 NClECP=     1 NCelD=      1
         NCelK=      1 NCelE2=     1 NClLst=     1 CellRange=     0.0.
 One-electron integrals computed using PRISM.
   1 Symmetry operations used in ECPInt.
 ECPInt:  NShTT=   52003 NPrTT=  213562 LenC2=   38533 LenP2D=   95011.
 LDataN:  DoStor=T MaxTD1= 4 Len=   56
 NBasis=   688 RedAO= T EigKep=  1.67D-04  NBF=   688
 NBsUse=   688 1.00D-06 EigRej= -1.00D+00 NBFU=   688
 Precomputing XC quadrature grid using
 IXCGrd= 4 IRadAn=           5 IRanWt=          -1 IRanGd=           0 AccXCQ= 0.00D+00.
 Generated NRdTot=       0 NPtTot=           0 NUsed=           0 NTot=          32
 NSgBfM=   689   689   689   689   689 MxSgAt=    69 MxSgA2=    69.
 Leave Link  302 at Sat Feb  8 09:10:09 2025, MaxMem= 13421772800 cpu:              25.0 elap:               0.8
 (Enter /public/software/apps/Gaussian/g16/l303.exe)
 DipDrv:  MaxL=1.
 Leave Link  303 at Sat Feb  8 09:10:09 2025, MaxMem= 13421772800 cpu:               3.0 elap:               0.1
 (Enter /public/software/apps/Gaussian/g16/l401.exe)
 ExpMin= 3.30D-02 ExpMax= 7.64D+04 ExpMxC= 1.15D+04 IAcc=3 IRadAn=         5 AccDes= 0.00D+00
 Harris functional with IExCor=  402 and IRadAn=       5 diagonalized for initial guess.
 HarFok:  IExCor=  402 AccDes= 0.00D+00 IRadAn=         5 IDoV= 1 UseB2=F ITyADJ=14
 ICtDFT=  3500011 ScaDFX=  1.000000  1.000000  1.000000  1.000000
 FoFCou: FMM=F IPFlag=           0 FMFlag=      100000 FMFlg1=        2001
         NFxFlg=           0 DoJE=T BraDBF=F KetDBF=T FulRan=T
         wScrn=  0.000000 ICntrl=       500 IOpCl=  0 I1Cent=   200000004 NGrid=           0
         NMat0=    1 NMatS0=      1 NMatT0=    0 NMatD0=    1 NMtDS0=    0 NMtDT0=    0
 Symmetry not used in FoFCou.
 Harris En= -3478.93925522907    
 JPrj=0 DoOrth=F DoCkMO=F.
 Initial guess <Sx>= 0.0000 <Sy>= 0.0000 <Sz>= 0.5000 <S**2>= 0.7500 S= 0.5000
 Leave Link  401 at Sat Feb  8 09:10:10 2025, MaxMem= 13421772800 cpu:              52.4 elap:               1.7
 (Enter /public/software/apps/Gaussian/g16/l502.exe)
 Two-electron integral symmetry not used.
 UHF open shell SCF:
 Using DIIS extrapolation, IDIIS=  1040.
 NGot= 13421772800 LenX= 13420664376 LenY= 13420124886
 Requested convergence on RMS density matrix=1.00D-08 within 128 cycles.
 Requested convergence on MAX density matrix=1.00D-06.
 Requested convergence on             energy=1.00D-06.
 No special actions if energy rises.
 Fock matrices will be formed incrementally for  20 cycles.

 Cycle   1  Pass 1  IDiag  1:
 FoFJK:  IHMeth= 1 ICntrl=       0 DoSepK=F KAlg= 0 I1Cent=           0 FoldK=F
 IRaf= 820000000 NMat=       1 IRICut=       1 DoRegI=T DoRafI=F ISym2E= 0 IDoP0=0 IntGTp=1.
 FoFCou: FMM=T IPFlag=           0 FMFlag=      100000 FMFlg1=        2001
         NFxFlg=           0 DoJE=F BraDBF=F KetDBF=F FulRan=T
         wScrn=  0.000000 ICntrl=         0 IOpCl=  1 I1Cent=           0 NGrid=           0
         NMat0=    1 NMatS0=      1 NMatT0=    0 NMatD0=    1 NMtDS0=    0 NMtDT0=    0
 Symmetry not used in FoFCou.
 FMM levels:  10  Number of levels for PrismC:   9
 E= -3453.73569608148    
 DIIS: error= 3.47D-01 at cycle   1 NSaved=   1.
 NSaved= 1 IEnMin= 1 EnMin= -3453.73569608148     IErMin= 1 ErrMin= 3.47D-01
 ErrMax= 3.47D-01  0.00D+00 EMaxC= 1.00D-01 BMatC= 1.10D+02 BMatP= 1.10D+02
 IDIUse=3 WtCom= 0.00D+00 WtEn= 1.00D+00
 Coeff-Com:  0.100D+01
 Coeff-En:   0.100D+01
 Coeff:      0.100D+01
 Gap=    -1.459 Goal=   None    Shift=    0.000
 Gap=    -0.927 Goal=   None    Shift=    0.000
 GapD=   -1.459 DampG=0.250 DampE=0.125 DampFc=0.1250 IDamp=-1.
 Damping current iteration by 1.25D-01
 RMSDP=9.69D-02 MaxDP=1.66D+01              OVMax= 9.92D-01

 Cycle   2  Pass 1  IDiag  1:
 RMSU=  1.21D-02    CP:  1.05D+00
 E= -3462.18261708077     Delta-E=       -8.446920999286 Rises=F Damp=T
 DIIS: error= 1.95D-01 at cycle   2 NSaved=   2.
 NSaved= 2 IEnMin= 2 EnMin= -3462.18261708077     IErMin= 2 ErrMin= 1.95D-01
 ErrMax= 1.95D-01  0.00D+00 EMaxC= 1.00D-01 BMatC= 4.32D+01 BMatP= 1.10D+02
 IDIUse=3 WtCom= 0.00D+00 WtEn= 1.00D+00
 Coeff-Com: -0.130D+01 0.230D+01
 Coeff-En:   0.000D+00 0.100D+01
 Coeff:      0.000D+00 0.100D+01
 Gap=    -0.088 Goal=   None    Shift=    0.000
 Gap=    -0.082 Goal=   None    Shift=    0.000
 RMSDP=2.28D-02 MaxDP=5.92D+00 DE=-8.45D+00 OVMax= 9.74D-01

 Cycle   3  Pass 1  IDiag  1:
 RMSU=  2.25D-02    CP:  9.34D-01  1.27D+00
 E= -3410.81395522101     Delta-E=       51.368661859764 Rises=F Damp=F
 DIIS: error= 1.41D-01 at cycle   3 NSaved=   3.
 NSaved= 3 IEnMin= 2 EnMin= -3462.18261708077     IErMin= 3 ErrMin= 1.41D-01
 ErrMax= 1.41D-01  0.00D+00 EMaxC= 1.00D-01 BMatC= 8.63D+01 BMatP= 4.32D+01
 IDIUse=2 WtCom= 0.00D+00 WtEn= 1.00D+00
 EnCoef did    26 forward-backward iterations
 Coeff-En:   0.521D+00 0.167D+00 0.312D+00
 Coeff:      0.521D+00 0.167D+00 0.312D+00
 Gap=    -0.182 Goal=   None    Shift=    0.000
 Gap=     0.142 Goal=   None    Shift=    0.000
 RMSDP=5.64D-02 MaxDP=1.50D+01 DE= 5.14D+01 OVMax= 9.97D-01

 Cycle   4  Pass 1  IDiag  1:
 RMSU=  5.13D-02    CP:  9.29D-01  2.55D-01  1.15D-01
 E= -3386.46663014719     Delta-E=       24.347325073813 Rises=F Damp=F
 DIIS: error= 1.69D-01 at cycle   4 NSaved=   4.
 NSaved= 4 IEnMin= 2 EnMin= -3462.18261708077     IErMin= 3 ErrMin= 1.41D-01
 ErrMax= 1.69D-01  0.00D+00 EMaxC= 1.00D-01 BMatC= 1.57D+02 BMatP= 4.32D+01
 IDIUse=2 WtCom= 0.00D+00 WtEn= 1.00D+00
 EnCoef did   100 forward-backward iterations
 Coeff-En:   0.562D+00 0.291D-01 0.293D+00 0.115D+00
 Coeff:      0.562D+00 0.291D-01 0.293D+00 0.115D+00
 Gap=    -0.026 Goal=   None    Shift=    0.000
 Gap=     0.318 Goal=   None    Shift=    0.000
 RMSDP=5.13D-02 MaxDP=1.50D+01 DE= 2.43D+01 OVMax= 9.25D-01

 Cycle   5  Pass 1  IDiag  1:
 RMSU=  5.39D-03    CP:  8.87D-01  5.41D-02  8.69D-02  8.03D-03
 E= -3475.63153662164     Delta-E=      -89.164906474445 Rises=F Damp=F
 DIIS: error= 1.52D-01 at cycle   5 NSaved=   5.
 NSaved= 5 IEnMin= 5 EnMin= -3475.63153662164     IErMin= 3 ErrMin= 1.41D-01
 ErrMax= 1.52D-01  0.00D+00 EMaxC= 1.00D-01 BMatC= 1.19D+01 BMatP= 4.32D+01
 IDIUse=3 WtCom= 0.00D+00 WtEn= 1.00D+00
 EnCoef did   100 forward-backward iterations
 Coeff-Com: -0.495D+00 0.961D+00 0.365D-01 0.780D-02 0.490D+00
 Coeff-En:   0.183D+00 0.529D-02 0.000D+00 0.000D+00 0.812D+00
 Coeff:      0.183D+00 0.529D-02 0.000D+00 0.000D+00 0.812D+00
 Gap=     0.422 Goal=   None    Shift=    0.000
 Gap=     0.111 Goal=   None    Shift=    0.000
 RMSDP=6.69D-03 MaxDP=4.17D-01 DE=-8.92D+01 OVMax= 9.69D-01

 Cycle   6  Pass 1  IDiag  1:
 RMSU=  5.62D-03    CP:  8.91D-01  5.19D-02  6.41D-02  1.25D-02  3.36D-01
 E= -3467.75614479026     Delta-E=        7.875391831374 Rises=F Damp=F
 DIIS: error= 7.87D-02 at cycle   6 NSaved=   6.
 NSaved= 6 IEnMin= 5 EnMin= -3475.63153662164     IErMin= 6 ErrMin= 7.87D-02
 ErrMax= 7.87D-02  0.00D+00 EMaxC= 1.00D-01 BMatC= 2.44D+01 BMatP= 1.19D+01
 IDIUse=2 WtCom= 0.00D+00 WtEn= 1.00D+00
 EnCoef did   100 forward-backward iterations
 Coeff-En:   0.147D+00 0.350D-02 0.000D+00 0.000D+00 0.694D+00 0.155D+00
 Coeff:      0.147D+00 0.350D-02 0.000D+00 0.000D+00 0.694D+00 0.155D+00
 Gap=     0.367 Goal=   None    Shift=    0.000
 Gap=     0.135 Goal=   None    Shift=    0.000
 RMSDP=4.71D-03 MaxDP=5.33D-01 DE= 7.88D+00 OVMax= 8.04D-01

 Cycle   7  Pass 1  IDiag  1:
 RMSU=  2.53D-03    CP:  8.88D-01  1.57D-02  4.49D-02  4.94D-03  5.68D-01
                    CP:  3.42D-01
 E= -3478.19651920784     Delta-E=      -10.440374417580 Rises=F Damp=F
 DIIS: error= 7.09D-02 at cycle   7 NSaved=   7.
 NSaved= 7 IEnMin= 7 EnMin= -3478.19651920784     IErMin= 7 ErrMin= 7.09D-02
 ErrMax= 7.09D-02  0.00D+00 EMaxC= 1.00D-01 BMatC= 2.50D+00 BMatP= 1.19D+01
 IDIUse=3 WtCom= 2.91D-01 WtEn= 7.09D-01
 Coeff-Com:  0.498D-01-0.673D-01-0.212D-01 0.735D-02 0.315D+00 0.526D-01
 Coeff-Com:  0.664D+00
 Coeff-En:   0.000D+00 0.000D+00 0.000D+00 0.000D+00 0.694D-01 0.000D+00
 Coeff-En:   0.931D+00
 Coeff:      0.145D-01-0.196D-01-0.618D-02 0.214D-02 0.141D+00 0.153D-01
 Coeff:      0.853D+00
 Gap=     0.210 Goal=   None    Shift=    0.000
 Gap=    -0.043 Goal=   None    Shift=    0.000
 RMSDP=3.98D-03 MaxDP=4.21D-01 DE=-1.04D+01 OVMax= 9.91D-01

 Cycle   8  Pass 1  IDiag  1:
 RMSU=  3.07D-03    CP:  8.87D-01 -1.24D-03  3.20D-02  9.03D-03  6.68D-01
                    CP:  3.22D-01  3.69D-02
 E= -3474.04079675184     Delta-E=        4.155722455998 Rises=F Damp=F
 DIIS: error= 4.85D-02 at cycle   8 NSaved=   8.
 NSaved= 8 IEnMin= 7 EnMin= -3478.19651920784     IErMin= 8 ErrMin= 4.85D-02
 ErrMax= 4.85D-02  0.00D+00 EMaxC= 1.00D-01 BMatC= 9.56D+00 BMatP= 2.50D+00
 IDIUse=2 WtCom= 0.00D+00 WtEn= 1.00D+00
 EnCoef did     2 forward-backward iterations
 Coeff-En:   0.000D+00 0.000D+00 0.000D+00 0.000D+00 0.319D-01 0.000D+00
 Coeff-En:   0.846D+00 0.122D+00
 Coeff:      0.000D+00 0.000D+00 0.000D+00 0.000D+00 0.319D-01 0.000D+00
 Coeff:      0.846D+00 0.122D+00
 Gap=    -0.163 Goal=   None    Shift=    0.000
 Gap=     0.032 Goal=   None    Shift=    0.000
 RMSDP=3.00D-03 MaxDP=3.72D-01 DE= 4.16D+00 OVMax= 7.50D-01

 Cycle   9  Pass 1  IDiag  1:
 RMSU=  1.58D-03    CP:  8.86D-01 -4.55D-03  3.46D-02  6.05D-03  7.70D-01
                    CP:  1.44D-01  3.66D-01  3.09D-01
 E= -3478.11164500614     Delta-E=       -4.070848254298 Rises=F Damp=F
 DIIS: error= 7.03D-02 at cycle   9 NSaved=   9.
 NSaved= 9 IEnMin= 7 EnMin= -3478.19651920784     IErMin= 8 ErrMin= 4.85D-02
 ErrMax= 7.03D-02  0.00D+00 EMaxC= 1.00D-01 BMatC= 3.10D+00 BMatP= 2.50D+00
 IDIUse=2 WtCom= 0.00D+00 WtEn= 1.00D+00
 EnCoef did     1 forward-backward iterations
 Coeff-En:   0.000D+00 0.000D+00 0.000D+00 0.000D+00 0.000D+00 0.000D+00
 Coeff-En:   0.535D+00 0.385D-01 0.427D+00
 Coeff:      0.000D+00 0.000D+00 0.000D+00 0.000D+00 0.000D+00 0.000D+00
 Coeff:      0.535D+00 0.385D-01 0.427D+00
 Gap=     0.150 Goal=   None    Shift=    0.000
 Gap=     0.066 Goal=   None    Shift=    0.000
 RMSDP=2.24D-03 MaxDP=2.30D-01 DE=-4.07D+00 OVMax= 6.78D-01

 Cycle  10  Pass 1  IDiag  1:
 RMSU=  1.70D-03    CP:  8.88D-01 -1.26D-03  3.02D-02  5.33D-03  6.24D-01
                    CP:  2.69D-01  6.08D-01  2.82D-01  4.89D-01
 E= -3478.40378779041     Delta-E=       -0.292142784272 Rises=F Damp=F
 DIIS: error= 1.78D-02 at cycle  10 NSaved=  10.
 NSaved=10 IEnMin=10 EnMin= -3478.40378779041     IErMin=10 ErrMin= 1.78D-02
 ErrMax= 1.78D-02  0.00D+00 EMaxC= 1.00D-01 BMatC= 1.15D+00 BMatP= 2.50D+00
 IDIUse=3 WtCom= 8.22D-01 WtEn= 1.78D-01
 EnCoef did     4 forward-backward iterations
 Coeff-Com: -0.248D-02 0.149D-02-0.478D-03-0.126D-03 0.187D-01 0.805D-02
 Coeff-Com:  0.334D+00-0.353D-02 0.349D+00 0.295D+00
 Coeff-En:   0.000D+00 0.000D+00 0.000D+00 0.000D+00 0.000D+00 0.000D+00
 Coeff-En:   0.210D+00 0.000D+00 0.314D+00 0.477D+00
 Coeff:     -0.204D-02 0.122D-02-0.393D-03-0.103D-03 0.154D-01 0.662D-02
 Coeff:      0.312D+00-0.290D-02 0.343D+00 0.328D+00
 Gap=     0.145 Goal=   None    Shift=    0.000
 Gap=     0.040 Goal=   None    Shift=    0.000
 RMSDP=1.28D-03 MaxDP=1.63D-01 DE=-2.92D-01 OVMax= 3.39D-01

 Cycle  11  Pass 1  IDiag  1:
 RMSU=  7.84D-04    CP:  8.86D-01 -6.33D-03  3.33D-02  4.98D-03  6.30D-01
                    CP:  2.52D-01  6.53D-01  2.25D-01  5.56D-01  4.28D-01
 E= -3478.66673967011     Delta-E=       -0.262951879700 Rises=F Damp=F
 DIIS: error= 2.13D-02 at cycle  11 NSaved=  11.
 NSaved=11 IEnMin=11 EnMin= -3478.66673967011     IErMin=10 ErrMin= 1.78D-02
 ErrMax= 2.13D-02  0.00D+00 EMaxC= 1.00D-01 BMatC= 2.16D-01 BMatP= 1.15D+00
 IDIUse=3 WtCom= 8.22D-01 WtEn= 1.78D-01
 Coeff-Com: -0.868D-03-0.507D-02 0.161D-02-0.521D-03 0.439D-01 0.806D-02
 Coeff-Com:  0.187D+00 0.136D-02 0.212D+00 0.197D+00 0.356D+00
 Coeff-En:   0.000D+00 0.000D+00 0.000D+00 0.000D+00 0.000D+00 0.000D+00
 Coeff-En:   0.000D+00 0.000D+00 0.190D-01 0.000D+00 0.981D+00
 Coeff:     -0.713D-03-0.416D-02 0.132D-02-0.428D-03 0.361D-01 0.662D-02
 Coeff:      0.154D+00 0.112D-02 0.177D+00 0.162D+00 0.468D+00
 Gap=     0.128 Goal=   None    Shift=    0.000
 Gap=     0.021 Goal=   None    Shift=    0.000
 RMSDP=4.59D-04 MaxDP=5.03D-02 DE=-2.63D-01 OVMax= 1.49D-01

 Cycle  12  Pass 1  IDiag  1:
 RMSU=  4.24D-04    CP:  8.85D-01 -6.74D-03  3.62D-02  5.02D-03  6.45D-01
                    CP:  2.52D-01  6.29D-01  2.11D-01  5.16D-01  4.06D-01
                    CP:  8.80D-01
 E= -3478.70577040372     Delta-E=       -0.039030733607 Rises=F Damp=F
 DIIS: error= 2.16D-03 at cycle  12 NSaved=  12.
 NSaved=12 IEnMin=12 EnMin= -3478.70577040372     IErMin=12 ErrMin= 2.16D-03
 ErrMax= 2.16D-03  0.00D+00 EMaxC= 1.00D-01 BMatC= 1.56D-02 BMatP= 2.16D-01
 IDIUse=3 WtCom= 9.78D-01 WtEn= 2.16D-02
 Coeff-Com:  0.684D-02-0.122D-01-0.728D-04-0.484D-03 0.429D-02-0.282D-02
 Coeff-Com:  0.393D-01-0.632D-03 0.434D-01-0.257D-01 0.163D+00 0.785D+00
 Coeff-En:   0.000D+00 0.000D+00 0.000D+00 0.000D+00 0.000D+00 0.000D+00
 Coeff-En:   0.000D+00 0.000D+00 0.000D+00 0.000D+00 0.232D-01 0.977D+00
 Coeff:      0.670D-02-0.120D-01-0.712D-04-0.474D-03 0.420D-02-0.276D-02
 Coeff:      0.385D-01-0.619D-03 0.424D-01-0.252D-01 0.160D+00 0.789D+00
 Gap=     0.107 Goal=   None    Shift=    0.000
 Gap=     0.040 Goal=   None    Shift=    0.000
 RMSDP=2.19D-04 MaxDP=1.71D-02 DE=-3.90D-02 OVMax= 6.68D-02

 Cycle  13  Pass 1  IDiag  1:
 RMSU=  1.68D-04    CP:  8.85D-01 -6.12D-03  3.60D-02  4.95D-03  6.47D-01
                    CP:  2.46D-01  6.35D-01  2.07D-01  5.17D-01  3.66D-01
                    CP:  9.65D-01  7.78D-01
 E= -3478.70850450714     Delta-E=       -0.002734103422 Rises=F Damp=F
 DIIS: error= 4.50D-03 at cycle  13 NSaved=  13.
 NSaved=13 IEnMin=13 EnMin= -3478.70850450714     IErMin=12 ErrMin= 2.16D-03
 ErrMax= 4.50D-03  0.00D+00 EMaxC= 1.00D-01 BMatC= 1.20D-02 BMatP= 1.56D-02
 IDIUse=3 WtCom= 9.78D-01 WtEn= 2.16D-02
 Coeff-Com:  0.527D-02-0.857D-02-0.376D-03-0.371D-03 0.235D-02-0.142D-02
 Coeff-Com:  0.186D-01-0.199D-02 0.209D-01-0.322D-01 0.477D-02 0.511D+00
 Coeff-Com:  0.482D+00
 Coeff-En:   0.000D+00 0.000D+00 0.000D+00 0.000D+00 0.000D+00 0.000D+00
 Coeff-En:   0.000D+00 0.000D+00 0.000D+00 0.000D+00 0.000D+00 0.248D+00
 Coeff-En:   0.752D+00
 Coeff:      0.515D-02-0.839D-02-0.368D-03-0.363D-03 0.230D-02-0.139D-02
 Coeff:      0.182D-01-0.195D-02 0.204D-01-0.315D-01 0.467D-02 0.506D+00
 Coeff:      0.487D+00
 Gap=     0.106 Goal=   None    Shift=    0.000
 Gap=     0.040 Goal=   None    Shift=    0.000
 RMSDP=9.97D-05 MaxDP=9.12D-03 DE=-2.73D-03 OVMax= 2.40D-02

 Cycle  14  Pass 1  IDiag  1:
 RMSU=  8.08D-05    CP:  8.85D-01 -6.62D-03  3.61D-02  4.92D-03  6.47D-01
                    CP:  2.46D-01  6.33D-01  2.11D-01  5.13D-01  3.64D-01
                    CP:  9.49D-01  8.98D-01  8.82D-01
 E= -3478.71066248708     Delta-E=       -0.002157979938 Rises=F Damp=F
 DIIS: error= 1.78D-03 at cycle  14 NSaved=  14.
 NSaved=14 IEnMin=14 EnMin= -3478.71066248708     IErMin=14 ErrMin= 1.78D-03
 ErrMax= 1.78D-03  0.00D+00 EMaxC= 1.00D-01 BMatC= 2.09D-03 BMatP= 1.20D-02
 IDIUse=3 WtCom= 9.82D-01 WtEn= 1.78D-02
 Coeff-Com:  0.181D-02-0.285D-02-0.216D-03-0.234D-04 0.282D-02-0.425D-03
 Coeff-Com:  0.420D-02-0.928D-03 0.521D-02-0.178D-01-0.663D-01 0.507D-01
 Coeff-Com:  0.212D+00 0.811D+00
 Coeff-En:   0.000D+00 0.000D+00 0.000D+00 0.000D+00 0.000D+00 0.000D+00
 Coeff-En:   0.000D+00 0.000D+00 0.000D+00 0.000D+00 0.000D+00 0.000D+00
 Coeff-En:   0.000D+00 0.100D+01
 Coeff:      0.178D-02-0.280D-02-0.212D-03-0.229D-04 0.277D-02-0.417D-03
 Coeff:      0.412D-02-0.912D-03 0.512D-02-0.175D-01-0.652D-01 0.498D-01
 Coeff:      0.209D+00 0.815D+00
 Gap=     0.108 Goal=   None    Shift=    0.000
 Gap=     0.042 Goal=   None    Shift=    0.000
 RMSDP=7.51D-05 MaxDP=6.00D-03 DE=-2.16D-03 OVMax= 2.57D-02

 Cycle  15  Pass 1  IDiag  1:
 RMSU=  5.03D-05    CP:  8.85D-01 -6.51D-03  3.62D-02  4.91D-03  6.48D-01
                    CP:  2.45D-01  6.34D-01  2.07D-01  5.12D-01  3.49D-01
                    CP:  9.66D-01  8.99D-01  1.15D+00  1.08D+00
 E= -3478.71123896617     Delta-E=       -0.000576479089 Rises=F Damp=F
 DIIS: error= 5.60D-04 at cycle  15 NSaved=  15.
 NSaved=15 IEnMin=15 EnMin= -3478.71123896617     IErMin=15 ErrMin= 5.60D-04
 ErrMax= 5.60D-04  0.00D+00 EMaxC= 1.00D-01 BMatC= 5.86D-04 BMatP= 2.09D-03
 IDIUse=3 WtCom= 9.94D-01 WtEn= 5.60D-03
 Coeff-Com: -0.971D-03 0.162D-02-0.892D-05-0.225D-04 0.108D-02-0.320D-03
 Coeff-Com: -0.722D-03-0.217D-03 0.205D-02-0.312D-02-0.497D-01-0.780D-01
 Coeff-Com: -0.147D-01 0.568D+00 0.575D+00
 Coeff-En:   0.000D+00 0.000D+00 0.000D+00 0.000D+00 0.000D+00 0.000D+00
 Coeff-En:   0.000D+00 0.000D+00 0.000D+00 0.000D+00 0.000D+00 0.000D+00
 Coeff-En:   0.000D+00 0.000D+00 0.100D+01
 Coeff:     -0.966D-03 0.161D-02-0.887D-05-0.224D-04 0.108D-02-0.319D-03
 Coeff:     -0.718D-03-0.216D-03 0.204D-02-0.311D-02-0.494D-01-0.775D-01
 Coeff:     -0.146D-01 0.564D+00 0.578D+00
 Gap=     0.106 Goal=   None    Shift=    0.000
 Gap=     0.041 Goal=   None    Shift=    0.000
 RMSDP=4.26D-05 MaxDP=4.29D-03 DE=-5.76D-04 OVMax= 1.05D-02

 Cycle  16  Pass 1  IDiag  1:
 RMSU=  2.44D-05    CP:  8.85D-01 -6.60D-03  3.62D-02  4.90D-03  6.49D-01
                    CP:  2.44D-01  6.32D-01  2.08D-01  5.13D-01  3.45D-01
                    CP:  9.61D-01  9.37D-01  1.23D+00  1.38D+00  9.70D-01
 E= -3478.71146815056     Delta-E=       -0.000229184385 Rises=F Damp=F
 DIIS: error= 4.06D-04 at cycle  16 NSaved=  16.
 NSaved=16 IEnMin=16 EnMin= -3478.71146815056     IErMin=16 ErrMin= 4.06D-04
 ErrMax= 4.06D-04  0.00D+00 EMaxC= 1.00D-01 BMatC= 1.25D-04 BMatP= 5.86D-04
 IDIUse=3 WtCom= 9.96D-01 WtEn= 4.06D-03
 Coeff-Com: -0.111D-02 0.181D-02 0.125D-04-0.120D-04-0.372D-04-0.213D-03
 Coeff-Com:  0.108D-03-0.967D-04 0.592D-03 0.176D-02-0.122D-01-0.550D-01
 Coeff-Com: -0.443D-01 0.208D+00 0.295D+00 0.605D+00
 Coeff-En:   0.000D+00 0.000D+00 0.000D+00 0.000D+00 0.000D+00 0.000D+00
 Coeff-En:   0.000D+00 0.000D+00 0.000D+00 0.000D+00 0.000D+00 0.000D+00
 Coeff-En:   0.000D+00 0.000D+00 0.000D+00 0.100D+01
 Coeff:     -0.111D-02 0.181D-02 0.125D-04-0.120D-04-0.370D-04-0.213D-03
 Coeff:      0.108D-03-0.963D-04 0.590D-03 0.176D-02-0.121D-01-0.548D-01
 Coeff:     -0.442D-01 0.207D+00 0.294D+00 0.607D+00
 Gap=     0.106 Goal=   None    Shift=    0.000
 Gap=     0.041 Goal=   None    Shift=    0.000
 RMSDP=2.16D-05 MaxDP=1.62D-03 DE=-2.29D-04 OVMax= 7.52D-03

 Cycle  17  Pass 1  IDiag  1:
 RMSU=  1.41D-05    CP:  8.85D-01 -6.63D-03  3.63D-02  4.90D-03  6.49D-01
                    CP:  2.44D-01  6.32D-01  2.08D-01  5.12D-01  3.42D-01
                    CP:  9.60D-01  9.48D-01  1.28D+00  1.46D+00  1.18D+00
                    CP:  1.09D+00
 E= -3478.71150072004     Delta-E=       -0.000032569485 Rises=F Damp=F
 DIIS: error= 6.39D-04 at cycle  17 NSaved=  17.
 NSaved=17 IEnMin=17 EnMin= -3478.71150072004     IErMin=16 ErrMin= 4.06D-04
 ErrMax= 6.39D-04  0.00D+00 EMaxC= 1.00D-01 BMatC= 2.05D-04 BMatP= 1.25D-04
 IDIUse=3 WtCom= 9.96D-01 WtEn= 4.06D-03
 Coeff-Com: -0.366D-03 0.594D-03 0.293D-05-0.940D-05-0.335D-03-0.202D-03
 Coeff-Com:  0.114D-02 0.160D-04-0.133D-02 0.316D-02 0.133D-01-0.308D-01
 Coeff-Com: -0.158D-01 0.169D-01-0.367D-01 0.408D+00 0.643D+00
 Coeff-En:   0.000D+00 0.000D+00 0.000D+00 0.000D+00 0.000D+00 0.000D+00
 Coeff-En:   0.000D+00 0.000D+00 0.000D+00 0.000D+00 0.000D+00 0.000D+00
 Coeff-En:   0.000D+00 0.000D+00 0.000D+00 0.000D+00 0.100D+01
 Coeff:     -0.364D-03 0.591D-03 0.292D-05-0.936D-05-0.334D-03-0.202D-03
 Coeff:      0.113D-02 0.160D-04-0.133D-02 0.315D-02 0.133D-01-0.307D-01
 Coeff:     -0.157D-01 0.168D-01-0.366D-01 0.406D+00 0.644D+00
 Gap=     0.106 Goal=   None    Shift=    0.000
 Gap=     0.041 Goal=   None    Shift=    0.000
 RMSDP=1.64D-05 MaxDP=1.38D-03 DE=-3.26D-05 OVMax= 4.61D-03

 Cycle  18  Pass 1  IDiag  1:
 RMSU=  7.54D-06    CP:  8.85D-01 -6.59D-03  3.62D-02  4.89D-03  6.49D-01
                    CP:  2.44D-01  6.32D-01  2.08D-01  5.12D-01  3.41D-01
                    CP:  9.61D-01  9.44D-01  1.32D+00  1.54D+00  1.28D+00
                    CP:  1.44D+00  1.04D+00
 E= -3478.71155029479     Delta-E=       -0.000049574746 Rises=F Damp=F
 DIIS: error= 3.48D-04 at cycle  18 NSaved=  18.
 NSaved=18 IEnMin=18 EnMin= -3478.71155029479     IErMin=18 ErrMin= 3.48D-04
 ErrMax= 3.48D-04  0.00D+00 EMaxC= 1.00D-01 BMatC= 6.47D-05 BMatP= 1.25D-04
 IDIUse=3 WtCom= 9.97D-01 WtEn= 3.48D-03
 Coeff-Com:  0.220D-03-0.360D-03 0.239D-04-0.225D-04-0.275D-04-0.124D-04
 Coeff-Com:  0.186D-03 0.105D-04-0.244D-02 0.273D-02 0.153D-01-0.201D-01
 Coeff-Com:  0.180D-02-0.191D-01-0.140D+00 0.127D-01 0.306D+00 0.843D+00
 Coeff-En:   0.000D+00 0.000D+00 0.000D+00 0.000D+00 0.000D+00 0.000D+00
 Coeff-En:   0.000D+00 0.000D+00 0.000D+00 0.000D+00 0.000D+00 0.000D+00
 Coeff-En:   0.000D+00 0.000D+00 0.000D+00 0.000D+00 0.000D+00 0.100D+01
 Coeff:      0.219D-03-0.359D-03 0.239D-04-0.224D-04-0.274D-04-0.124D-04
 Coeff:      0.185D-03 0.105D-04-0.243D-02 0.272D-02 0.153D-01-0.200D-01
 Coeff:      0.179D-02-0.190D-01-0.140D+00 0.127D-01 0.305D+00 0.844D+00
 Gap=     0.106 Goal=   None    Shift=    0.000
 Gap=     0.041 Goal=   None    Shift=    0.000
 RMSDP=1.70D-05 MaxDP=1.69D-03 DE=-4.96D-05 OVMax= 5.57D-03

 Cycle  19  Pass 1  IDiag  1:
 RMSU=  6.00D-06    CP:  8.85D-01 -6.59D-03  3.61D-02  4.88D-03  6.48D-01
                    CP:  2.44D-01  6.33D-01  2.08D-01  5.12D-01  3.42D-01
                    CP:  9.63D-01  9.36D-01  1.37D+00  1.63D+00  1.40D+00
                    CP:  1.70D+00  1.37D+00  1.24D+00
 E= -3478.71158019996     Delta-E=       -0.000029905170 Rises=F Damp=F
 DIIS: error= 6.04D-05 at cycle  19 NSaved=  19.
 NSaved=19 IEnMin=19 EnMin= -3478.71158019996     IErMin=19 ErrMin= 6.04D-05
 ErrMax= 6.04D-05  0.00D+00 EMaxC= 1.00D-01 BMatC= 8.00D-06 BMatP= 6.47D-05
 IDIUse=1 WtCom= 1.00D+00 WtEn= 0.00D+00
 Coeff-Com:  0.219D-03-0.366D-03 0.105D-04-0.519D-06 0.279D-03 0.508D-04
 Coeff-Com: -0.497D-03 0.453D-04-0.112D-02 0.123D-02 0.244D-02-0.604D-03
 Coeff-Com: -0.370D-02-0.251D-01-0.568D-01-0.113D+00-0.130D+00 0.444D+00
 Coeff-Com:  0.883D+00
 Coeff:      0.219D-03-0.366D-03 0.105D-04-0.519D-06 0.279D-03 0.508D-04
 Coeff:     -0.497D-03 0.453D-04-0.112D-02 0.123D-02 0.244D-02-0.604D-03
 Coeff:     -0.370D-02-0.251D-01-0.568D-01-0.113D+00-0.130D+00 0.444D+00
 Coeff:      0.883D+00
 Gap=     0.106 Goal=   None    Shift=    0.000
 Gap=     0.042 Goal=   None    Shift=    0.000
 RMSDP=1.37D-05 MaxDP=9.75D-04 DE=-2.99D-05 OVMax= 3.80D-03

 Cycle  20  Pass 1  IDiag  1:
 RMSU=  3.96D-06    CP:  8.85D-01 -6.59D-03  3.61D-02  4.88D-03  6.48D-01
                    CP:  2.44D-01  6.34D-01  2.08D-01  5.12D-01  3.41D-01
                    CP:  9.62D-01  9.35D-01  1.41D+00  1.71D+00  1.50D+00
                    CP:  1.92D+00  1.57D+00  1.82D+00  1.27D+00
 E= -3478.71159003276     Delta-E=       -0.000009832806 Rises=F Damp=F
 DIIS: error= 1.51D-04 at cycle  20 NSaved=  20.
 NSaved=20 IEnMin=20 EnMin= -3478.71159003276     IErMin=19 ErrMin= 6.04D-05
 ErrMax= 1.51D-04  0.00D+00 EMaxC= 1.00D-01 BMatC= 1.24D-05 BMatP= 8.00D-06
 IDIUse=1 WtCom= 1.00D+00 WtEn= 0.00D+00
 Coeff-Com:  0.114D-03-0.187D-03-0.848D-05 0.846D-05 0.121D-03 0.324D-04
 Coeff-Com: -0.352D-03 0.312D-04 0.742D-04 0.271D-03-0.224D-02 0.116D-01
 Coeff-Com: -0.408D-02-0.338D-01-0.114D-01-0.531D-01-0.116D+00 0.460D-01
 Coeff-Com:  0.527D+00 0.635D+00
 Coeff:      0.114D-03-0.187D-03-0.848D-05 0.846D-05 0.121D-03 0.324D-04
 Coeff:     -0.352D-03 0.312D-04 0.742D-04 0.271D-03-0.224D-02 0.116D-01
 Coeff:     -0.408D-02-0.338D-01-0.114D-01-0.531D-01-0.116D+00 0.460D-01
[...]
 222,-0.00002205,0.00003073,0.00004135,0.00002393,0.00003958,0.00021939
 ,0.00014473,-0.00102480,-0.00179890,0.10173076,0.17950346,0.00005542,0
 .00017427,0.00008993,0.00006082,-0.00017347,-0.00007252,0.00009886,-0.
 00001703,0.00003303,0.00003567,0.00000376,-0.00001005,-0.00000785,0.00
 000888,0.00000368,-0.00000629,0.00000777,-0.00000519,0.00000819,-0.000
 01312,-0.00000292,-0.00001146,-0.00001067,0.00000521,0.00001083,0.0000
 0173,0.00001590,-0.00001024,0.00000185,-0.00000861,0.00000593,0.000003
 57,-0.00000176,-0.00000252,-0.00000179,0.00000094,0.00000511,0.0000083
 9,-0.00000264,-0.00007082,0.00000673,-0.00000768,-0.00001516,-0.000101
 51,-0.00003416,0.00002480,0.00010770,0.00000599,0.00005390,-0.00012706
 ,-0.00002766,-0.00011629,-0.00001537,-0.00001177,0.00000813,0.00002860
 ,0.00005831,-0.00005588,-0.00003050,0.00001010,0.00001186,0.00004329,-
 0.00004043,-0.00014726,0.00024626,0.00020142,0.00064034,0.00033043,-0.
 00002387,-0.00008367,-0.00024665,-0.00062970,0.00003930,0.00005433,0.0
 0006738,-0.00000882,0.00019304,0.00000393,-0.00001893,-0.00009213,0.00
 010202,0.00004264,0.00005849,-0.00005087,-0.00006281,-0.00001423,-0.00
 003058,0.00003188,-0.00003039,0.00004501,-0.00001875,-0.00000011,-0.00
 000317,0.00000273,0.00000593,-0.00000472,-0.00000221,0.00000132,-0.000
 00329,-0.00000034,0.00000061,-0.00000118,-0.00000443,-0.00000361,0.000
 00097,0.00000523,-0.00000706,0.00000660,0.00003328,0.00001557,-0.00002
 295,0.00019938,-0.00042685,-0.00017701,-0.00027385,-0.00037964,-0.0002
 8737,-0.00126226,0.00174642,0.00290347,-0.00348665,-0.00295635,0.00522
 142,0.07155095,0.11381057,-0.13213001,0.01156554,0.01459657,-0.0073973
 9,-0.00418470,0.00523976,0.00249799,0.00000095,-0.00000088,-0.00000189
 ,-0.00000130,0.00000248,0.00000055,-0.00000507,-0.00000450,-0.00000965
 ,0.00000074,0.00000007,0.00000199,0.00000032,0.00000261,-0.00000081,-0
 .00000036,0.00000197,-0.00000124,-0.00000078,-0.00000108,-0.00000006,-
 0.00000829,-0.00000486,-0.00000427,-0.00000628,-0.00000264,-0.00000366
 ,-0.00000447,-0.00000354,-0.00001285,0.00001062,-0.00002292,-0.0000387
 2,0.00002122,0.00003741,-0.00001671,-0.00000427,0.00000954,0.00000843,
 -0.00000156,0.00000060,0.00000025,0.00000021,0.00000063,0.00000063,-0.
 00000048,0.,0.00000032,-0.00000007,0.00000029,0.00000004,-0.00000089,0
 .00000046,0.00000035,-0.00000137,0.00000088,0.00000002,0.00001153,0.00
 003661,0.00001751,-0.00021530,-0.00003238,0.00020853,0.00084908,-0.001
 59762,-0.00108779,-0.07601109,-0.12725563,0.13260277,-0.00020405,-0.00
 041901,-0.00011382,0.00001987,0.00031927,-0.00010062,-0.00037631,-0.00
 005762,-0.00007811,-0.00005737,0.00000138,-0.00002692,0.00001188,-0.00
 001314,0.00000115,0.00001313,-0.00000240,0.00000376,-0.00001821,0.0000
 1702,0.00000613,0.00002633,0.00002282,-0.00000423,-0.00002773,0.000008
 48,-0.00001636,0.00000654,-0.00000937,0.00001785,-0.00001352,-0.000003
 99,-0.00000065,0.00000659,0.00000512,-0.00000132,-0.00000353,-0.000012
 85,0.00000399,0.00009503,-0.00002162,0.00002640,-0.00013849,0.00045352
 ,0.00013927,0.00066518,-0.00015770,0.00003337,-0.00019595,0.00004260,0
 .00005023,0.00004806,0.00004444,0.00005089,0.00010932,0.00021473,-0.00
 005364,-0.00013488,0.00016754,-0.00068367,-0.00050413,0.00017907,-0.00
 179014,0.00067171,0.00031502,-0.00086567,-0.00032613,0.00143209,-0.000
 74163,-0.00027764,-0.00017509,0.00050945,0.00007776,0.00028789,-0.0004
 2849,-0.00011802,-0.00016560,-0.00002894,0.00000416,0.00011622,-0.0001
 0201,-0.00006466,-0.00006443,0.00005322,0.00008045,-0.00001240,0.00003
 167,-0.00003901,0.00003018,-0.00004823,0.00002326,0.00000208,0.0000089
 3,-0.00000398,-0.00000894,0.00000608,0.00000393,-0.00000306,0.00000530
 ,0.00000088,-0.00000052,0.00000100,0.00000583,0.00000373,-0.00000160,-
 0.00000367,0.00001176,-0.00001226,-0.00000055,-0.00002379,0.00003697,-
 0.00070434,0.00019581,-0.00035688,0.00061627,-0.00227635,0.00133169,0.
 00072439,-0.00011797,0.00042604,0.00107793,0.00126543,-0.00295702,-0.0
 1101406,-0.00364107,0.00006196,-0.33169610,-0.04028220,-0.02999524,-0.
 01052131,-0.00131413,-0.00243858,-0.00000098,0.00000143,0.00000177,0.0
 0000220,-0.00000172,0.00000004,0.00001132,0.00000043,0.00000426,-0.000
 00152,-0.00000276,-0.00000240,0.00000032,-0.00000271,0.00000024,0.0000
 0009,-0.00000156,0.00000087,0.00000009,0.00000069,-0.00000010,0.000007
 34,0.00001989,-0.00000424,-0.00000005,0.00000289,-0.00000350,-0.000016
 56,-0.00000430,0.00000872,-0.00001243,0.00000954,0.00002391,-0.0002524
 8,-0.00003239,0.00014110,-0.00001304,-0.00002189,0.00001886,0.00000051
 ,-0.00000014,0.00000087,-0.00000086,-0.00000118,0.00000029,0.00000056,
 0.00000038,-0.00000022,0.00000029,-0.00000023,0.00000026,0.00000162,0.
 00000003,0.00000059,0.00000218,0.00000085,0.00000084,-0.00006068,-0.00
 016094,0.00007466,-0.00012707,0.00011785,0.00013313,-0.00051768,-0.000
 25845,-0.00001911,0.00077261,0.00081939,0.00070079,0.35234734,-0.00025
 783,-0.00056770,-0.00032704,-0.00011728,0.00048741,0.00040311,-0.00014
 557,-0.00011951,-0.00008896,-0.00004089,0.00006024,0.00000089,0.000021
 34,-0.00002651,-0.00000658,0.00001033,0.00000734,0.00000146,-0.0000078
 9,-0.00000985,0.00001016,0.00003289,0.00003211,-0.00000139,-0.00002860
 ,0.00000873,0.00000647,-0.00000229,-0.00000845,0.00001473,-0.00001447,
 -0.00000616,-0.00000098,0.00000450,0.00000632,-0.00000318,-0.00000051,
 -0.00001231,0.00000185,0.00004324,-0.00003418,0.00003259,-0.00013185,0
 .00035290,0.00017966,0.00027940,-0.00013958,0.00000843,-0.00001496,0.0
 0011068,0.00001343,0.00003481,-0.00004773,0.00001090,0.00002356,-0.000
 15640,-0.00003338,-0.00018437,0.00015415,-0.00035691,0.00004205,0.0000
 8613,0.00036883,0.00106483,-0.00072846,0.00048417,0.00033112,0.0000501
 4,-0.00196119,-0.00017458,-0.00034296,0.00015489,-0.00000344,0.0003467
 7,-0.00035509,-0.00015184,-0.00025958,-0.00009484,-0.00001170,0.000156
 45,-0.00009546,-0.00008230,-0.00008761,0.00006583,0.00012010,-0.000016
 01,0.00004723,-0.00003399,0.00006855,-0.00007650,0.00000160,-0.0000046
 0,0.00000220,0.00000740,-0.00000720,0.00000853,0.00000091,-0.00000731,
 0.00000796,0.00001054,0.00000082,0.00000349,0.00000492,0.00000788,-0.0
 0000658,0.00000256,0.00001293,-0.00001149,-0.00001491,-0.00004387,0.00
 004013,-0.00111885,0.00012151,-0.00048617,-0.00128179,-0.00050299,0.00
 502645,0.00000883,-0.00058820,0.00009507,0.00007903,0.00200528,0.00594
 700,0.01853290,0.00620717,0.00267971,-0.04019259,-0.05212832,0.0062213
 1,-0.02109083,0.00041931,-0.00255835,-0.00000024,-0.00000114,0.0000014
 7,0.00000226,-0.00000029,0.00000137,0.00000911,-0.00000358,-0.00001074
 ,-0.00000211,-0.00000558,-0.00000258,0.00000086,-0.00000095,-0.0000002
 0,-0.00000055,-0.00000004,-0.00000011,-0.00000136,0.00000057,-0.000001
 27,0.00001716,0.00001223,-0.00002415,0.00000071,-0.00000984,0.00000334
 ,0.00000567,-0.00000016,-0.00000844,0.00000005,-0.00001224,-0.00002892
 ,0.00007674,0.00002994,0.00000050,-0.00001579,-0.00002191,0.00002832,0
 .00000214,0.00000240,-0.00000066,-0.00000308,-0.00000188,0.00000076,0.
 00000214,0.00000280,-0.00000141,0.00000248,0.00000052,0.00000075,0.000
 00275,-0.00000089,0.00000258,0.00000036,0.00000184,0.00000041,-0.00016
 853,-0.00012066,0.00024535,0.00012579,-0.00046475,-0.00059241,0.000761
 65,0.00025533,0.00025673,0.00044049,-0.00191435,-0.00317687,0.04316260
 ,0.04730850,0.00032615,0.00048757,0.00002916,0.00029684,-0.00049445,-0
 .00002252,0.00035058,0.00001801,0.00016634,0.00004629,-0.00001740,0.00
 000583,-0.00001279,0.00001297,-0.00000453,-0.00000892,-0.00001184,-0.0
 0000428,0.00001289,0.00000600,-0.00001074,-0.00004546,-0.00004743,0.00
 000419,0.00004776,-0.00002942,0.00000069,0.00000505,0.00001604,-0.0000
 3035,0.00002345,0.00000456,0.00000418,-0.00001068,-0.00001132,0.000002
 66,0.00000101,0.00001918,-0.00000495,-0.00005910,0.00002208,-0.0000367
 4,0.00019498,-0.00050183,-0.00019135,-0.00029105,0.00035399,0.00000285
 ,0.00019820,-0.00044861,-0.00013108,-0.00041824,0.00007586,-0.00006708
 ,0.00014250,0.00021234,0.00017626,-0.00029965,-0.00040796,-0.00110805,
 -0.00048810,0.00053825,-0.00190377,-0.00155210,0.00116822,-0.00043469,
 0.00043772,-0.00186450,-0.00069549,0.00011065,-0.00027794,-0.00063941,
 -0.00013452,-0.00037996,0.00077059,0.00064881,0.00007993,0.00026330,0.
 00002123,-0.00006813,0.00008695,0.00008651,0.00003378,-0.00003232,-0.0
 0009107,0.00001939,-0.00004772,-0.00000276,-0.00006664,0.00006151,0.00
 002933,0.00000906,0.00000259,-0.00001675,-0.00000050,-0.00000654,0.000
 00356,0.00000756,-0.00000687,-0.00001601,-0.00000291,-0.00000469,0.000
 00025,-0.00000789,0.00000675,-0.00001113,-0.00000908,0.00000294,-0.000
 00091,0.00003773,-0.00004623,0.00096700,0.00038083,0.00009990,0.000434
 64,0.00422387,0.00048979,0.00030774,0.00062737,-0.00112326,-0.00248235
 ,0.00598274,0.00153085,-0.02161868,-0.00274409,0.00224145,-0.03150980,
 0.00626157,-0.05009376,0.01703806,0.00220636,0.00580336,0.00000163,0.0
 0000148,0.00000254,-0.00000232,-0.00000061,0.00000215,-0.00001910,0.00
 001196,0.00002082,0.00000130,0.00000868,0.00000570,-0.00000173,0.00000
 304,0.00000181,0.00000015,0.00000079,0.00000038,0.00000127,-0.00000007
 ,0.00000197,-0.00000033,-0.00003565,0.00002576,0.00000675,-0.00000747,
 0.00003208,0.00001609,0.00000838,0.00001706,0.00001677,0.00000569,-0.0
 0001098,0.00012307,-0.00006787,-0.00011201,0.00002192,0.00004260,-0.00
 003429,-0.00000377,-0.00000359,0.00000279,0.00000368,0.00000285,-0.000
 00041,-0.00000298,-0.00000330,0.00000235,-0.00000363,-0.00000049,-0.00
 000038,-0.00000334,0.00000209,-0.00000255,0.00000119,-0.00000045,0.000
 00223,0.00007836,0.00026864,-0.00005891,0.00011724,-0.00055708,-0.0004
 8985,-0.00096410,-0.00003727,0.00003438,0.00103539,-0.00304406,-0.0019
 6103,0.03698485,-0.01200343,0.04733961,-0.00475988,-0.00553924,0.02090
 019,-0.00099082,-0.01530348,-0.00088105,0.00132924,-0.00002913,0.00190
 454,-0.00969142,-0.01375963,0.00443063,0.00349271,-0.00027339,-0.00023
 568,0.00400586,-0.00015417,-0.00037376,-0.00760132,0.01413803,-0.00189
 591,-0.00013605,0.00099727,-0.00031181,-0.00132271,0.00116717,0.001072
 38,0.00017552,0.00046632,-0.00044304,0.00025526,-0.00060092,0.00036929
 ,-0.00062424,-0.00014128,-0.00002746,-0.00050546,0.00007398,-0.0007454
 9,-0.01043585,0.00265423,-0.00248237,-0.00039336,-0.00333082,-0.002196
 21,-0.00119448,0.00201354,0.00028151,0.00020835,-0.00175536,-0.0006473
 3,-0.00144605,0.00048870,-0.00005579,0.00040900,0.00085877,0.00024908,
 0.00008346,-0.00069699,-0.00009163,0.00034555,0.00117185,0.00060699,-0
 .00348608,0.00317643,-0.00122565,0.00126007,-0.00533985,0.00658716,-0.
 01655410,0.01939786,-0.01436376,-0.04390959,0.03715311,0.03114776,0.00
 461783,0.00032531,0.00115049,-0.00084635,-0.00091479,0.00058544,0.0002
 9004,0.00075122,-0.00096646,-0.00083043,-0.00048507,-0.00006274,0.0006
 4710,-0.00031917,0.00061499,-0.00059512,-0.00013191,-0.00009185,0.0001
 7449,0.00012820,-0.00004131,-0.00007513,-0.00001410,-0.00001948,0.0001
 0333,0.00003790,0.00000904,-0.00009860,-0.00002822,-0.00001446,0.00020
 348,-0.00005900,0.00013122,0.00078770,0.00009191,0.00002117,0.00033641
 ,0.00128967,-0.00110658,0.00140600,-0.00059127,0.00090758,-0.00002407,
 0.00094984,-0.00103098,-0.00022186,-0.00038618,0.00034278,-0.00060134,
 -0.00004823,-0.00006877,-0.00014692,-0.00116269,0.00082396,-0.00269415
 ,0.00225298,-0.00199498,0.00059379,-0.00024033,0.00016183,0.00050527,0
 .00020827,-0.00011564,0.00085107,0.00354250,0.00063129,-0.00015604,-0.
 00018742,0.00003256,-0.00002867,-0.00001903,0.00002160,-0.00005720,-0.
 00007988,0.00004971,0.00001185,0.00008774,-0.00014114,-0.00008357,-0.0
 0010699,-0.00010526,-0.00008174,-0.00006543,-0.00001278,-0.00003518,-0
 .00000415,0.00002941,0.00003564,-0.00003330,-0.00000676,-0.00004905,0.
 00004693,0.00005166,-0.00070059,-0.00038249,0.00104867,0.00003332,0.00
 004102,-0.00003098,-0.00002030,-0.00001685,0.00000578,0.00001697,0.000
 01652,-0.00001078,0.00001856,0.00000535,0.00000134,0.00001147,-0.00000
 721,0.00001209,-0.00003548,0.00001475,-0.00002614,0.00009382,-0.000085
 98,0.00011235,0.00000660,0.00000428,-0.00001275,0.00001255,-0.00002731
 ,0.00001888,0.00001390,-0.00002816,0.00002645,0.00001199,0.00002520,-0
 .00006952,0.08808499,0.00140900,0.00368097,0.03209619,-0.01724127,-0.0
 4221971,-0.00580055,0.00392994,0.00179584,0.00284117,-0.00523142,-0.00
 074182,0.00094675,0.00105883,-0.00122566,0.00008670,0.00147367,-0.0001
 0938,0.00001524,0.00120776,0.00301177,-0.00009411,0.00361284,0.0015205
 2,-0.00024955,-0.00044395,-0.00004466,0.00871481,-0.00200753,-0.001621
 73,0.00008560,-0.00069958,-0.00016617,-0.00078126,0.00020904,0.0004752
 3,-0.00025824,0.00004001,-0.00048006,-0.00047046,0.00796340,-0.0034362
 5,0.00000915,0.00079501,-0.00455524,-0.00145136,0.00056958,0.00347354,
 0.00110141,0.00053134,-0.00391262,-0.00148023,-0.00231376,0.00153743,0
 .00018634,0.00062830,0.00096700,0.00055886,-0.00089762,0.00038070,-0.0
 0027754,-0.00156242,-0.00319478,-0.00178779,-0.00316118,0.00587607,0.0
 0511381,-0.00200091,0.00514887,-0.00578500,0.01880885,-0.02410155,0.01
 612102,0.03689454,-0.02446991,-0.02683767,-0.00536051,0.00046848,-0.00
 234332,0.00130492,0.00218567,-0.00162993,0.00016602,-0.00174975,0.0010
 2983,0.00061501,0.00023292,0.00011957,-0.00072550,0.00025973,-0.000503
 00,0.00052794,0.00008732,0.00009145,-0.00015442,-0.00013368,0.00004321
 ,0.00007699,-0.00001239,0.00003591,-0.00007333,-0.00003011,-0.00000841
 ,0.00009057,0.00003637,-0.00000136,-0.00016009,0.00007733,-0.00014694,
 -0.00071795,-0.00026750,0.00012320,-0.00089512,-0.00119134,0.00042535,
 -0.00256775,-0.00012609,-0.00108701,0.00016416,-0.00093378,0.00122463,
 -0.00002671,0.00045213,-0.00049749,0.00097003,-0.00013351,0.00014500,0
 .00027171,0.00194610,-0.00128245,0.00431610,-0.00295741,0.00354288,0.0
 0006733,-0.00004740,0.00004698,0.00026084,0.00008928,-0.00005967,-0.00
 044913,-0.00024528,-0.00918327,-0.00000493,0.00017431,0.00023794,-0.00
 003769,0.00021912,-0.00017289,-0.00007395,0.00008571,0.00003918,-0.000
 16421,0.00018187,-0.00018082,0.00007292,0.00016787,0.00021994,-0.00000
 494,-0.00001385,0.00000886,-0.00001938,0.00002234,-0.00000800,0.000057
 03,-0.00001291,0.00001597,0.00004926,-0.00015485,-0.00004851,0.0003730
 2,0.00069350,-0.00053691,-0.00005322,-0.00001555,0.00006050,0.00001135
 ,0.00001577,0.00000736,-0.00001375,-0.00000722,0.00000949,-0.00001120,
 -0.00000179,0.00000236,-0.00000345,0.00000610,-0.00000268,0.00002953,-
 0.00000488,0.00002775,-0.00022830,0.00029837,-0.00020146,-0.00001194,0
 .00000085,0.00003905,-0.00000319,0.00003820,-0.00000883,-0.00000846,0.
 00003501,-0.00003894,-0.00000065,0.00008681,-0.00000822,-0.04122744,0.
 08258971,0.00441705,0.00879574,-0.04817737,0.00989782,0.03089642,0.012
 91346,-0.00551683,-0.00214426,-0.00305070,0.00133597,-0.00123167,0.000
 16312,0.00047700,-0.00005913,-0.00004154,0.00028149,0.00018720,0.00003
 666,-0.00072077,0.00044707,-0.00001607,-0.00015514,0.00144088,-0.00125
 855,0.00180761,-0.00533522,0.00433194,-0.00040985,0.00121325,-0.001369
 51,0.00044604,-0.00001713,0.00006937,-0.00016897,0.00008679,-0.0000912
 2,-0.00046015,-0.00036558,-0.00036638,0.00580907,0.00046850,-0.0021954
 3,-0.00040628,0.00400621,0.00093736,0.00014878,-0.00307649,-0.00070929
 ,-0.00043033,0.00299197,0.00106249,0.00186573,-0.00117931,-0.00013749,
 -0.00062599,-0.00085250,-0.00050319,0.00045850,0.00004523,0.00016166,0
 .00114003,0.00115943,0.00084551,0.00374938,-0.00763458,-0.00330894,0.0
 0044453,0.00155604,-0.00038775,-0.00429988,0.00270994,0.00323295,0.025
 51883,-0.02195482,-0.01879662,-0.00123468,0.00099871,-0.00107136,0.000
 02662,-0.00028173,0.00008421,0.00022063,-0.00006371,-0.00008819,-0.000
 15372,-0.00006977,-0.00020917,0.00004836,-0.00002738,0.00007318,-0.000
 05113,0.00002269,-0.00000249,0.00001140,0.00000106,-0.00001236,-0.0000
 0610,-0.00000200,-0.00001199,-0.00000252,-0.00000151,-0.00000558,-0.00
 001003,-0.00001381,-0.00000769,0.00000641,-0.00002017,0.00000710,-0.00
 015585,-0.00001357,-0.00015034,-0.00025218,-0.00056510,0.00049424,0.00
 052977,0.00044414,-0.00010957,-0.00007968,-0.00016541,0.00002033,0.000
 18737,0.00002875,0.00001463,-0.00016052,0.00010147,-0.00005440,0.00000
 992,-0.00028199,0.00008186,-0.00050804,0.00020282,-0.00078429,0.000049
 00,-0.00001665,0.00017625,0.00008690,0.00005180,0.00023311,-0.00058842
 ,-0.00086074,-0.00318582,-0.00008964,-0.00009958,0.00014955,-0.0000656
 7,0.00013100,-0.00007580,-0.00004110,0.00003505,0.00000280,-0.00008358
 ,0.00014595,-0.00009729,-0.00008518,-0.00012409,-0.00011505,0.00002800
 ,0.00001623,0.00000250,0.00002398,0.00000289,0.00002552,-0.00005731,0.
 00001871,0.00000899,-0.00002087,0.00007471,0.00005104,0.00038624,0.000
 25021,0.00002766,0.00000042,0.00001959,0.00003005,-0.00000101,0.000009
 83,0.00000691,-0.00000221,0.00000341,0.00000363,-0.00000131,0.00000341
 ,0.00000291,-0.00000526,0.00000378,0.00000289,-0.00000387,0.00001345,0
 .00000948,-0.00007048,0.00006945,-0.00001805,-0.00001196,0.00001019,0.
 00000045,-0.00000934,0.00000322,-0.00000226,-0.00000766,0.00000312,0.0
 0001147,-0.00002582,-0.00006279,0.00007305,-0.04243352,-0.01214961,0.0
 6106343\\0.00001568,-0.00000431,-0.00002577,-0.00001188,-0.00001271,0.
 00000680,0.00000022,0.00000113,0.00000362,0.00001206,0.00000773,0.0000
 0419,-0.00000573,-0.00000197,-0.00001681,0.00001236,-0.00000733,0.0000
 0525,-0.00003830,0.00003153,0.00000188,0.00001400,0.00000249,-0.000004
 27,-0.00000109,-0.00001110,0.00001145,-0.00000262,0.00001317,-0.000009
 76,0.00000799,-0.00000774,0.00000687,-0.00000583,-0.00000269,-0.000000
 75,-0.00000156,0.00000323,-0.00000241,0.00001266,-0.00002627,-0.000003
 38,-0.00000829,0.00001102,0.00000209,0.00001266,-0.00000401,0.00000053
 ,-0.00000062,0.00000116,0.00000106,0.00000353,0.00000018,0.00000024,-0
 .00000287,-0.00000185,-0.00000142,0.00000023,0.00000455,0.00000246,-0.
 00000873,-0.00001151,-0.00000785,0.00001660,0.00001096,0.00000729,-0.0
 0000973,0.00001261,-0.00001252,0.00001159,-0.00000614,0.00000564,-0.00
 000786,0.00000156,0.00001212,-0.00001312,0.00000488,-0.00000983,0.0000
 1214,-0.00000430,0.00000085,-0.00000461,0.00000524,0.00000713,0.000002
 69,-0.00000259,-0.00001440,-0.00000842,-0.00001095,0.00002184,-0.00000
 185,0.00000194,-0.00000292,-0.00000201,-0.00000104,0.00000095,-0.00000
 002,-0.00000076,0.00000115,-0.00000029,0.00000044,0.00000024,0.0000003
 7,-0.00000012,0.00000083,-0.00000120,-0.00000003,-0.00000185,0.0000036
 0,0.00000810,-0.00000699,0.00000244,-0.00000449,0.00000408,-0.00000295
 ,0.00000504,-0.00000538,-0.00000058,-0.00000613,0.00000669,0.00000303,
 0.00000337,-0.00000264,-0.00000130,-0.00000025,-0.00000047,0.00000170,
 0.00000326,-0.00000131,0.00000544,-0.00000841,0.00000716,0.00000330,-0
 .00000254,0.00000389,0.00000195,0.00000485,-0.00000177,-0.00000329,-0.
 00000130,-0.00000644,0.00000086,-0.00000045,0.00000148,-0.00000129,0.0
 0000111,-0.00000052,0.00000109,0.00000115,-0.00000092,-0.00000073,-0.0
 0000132,0.00000174,0.00000144,-0.00000215,-0.00000006,0.00000020,-0.00
 000045,-0.00000150,-0.00000108,0.00000002,-0.00000066,0.00000087,0.000
 00014,0.00000004,-0.00000049,-0.00000107,-0.00000122,0.00000282,0.0000
 0113,-0.00000254,-0.00000080,0.00000102,0.00000064,0.00000050,0.000000
 96,0.00000029,-0.00000004,0.00000066,0.00000012,0.00000046,0.00000040,
 0.00000039,-0.00000003,-0.00000007,0.00000066,-0.00000004,-0.00000065,
 0.00000077,0.00000036,0.00000020,-0.00000072,0.00000021,0.00000040,-0.
 00000027,0.00000011,-0.00000066,0.00000034,-0.00000050,0.00000002,0.00
 000038,-0.00000008,-0.00000127,0.00000070,-0.00001534,0.00000299,0.000
 01351\\\@
 The archive entry for this job was punched.


 TO SEE A WORLD IN A GRAIN OF SAND
 AND A HEAVEN IN A WILD FLOWER
 HOLD INFINITY IN THE PALM OF YOUR HAND
 AND ETERNITY IN AN HOUR

                       -- WILLIAM BLAKE
 Job cpu time:       1 days  2 hours 26 minutes 27.0 seconds.
 Elapsed time:       0 days  0 hours 49 minutes 59.3 seconds.
 File lengths (MBytes):  RWF=   7288 Int=      0 D2E=      0 Chk=     56 Scr=      1
 Normal termination of Gaussian 16 at Sat Feb  8 11:45:38 2025.
