 Entering Gaussian System, Link 0=g16
 Initial command:
 /public/software/apps/Gaussian/g16/l1.exe "/tmp/Gau-122241.inp" -scrdir="/tmp/"
 Entering Link 1 = /public/software/apps/Gaussian/g16/l1.exe PID=    122242.
  
 Copyright (c) 1988-2019, Gaussian, Inc.  All Rights Reserved.
  
 This is part of the Gaussian(R) 16 program.  It is based on
 the Gaussian(R) 09 system (copyright 2009, Gaussian, Inc.),
 the Gaussian(R) 03 system (copyright 2003, Gaussian, Inc.),
 the Gaussian(R) 98 system (copyright 1998, Gaussian, Inc.),
 the Gaussian(R) 94 system (copyright 1995, Gaussian, Inc.),
 the Gaussian 92(TM) system (copyright 1992, Gaussian, Inc.),
 the Gaussian 90(TM) system (copyright 1990, Gaussian, Inc.),
 the Gaussian 88(TM) system (copyright 1988, Gaussian, Inc.),
 the Gaussian 86(TM) system (copyright 1986, Carnegie Mellon
 University), and the Gaussian 82(TM) system (copyright 1983,
 Carnegie Mellon University). Gaussian is a federally registered
 trademark of Gaussian, Inc.
  
 This software contains proprietary and confidential information,
 including trade secrets, belonging to Gaussian, Inc.
  
 This software is provided under written license and may be
 used, copied, transmitted, or stored only in accord with that
 written license.
  
 The following legend is applicable only to US Government
 contracts under FAR:
  
                    RESTRICTED RIGHTS LEGEND
  
 Use, reproduction and disclosure by the US Government is
 subject to restrictions as set forth in subparagraphs (a)
 and (c) of the Commercial Computer Software - Restricted
 Rights clause in FAR 52.227-19.
  
 Gaussian, Inc.
 340 Quinnipiac St., Bldg. 40, Wallingford CT 06492
  
  
 ---------------------------------------------------------------
 Warning -- This program may not be used in any manner that
 competes with the business of Gaussian, Inc. or will provide
 assistance to any competitor of Gaussian, Inc.  The licensee
 of this program is prohibited from giving any competitor of
 Gaussian, Inc. access to this program.  By using this program,
 the user acknowledges that Gaussian, Inc. is engaged in the
 business of creating and licensing software in the field of
 computational chemistry and represents and warrants to the
 licensee that it is not a competitor of Gaussian, Inc. and that
 it will not use this program in any manner prohibited above.
 ---------------------------------------------------------------
  

 Cite this work as:
 Gaussian 16, Revision C.01,
 M. J. Frisch, G. W. Trucks, H. B. Schlegel, G. E. Scuseria, 
 M. A. Robb, J. R. Cheeseman, G. Scalmani, V. Barone, 
 G. A. Petersson, H. Nakatsuji, X. Li, M. Caricato, A. V. Marenich, 
 J. Bloino, B. G. Janesko, R. Gomperts, B. Mennucci, H. P. Hratchian, 
 J. V. Ortiz, A. F. Izmaylov, J. L. Sonnenberg, D. Williams-Young, 
 F. Ding, F. Lipparini, F. Egidi, J. Goings, B. Peng, A. Petrone, 
 T. Henderson, D. Ranasinghe, V. G. Zakrzewski, J. Gao, N. Rega, 
 G. Zheng, W. Liang, M. Hada, M. Ehara, K. Toyota, R. Fukuda, 
 J. Hasegawa, M. Ishida, T. Nakajima, Y. Honda, O. Kitao, H. Nakai, 
 T. Vreven, K. Throssell, J. A. Montgomery, Jr., J. E. Peralta, 
 F. Ogliaro, M. J. Bearpark, J. J. Heyd, E. N. Brothers, K. N. Kudin, 
 V. N. Staroverov, T. A. Keith, R. Kobayashi, J. Normand, 
 K. Raghavachari, A. P. Rendell, J. C. Burant, S. S. Iyengar, 
 J. Tomasi, M. Cossi, J. M. Millam, M. Klene, C. Adamo, R. Cammi, 
 J. W. Ochterski, R. L. Martin, K. Morokuma, O. Farkas, 
 J. B. Foresman, and D. J. Fox, Gaussian, Inc., Wallingford CT, 2019.
 
 ******************************************
 Gaussian 16:  ES64L-G16RevC.01  3-Jul-2019
                 8-Feb-2025 
 ******************************************
 %nprocshared=32
 Will use up to   32 processors via shared memory.
 %mem=100GB
 ------------------------------------------
 #p opt freq b3lyp/def2svpp em=gd3bj nosymm
 ------------------------------------------
 1/18=20,19=15,26=3,38=1/1,3;
 2/9=110,12=2,15=1,17=6,18=5,40=1/2;
 3/5=43,7=202,11=2,25=1,30=1,71=1,74=-5,124=41/1,2,3;
 4//1;
 5/5=2,38=5/2;
 6/7=2,8=2,9=2,10=2,28=1/1;
 7/30=1/1,2,3,16;
 1/18=20,19=15,26=3/3(2);
 2/9=110,15=1/2;
 99//99;
 2/9=110,15=1/2;
 3/5=43,7=202,11=2,25=1,30=1,71=1,74=-5,124=41/1,2,3;
 4/5=5,16=3,69=1/1;
 5/5=2,38=5/2;
 7/30=1/1,2,3,16;
 1/18=20,19=15,26=3/3(-5);
 2/9=110,15=1/2;
 6/7=2,8=2,9=2,10=2,19=2,28=1/1;
 99/9=1/99;
 Leave Link    1 at Sat Feb  8 11:46:01 2025, MaxMem= 13421772800 cpu:               1.9 elap:               0.1
 (Enter /public/software/apps/Gaussian/g16/l101.exe)
 ------------------
 $$$$Title####0????
 ------------------
 Symbolic Z-matrix:
 Charge =  0 Multiplicity = 2
 C                    -7.55511   3.22088  -0.97064 
 C                    -6.43339   3.17785   0.09701 
 C                    -5.73268   4.55518   0.13482 
 C                    -7.11998   2.8936    1.45616 
 C                    -6.12131   2.49303   2.53514 
 C                    -5.37255   1.18295   2.18512 
 C                    -4.1681    1.08287   3.15506 
 C                    -6.29747  -0.03406   2.41702 
 C                    -4.89625   1.17873   0.72407 
 C                    -3.98739   0.1804    0.30608 
 C                    -3.49205   0.13947  -1.0027 
 C                    -2.52749  -0.9106   -1.41105 
 C                    -2.77709  -1.66697  -2.56422 
 C                    -1.88762  -2.6691   -2.97022 
 C                    -2.14981  -3.41014  -4.13391 
 C                    -1.26296  -4.40335  -4.55112 
 C                    -0.10707  -4.66346  -3.81567 
 C                     0.16766  -3.93632  -2.6553 
 C                    -0.72204  -2.93558  -2.2079 
 C                    -0.47608  -2.18588  -1.03022 
 C                     0.71585  -2.44019  -0.17663 
 C                     1.75162  -1.48749  -0.16367 
 O                     1.60832  -0.3121   -0.89793 
 C                     2.91322  -1.70166   0.6014 
 C                     4.02416  -0.71974   0.59846 
 C                     4.56994  -0.26261  -0.61193 
 C                     5.62973   0.64828  -0.61165 
 C                     6.1648    1.12232   0.60068 
 C                     7.32599   2.10001   0.61545 
 C                     6.99008   3.39466  -0.15012 
 C                     8.11092   4.44457  -0.00189 
 C                     9.51382   3.8272    0.17428 
 C                     9.62447   2.4601   -0.50865 
 C                     8.62359   1.44293   0.07707 
 C                     5.62327   0.65459   1.81046 
 C                     4.56489  -0.25821   1.80939 
 C                     3.02067  -2.8616    1.38079 
 C                     1.98704  -3.80542   1.40778 
 C                     2.10762  -4.95491   2.20547 
 C                     1.07571  -5.89328   2.24797 
 C                    -0.08531  -5.69139   1.50223 
 C                    -0.21975  -4.55456   0.70222 
 C                     0.81764  -3.59968   0.63263 
 C                    -1.36553  -1.1612   -0.65753 
 O                    -1.07531  -0.37608   0.45623 
 C                    -3.92783   1.09229  -1.92455 
 C                    -4.85758   2.05878  -1.55258 
 C                    -5.39525   2.09871  -0.24699 
 H                    -7.97979   2.2059   -1.12929 
 H                    -7.19223   3.60521  -1.94593 
 H                    -8.37737   3.89538  -0.64642 
 H                    -6.44016   5.3512    0.45177 
 H                    -5.34404   4.82823  -0.86948 
 H                    -4.87068   4.54888   0.8337 
 H                    -7.67669   3.79333   1.80094 
 H                    -7.87611   2.08644   1.34777 
 H                    -6.66429   2.37875   3.49955 
 H                    -5.39989   3.32469   2.68547 
 H                    -3.40913   1.85811   2.91332 
 H                    -3.67706   0.08895   3.11579 
 H                    -4.49839   1.2354    4.20577 
 H                    -5.73803  -0.98601   2.29189 
 H                    -7.13673  -0.04507   1.69074 
 H                    -6.71837  -0.021     3.4457 
 H                    -3.67046  -0.58888   0.99623 
 H                    -3.67427  -1.47776  -3.14335 
 H                    -3.03928  -3.21915  -4.72251 
 H                    -1.47002  -4.96996  -5.44986 
 H                     0.58124  -5.43006  -4.14758 
 H                     1.07973  -4.1614   -2.11867 
 H                     4.18851  -0.62589  -1.55843 
 H                     6.03945   0.97314  -1.55951 
 H                     7.52248   2.402     1.67003 
 H                     6.03592   3.82376   0.22749 
 H                     6.85436   3.16786  -1.23029 
 H                     7.89558   5.09158   0.87633 
 H                     8.10626   5.09842  -0.90102 
 H                     9.73316   3.70616   1.25791 
 H                     10.27775   4.51624  -0.24624 
 H                     9.43096   2.586    -1.59663 
 H                     10.65886   2.06984  -0.396 
 H                     9.11095   0.89096   0.91072 
 H                     8.39513   0.69568  -0.71391 
 H                     6.01996   0.99443   2.75913 
 H                     4.16091  -0.59835   2.75549 
 H                     3.91845  -3.03094   1.96515 
 H                     2.99853  -5.12557   2.79862 
 H                     1.17382  -6.77687   2.86519 
 H                    -0.88578  -6.41852   1.54443 
 H                    -1.13933  -4.43013   0.14571 
 H                    -3.54298   1.09173  -2.93716 
 H                    -5.15124   2.78282  -2.29906 
 Cu                    0.29565   0.91155  -0.10374 
 
 ITRead=  0  0  0  0  0  0  0  0  0  0  0  0  0  0  0  0  0  0  0  0
 ITRead=  0  0  0  0  0  0  0  0  0  0  0  0  0  0  0  0  0  0  0  0
 ITRead=  0  0  0  0  0  0  0  0  0  0  0  0  0  0  0  0  0  0  0  0
 ITRead=  0  0  0  0  0  0  0  0  0  0  0  0  0  0  0  0  0  0  0  0
 ITRead=  0  0  0  0  0  0  0  0  0  0  0  0  0
 MicOpt= -1 -1 -1 -1 -1 -1 -1 -1 -1 -1 -1 -1 -1 -1 -1 -1 -1 -1 -1 -1
 MicOpt= -1 -1 -1 -1 -1 -1 -1 -1 -1 -1 -1 -1 -1 -1 -1 -1 -1 -1 -1 -1
 MicOpt= -1 -1 -1 -1 -1 -1 -1 -1 -1 -1 -1 -1 -1 -1 -1 -1 -1 -1 -1 -1
 MicOpt= -1 -1 -1 -1 -1 -1 -1 -1 -1 -1 -1 -1 -1 -1 -1 -1 -1 -1 -1 -1
 MicOpt= -1 -1 -1 -1 -1 -1 -1 -1 -1 -1 -1 -1 -1
 NAtoms=     93 NQM=       93 NQMF=       0 NMMI=      0 NMMIF=      0
                NMic=       0 NMicF=      0.
                    Isotopes and Nuclear Properties:
 (Nuclear quadrupole moments (NQMom) in fm**2, nuclear magnetic moments (NMagM)
  in nuclear magnetons)

  Atom         1           2           3           4           5           6           7           8           9          10
 IAtWgt=          12          12          12          12          12          12          12          12          12          12
 AtmWgt=  12.0000000  12.0000000  12.0000000  12.0000000  12.0000000  12.0000000  12.0000000  12.0000000  12.0000000  12.0000000
 NucSpn=           0           0           0           0           0           0           0           0           0           0
 AtZEff=  -0.0000000  -0.0000000  -0.0000000  -0.0000000  -0.0000000  -0.0000000  -0.0000000  -0.0000000  -0.0000000  -0.0000000
 NQMom=    0.0000000   0.0000000   0.0000000   0.0000000   0.0000000   0.0000000   0.0000000   0.0000000   0.0000000   0.0000000
 NMagM=    0.0000000   0.0000000   0.0000000   0.0000000   0.0000000   0.0000000   0.0000000   0.0000000   0.0000000   0.0000000
 AtZNuc=   6.0000000   6.0000000   6.0000000   6.0000000   6.0000000   6.0000000   6.0000000   6.0000000   6.0000000   6.0000000

  Atom        11          12          13          14          15          16          17          18          19          20
 IAtWgt=          12          12          12          12          12          12          12          12          12          12
 AtmWgt=  12.0000000  12.0000000  12.0000000  12.0000000  12.0000000  12.0000000  12.0000000  12.0000000  12.0000000  12.0000000
 NucSpn=           0           0           0           0           0           0           0           0           0           0
 AtZEff=  -0.0000000  -0.0000000  -0.0000000  -0.0000000  -0.0000000  -0.0000000  -0.0000000  -0.0000000  -0.0000000  -0.0000000
 NQMom=    0.0000000   0.0000000   0.0000000   0.0000000   0.0000000   0.0000000   0.0000000   0.0000000   0.0000000   0.0000000
 NMagM=    0.0000000   0.0000000   0.0000000   0.0000000   0.0000000   0.0000000   0.0000000   0.0000000   0.0000000   0.0000000
 AtZNuc=   6.0000000   6.0000000   6.0000000   6.0000000   6.0000000   6.0000000   6.0000000   6.0000000   6.0000000   6.0000000

  Atom        21          22          23          24          25          26          27          28          29          30
 IAtWgt=          12          12          16          12          12          12          12          12          12          12
 AtmWgt=  12.0000000  12.0000000  15.9949146  12.0000000  12.0000000  12.0000000  12.0000000  12.0000000  12.0000000  12.0000000
 NucSpn=           0           0           0           0           0           0           0           0           0           0
 AtZEff=  -0.0000000  -0.0000000  -0.0000000  -0.0000000  -0.0000000  -0.0000000  -0.0000000  -0.0000000  -0.0000000  -0.0000000
 NQMom=    0.0000000   0.0000000   0.0000000   0.0000000   0.0000000   0.0000000   0.0000000   0.0000000   0.0000000   0.0000000
 NMagM=    0.0000000   0.0000000   0.0000000   0.0000000   0.0000000   0.0000000   0.0000000   0.0000000   0.0000000   0.0000000
 AtZNuc=   6.0000000   6.0000000   8.0000000   6.0000000   6.0000000   6.0000000   6.0000000   6.0000000   6.0000000   6.0000000

  Atom        31          32          33          34          35          36          37          38          39          40
 IAtWgt=          12          12          12          12          12          12          12          12          12          12
 AtmWgt=  12.0000000  12.0000000  12.0000000  12.0000000  12.0000000  12.0000000  12.0000000  12.0000000  12.0000000  12.0000000
 NucSpn=           0           0           0           0           0           0           0           0           0           0
 AtZEff=  -0.0000000  -0.0000000  -0.0000000  -0.0000000  -0.0000000  -0.0000000  -0.0000000  -0.0000000  -0.0000000  -0.0000000
 NQMom=    0.0000000   0.0000000   0.0000000   0.0000000   0.0000000   0.0000000   0.0000000   0.0000000   0.0000000   0.0000000
 NMagM=    0.0000000   0.0000000   0.0000000   0.0000000   0.0000000   0.0000000   0.0000000   0.0000000   0.0000000   0.0000000
 AtZNuc=   6.0000000   6.0000000   6.0000000   6.0000000   6.0000000   6.0000000   6.0000000   6.0000000   6.0000000   6.0000000

  Atom        41          42          43          44          45          46          47          48          49          50
 IAtWgt=          12          12          12          12          16          12          12          12           1           1
 AtmWgt=  12.0000000  12.0000000  12.0000000  12.0000000  15.9949146  12.0000000  12.0000000  12.0000000   1.0078250   1.0078250
 NucSpn=           0           0           0           0           0           0           0           0           1           1
 AtZEff=  -0.0000000  -0.0000000  -0.0000000  -0.0000000  -0.0000000  -0.0000000  -0.0000000  -0.0000000  -0.0000000  -0.0000000
 NQMom=    0.0000000   0.0000000   0.0000000   0.0000000   0.0000000   0.0000000   0.0000000   0.0000000   0.0000000   0.0000000
 NMagM=    0.0000000   0.0000000   0.0000000   0.0000000   0.0000000   0.0000000   0.0000000   0.0000000   2.7928460   2.7928460
 AtZNuc=   6.0000000   6.0000000   6.0000000   6.0000000   8.0000000   6.0000000   6.0000000   6.0000000   1.0000000   1.0000000

  Atom        51          52          53          54          55          56          57          58          59          60
 IAtWgt=           1           1           1           1           1           1           1           1           1           1
 AtmWgt=   1.0078250   1.0078250   1.0078250   1.0078250   1.0078250   1.0078250   1.0078250   1.0078250   1.0078250   1.0078250
 NucSpn=           1           1           1           1           1           1           1           1           1           1
 AtZEff=  -0.0000000  -0.0000000  -0.0000000  -0.0000000  -0.0000000  -0.0000000  -0.0000000  -0.0000000  -0.0000000  -0.0000000
 NQMom=    0.0000000   0.0000000   0.0000000   0.0000000   0.0000000   0.0000000   0.0000000   0.0000000   0.0000000   0.0000000
 NMagM=    2.7928460   2.7928460   2.7928460   2.7928460   2.7928460   2.7928460   2.7928460   2.7928460   2.7928460   2.7928460
 AtZNuc=   1.0000000   1.0000000   1.0000000   1.0000000   1.0000000   1.0000000   1.0000000   1.0000000   1.0000000   1.0000000

  Atom        61          62          63          64          65          66          67          68          69          70
 IAtWgt=           1           1           1           1           1           1           1           1           1           1
 AtmWgt=   1.0078250   1.0078250   1.0078250   1.0078250   1.0078250   1.0078250   1.0078250   1.0078250   1.0078250   1.0078250
 NucSpn=           1           1           1           1           1           1           1           1           1           1
 AtZEff=  -0.0000000  -0.0000000  -0.0000000  -0.0000000  -0.0000000  -0.0000000  -0.0000000  -0.0000000  -0.0000000  -0.0000000
 NQMom=    0.0000000   0.0000000   0.0000000   0.0000000   0.0000000   0.0000000   0.0000000   0.0000000   0.0000000   0.0000000
 NMagM=    2.7928460   2.7928460   2.7928460   2.7928460   2.7928460   2.7928460   2.7928460   2.7928460   2.7928460   2.7928460
 AtZNuc=   1.0000000   1.0000000   1.0000000   1.0000000   1.0000000   1.0000000   1.0000000   1.0000000   1.0000000   1.0000000

  Atom        71          72          73          74          75          76          77          78          79          80
 IAtWgt=           1           1           1           1           1           1           1           1           1           1
 AtmWgt=   1.0078250   1.0078250   1.0078250   1.0078250   1.0078250   1.0078250   1.0078250   1.0078250   1.0078250   1.0078250
 NucSpn=           1           1           1           1           1           1           1           1           1           1
 AtZEff=  -0.0000000  -0.0000000  -0.0000000  -0.0000000  -0.0000000  -0.0000000  -0.0000000  -0.0000000  -0.0000000  -0.0000000
 NQMom=    0.0000000   0.0000000   0.0000000   0.0000000   0.0000000   0.0000000   0.0000000   0.0000000   0.0000000   0.0000000
 NMagM=    2.7928460   2.7928460   2.7928460   2.7928460   2.7928460   2.7928460   2.7928460   2.7928460   2.7928460   2.7928460
 AtZNuc=   1.0000000   1.0000000   1.0000000   1.0000000   1.0000000   1.0000000   1.0000000   1.0000000   1.0000000   1.0000000

  Atom        81          82          83          84          85          86          87          88          89          90
 IAtWgt=           1           1           1           1           1           1           1           1           1           1
 AtmWgt=   1.0078250   1.0078250   1.0078250   1.0078250   1.0078250   1.0078250   1.0078250   1.0078250   1.0078250   1.0078250
 NucSpn=           1           1           1           1           1           1           1           1           1           1
 AtZEff=  -0.0000000  -0.0000000  -0.0000000  -0.0000000  -0.0000000  -0.0000000  -0.0000000  -0.0000000  -0.0000000  -0.0000000
 NQMom=    0.0000000   0.0000000   0.0000000   0.0000000   0.0000000   0.0000000   0.0000000   0.0000000   0.0000000   0.0000000
 NMagM=    2.7928460   2.7928460   2.7928460   2.7928460   2.7928460   2.7928460   2.7928460   2.7928460   2.7928460   2.7928460
 AtZNuc=   1.0000000   1.0000000   1.0000000   1.0000000   1.0000000   1.0000000   1.0000000   1.0000000   1.0000000   1.0000000

  Atom        91          92          93
 IAtWgt=           1           1          63
 AtmWgt=   1.0078250   1.0078250  62.9295992
 NucSpn=           1           1           3
 AtZEff=  -0.0000000  -0.0000000  -0.0000000
 NQMom=    0.0000000   0.0000000 -22.0000000
 NMagM=    2.7928460   2.7928460   2.2233000
 AtZNuc=   1.0000000   1.0000000  29.0000000
 Leave Link  101 at Sat Feb  8 11:46:01 2025, MaxMem= 13421772800 cpu:               3.7 elap:               0.1
 (Enter /public/software/apps/Gaussian/g16/l103.exe)

 GradGradGradGradGradGradGradGradGradGradGradGradGradGradGradGradGradGrad
 Berny optimization.
 Initialization pass.
                           ----------------------------
                           !    Initial Parameters    !
                           ! (Angstroms and Degrees)  !
 --------------------------                            --------------------------
 ! Name  Definition              Value          Derivative Info.                !
 --------------------------------------------------------------------------------
 ! R1    R(1,2)                  1.5492         estimate D2E/DX2                !
 ! R2    R(1,49)                 1.1116         estimate D2E/DX2                !
 ! R3    R(1,50)                 1.1093         estimate D2E/DX2                !
 ! R4    R(1,51)                 1.1118         estimate D2E/DX2                !
 ! R5    R(2,3)                  1.5458         estimate D2E/DX2                !
 ! R6    R(2,4)                  1.549          estimate D2E/DX2                !
 ! R7    R(2,48)                 1.5364         estimate D2E/DX2                !
 ! R8    R(3,52)                 1.1111         estimate D2E/DX2                !
 ! R9    R(3,53)                 1.1109         estimate D2E/DX2                !
 ! R10   R(3,54)                 1.1097         estimate D2E/DX2                !
 ! R11   R(4,5)                  1.5238         estimate D2E/DX2                !
 ! R12   R(4,55)                 1.1128         estimate D2E/DX2                !
 ! R13   R(4,56)                 1.1113         estimate D2E/DX2                !
 ! R14   R(5,6)                  1.549          estimate D2E/DX2                !
 ! R15   R(5,57)                 1.1126         estimate D2E/DX2                !
 ! R16   R(5,58)                 1.1112         estimate D2E/DX2                !
 ! R17   R(6,7)                  1.5497         estimate D2E/DX2                !
 ! R18   R(6,8)                  1.5461         estimate D2E/DX2                !
 ! R19   R(6,9)                  1.5367         estimate D2E/DX2                !
 ! R20   R(7,59)                 1.1115         estimate D2E/DX2                !
 ! R21   R(7,60)                 1.1093         estimate D2E/DX2                !
 ! R22   R(7,61)                 1.1119         estimate D2E/DX2                !
 ! R23   R(8,62)                 1.1112         estimate D2E/DX2                !
 ! R24   R(8,63)                 1.1099         estimate D2E/DX2                !
 ! R25   R(8,64)                 1.1115         estimate D2E/DX2                !
 ! R26   R(9,10)                 1.4133         estimate D2E/DX2                !
 ! R27   R(9,48)                 1.4277         estimate D2E/DX2                !
 ! R28   R(10,11)                1.4            estimate D2E/DX2                !
 ! R29   R(10,65)                1.081          estimate D2E/DX2                !
 ! R30   R(11,12)                1.4832         estimate D2E/DX2                !
 ! R31   R(11,46)                1.3956         estimate D2E/DX2                !
 ! R32   R(12,13)                1.4015         estimate D2E/DX2                !
 ! R33   R(12,44)                1.4074         estimate D2E/DX2                !
 ! R34   R(13,14)                1.4001         estimate D2E/DX2                !
 ! R35   R(13,66)                1.0845         estimate D2E/DX2                !
 ! R36   R(14,15)                1.4043         estimate D2E/DX2                !
 ! R37   R(14,19)                1.418          estimate D2E/DX2                !
 ! R38   R(15,16)                1.3954         estimate D2E/DX2                !
 ! R39   R(15,67)                1.0835         estimate D2E/DX2                !
 ! R40   R(16,17)                1.3945         estimate D2E/DX2                !
 ! R41   R(16,68)                1.0824         estimate D2E/DX2                !
 ! R42   R(17,18)                1.3967         estimate D2E/DX2                !
 ! R43   R(17,69)                1.0824         estimate D2E/DX2                !
 ! R44   R(18,19)                1.4118         estimate D2E/DX2                !
 ! R45   R(18,70)                1.0819         estimate D2E/DX2                !
 ! R46   R(19,20)                1.4176         estimate D2E/DX2                !
 ! R47   R(20,21)                1.4879         estimate D2E/DX2                !
 ! R48   R(20,44)                1.4071         estimate D2E/DX2                !
 ! R49   R(21,22)                1.4073         estimate D2E/DX2                !
 ! R50   R(21,43)                1.4176         estimate D2E/DX2                !
 ! R51   R(22,23)                1.3933         estimate D2E/DX2                !
 ! R52   R(22,24)                1.4073         estimate D2E/DX2                !
 ! R53   R(23,93)                1.9624         estimate D2E/DX2                !
 ! R54   R(24,25)                1.4827         estimate D2E/DX2                !
 ! R55   R(24,37)                1.4016         estimate D2E/DX2                !
 ! R56   R(25,26)                1.4042         estimate D2E/DX2                !
 ! R57   R(25,36)                1.4042         estimate D2E/DX2                !
 ! R58   R(26,27)                1.3975         estimate D2E/DX2                !
 ! R59   R(26,71)                1.0832         estimate D2E/DX2                !
 ! R60   R(27,28)                1.4074         estimate D2E/DX2                !
 ! R61   R(27,72)                1.0825         estimate D2E/DX2                !
 ! R62   R(28,29)                1.518          estimate D2E/DX2                !
 ! R63   R(28,35)                1.4056         estimate D2E/DX2                !
 ! R64   R(29,30)                1.5411         estimate D2E/DX2                !
 ! R65   R(29,34)                1.5509         estimate D2E/DX2                !
 ! R66   R(29,73)                1.1144         estimate D2E/DX2                !
 ! R67   R(30,31)                1.5429         estimate D2E/DX2                !
 ! R68   R(30,74)                1.1123         estimate D2E/DX2                !
 ! R69   R(30,75)                1.112          estimate D2E/DX2                !
 ! R70   R(31,32)                1.5428         estimate D2E/DX2                !
 ! R71   R(31,76)                1.1119         estimate D2E/DX2                !
 ! R72   R(31,77)                1.1117         estimate D2E/DX2                !
 ! R73   R(32,33)                1.5322         estimate D2E/DX2                !
 ! R74   R(32,78)                1.1122         estimate D2E/DX2                !
 ! R75   R(32,79)                1.1114         estimate D2E/DX2                !
 ! R76   R(33,34)                1.5425         estimate D2E/DX2                !
 ! R77   R(33,80)                1.1122         estimate D2E/DX2                !
 ! R78   R(33,81)                1.1113         estimate D2E/DX2                !
 ! R79   R(34,82)                1.1123         estimate D2E/DX2                !
 ! R80   R(34,83)                1.1119         estimate D2E/DX2                !
 ! R81   R(35,36)                1.3976         estimate D2E/DX2                !
 ! R82   R(35,84)                1.083          estimate D2E/DX2                !
 ! R83   R(36,85)                1.0835         estimate D2E/DX2                !
 ! R84   R(37,38)                1.4            estimate D2E/DX2                !
 ! R85   R(37,86)                1.0845         estimate D2E/DX2                !
 ! R86   R(38,39)                1.4044         estimate D2E/DX2                !
 ! R87   R(38,43)                1.418          estimate D2E/DX2                !
 ! R88   R(39,40)                1.3954         estimate D2E/DX2                !
 ! R89   R(39,87)                1.0838         estimate D2E/DX2                !
 ! R90   R(40,41)                1.3946         estimate D2E/DX2                !
 ! R91   R(40,88)                1.0823         estimate D2E/DX2                !
 ! R92   R(41,42)                1.3966         estimate D2E/DX2                !
 ! R93   R(41,89)                1.0822         estimate D2E/DX2                !
 ! R94   R(42,43)                1.4117         estimate D2E/DX2                !
 ! R95   R(42,90)                1.082          estimate D2E/DX2                !
 ! R96   R(44,45)                1.3932         estimate D2E/DX2                !
 ! R97   R(45,93)                1.9624         estimate D2E/DX2                !
 ! R98   R(46,47)                1.3917         estimate D2E/DX2                !
 ! R99   R(46,91)                1.0833         estimate D2E/DX2                !
 ! R100  R(47,48)                1.4125         estimate D2E/DX2                !
 ! R101  R(47,92)                1.0806         estimate D2E/DX2                !
 ! A1    A(2,1,49)             110.4642         estimate D2E/DX2                !
 ! A2    A(2,1,50)             112.2514         estimate D2E/DX2                !
 ! A3    A(2,1,51)             110.5714         estimate D2E/DX2                !
 ! A4    A(49,1,50)            108.4109         estimate D2E/DX2                !
 ! A5    A(49,1,51)            108.2393         estimate D2E/DX2                !
 ! A6    A(50,1,51)            106.7451         estimate D2E/DX2                !
 ! A7    A(1,2,3)              108.6832         estimate D2E/DX2                !
 ! A8    A(1,2,4)              106.7896         estimate D2E/DX2                !
 ! A9    A(1,2,48)             110.7598         estimate D2E/DX2                !
 ! A10   A(3,2,4)              110.0575         estimate D2E/DX2                !
 ! A11   A(3,2,48)             108.966          estimate D2E/DX2                !
 ! A12   A(4,2,48)             111.5337         estimate D2E/DX2                !
 ! A13   A(2,3,52)             110.8963         estimate D2E/DX2                !
 ! A14   A(2,3,53)             110.8217         estimate D2E/DX2                !
 ! A15   A(2,3,54)             111.2512         estimate D2E/DX2                !
 ! A16   A(52,3,53)            107.7294         estimate D2E/DX2                !
 ! A17   A(52,3,54)            108.6024         estimate D2E/DX2                !
 ! A18   A(53,3,54)            107.3963         estimate D2E/DX2                !
 ! A19   A(2,4,5)              112.2741         estimate D2E/DX2                !
 ! A20   A(2,4,55)             110.1956         estimate D2E/DX2                !
 ! A21   A(2,4,56)             110.4436         estimate D2E/DX2                !
 ! A22   A(5,4,55)             108.7254         estimate D2E/DX2                !
 ! A23   A(5,4,56)             108.9079         estimate D2E/DX2                !
 ! A24   A(55,4,56)            106.0857         estimate D2E/DX2                !
 ! A25   A(4,5,6)              112.2793         estimate D2E/DX2                !
 ! A26   A(4,5,57)             108.718          estimate D2E/DX2                !
 ! A27   A(4,5,58)             108.9378         estimate D2E/DX2                !
 ! A28   A(6,5,57)             110.1751         estimate D2E/DX2                !
 ! A29   A(6,5,58)             110.4721         estimate D2E/DX2                !
 ! A30   A(57,5,58)            106.0474         estimate D2E/DX2                !
 ! A31   A(5,6,7)              106.7913         estimate D2E/DX2                !
 ! A32   A(5,6,8)              110.0394         estimate D2E/DX2                !
 ! A33   A(5,6,9)              111.5292         estimate D2E/DX2                !
 ! A34   A(7,6,8)              108.6779         estimate D2E/DX2                !
 ! A35   A(7,6,9)              110.7324         estimate D2E/DX2                !
 ! A36   A(8,6,9)              109.0178         estimate D2E/DX2                !
 ! A37   A(6,7,59)             110.4592         estimate D2E/DX2                !
 ! A38   A(6,7,60)             112.3184         estimate D2E/DX2                !
 ! A39   A(6,7,61)             110.5923         estimate D2E/DX2                !
 ! A40   A(59,7,60)            108.3587         estimate D2E/DX2                !
 ! A41   A(59,7,61)            108.2201         estimate D2E/DX2                !
 ! A42   A(60,7,61)            106.7292         estimate D2E/DX2                !
 ! A43   A(6,8,62)             110.8703         estimate D2E/DX2                !
 ! A44   A(6,8,63)             111.2237         estimate D2E/DX2                !
 ! A45   A(6,8,64)             110.8607         estimate D2E/DX2                !
 ! A46   A(62,8,63)            107.3664         estimate D2E/DX2                !
 ! A47   A(62,8,64)            107.7532         estimate D2E/DX2                !
 ! A48   A(63,8,64)            108.6246         estimate D2E/DX2                !
 ! A49   A(6,9,10)             118.845          estimate D2E/DX2                !
 ! A50   A(6,9,48)             122.4501         estimate D2E/DX2                !
 ! A51   A(10,9,48)            118.6062         estimate D2E/DX2                !
 ! A52   A(9,10,11)            121.6461         estimate D2E/DX2                !
 ! A53   A(9,10,65)            120.1602         estimate D2E/DX2                !
 ! A54   A(11,10,65)           118.184          estimate D2E/DX2                !
 ! A55   A(10,11,12)           120.5435         estimate D2E/DX2                !
 ! A56   A(10,11,46)           119.1489         estimate D2E/DX2                !
 ! A57   A(12,11,46)           120.3045         estimate D2E/DX2                !
 ! A58   A(11,12,13)           119.5257         estimate D2E/DX2                !
 ! A59   A(11,12,44)           121.0366         estimate D2E/DX2                !
 ! A60   A(13,12,44)           119.4376         estimate D2E/DX2                !
 ! A61   A(12,13,14)           120.78           estimate D2E/DX2                !
 ! A62   A(12,13,66)           119.5091         estimate D2E/DX2                !
 ! A63   A(14,13,66)           119.7091         estimate D2E/DX2                !
 ! A64   A(13,14,15)           119.9592         estimate D2E/DX2                !
 ! A65   A(13,14,19)           120.0545         estimate D2E/DX2                !
 ! A66   A(15,14,19)           119.9863         estimate D2E/DX2                !
 ! A67   A(14,15,16)           120.3119         estimate D2E/DX2                !
 ! A68   A(14,15,67)           120.6899         estimate D2E/DX2                !
 ! A69   A(16,15,67)           118.9979         estimate D2E/DX2                !
 ! A70   A(15,16,17)           120.1262         estimate D2E/DX2                !
 ! A71   A(15,16,68)           119.9518         estimate D2E/DX2                !
 ! A72   A(17,16,68)           119.9214         estimate D2E/DX2                !
 ! A73   A(16,17,18)           120.2716         estimate D2E/DX2                !
 ! A74   A(16,17,69)           119.8334         estimate D2E/DX2                !
 ! A75   A(18,17,69)           119.8948         estimate D2E/DX2                !
 ! A76   A(17,18,19)           120.5548         estimate D2E/DX2                !
 ! A77   A(17,18,70)           118.0083         estimate D2E/DX2                !
 ! A78   A(19,18,70)           121.4364         estimate D2E/DX2                !
 ! A79   A(14,19,18)           118.741          estimate D2E/DX2                !
 ! A80   A(14,19,20)           119.3318         estimate D2E/DX2                !
 ! A81   A(18,19,20)           121.9246         estimate D2E/DX2                !
 ! A82   A(19,20,21)           121.6816         estimate D2E/DX2                !
 ! A83   A(19,20,44)           119.7017         estimate D2E/DX2                !
 ! A84   A(21,20,44)           118.6117         estimate D2E/DX2                !
 ! A85   A(20,21,22)           118.6291         estimate D2E/DX2                !
 ! A86   A(20,21,43)           121.6542         estimate D2E/DX2                !
 ! A87   A(22,21,43)           119.7079         estimate D2E/DX2                !
 ! A88   A(21,22,23)           119.3761         estimate D2E/DX2                !
 ! A89   A(21,22,24)           120.6278         estimate D2E/DX2                !
 ! A90   A(23,22,24)           119.9853         estimate D2E/DX2                !
 ! A91   A(22,23,93)           112.4294         estimate D2E/DX2                !
 ! A92   A(22,24,25)           121.1038         estimate D2E/DX2                !
 ! A93   A(22,24,37)           119.4409         estimate D2E/DX2                !
 ! A94   A(25,24,37)           119.4552         estimate D2E/DX2                !
 ! A95   A(24,25,26)           120.5647         estimate D2E/DX2                !
 ! A96   A(24,25,36)           120.2975         estimate D2E/DX2                !
 ! A97   A(26,25,36)           119.1215         estimate D2E/DX2                !
 ! A98   A(25,26,27)           120.4485         estimate D2E/DX2                !
 ! A99   A(25,26,71)           120.4737         estimate D2E/DX2                !
 ! A100  A(27,26,71)           119.0668         estimate D2E/DX2                !
 ! A101  A(26,27,28)           120.5337         estimate D2E/DX2                !
 ! A102  A(26,27,72)           118.8462         estimate D2E/DX2                !
 ! A103  A(28,27,72)           120.6158         estimate D2E/DX2                !
 ! A104  A(27,28,29)           121.0723         estimate D2E/DX2                !
 ! A105  A(27,28,35)           118.8719         estimate D2E/DX2                !
 ! A106  A(29,28,35)           120.0437         estimate D2E/DX2                !
 ! A107  A(28,29,30)           111.684          estimate D2E/DX2                !
 ! A108  A(28,29,34)           111.3304         estimate D2E/DX2                !
 ! A109  A(28,29,73)           108.5781         estimate D2E/DX2                !
 ! A110  A(30,29,34)           111.4589         estimate D2E/DX2                !
 ! A111  A(30,29,73)           106.312          estimate D2E/DX2                !
 ! A112  A(34,29,73)           107.2046         estimate D2E/DX2                !
 ! A113  A(29,30,31)           111.4431         estimate D2E/DX2                !
 ! A114  A(29,30,74)           110.0244         estimate D2E/DX2                !
 ! A115  A(29,30,75)           109.7425         estimate D2E/DX2                !
 ! A116  A(31,30,74)           109.1504         estimate D2E/DX2                !
 ! A117  A(31,30,75)           108.7092         estimate D2E/DX2                !
 ! A118  A(74,30,75)           107.6834         estimate D2E/DX2                !
 ! A119  A(30,31,32)           113.5306         estimate D2E/DX2                !
 ! A120  A(30,31,76)           109.3393         estimate D2E/DX2                !
 ! A121  A(30,31,77)           108.6304         estimate D2E/DX2                !
 ! A122  A(32,31,76)           108.589          estimate D2E/DX2                !
 ! A123  A(32,31,77)           109.3603         estimate D2E/DX2                !
 ! A124  A(76,31,77)           107.202          estimate D2E/DX2                !
 ! A125  A(31,32,33)           111.8273         estimate D2E/DX2                !
 ! A126  A(31,32,78)           109.5195         estimate D2E/DX2                !
 ! A127  A(31,32,79)           109.4949         estimate D2E/DX2                !
 ! A128  A(33,32,78)           108.8397         estimate D2E/DX2                !
 ! A129  A(33,32,79)           109.5664         estimate D2E/DX2                !
 ! A130  A(78,32,79)           107.4912         estimate D2E/DX2                !
 ! A131  A(32,33,34)           111.8552         estimate D2E/DX2                !
 ! A132  A(32,33,80)           108.8109         estimate D2E/DX2                !
 ! A133  A(32,33,81)           109.5952         estimate D2E/DX2                !
 ! A134  A(34,33,80)           109.4628         estimate D2E/DX2                !
 ! A135  A(34,33,81)           109.5052         estimate D2E/DX2                !
 ! A136  A(80,33,81)           107.509          estimate D2E/DX2                !
 ! A137  A(29,34,33)           113.2849         estimate D2E/DX2                !
 ! A138  A(29,34,82)           108.4612         estimate D2E/DX2                !
 ! A139  A(29,34,83)           111.0858         estimate D2E/DX2                !
 ! A140  A(33,34,82)           109.1188         estimate D2E/DX2                !
 ! A141  A(33,34,83)           107.8409         estimate D2E/DX2                !
 ! A142  A(82,34,83)           106.8407         estimate D2E/DX2                !
 ! A143  A(28,35,36)           120.5598         estimate D2E/DX2                !
 ! A144  A(28,35,84)           120.5588         estimate D2E/DX2                !
 ! A145  A(36,35,84)           118.8814         estimate D2E/DX2                !
 ! A146  A(25,36,35)           120.4596         estimate D2E/DX2                !
 ! A147  A(25,36,85)           120.4146         estimate D2E/DX2                !
 ! A148  A(35,36,85)           119.1235         estimate D2E/DX2                !
 ! A149  A(24,37,38)           120.801          estimate D2E/DX2                !
 ! A150  A(24,37,86)           119.4926         estimate D2E/DX2                !
 ! A151  A(38,37,86)           119.7056         estimate D2E/DX2                !
 ! A152  A(37,38,39)           119.9593         estimate D2E/DX2                !
 ! A153  A(37,38,43)           120.0354         estimate D2E/DX2                !
 ! A154  A(39,38,43)           120.0052         estimate D2E/DX2                !
 ! A155  A(38,39,40)           120.2808         estimate D2E/DX2                !
 ! A156  A(38,39,87)           120.6854         estimate D2E/DX2                !
 ! A157  A(40,39,87)           119.0334         estimate D2E/DX2                !
 ! A158  A(39,40,41)           120.1334         estimate D2E/DX2                !
 ! A159  A(39,40,88)           119.9572         estimate D2E/DX2                !
 ! A160  A(41,40,88)           119.9084         estimate D2E/DX2                !
 ! A161  A(40,41,42)           120.285          estimate D2E/DX2                !
 ! A162  A(40,41,89)           119.8452         estimate D2E/DX2                !
 ! A163  A(42,41,89)           119.8698         estimate D2E/DX2                !
 ! A164  A(41,42,43)           120.537          estimate D2E/DX2                !
 ! A165  A(41,42,90)           118.0371         estimate D2E/DX2                !
 ! A166  A(43,42,90)           121.4255         estimate D2E/DX2                !
 ! A167  A(21,43,38)           119.3372         estimate D2E/DX2                !
 ! A168  A(21,43,42)           121.9121         estimate D2E/DX2                !
 ! A169  A(38,43,42)           118.7475         estimate D2E/DX2                !
 ! A170  A(12,44,20)           120.6463         estimate D2E/DX2                !
 ! A171  A(12,44,45)           119.9764         estimate D2E/DX2                !
 ! A172  A(20,44,45)           119.3682         estimate D2E/DX2                !
 ! A173  A(44,45,93)           106.6885         estimate D2E/DX2                !
 ! A174  A(11,46,47)           120.4109         estimate D2E/DX2                !
 ! A175  A(11,46,91)           120.4093         estimate D2E/DX2                !
 ! A176  A(47,46,91)           119.1791         estimate D2E/DX2                !
 ! A177  A(46,47,48)           121.3967         estimate D2E/DX2                !
 ! A178  A(46,47,92)           117.5302         estimate D2E/DX2                !
 ! A179  A(48,47,92)           121.0725         estimate D2E/DX2                !
 ! A180  A(2,48,9)             122.4436         estimate D2E/DX2                !
 ! A181  A(2,48,47)            118.9462         estimate D2E/DX2                !
 ! A182  A(9,48,47)            118.5165         estimate D2E/DX2                !
 ! A183  A(23,93,45)            99.9999         estimate D2E/DX2                !
 ! D1    D(49,1,2,3)           171.7019         estimate D2E/DX2                !
 ! D2    D(49,1,2,4)           -69.6004         estimate D2E/DX2                !
 ! D3    D(49,1,2,48)           52.0262         estimate D2E/DX2                !
 ! D4    D(50,1,2,3)            50.5768         estimate D2E/DX2                !
 ! D5    D(50,1,2,4)           169.2745         estimate D2E/DX2                !
 ! D6    D(50,1,2,48)          -69.0989         estimate D2E/DX2                !
 ! D7    D(51,1,2,3)           -68.5046         estimate D2E/DX2                !
 ! D8    D(51,1,2,4)            50.1931         estimate D2E/DX2                !
 ! D9    D(51,1,2,48)          171.8198         estimate D2E/DX2                !
 ! D10   D(1,2,3,52)            63.2311         estimate D2E/DX2                !
 ! D11   D(1,2,3,53)           -56.3682         estimate D2E/DX2                !
 ! D12   D(1,2,3,54)          -175.7815         estimate D2E/DX2                !
 ! D13   D(4,2,3,52)           -53.3892         estimate D2E/DX2                !
 ! D14   D(4,2,3,53)          -172.9885         estimate D2E/DX2                !
 ! D15   D(4,2,3,54)            67.5981         estimate D2E/DX2                !
 ! D16   D(48,2,3,52)         -175.9811         estimate D2E/DX2                !
 ! D17   D(48,2,3,53)           64.4196         estimate D2E/DX2                !
 ! D18   D(48,2,3,54)          -54.9937         estimate D2E/DX2                !
 ! D19   D(1,2,4,5)            166.1938         estimate D2E/DX2                !
 ! D20   D(1,2,4,55)           -72.4529         estimate D2E/DX2                !
 ! D21   D(1,2,4,56)            44.4312         estimate D2E/DX2                !
 ! D22   D(3,2,4,5)            -76.0078         estimate D2E/DX2                !
 ! D23   D(3,2,4,55)            45.3456         estimate D2E/DX2                !
 ! D24   D(3,2,4,56)           162.2297         estimate D2E/DX2                !
 ! D25   D(48,2,4,5)            45.0578         estimate D2E/DX2                !
 ! D26   D(48,2,4,55)          166.4112         estimate D2E/DX2                !
 ! D27   D(48,2,4,56)          -76.7047         estimate D2E/DX2                !
 ! D28   D(1,2,48,9)          -134.1401         estimate D2E/DX2                !
 ! D29   D(1,2,48,47)           49.4329         estimate D2E/DX2                !
 ! D30   D(3,2,48,9)           106.354          estimate D2E/DX2                !
 ! D31   D(3,2,48,47)          -70.073          estimate D2E/DX2                !
 ! D32   D(4,2,48,9)           -15.3457         estimate D2E/DX2                !
 ! D33   D(4,2,48,47)          168.2273         estimate D2E/DX2                !
 ! D34   D(2,4,5,6)            -62.0749         estimate D2E/DX2                !
 ! D35   D(2,4,5,57)           175.7606         estimate D2E/DX2                !
 ! D36   D(2,4,5,58)            60.6206         estimate D2E/DX2                !
 ! D37   D(55,4,5,6)           175.7329         estimate D2E/DX2                !
 ! D38   D(55,4,5,57)           53.5684         estimate D2E/DX2                !
 ! D39   D(55,4,5,58)          -61.5715         estimate D2E/DX2                !
 ! D40   D(56,4,5,6)            60.5597         estimate D2E/DX2                !
 ! D41   D(56,4,5,57)          -61.6048         estimate D2E/DX2                !
 ! D42   D(56,4,5,58)         -176.7448         estimate D2E/DX2                !
 ! D43   D(4,5,6,7)            166.1176         estimate D2E/DX2                !
 ! D44   D(4,5,6,8)            -76.0989         estimate D2E/DX2                !
 ! D45   D(4,5,6,9)             45.0169         estimate D2E/DX2                !
 ! D46   D(57,5,6,7)           -72.5493         estimate D2E/DX2                !
 ! D47   D(57,5,6,8)            45.2341         estimate D2E/DX2                !
 ! D48   D(57,5,6,9)           166.35           estimate D2E/DX2                !
 ! D49   D(58,5,6,7)            44.2926         estimate D2E/DX2                !
 ! D50   D(58,5,6,8)           162.0761         estimate D2E/DX2                !
 ! D51   D(58,5,6,9)           -76.808          estimate D2E/DX2                !
 ! D52   D(5,6,7,59)           -69.6691         estimate D2E/DX2                !
 ! D53   D(5,6,7,60)           169.2303         estimate D2E/DX2                !
 ! D54   D(5,6,7,61)            50.1108         estimate D2E/DX2                !
 ! D55   D(8,6,7,59)           171.6564         estimate D2E/DX2                !
 ! D56   D(8,6,7,60)            50.5558         estimate D2E/DX2                !
 ! D57   D(8,6,7,61)           -68.5637         estimate D2E/DX2                !
 ! D58   D(9,6,7,59)            51.937          estimate D2E/DX2                !
 ! D59   D(9,6,7,60)           -69.1636         estimate D2E/DX2                !
 ! D60   D(9,6,7,61)           171.7169         estimate D2E/DX2                !
 ! D61   D(5,6,8,62)          -172.9803         estimate D2E/DX2                !
 ! D62   D(5,6,8,63)            67.6299         estimate D2E/DX2                !
 ! D63   D(5,6,8,64)           -53.3427         estimate D2E/DX2                !
 ! D64   D(7,6,8,62)           -56.371          estimate D2E/DX2                !
 ! D65   D(7,6,8,63)          -175.7609         estimate D2E/DX2                !
 ! D66   D(7,6,8,64)            63.2665         estimate D2E/DX2                !
 ! D67   D(9,6,8,62)            64.4112         estimate D2E/DX2                !
 ! D68   D(9,6,8,63)           -54.9787         estimate D2E/DX2                !
 ! D69   D(9,6,8,64)          -175.9512         estimate D2E/DX2                !
 ! D70   D(5,6,9,10)           168.3599         estimate D2E/DX2                !
 ! D71   D(5,6,9,48)           -15.3049         estimate D2E/DX2                !
 ! D72   D(7,6,9,10)            49.5844         estimate D2E/DX2                !
 ! D73   D(7,6,9,48)          -134.0804         estimate D2E/DX2                !
 ! D74   D(8,6,9,10)           -69.9309         estimate D2E/DX2                !
 ! D75   D(8,6,9,48)           106.4043         estimate D2E/DX2                !
 ! D76   D(6,9,10,11)         -178.5309         estimate D2E/DX2                !
 ! D77   D(6,9,10,65)            2.615          estimate D2E/DX2                !
 ! D78   D(48,9,10,11)           4.9915         estimate D2E/DX2                !
 ! D79   D(48,9,10,65)        -173.8626         estimate D2E/DX2                !
 ! D80   D(6,9,48,2)             0.8644         estimate D2E/DX2                !
 ! D81   D(6,9,48,47)          177.3061         estimate D2E/DX2                !
 ! D82   D(10,9,48,2)          177.208          estimate D2E/DX2                !
 ! D83   D(10,9,48,47)          -6.3503         estimate D2E/DX2                !
 ! D84   D(9,10,11,12)         179.3235         estimate D2E/DX2                !
 ! D85   D(9,10,11,46)          -1.3231         estimate D2E/DX2                !
 ! D86   D(65,10,11,12)         -1.8005         estimate D2E/DX2                !
 ! D87   D(65,10,11,46)        177.5529         estimate D2E/DX2                !
 ! D88   D(10,11,12,13)        128.9927         estimate D2E/DX2                !
 ! D89   D(10,11,12,44)        -50.9188         estimate D2E/DX2                !
 ! D90   D(46,11,12,13)        -50.3532         estimate D2E/DX2                !
 ! D91   D(46,11,12,44)        129.7353         estimate D2E/DX2                !
 ! D92   D(10,11,46,47)         -0.924          estimate D2E/DX2                !
 ! D93   D(10,11,46,91)        178.7774         estimate D2E/DX2                !
 ! D94   D(12,11,46,47)        178.431          estimate D2E/DX2                !
 ! D95   D(12,11,46,91)         -1.8677         estimate D2E/DX2                !
 ! D96   D(11,12,13,14)       -179.6879         estimate D2E/DX2                !
 ! D97   D(11,12,13,66)         -0.1771         estimate D2E/DX2                !
 ! D98   D(44,12,13,14)          0.2251         estimate D2E/DX2                !
 ! D99   D(44,12,13,66)        179.7358         estimate D2E/DX2                !
 ! D100  D(11,12,44,20)        178.1077         estimate D2E/DX2                !
 ! D101  D(11,12,44,45)         -2.9948         estimate D2E/DX2                !
 ! D102  D(13,12,44,20)         -1.8039         estimate D2E/DX2                !
 ! D103  D(13,12,44,45)        177.0936         estimate D2E/DX2                !
 ! D104  D(12,13,14,15)       -179.545          estimate D2E/DX2                !
 ! D105  D(12,13,14,19)          0.4108         estimate D2E/DX2                !
 ! D106  D(66,13,14,15)          0.9452         estimate D2E/DX2                !
 ! D107  D(66,13,14,19)       -179.0989         estimate D2E/DX2                !
 ! D108  D(13,14,15,16)        179.4906         estimate D2E/DX2                !
 ! D109  D(13,14,15,67)         -0.3259         estimate D2E/DX2                !
 ! D110  D(19,14,15,16)         -0.4653         estimate D2E/DX2                !
 ! D111  D(19,14,15,67)        179.7182         estimate D2E/DX2                !
 ! D112  D(13,14,19,18)       -178.9133         estimate D2E/DX2                !
 ! D113  D(13,14,19,20)          0.5079         estimate D2E/DX2                !
 ! D114  D(15,14,19,18)          1.0426         estimate D2E/DX2                !
 ! D115  D(15,14,19,20)       -179.5362         estimate D2E/DX2                !
 ! D116  D(14,15,16,17)         -0.1925         estimate D2E/DX2                !
 ! D117  D(14,15,16,68)       -179.904          estimate D2E/DX2                !
 ! D118  D(67,15,16,17)        179.6271         estimate D2E/DX2                !
 ! D119  D(67,15,16,68)         -0.0844         estimate D2E/DX2                !
 ! D120  D(15,16,17,18)          0.2556         estimate D2E/DX2                !
 ! D121  D(15,16,17,69)       -179.5553         estimate D2E/DX2                !
 ! D122  D(68,16,17,18)        179.9672         estimate D2E/DX2                !
 ! D123  D(68,16,17,69)          0.1563         estimate D2E/DX2                !
 ! D124  D(16,17,18,19)          0.3442         estimate D2E/DX2                !
 ! D125  D(16,17,18,70)       -179.3854         estimate D2E/DX2                !
 ! D126  D(69,17,18,19)       -179.845          estimate D2E/DX2                !
 ! D127  D(69,17,18,70)          0.4254         estimate D2E/DX2                !
 ! D128  D(17,18,19,14)         -0.9858         estimate D2E/DX2                !
 ! D129  D(17,18,19,20)        179.6088         estimate D2E/DX2                !
 ! D130  D(70,18,19,14)        178.7345         estimate D2E/DX2                !
 ! D131  D(70,18,19,20)         -0.671          estimate D2E/DX2                !
 ! D132  D(14,19,20,21)        178.761          estimate D2E/DX2                !
 ! D133  D(14,19,20,44)         -2.0563         estimate D2E/DX2                !
 ! D134  D(18,19,20,21)         -1.8369         estimate D2E/DX2                !
 ! D135  D(18,19,20,44)        177.3457         estimate D2E/DX2                !
 ! D136  D(19,20,21,22)        108.8818         estimate D2E/DX2                !
 ! D137  D(19,20,21,43)        -72.1979         estimate D2E/DX2                !
 ! D138  D(44,20,21,22)        -70.3095         estimate D2E/DX2                !
 ! D139  D(44,20,21,43)        108.6108         estimate D2E/DX2                !
 ! D140  D(19,20,44,12)          2.7234         estimate D2E/DX2                !
 ! D141  D(19,20,44,45)       -176.1807         estimate D2E/DX2                !
 ! D142  D(21,20,44,12)       -178.0689         estimate D2E/DX2                !
 ! D143  D(21,20,44,45)          3.027          estimate D2E/DX2                !
 ! D144  D(20,21,22,23)          2.8469         estimate D2E/DX2                !
 ! D145  D(20,21,22,24)       -178.3466         estimate D2E/DX2                !
 ! D146  D(43,21,22,23)       -176.095          estimate D2E/DX2                !
 ! D147  D(43,21,22,24)          2.7115         estimate D2E/DX2                !
 ! D148  D(20,21,43,38)        178.8098         estimate D2E/DX2                !
 ! D149  D(20,21,43,42)         -1.8511         estimate D2E/DX2                !
 ! D150  D(22,21,43,38)         -2.2813         estimate D2E/DX2                !
 ! D151  D(22,21,43,42)        177.0578         estimate D2E/DX2                !
 ! D152  D(21,22,23,93)         71.6474         estimate D2E/DX2                !
 ! D153  D(24,22,23,93)       -107.1668         estimate D2E/DX2                !
 ! D154  D(21,22,24,25)        178.5855         estimate D2E/DX2                !
 ! D155  D(21,22,24,37)         -1.5177         estimate D2E/DX2                !
 ! D156  D(23,22,24,25)         -2.6153         estimate D2E/DX2                !
 ! D157  D(23,22,24,37)        177.2815         estimate D2E/DX2                !
 ! D158  D(22,23,93,45)        -39.9041         estimate D2E/DX2                !
 ! D159  D(22,24,25,26)        -51.3944         estimate D2E/DX2                !
 ! D160  D(22,24,25,36)        130.0835         estimate D2E/DX2                !
 ! D161  D(37,24,25,26)        128.7088         estimate D2E/DX2                !
 ! D162  D(37,24,25,36)        -49.8134         estimate D2E/DX2                !
 ! D163  D(22,24,37,38)         -0.0994         estimate D2E/DX2                !
 ! D164  D(22,24,37,86)        179.5643         estimate D2E/DX2                !
 ! D165  D(25,24,37,38)        179.7992         estimate D2E/DX2                !
 ! D166  D(25,24,37,86)         -0.5371         estimate D2E/DX2                !
 ! D167  D(24,25,26,27)       -179.0777         estimate D2E/DX2                !
 ! D168  D(24,25,26,71)         -0.2919         estimate D2E/DX2                !
 ! D169  D(36,25,26,27)         -0.5383         estimate D2E/DX2                !
 ! D170  D(36,25,26,71)        178.2475         estimate D2E/DX2                !
 ! D171  D(24,25,36,35)        179.1941         estimate D2E/DX2                !
 ! D172  D(24,25,36,85)         -1.3648         estimate D2E/DX2                !
 ! D173  D(26,25,36,35)          0.6507         estimate D2E/DX2                !
 ! D174  D(26,25,36,85)       -179.9082         estimate D2E/DX2                !
 ! D175  D(25,26,27,28)         -0.0773         estimate D2E/DX2                !
 ! D176  D(25,26,27,72)        179.1787         estimate D2E/DX2                !
 ! D177  D(71,26,27,28)       -178.88           estimate D2E/DX2                !
 ! D178  D(71,26,27,72)          0.376          estimate D2E/DX2                !
 ! D179  D(26,27,28,29)        179.3142         estimate D2E/DX2                !
 ! D180  D(26,27,28,35)          0.5787         estimate D2E/DX2                !
 ! D181  D(72,27,28,29)          0.0715         estimate D2E/DX2                !
 ! D182  D(72,27,28,35)       -178.6641         estimate D2E/DX2                !
 ! D183  D(27,28,29,30)         58.2747         estimate D2E/DX2                !
 ! D184  D(27,28,29,34)        -67.0293         estimate D2E/DX2                !
 ! D185  D(27,28,29,73)        175.1801         estimate D2E/DX2                !
 ! D186  D(35,28,29,30)       -123.0044         estimate D2E/DX2                !
 ! D187  D(35,28,29,34)        111.6916         estimate D2E/DX2                !
 ! D188  D(35,28,29,73)         -6.0991         estimate D2E/DX2                !
 ! D189  D(27,28,35,36)         -0.4664         estimate D2E/DX2                !
 ! D190  D(27,28,35,84)        179.4519         estimate D2E/DX2                !
 ! D191  D(29,28,35,36)       -179.2153         estimate D2E/DX2                !
 ! D192  D(29,28,35,84)          0.703          estimate D2E/DX2                !
 ! D193  D(28,29,30,31)        173.761          estimate D2E/DX2                !
 ! D194  D(28,29,30,74)         52.545          estimate D2E/DX2                !
 ! D195  D(28,29,30,75)        -65.7681         estimate D2E/DX2                !
 ! D196  D(34,29,30,31)        -61.0062         estimate D2E/DX2                !
 ! D197  D(34,29,30,74)        177.7778         estimate D2E/DX2                !
 ! D198  D(34,29,30,75)         59.4647         estimate D2E/DX2                !
 ! D199  D(73,29,30,31)         55.4926         estimate D2E/DX2                !
 ! D200  D(73,29,30,74)        -65.7234         estimate D2E/DX2                !
 ! D201  D(73,29,30,75)        175.9635         estimate D2E/DX2                !
 ! D202  D(28,29,34,33)        154.6948         estimate D2E/DX2                !
 ! D203  D(28,29,34,82)        -84.0006         estimate D2E/DX2                !
 ! D204  D(28,29,34,83)         33.1332         estimate D2E/DX2                !
 ! D205  D(30,29,34,33)         29.2655         estimate D2E/DX2                !
 ! D206  D(30,29,34,82)        150.57           estimate D2E/DX2                !
 ! D207  D(30,29,34,83)        -92.2961         estimate D2E/DX2                !
 ! D208  D(73,29,34,33)        -86.6877         estimate D2E/DX2                !
 ! D209  D(73,29,34,82)         34.6169         estimate D2E/DX2                !
 ! D210  D(73,29,34,83)        151.7507         estimate D2E/DX2                !
 ! D211  D(29,30,31,32)         30.2699         estimate D2E/DX2                !
 ! D212  D(29,30,31,76)        -91.1501         estimate D2E/DX2                !
 ! D213  D(29,30,31,77)        152.1653         estimate D2E/DX2                !
 ! D214  D(74,30,31,32)        151.9941         estimate D2E/DX2                !
 ! D215  D(74,30,31,76)         30.574          estimate D2E/DX2                !
 ! D216  D(74,30,31,77)        -86.1106         estimate D2E/DX2                !
 ! D217  D(75,30,31,32)        -90.8061         estimate D2E/DX2                !
 ! D218  D(75,30,31,76)        147.7739         estimate D2E/DX2                !
 ! D219  D(75,30,31,77)         31.0893         estimate D2E/DX2                !
 ! D220  D(30,31,32,33)         28.7834         estimate D2E/DX2                !
 ! D221  D(30,31,32,78)        -91.951          estimate D2E/DX2                !
 ! D222  D(30,31,32,79)        150.4177         estimate D2E/DX2                !
 ! D223  D(76,31,32,33)        150.6221         estimate D2E/DX2                !
 ! D224  D(76,31,32,78)         29.8877         estimate D2E/DX2                !
 ! D225  D(76,31,32,79)        -87.7436         estimate D2E/DX2                !
 ! D226  D(77,31,32,33)        -92.705          estimate D2E/DX2                !
 ! D227  D(77,31,32,78)        146.5606         estimate D2E/DX2                !
 ! D228  D(77,31,32,79)         28.9293         estimate D2E/DX2                !
 ! D229  D(31,32,33,34)        -60.7351         estimate D2E/DX2                !
 ! D230  D(31,32,33,80)         60.3212         estimate D2E/DX2                !
 ! D231  D(31,32,33,81)        177.6203         estimate D2E/DX2                !
 ! D232  D(78,32,33,34)         60.3939         estimate D2E/DX2                !
 ! D233  D(78,32,33,80)       -178.5498         estimate D2E/DX2                !
 ! D234  D(78,32,33,81)        -61.2507         estimate D2E/DX2                !
 ! D235  D(79,32,33,34)        177.6717         estimate D2E/DX2                !
 ! D236  D(79,32,33,80)        -61.2719         estimate D2E/DX2                !
 ! D237  D(79,32,33,81)         56.0272         estimate D2E/DX2                !
 ! D238  D(32,33,34,29)         29.7296         estimate D2E/DX2                !
 ! D239  D(32,33,34,82)        -91.2043         estimate D2E/DX2                !
 ! D240  D(32,33,34,83)        153.0941         estimate D2E/DX2                !
 ! D241  D(80,33,34,29)        -90.9483         estimate D2E/DX2                !
 ! D242  D(80,33,34,82)        148.1178         estimate D2E/DX2                !
 ! D243  D(80,33,34,83)         32.4162         estimate D2E/DX2                !
 ! D244  D(81,33,34,29)        151.4259         estimate D2E/DX2                !
 ! D245  D(81,33,34,82)         30.492          estimate D2E/DX2                !
 ! D246  D(81,33,34,83)        -85.2096         estimate D2E/DX2                !
 ! D247  D(28,35,36,25)         -0.1482         estimate D2E/DX2                !
 ! D248  D(28,35,36,85)       -179.5965         estimate D2E/DX2                !
 ! D249  D(84,35,36,25)        179.9321         estimate D2E/DX2                !
 ! D250  D(84,35,36,85)          0.4839         estimate D2E/DX2                !
 ! D251  D(24,37,38,39)       -179.3572         estimate D2E/DX2                !
 ! D252  D(24,37,38,43)          0.4988         estimate D2E/DX2                !
 ! D253  D(86,37,38,39)          0.9798         estimate D2E/DX2                !
 ! D254  D(86,37,38,43)       -179.1642         estimate D2E/DX2                !
 ! D255  D(37,38,39,40)        179.3452         estimate D2E/DX2                !
 ! D256  D(37,38,39,87)         -0.4381         estimate D2E/DX2                !
 ! D257  D(43,38,39,40)         -0.5108         estimate D2E/DX2                !
 ! D258  D(43,38,39,87)        179.7058         estimate D2E/DX2                !
 ! D259  D(37,38,43,21)          0.6959         estimate D2E/DX2                !
 ! D260  D(37,38,43,42)       -178.6642         estimate D2E/DX2                !
 ! D261  D(39,38,43,21)       -179.4481         estimate D2E/DX2                !
 ! D262  D(39,38,43,42)          1.1917         estimate D2E/DX2                !
 ! D263  D(38,39,40,41)         -0.2981         estimate D2E/DX2                !
 ! D264  D(38,39,40,88)       -179.947          estimate D2E/DX2                !
 ! D265  D(87,39,40,41)        179.4888         estimate D2E/DX2                !
 ! D266  D(87,39,40,88)         -0.1601         estimate D2E/DX2                !
 ! D267  D(39,40,41,42)          0.4067         estimate D2E/DX2                !
 ! D268  D(39,40,41,89)       -179.5419         estimate D2E/DX2                !
 ! D269  D(88,40,41,42)       -179.9442         estimate D2E/DX2                !
 ! D270  D(88,40,41,89)          0.1071         estimate D2E/DX2                !
 ! D271  D(40,41,42,43)          0.2995         estimate D2E/DX2                !
 ! D272  D(40,41,42,90)       -179.4736         estimate D2E/DX2                !
 ! D273  D(89,41,42,43)       -179.7519         estimate D2E/DX2                !
 ! D274  D(89,41,42,90)          0.4751         estimate D2E/DX2                !
 ! D275  D(41,42,43,21)        179.567          estimate D2E/DX2                !
 ! D276  D(41,42,43,38)         -1.0902         estimate D2E/DX2                !
 ! D277  D(90,42,43,21)         -0.6678         estimate D2E/DX2                !
 ! D278  D(90,42,43,38)        178.6751         estimate D2E/DX2                !
 ! D279  D(12,44,45,93)       -101.3779         estimate D2E/DX2                !
 ! D280  D(20,44,45,93)         77.5337         estimate D2E/DX2                !
 ! D281  D(44,45,93,23)        -51.6403         estimate D2E/DX2                !
 ! D282  D(11,46,47,48)         -0.6299         estimate D2E/DX2                !
 ! D283  D(11,46,47,92)        179.0967         estimate D2E/DX2                !
 ! D284  D(91,46,47,48)        179.6651         estimate D2E/DX2                !
 ! D285  D(91,46,47,92)         -0.6083         estimate D2E/DX2                !
 ! D286  D(46,47,48,2)        -179.1247         estimate D2E/DX2                !
 ! D287  D(46,47,48,9)           4.3068         estimate D2E/DX2                !
 ! D288  D(92,47,48,2)           1.1583         estimate D2E/DX2                !
 ! D289  D(92,47,48,9)        -175.4102         estimate D2E/DX2                !
 --------------------------------------------------------------------------------
 Trust Radius=3.00D-01 FncErr=1.00D-07 GrdErr=1.00D-06 EigMax=2.50D+02 EigMin=1.00D-04
 Number of steps in this run=    558 maximum allowed number of steps=    558.
 GradGradGradGradGradGradGradGradGradGradGradGradGradGradGradGradGradGrad

 Leave Link  103 at Sat Feb  8 11:46:01 2025, MaxMem= 13421772800 cpu:               0.9 elap:               0.0
 (Enter /public/software/apps/Gaussian/g16/l202.exe)
 Symmetry turned off by external request.
 Stoichiometry    C46H44CuO2(2)
 Framework group  C1[X(C46H44CuO2)]
 Deg. of freedom   273
 Full point group                 C1      NOp   1
                          Input orientation:                          
 ---------------------------------------------------------------------
 Center     Atomic      Atomic             Coordinates (Angstroms)
 Number     Number       Type             X           Y           Z
 ---------------------------------------------------------------------
      1          6           0       -7.555107    3.220879   -0.970640
      2          6           0       -6.433395    3.177850    0.097006
      3          6           0       -5.732677    4.555177    0.134819
      4          6           0       -7.119976    2.893599    1.456157
      5          6           0       -6.121305    2.493026    2.535137
      6          6           0       -5.372546    1.182954    2.185120
      7          6           0       -4.168098    1.082871    3.155058
      8          6           0       -6.297472   -0.034056    2.417023
      9          6           0       -4.896252    1.178732    0.724067
     10          6           0       -3.987392    0.180398    0.306083
     11          6           0       -3.492051    0.139465   -1.002700
     12          6           0       -2.527493   -0.910603   -1.411050
     13          6           0       -2.777088   -1.666970   -2.564224
     14          6           0       -1.887619   -2.669095   -2.970222
     15          6           0       -2.149812   -3.410137   -4.133912
     16          6           0       -1.262956   -4.403350   -4.551116
     17          6           0       -0.107067   -4.663463   -3.815670
     18          6           0        0.167663   -3.936315   -2.655297
     19          6           0       -0.722038   -2.935578   -2.207900
     20          6           0       -0.476075   -2.185882   -1.030222
     21          6           0        0.715851   -2.440188   -0.176631
     22          6           0        1.751615   -1.487486   -0.163672
     23          8           0        1.608320   -0.312104   -0.897928
     24          6           0        2.913223   -1.701661    0.601398
     25          6           0        4.024165   -0.719736    0.598457
     26          6           0        4.569940   -0.262612   -0.611933
     27          6           0        5.629733    0.648283   -0.611647
     28          6           0        6.164803    1.122320    0.600681
     29          6           0        7.325989    2.100010    0.615446
     30          6           0        6.990078    3.394661   -0.150124
     31          6           0        8.110924    4.444568   -0.001890
     32          6           0        9.513823    3.827197    0.174281
     33          6           0        9.624468    2.460098   -0.508645
     34          6           0        8.623595    1.442931    0.077070
     35          6           0        5.623267    0.654592    1.810457
     36          6           0        4.564888   -0.258206    1.809387
     37          6           0        3.020666   -2.861601    1.380788
     38          6           0        1.987040   -3.805416    1.407775
     39          6           0        2.107615   -4.954911    2.205474
     40          6           0        1.075715   -5.893278    2.247970
     41          6           0       -0.085305   -5.691393    1.502231
     42          6           0       -0.219754   -4.554563    0.702215
     43          6           0        0.817642   -3.599675    0.632634
     44          6           0       -1.365533   -1.161203   -0.657531
     45          8           0       -1.075313   -0.376079    0.456233
     46          6           0       -3.927834    1.092294   -1.924553
     47          6           0       -4.857577    2.058782   -1.552577
     48          6           0       -5.395247    2.098706   -0.246990
     49          1           0       -7.979793    2.205900   -1.129292
     50          1           0       -7.192229    3.605210   -1.945933
     51          1           0       -8.377373    3.895379   -0.646424
     52          1           0       -6.440157    5.351203    0.451768
     53          1           0       -5.344038    4.828227   -0.869475
     54          1           0       -4.870679    4.548877    0.833703
     55          1           0       -7.676693    3.793334    1.800937
     56          1           0       -7.876105    2.086443    1.347773
     57          1           0       -6.664290    2.378753    3.499549
     58          1           0       -5.399895    3.324691    2.685474
     59          1           0       -3.409129    1.858108    2.913319
     60          1           0       -3.677062    0.088947    3.115791
     61          1           0       -4.498388    1.235402    4.205774
     62          1           0       -5.738026   -0.986008    2.291887
     63          1           0       -7.136732   -0.045072    1.690739
     64          1           0       -6.718370   -0.020997    3.445699
     65          1           0       -3.670457   -0.588880    0.996228
     66          1           0       -3.674274   -1.477763   -3.143347
     67          1           0       -3.039282   -3.219151   -4.722508
     68          1           0       -1.470016   -4.969964   -5.449863
     69          1           0        0.581236   -5.430061   -4.147583
     70          1           0        1.079725   -4.161401   -2.118673
     71          1           0        4.188515   -0.625893   -1.558433
     72          1           0        6.039448    0.973138   -1.559506
     73          1           0        7.522475    2.402004    1.670025
     74          1           0        6.035921    3.823760    0.227490
     75          1           0        6.854359    3.167858   -1.230291
     76          1           0        7.895578    5.091583    0.876329
     77          1           0        8.106262    5.098424   -0.901019
     78          1           0        9.733165    3.706158    1.257905
     79          1           0       10.277751    4.516244   -0.246236
     80          1           0        9.430963    2.586000   -1.596634
     81          1           0       10.658858    2.069843   -0.395997
     82          1           0        9.110948    0.890959    0.910723
     83          1           0        8.395125    0.695677   -0.713911
     84          1           0        6.019958    0.994428    2.759132
     85          1           0        4.160912   -0.598345    2.755492
     86          1           0        3.918449   -3.030943    1.965153
     87          1           0        2.998533   -5.125574    2.798622
     88          1           0        1.173818   -6.776873    2.865194
     89          1           0       -0.885776   -6.418515    1.544428
     90          1           0       -1.139330   -4.430126    0.145705
     91          1           0       -3.542978    1.091732   -2.937161
     92          1           0       -5.151241    2.782818   -2.299064
     93         29           0        0.295653    0.911549   -0.103737
 ---------------------------------------------------------------------
 Rotational constants (GHZ):           0.0706537           0.0306624           0.0254931
 Leave Link  202 at Sat Feb  8 11:46:01 2025, MaxMem= 13421772800 cpu:               0.2 elap:               0.0
 (Enter /public/software/apps/Gaussian/g16/l301.exe)
 Standard basis: def2SVPP (5D, 7F)
 Ernie: Thresh=  0.10000D-02 Tol=  0.10000D-05 Strict=F.
   784 basis functions,  1447 primitive gaussians,   834 cartesian basis functions
   183 alpha electrons      182 beta electrons
       nuclear repulsion energy      6544.3698715901 Hartrees.
 IExCor=  402 DFT=T Ex+Corr=B3LYP ExCW=0 ScaHFX=  0.200000
 ScaDFX=  0.800000  0.720000  1.000000  0.810000 ScalE2=  1.000000  1.000000
 IRadAn=      5 IRanWt=     -1 IRanGd=            0 ICorTp=0 IEmpDi=141
 NAtoms=   93 NActive=   93 NUniq=   93 SFac= 1.00D+00 NAtFMM=   60 NAOKFM=T Big=T
 Integral buffers will be    131072 words long.
 Raffenetti 2 integral format.
 Two-electron integral symmetry is turned off.
 R6Disp:  Grimme-D3(BJ) Dispersion energy=       -0.2419931989 Hartrees.
 Nuclear repulsion after empirical dispersion term =     6544.1278783913 Hartrees.
 Leave Link  301 at Sat Feb  8 11:46:01 2025, MaxMem= 13421772800 cpu:               0.6 elap:               0.0
 (Enter /public/software/apps/Gaussian/g16/l302.exe)
 NPDir=0 NMtPBC=     1 NCelOv=     1 NCel=       1 NClECP=     1 NCelD=      1
         NCelK=      1 NCelE2=     1 NClLst=     1 CellRange=     0.0.
 One-electron integrals computed using PRISM.
   1 Symmetry operations used in ECPInt.
 ECPInt:  NShTT=   74691 NPrTT=  305386 LenC2=   53385 LenP2D=  130426.
 LDataN:  DoStor=T MaxTD1= 4 Len=   56
 NBasis=   784 RedAO= T EigKep=  1.66D-04  NBF=   784
 NBsUse=   784 1.00D-06 EigRej= -1.00D+00 NBFU=   784
 Precomputing XC quadrature grid using
 IXCGrd= 4 IRadAn=           5 IRanWt=          -1 IRanGd=           0 AccXCQ= 0.00D+00.
 Generated NRdTot=       0 NPtTot=           0 NUsed=           0 NTot=          32
 NSgBfM=   784   782   782   782   784 MxSgAt=    93 MxSgA2=    93.
 Leave Link  302 at Sat Feb  8 11:46:02 2025, MaxMem= 13421772800 cpu:              40.6 elap:               1.3
 (Enter /public/software/apps/Gaussian/g16/l303.exe)
 DipDrv:  MaxL=1.
 Leave Link  303 at Sat Feb  8 11:46:02 2025, MaxMem= 13421772800 cpu:               5.2 elap:               0.2
 (Enter /public/software/apps/Gaussian/g16/l401.exe)
 ExpMin= 3.30D-02 ExpMax= 7.64D+04 ExpMxC= 1.15D+04 IAcc=3 IRadAn=         5 AccDes= 0.00D+00
 Harris functional with IExCor=  402 and IRadAn=       5 diagonalized for initial guess.
 HarFok:  IExCor=  402 AccDes= 0.00D+00 IRadAn=         5 IDoV= 1 UseB2=F ITyADJ=14
 ICtDFT=  3500011 ScaDFX=  1.000000  1.000000  1.000000  1.000000
 FoFCou: FMM=F IPFlag=           0 FMFlag=      100000 FMFlg1=        2001
         NFxFlg=           0 DoJE=T BraDBF=F KetDBF=T FulRan=T
         wScrn=  0.000000 ICntrl=       500 IOpCl=  0 I1Cent=   200000004 NGrid=           0
         NMat0=    1 NMatS0=      1 NMatT0=    0 NMatD0=    1 NMtDS0=    0 NMtDT0=    0
 Symmetry not used in FoFCou.
 Harris En= -3569.20293196769    
 JPrj=0 DoOrth=F DoCkMO=F.
 Initial guess <Sx>= 0.0000 <Sy>= 0.0000 <Sz>= 0.5000 <S**2>= 0.7500 S= 0.5000
 Leave Link  401 at Sat Feb  8 11:46:05 2025, MaxMem= 13421772800 cpu:              85.0 elap:               2.7
 (Enter /public/software/apps/Gaussian/g16/l502.exe)
 Two-electron integral symmetry not used.
 UHF open shell SCF:
 Using DIIS extrapolation, IDIIS=  1040.
 NGot= 13421772800 LenX= 13420345642 LenY= 13419649252
 Requested convergence on RMS density matrix=1.00D-08 within 128 cycles.
 Requested convergence on MAX density matrix=1.00D-06.
 Requested convergence on             energy=1.00D-06.
 No special actions if energy rises.
 Fock matrices will be formed incrementally for  20 cycles.

 Cycle   1  Pass 1  IDiag  1:
 FoFJK:  IHMeth= 1 ICntrl=       0 DoSepK=F KAlg= 0 I1Cent=           0 FoldK=F
 IRaf= 800000000 NMat=       1 IRICut=       1 DoRegI=T DoRafI=F ISym2E= 0 IDoP0=0 IntGTp=1.
 FoFCou: FMM=T IPFlag=           0 FMFlag=      100000 FMFlg1=        2001
         NFxFlg=           0 DoJE=F BraDBF=F KetDBF=F FulRan=T
         wScrn=  0.000000 ICntrl=         0 IOpCl=  1 I1Cent=           0 NGrid=           0
         NMat0=    1 NMatS0=      1 NMatT0=    0 NMatD0=    1 NMtDS0=    0 NMtDT0=    0
 Symmetry not used in FoFCou.
 FMM levels:  10  Number of levels for PrismC:   9
 E= -3551.68208606737    
 DIIS: error= 2.36D-01 at cycle   1 NSaved=   1.
 NSaved= 1 IEnMin= 1 EnMin= -3551.68208606737     IErMin= 1 ErrMin= 2.36D-01
 ErrMax= 2.36D-01  0.00D+00 EMaxC= 1.00D-01 BMatC= 7.98D+01 BMatP= 7.98D+01
[...]
 0004881,0.00000255,-0.00001752,0.00001568,-0.00016059,0.00023133,-0.00
 018849,0.00003609,0.00003457,0.00004371,0.00005044,-0.00000942,-0.0000
 1474,0.00308400,0.00270802,-0.00144550,-0.00052488,-0.00022467,-0.0006
 1239,0.00562285,0.00103293,-0.00237912,0.00033787,-0.00006286,0.000777
 79,0.00002139,0.00002277,0.00010015,0.00001324,-0.00003047,-0.00006474
 ,0.00002152,0.00002545,0.00005063,0.00003081,-0.00001764,0.00000220,0.
 00000547,-0.00001960,-0.00001989,-0.00000780,0.00000020,0.00000097,0.0
 0000152,0.00001266,-0.00000699,0.00014448,-0.00004633,0.00004897,0.000
 07518,0.00003161,0.00000173,-0.00005195,-0.00007791,0.00003673,0.00002
 198,0.00009208,-0.00005046,-0.00004050,-0.00000125,-0.00002847,-0.0000
 0199,-0.00000499,0.00000166,0.00000256,-0.00000045,0.00000069,0.000002
 02,-0.00000122,0.00000470,-0.00000243,-0.00000307,0.00000296,-0.000002
 35,-0.00000085,-0.00000298,0.00000300,-0.00000053,0.00000194,-0.000001
 47,-0.00000047,-0.00000089,-0.00000048,0.00000045,-0.00000054,0.000000
 47,-0.00000203,0.00000083,-0.00000133,0.00000334,0.00000112,0.00000428
 ,0.00000421,-0.00000452,-0.00000152,0.00000273,-0.00000470,-0.00001517
 ,-0.00003402,0.00001254,0.00001370,0.00002395,-0.00000587,-0.00002402,
 -0.00002993,0.00000632,0.00002081,0.00000100,0.00000925,0.00000424,0.0
 0000952,-0.00000217,0.00000926,-0.00000391,0.00000487,0.00000472,-0.00
 000690,-0.00000070,0.00001834,-0.00019608,-0.00005105,0.00005718,-0.00
 009056,-0.00007496,0.01068525,-0.00858338,0.01835172,0.07414709,-0.123
 34256,0.10520576,-0.00266191,0.00690686,-0.00500742,-0.00015379,-0.000
 01086,0.00023523,0.00119415,0.00013457,-0.00085343,-0.00008315,-0.0001
 1069,-0.00028219,-0.00006119,0.00001796,0.00023369,-0.00001353,-0.0006
 7400,-0.00032223,0.00004736,0.00002484,-0.00002132,-0.00002535,0.00004
 345,0.00009239,-0.00002018,-0.00001566,0.00004206,0.00000237,-0.000003
 32,0.00000870,-0.00000215,-0.00001734,-0.00000349,-0.00002109,-0.00000
 022,0.00000038,-0.00001500,-0.00001165,-0.00002114,0.00000167,0.000005
 43,0.00001580,-0.00000158,-0.00001194,-0.00000775,0.00000034,0.0000110
 7,0.00000331,0.00002913,-0.00001011,-0.00001355,-0.00039734,-0.0003978
 8,0.00006142,0.00001831,-0.00003221,0.00000991,-0.00000735,0.00000033,
 -0.00000414,0.00000198,-0.00000632,-0.00000468,-0.00000006,-0.00000098
 ,-0.00000138,-0.00000029,0.00000264,0.00000329,-0.00000545,-0.00000013
 ,0.00000444,0.00000075,0.00000173,-0.00000176,0.00000093,0.00000061,0.
 00000080,0.00000071,-0.00000105,-0.00000057,-0.00000033,0.00000002,0.0
 0000015,0.00000034,0.00000026,0.00000055,0.00000095,0.00000166,-0.0000
 0040,-0.00000028,-0.00000053,-0.00000011,0.00000133,0.00000126,-0.0000
 0020,-0.00000030,0.00000088,-0.00000049,0.00000201,0.00000059,-0.00000
 045,0.00000039,-0.00000024,0.00000023,-0.00000064,0.00000027,0.0000008
 8,0.00000155,0.00000080,0.00000161,-0.00000118,-0.00000071,-0.00000163
 ,0.00000220,-0.00000205,0.00000308,0.00000266,-0.00000031,0.00000197,0
 .00000044,-0.00000238,0.00000138,-0.00000289,-0.00000272,0.00000068,-0
 .00000125,0.00000069,-0.00000089,-0.00291023,-0.00134947,-0.00033704,-
 0.08822427,0.12655278,-0.00016992,0.00053834,-0.00061262,-0.00135712,0
 .00129579,0.00010777,0.00023405,-0.00001811,-0.00049968,0.00005728,-0.
 00003766,0.00016286,-0.00013914,0.00022238,0.00013614,-0.00093186,0.00
 088863,-0.00000950,0.00025288,-0.00005574,-0.00034012,-0.00006927,-0.0
 0017168,-0.00019180,0.00226778,-0.00230012,-0.00474099,0.00069824,-0.0
 0076313,-0.00011659,0.00122517,-0.00148688,0.00081892,0.00022414,-0.00
 021204,0.00030325,-0.00000272,0.00002951,-0.00004150,-0.00000109,0.000
 00076,0.00000494,0.00000893,-0.00001753,-0.00001643,-0.00001606,0.0000
 0443,-0.00001039,-0.00000849,0.00001041,0.00000465,-0.00000725,0.00000
 559,0.00000043,-0.00001243,-0.00001290,-0.00000182,-0.00004858,0.00008
 089,-0.00000167,-0.00008148,-0.00005643,-0.00002760,0.00006991,0.00008
 909,-0.00004212,-0.00002570,-0.00011445,0.00005702,0.00004293,0.000003
 32,0.00003502,0.00000248,0.00000518,-0.00000225,-0.00000206,0.00000054
 ,0.00000032,-0.00000234,0.00000045,-0.00000566,0.00000364,0.00000373,-
 0.00000348,0.00000281,0.00000162,0.00000336,-0.00000450,0.00000094,-0.
 00000158,0.00000176,0.00000068,0.00000111,0.00000008,-0.00000031,0.000
 00067,-0.00000039,0.00000251,-0.00000075,0.00000151,-0.00000387,-0.000
 00091,-0.00000503,-0.00000508,0.00000508,0.00000204,-0.00000285,0.0000
 0473,0.00001957,0.00003816,-0.00001267,-0.00001804,-0.00002652,0.00000
 881,0.00002705,0.00003356,-0.00000785,-0.00002447,-0.00000236,-0.00001
 016,-0.00000374,-0.00001122,0.00000441,-0.00000926,0.00000377,-0.00000
 713,-0.00000002,0.00001174,0.00000913,0.00013605,-0.00008990,-0.000080
 66,-0.00005501,0.00006262,0.00011207,0.00494265,-0.00575722,0.00868590
 ,-0.08934538,0.10529098,-0.20389857,-0.01463286,0.01649773,-0.01707459
 ,-0.00004743,-0.00006179,0.00002268,0.00058755,-0.00053719,0.00120973,
 -0.00006629,-0.00001080,0.00059285,-0.00008326,-0.00012029,0.00020268,
 -0.00018885,-0.00055878,0.00026829,0.00004417,0.00010614,0.00017005,0.
 00008013,-0.00008794,-0.00000313,-0.00005101,0.00001270,0.00003062,0.0
 0006870,-0.00006899,0.00001155,-0.00000364,-0.00003968,-0.00000717,-0.
 00001425,-0.00001342,0.00003135,0.00000430,0.00000478,0.00001233,-0.00
 012786,-0.00000768,-0.00011072,0.00000241,-0.00001118,0.00001800,0.000
 03014,0.00002699,0.00002701,0.00006786,0.00007158,-0.00008158,-0.00004
 023,0.00005837,-0.00001210,-0.00001937,-0.00001345,-0.00001063,-0.0000
 0097,-0.00000377,-0.00000110,0.00000008,0.00000165,0.00000296,-0.00000
 085,0.00000062,-0.00000012,0.00000121,-0.00000357,-0.00000296,0.000005
 83,0.00000034,-0.00000478,-0.00000091,-0.00000140,0.00000252,-0.000001
 04,-0.00000089,-0.00000109,-0.00000014,0.00000139,-0.00000007,0.000000
 15,0.00000010,-0.00000017,-0.00000047,-0.00000031,-0.00000131,-0.00000
 142,-0.00000240,0.00000104,0.00000061,0.00000042,0.00000015,-0.0000014
 8,-0.00000159,0.00000021,0.00000014,-0.00000093,0.00000062,-0.00000197
 ,-0.00000097,0.00000046,-0.00000009,0.00000003,-0.00000017,0.00000053,
 -0.00000052,-0.00000138,-0.00000190,-0.00000063,-0.00000202,0.00000133
 ,0.00000069,0.00000189,-0.00000208,0.00000204,-0.00000388,-0.00000278,
 0.00000008,-0.00000200,-0.00000020,0.00000220,-0.00000140,0.00000287,0
 .00000187,-0.00000027,0.00000209,0.00000107,-0.00000047,-0.00024795,0.
 00016494,0.00096571,0.09674165,-0.11291092,0.21397443,0.00000587,-0.00
 003419,-0.00001532,-0.00002604,0.00006873,0.00003054,0.00000924,-0.000
 01595,-0.00000528,-0.00000830,-0.00002358,0.00000546,0.00001226,0.0000
 4562,0.00001758,-0.00003749,0.00002283,0.00000539,-0.00002744,0.000000
 71,-0.00008047,0.00000495,-0.00002918,-0.00001057,-0.00010294,0.000074
 52,0.00015425,-0.00000596,0.00015703,-0.00038052,-0.00068681,0.0005070
 1,0.00019101,0.00337271,0.00021572,0.00292023,0.00098691,-0.00196218,-
 0.00176506,0.00004150,0.00117598,0.00151639,0.00066244,-0.00144848,-0.
 00135169,-0.00094808,0.00065217,0.00005150,-0.00024978,0.00030445,0.00
 016976,-0.00034103,0.00057706,0.00044250,-0.00143464,-0.00128082,-0.00
 201044,-0.00158592,0.00571062,0.00501013,-0.00195622,-0.00657974,0.001
 79839,-0.00435662,0.02415370,-0.00941341,-0.05174759,0.02766748,0.0406
 2423,0.00291436,-0.00145285,0.00213632,-0.00058826,-0.00033273,-0.0000
 2688,-0.00009297,-0.00001488,-0.00022951,-0.00002741,-0.00012465,0.000
 03774,-0.00006402,-0.00000117,-0.00005631,-0.00003052,-0.00004030,-0.0
 0001160,-0.00000879,0.00001156,0.00001213,-0.00000822,-0.00002815,-0.0
 0000680,-0.00000259,0.00001566,-0.00000734,0.00000043,-0.00001956,0.00
 000860,-0.00000981,0.00002746,-0.00000300,-0.00004444,-0.00009738,0.00
 009487,0.00024704,-0.00018948,-0.00012188,0.00105174,0.00204416,-0.000
 81638,-0.00018010,-0.00145724,0.00075781,0.00074196,0.00149052,-0.0005
 6839,-0.00084197,-0.00041483,-0.00015283,-0.00024732,-0.00026045,-0.00
 001259,-0.00035423,-0.00054885,0.00022097,-0.00108113,0.00172697,-0.00
 100861,-0.00908111,-0.02082321,-0.02089375,-0.06099012,-0.03891186,0.0
 3033296,0.00028753,0.00015943,-0.00008715,-0.00002545,0.00003929,0.000
 16112,-0.00002481,-0.00001241,-0.00006131,-0.00000904,0.00000506,-0.00
 000056,-0.00000870,0.00000949,0.00000125,0.00002775,-0.00001837,-0.000
 00367,0.00002852,-0.00002797,-0.00000799,-0.00000853,0.00001555,-0.000
 00888,0.00000299,0.00002231,0.00001374,0.00002487,-0.00002772,-0.00000
 415,-0.00000115,0.00001122,0.00000129,0.00001812,-0.00000826,-0.000026
 88,-0.00000255,0.00000504,0.00000952,0.00006791,0.00007608,-0.00000778
 ,-0.00001533,-0.00008270,0.00010301,0.00008741,-0.00002173,-0.00007414
 ,-0.00001789,-0.00002480,0.00001507,0.00002167,0.00000306,0.00000687,0
 .00001149,0.00000662,-0.00003909,-0.00012685,-0.00001058,0.00020127,0.
 00002018,0.00005194,0.00015901,-0.00002377,-0.00000844,-0.00002927,-0.
 00001449,0.00000318,0.00000264,0.00004023,0.00000543,0.00001192,0.0000
 2119,-0.00000275,-0.00002993,-0.00005971,-0.00001284,0.00011972,-0.000
 01607,0.00001565,-0.00000661,0.00001633,0.00000536,0.00001454,0.000019
 11,-0.00002555,-0.00002411,-0.00000569,-0.00000193,0.00001486,0.000006
 53,0.00000529,0.00001183,0.00001041,0.00001742,-0.00000792,-0.00000179
 ,-0.00000718,0.00000172,0.00001915,0.00001283,-0.00000333,-0.00000369,
 0.00000707,-0.00000145,0.00002389,0.00000566,-0.00000474,0.00001098,-0
 .00000371,0.00000695,-0.00000798,0.00000883,0.00001242,-0.00000737,0.0
 0002868,0.00002730,-0.00003568,0.00004320,0.00003354,0.00000100,-0.000
 07210,0.00010560,-0.00002471,0.00002378,-0.00001691,-0.00001480,0.0000
 0435,0.00000613,0.00003641,-0.00001275,0.00000156,0.00001169,0.0000217
 2,-0.00000882,-0.00004261,-0.00004175,0.00002557,-0.00000530,-0.000034
 37,0.00001792,0.12680512,0.00001169,-0.00006927,-0.00002161,-0.0000732
 9,0.00005994,0.00006609,0.00011747,-0.00001413,0.00001339,-0.00000890,
 -0.00004778,0.00001911,0.00004447,0.00009664,-0.00002068,0.00003418,-0
 .00001885,0.00016078,0.00008189,0.00036725,-0.00016088,-0.00007613,0.0
 0002110,-0.00007666,-0.00005443,0.00020974,0.00037473,0.00019499,0.000
 00705,-0.00107818,-0.00076111,0.00052569,0.00048614,0.00381295,0.00212
 049,0.00421101,0.00163093,-0.00314725,-0.00199286,0.00000148,0.0016367
 9,0.00230540,0.00092882,-0.00224029,-0.00221286,-0.00181849,0.00117991
 ,0.00002602,-0.00008301,0.00036533,0.00097102,-0.00029824,0.00073664,-
 0.00010436,-0.00152332,-0.00165530,-0.00313134,-0.00376911,0.00238818,
 0.00630755,0.00469195,0.00404109,-0.00503760,0.01301376,-0.03811543,0.
 00987024,0.03228878,-0.01176635,-0.02829352,-0.00339650,0.00339226,-0.
 00278347,0.00079860,0.00058893,-0.00024191,-0.00010874,-0.00026204,0.0
 0080268,0.00009189,0.00024946,-0.00016915,-0.00002483,-0.00005913,-0.0
 0029323,0.00007580,0.00005572,-0.00000035,-0.00014310,0.00003884,0.000
 01228,0.00002946,-0.00002955,0.00001849,-0.00001040,0.00000993,0.00000
 798,-0.00000635,0.00003309,-0.00001046,0.00001385,-0.00005753,0.000007
 49,-0.00021890,-0.00021357,0.00002352,0.00008261,-0.00000874,0.0001850
 3,-0.00204312,-0.00363401,0.00085439,0.00031645,0.00252614,-0.00147515
 ,-0.00138213,-0.00296825,0.00124468,0.00207447,0.00086962,0.00045381,0
 .00015680,0.00076091,-0.00074905,0.00042152,0.00056580,0.00041295,0.00
 114860,-0.00309017,0.00215559,-0.01557292,-0.02662458,-0.02327232,-0.0
 3987915,-0.02278971,0.02308673,-0.00015300,-0.00008468,-0.00017043,0.0
 0020792,-0.00025448,-0.00004528,0.00005775,-0.00018626,0.00017667,-0.0
 0003089,-0.00000822,0.00000024,-0.00000664,0.00001888,-0.00000330,0.00
 003394,-0.00001693,-0.00000190,-0.00002252,-0.00005723,-0.00000491,0.0
 0002211,0.00001762,0.00002143,-0.00000902,-0.00000106,-0.00005770,0.00
 002589,-0.00002056,-0.00001635,-0.00002640,-0.00000313,0.00000254,0.00
 000863,-0.00002605,-0.00002031,-0.00001647,-0.00005164,0.00000713,-0.0
 0006133,-0.00009106,0.00009877,-0.00005028,-0.00007687,0.00013385,-0.0
 0001939,-0.00008997,-0.00002192,-0.00002666,-0.00005532,0.00002777,-0.
 00001231,-0.00002847,0.00001514,0.00002165,0.00000892,-0.00003801,-0.0
 0024488,-0.00029854,0.00059675,0.00007272,0.00017320,0.00031122,0.0000
 2507,0.00002012,-0.00004321,0.00000302,0.00007251,-0.00002535,0.000025
 54,-0.00001099,0.00006070,0.00007726,0.00014881,-0.00011227,0.00015798
 ,-0.00004451,-0.00053749,-0.00007617,0.00001215,0.00007517,-0.00002193
 ,-0.00002759,-0.00001219,0.00002759,0.00000201,-0.00004964,-0.00000630
 ,0.00000402,0.00001359,-0.00000673,-0.00000206,-0.00001659,-0.00002425
 ,-0.00003550,0.00001109,0.00001360,-0.00000111,0.00000640,-0.00000100,
 -0.00001735,-0.00000188,-0.00000336,-0.00001181,0.00001294,-0.00001420
 ,-0.00001991,0.00000432,0.00001340,-0.00000876,-0.00000539,0.00000851,
 -0.00000566,-0.00002475,-0.00006424,0.00000013,-0.00002969,0.00004381,
 0.00000407,0.00000613,-0.00001392,0.00022453,-0.00021251,-0.00001297,-
 0.00000212,0.00004838,0.00000897,0.00005095,0.00004478,-0.00003031,0.0
 0000929,-0.00006047,-0.00006756,0.00008192,0.00015351,-0.00000629,0.00
 003941,0.00003919,0.00007634,-0.00000543,0.00002371,0.00928612,0.09462
 013,0.00001432,-0.00001477,-0.00002181,-0.00006156,0.00000069,0.000035
 02,0.00004373,-0.00001547,0.00000950,-0.00000281,0.00002336,0.00006724
 ,-0.00007225,-0.00003129,-0.00009965,0.00010093,0.00008653,0.00025570,
 -0.00000351,-0.00006449,-0.00011694,-0.00008478,-0.00000629,-0.0001216
 7,-0.00005662,0.00000786,0.00016117,0.00005599,-0.00004638,0.00011923,
 0.00015400,0.00006810,0.00001464,-0.00064405,-0.00095776,-0.00104600,-
 0.00004984,-0.00017735,-0.00055666,-0.00003256,0.00021358,0.00016625,0
 .00017791,-0.00035292,-0.00037490,-0.00035676,0.00017912,-0.00008461,0
 .00004628,0.00010555,0.00019323,0.00001205,0.00001515,-0.00020689,0.00
 016113,-0.00034859,-0.00030527,-0.00091302,-0.00165036,0.00019126,0.00
 116798,0.00326405,-0.00117487,0.00020872,-0.00990431,0.00591721,0.0337
 9202,-0.02035661,-0.02525207,-0.00191141,0.00296919,-0.00174408,0.0004
 6974,0.00014421,-0.00012033,-0.00002884,-0.00014830,0.00053535,0.00004
 666,0.00016821,-0.00004455,-0.00003162,-0.00001542,-0.00011785,0.00000
 947,0.00000539,-0.00003247,-0.00003699,0.00001845,0.00006034,0.0000046
 7,-0.00000615,0.00000594,-0.00000341,0.00000240,0.00000235,0.00001239,
 -0.00000791,0.00001100,0.00000434,0.00001539,0.00002074,-0.00014498,-0
 .00018662,-0.00012296,0.00014237,-0.00012431,-0.00002863,-0.00088365,-
 0.00109854,-0.00013753,0.00005859,0.00077290,-0.00054267,-0.00031948,-
 0.00075233,0.00029382,0.00046140,0.00027370,0.00003711,0.00009310,0.00
 012392,-0.00017484,0.00018724,0.00031036,-0.00003583,0.00070404,-0.000
 85049,0.00076195,-0.00562489,-0.00517729,-0.00052102,0.02145052,0.0164
 3081,-0.00635919,0.00008428,0.00011894,-0.00010129,-0.00002240,0.00011
 911,-0.00008416,0.00001643,-0.00002356,-0.00004899,-0.00000351,0.00000
 570,0.00000417,-0.00000986,0.00000716,-0.00002636,0.00001481,-0.000011
 60,0.00000218,0.00001246,-0.00001779,-0.00000290,-0.00001712,0.0000127
 0,-0.00004107,-0.00001825,0.00000102,0.00002487,-0.00001876,0.00000709
 ,-0.00003212,-0.00000339,0.00000058,-0.00001364,0.00001754,-0.00000767
 ,-0.00003455,0.00000908,-0.00002015,0.00002747,0.00000744,-0.00016362,
 0.00010835,0.00007499,0.00020211,-0.00002062,-0.00007767,0.00000766,-0
 .00002096,0.00001233,0.00000717,0.00003194,-0.00006654,-0.00003113,0.0
 0000614,0.00004322,0.00001059,-0.00004249,0.00006059,0.00006208,0.0000
 4403,-0.00005200,-0.00007690,-0.00003698,-0.00000872,-0.00000306,-0.00
 000440,-0.00000700,0.00000224,0.00000529,-0.00000439,-0.00002182,0.000
 01541,-0.00000039,0.00000783,-0.00000083,0.00010329,-0.00011583,-0.000
 24985,0.00004070,0.00003352,-0.00000600,-0.00002086,-0.00000104,-0.000
 02147,0.00001748,-0.00001561,0.00000572,0.00001645,-0.00000238,-0.0000
 3703,-0.00000693,-0.00000916,-0.00001495,0.00000347,0.00000856,-0.0000
 0307,-0.00000243,0.00000177,-0.00000686,0.00000441,-0.00000114,0.00000
 042,-0.00000234,0.00000659,-0.00000896,0.00000389,0.00000012,-0.000002
 28,0.00000130,-0.00000109,-0.00000621,0.00000092,-0.00000894,-0.000010
 67,-0.00004911,0.00000916,-0.00001326,-0.00004800,0.00009824,-0.000073
 16,-0.00005013,0.00020100,-0.00009836,-0.00001556,0.00000612,0.0000167
 7,-0.00000440,0.00001885,0.00002400,-0.00001368,0.00001985,-0.00000203
 ,-0.00002880,0.00003057,0.00006160,-0.00006753,-0.00004376,-0.00008787
 ,-0.00002005,-0.00000378,-0.00000608,-0.04822179,0.01666873,0.03126537
 \\-0.00000073,0.00000013,-0.00000126,-0.00000004,-0.00000176,0.0000007
 2,0.00000060,0.00000115,0.00000019,-0.00000189,-0.00000018,-0.00000169
 ,0.00000161,0.00000003,0.00000092,-0.00000106,-0.00000018,0.00000088,0
 .00000135,0.00000002,0.00000087,-0.00000062,0.00000118,-0.00000034,-0.
 00000016,0.00000168,-0.00000057,0.00000007,-0.00000177,-0.00000191,0.0
 0000040,0.00000038,0.00000096,0.00000028,-0.00000177,-0.00000084,0.000
 00167,-0.00000124,0.00000090,-0.00000594,0.00000333,-0.00000083,0.0000
 0258,-0.00000299,-0.00000035,-0.00000199,0.00000066,0.00000033,0.00000
 169,-0.00000025,0.00000125,-0.00000198,-0.00000007,-0.00000123,0.00000
 586,-0.00000215,0.00000191,-0.00000046,-0.00000025,-0.00000034,0.00000
 011,-0.00000099,-0.00000095,0.00000308,0.00000173,0.00000224,-0.000003
 38,-0.00000054,-0.00000267,-0.00000080,-0.00000116,-0.00000058,-0.0000
 0036,-0.00000051,0.00000166,-0.00000049,-0.00000053,0.00000024,0.00000
 120,-0.00000009,0.00000204,-0.00000114,0.00000092,-0.00000164,0.000004
 25,-0.00000023,-0.00000064,-0.00000157,0.00000060,-0.00000039,0.000000
 12,0.00000136,0.00000011,0.00000013,0.00000013,0.00000108,0.00000004,0
 .00000005,-0.00000087,-0.00000109,-0.00000030,0.00000010,-0.00000236,-
 0.00000066,-0.00000046,0.00000132,0.00000164,-0.00000002,-0.00000184,0
 .00000081,-0.00000011,0.00000623,0.00000170,0.00000229,-0.00000291,-0.
 00000183,0.00000032,0.00000213,0.00000079,0.00000072,-0.00000160,0.000
 00078,-0.00000028,0.00000153,-0.00000092,0.00000174,-0.00000461,-0.000
 00006,-0.00000149,-0.00000386,0.00000034,0.00000282,0.00000632,0.00000
 077,-0.00000478,-0.00000144,0.00000236,-0.00000029,0.00000111,-0.00000
 145,-0.00000045,0.00000064,0.00000036,-0.00000007,0.00000009,0.0000000
 8,-0.00000002,0.00000014,-0.00000043,0.00000004,0.00000004,-0.00000020
 ,-0.00000032,0.00000004,-0.00000018,-0.00000079,-0.00000003,-0.0000004
 6,-0.00000034,-0.00000014,-0.00000030,-0.00000019,0.00000042,-0.000000
 09,-0.00000074,0.00000036,-0.00000012,-0.00000034,-0.00000005,-0.00000
 001,-0.00000072,-0.00000038,0.00000036,-0.00000081,-0.00000038,-0.0000
 0010,-0.00000050,-0.00000023,0.00000097,-0.00000031,-0.00000039,0.0000
 0047,-0.00000040,-0.00000005,0.00000007,-0.00000002,0.00000008,0.00000
 051,-0.00000032,0.00000026,0.,-0.00000018,-0.00000019,-0.00000005,0.00
 000006,-0.00000056,0.00000043,-0.00000057,-0.00000062,0.00000003,0.000
 00010,0.00000015,-0.00000044,-0.00000022,0.00000022,-0.00000077,0.0000
 0052,0.00000026,0.00000014,0.00000125,-0.00000011,0.00000023,-0.000000
 14,0.,-0.00000021,-0.00000108,-0.00000023,-0.00000024,-0.00000008,0.,-
 0.00000061,-0.00000008,-0.00000011,-0.00000049,0.00000028,-0.00000035,
 -0.00000010,-0.00000065,0.00000012,-0.00000005,0.00000022,-0.00000024,
 0.00000012,-0.00000057,0.00000020,-0.00000028,-0.00000070,-0.00000009,
 0.,0.00000058,0.00000010,0.00000020,0.00000025,0.00000001,0.00000034,-
 0.00000010,0.00000038,-0.00000014,0.00000061,0.00000054,0.00000055,0.0
 0000054,-0.00000038,-0.00000038,0.00000030,0.00000035,-0.00000036,0.00
 000072,0.00000066,0.00000035,0.00000074,0.00000006,0.00000001,0.000001
 17,-0.00000024,-0.00000024,0.00000017,-0.00000009,0.00000055,-0.000000
 48,0.00000073,-0.00000146,-0.00000042,-0.00000046,0.00000044,-0.000000
 32,-0.00000185,0.00000083,0.00000467\\\@
 The archive entry for this job was punched.


 DO YOU KNOW THAT THE LETTERS IN "EPISCOPAL", WHEN
 REARRANGED, SPELL "PEPSI COLA"?
 Job cpu time:       1 days 16 hours 33 minutes  5.6 seconds.
 Elapsed time:       0 days  1 hours 16 minutes 27.7 seconds.
 File lengths (MBytes):  RWF=  12513 Int=      0 D2E=      0 Chk=     74 Scr=      1
 Normal termination of Gaussian 16 at Sat Feb  8 13:57:17 2025.
