 Entering Gaussian System, Link 0=g16
 Initial command:
 /public/software/apps/Gaussian/g16/l1.exe "/tmp/Gau-63705.inp" -scrdir="/tmp/"
 Entering Link 1 = /public/software/apps/Gaussian/g16/l1.exe PID=     63706.
  
 Copyright (c) 1988-2019, Gaussian, Inc.  All Rights Reserved.
  
 This is part of the Gaussian(R) 16 program.  It is based on
 the Gaussian(R) 09 system (copyright 2009, Gaussian, Inc.),
 the Gaussian(R) 03 system (copyright 2003, Gaussian, Inc.),
 the Gaussian(R) 98 system (copyright 1998, Gaussian, Inc.),
 the Gaussian(R) 94 system (copyright 1995, Gaussian, Inc.),
 the Gaussian 92(TM) system (copyright 1992, Gaussian, Inc.),
 the Gaussian 90(TM) system (copyright 1990, Gaussian, Inc.),
 the Gaussian 88(TM) system (copyright 1988, Gaussian, Inc.),
 the Gaussian 86(TM) system (copyright 1986, Carnegie Mellon
 University), and the Gaussian 82(TM) system (copyright 1983,
 Carnegie Mellon University). Gaussian is a federally registered
 trademark of Gaussian, Inc.
  
 This software contains proprietary and confidential information,
 including trade secrets, belonging to Gaussian, Inc.
  
 This software is provided under written license and may be
 used, copied, transmitted, or stored only in accord with that
 written license.
  
 The following legend is applicable only to US Government
 contracts under FAR:
  
                    RESTRICTED RIGHTS LEGEND
  
 Use, reproduction and disclosure by the US Government is
 subject to restrictions as set forth in subparagraphs (a)
 and (c) of the Commercial Computer Software - Restricted
 Rights clause in FAR 52.227-19.
  
 Gaussian, Inc.
 340 Quinnipiac St., Bldg. 40, Wallingford CT 06492
  
  
 ---------------------------------------------------------------
 Warning -- This program may not be used in any manner that
 competes with the business of Gaussian, Inc. or will provide
 assistance to any competitor of Gaussian, Inc.  The licensee
 of this program is prohibited from giving any competitor of
 Gaussian, Inc. access to this program.  By using this program,
 the user acknowledges that Gaussian, Inc. is engaged in the
 business of creating and licensing software in the field of
 computational chemistry and represents and warrants to the
 licensee that it is not a competitor of Gaussian, Inc. and that
 it will not use this program in any manner prohibited above.
 ---------------------------------------------------------------
  

 Cite this work as:
 Gaussian 16, Revision C.01,
 M. J. Frisch, G. W. Trucks, H. B. Schlegel, G. E. Scuseria, 
 M. A. Robb, J. R. Cheeseman, G. Scalmani, V. Barone, 
 G. A. Petersson, H. Nakatsuji, X. Li, M. Caricato, A. V. Marenich, 
 J. Bloino, B. G. Janesko, R. Gomperts, B. Mennucci, H. P. Hratchian, 
 J. V. Ortiz, A. F. Izmaylov, J. L. Sonnenberg, D. Williams-Young, 
 F. Ding, F. Lipparini, F. Egidi, J. Goings, B. Peng, A. Petrone, 
 T. Henderson, D. Ranasinghe, V. G. Zakrzewski, J. Gao, N. Rega, 
 G. Zheng, W. Liang, M. Hada, M. Ehara, K. Toyota, R. Fukuda, 
 J. Hasegawa, M. Ishida, T. Nakajima, Y. Honda, O. Kitao, H. Nakai, 
 T. Vreven, K. Throssell, J. A. Montgomery, Jr., J. E. Peralta, 
 F. Ogliaro, M. J. Bearpark, J. J. Heyd, E. N. Brothers, K. N. Kudin, 
 V. N. Staroverov, T. A. Keith, R. Kobayashi, J. Normand, 
 K. Raghavachari, A. P. Rendell, J. C. Burant, S. S. Iyengar, 
 J. Tomasi, M. Cossi, J. M. Millam, M. Klene, C. Adamo, R. Cammi, 
 J. W. Ochterski, R. L. Martin, K. Morokuma, O. Farkas, 
 J. B. Foresman, and D. J. Fox, Gaussian, Inc., Wallingford CT, 2019.
 
 ******************************************
 Gaussian 16:  ES64L-G16RevC.01  3-Jul-2019
                26-Mar-2025 
 ******************************************
 %nprocshared=32
 Will use up to   32 processors via shared memory.
 %mem=100GB
 ------------------------------------------
 #p opt freq b3lyp/def2svpp em=gd3bj nosymm
 ------------------------------------------
 1/18=20,19=15,26=3,38=1/1,3;
 2/9=110,12=2,15=1,17=6,18=5,40=1/2;
 3/5=43,7=202,11=2,25=1,30=1,71=1,74=-5,124=41/1,2,3;
 4//1;
 5/5=2,38=5/2;
 6/7=2,8=2,9=2,10=2,28=1/1;
 7/30=1/1,2,3,16;
 1/18=20,19=15,26=3/3(2);
 2/9=110,15=1/2;
 99//99;
 2/9=110,15=1/2;
 3/5=43,7=202,11=2,25=1,30=1,71=1,74=-5,124=41/1,2,3;
 4/5=5,16=3,69=1/1;
 5/5=2,38=5/2;
 7/30=1/1,2,3,16;
 1/18=20,19=15,26=3/3(-5);
 2/9=110,15=1/2;
 6/7=2,8=2,9=2,10=2,19=2,28=1/1;
 99/9=1/99;
 Leave Link    1 at Wed Mar 26 20:41:57 2025, MaxMem= 13421772800 cpu:               1.9 elap:               0.1
 (Enter /public/software/apps/Gaussian/g16/l101.exe)
 ------------------
 $$$$Title####0????
 ------------------
 Symbolic Z-matrix:
 Charge =  0 Multiplicity = 2
 C                     15.62091  -2.56333   1.96569 
 C                     14.12038  -2.30304   2.07071 
 C                     13.53062  -1.90532   0.70793 
 C                     11.98941  -1.78173   0.73491 
 C                     11.52715  -0.56282   1.56627 
 C                     9.99981  -0.41943   1.54568 
 C                     9.47284  -0.32024   0.10219 
 C                     7.9633   -0.16423   0.08123 
 C                     7.1185   -1.16853   0.59258 
 C                     5.73121  -1.00245   0.58064 
 C                     5.16381   0.17303   0.06705 
 C                     3.69443   0.34824   0.04879 
 C                     3.05387   0.38931  -1.19539 
 C                     1.66859   0.50106  -1.28469 
 O                     1.06768   0.5004   -2.53977 
 C                     0.88407   0.59692  -0.12518 
 C                    -0.59201   0.72603  -0.27227 
 C                    -1.31651  -0.37871  -0.74335 
 O                    -0.65208  -1.53401  -1.14361 
 C                    -2.70712  -0.33986  -0.80351 
 C                    -3.41485   0.80195  -0.40744 
 C                    -4.89442   0.72361  -0.36902 
 C                    -5.62199   0.42607  -1.5306 
 C                    -7.01295   0.29844  -1.47881 
 C                    -7.70015   0.45276  -0.25971 
 C                    -9.20731   0.29499  -0.18039 
 C                    -9.92739   1.34474  -1.04489 
 C                    -11.44864   1.19232  -0.92433 
 C                    -11.90924  -0.22834  -1.31766 
 C                    -13.44208  -0.34161  -1.15372 
 C                    -14.01774  -1.61459  -1.79306 
 C                    -15.54289  -1.61548  -1.73725 
 C                    -11.165   -1.28522  -0.46908 
 C                    -9.6435   -1.12536  -0.58453 
 C                    -6.96481   0.74609   0.90175 
 C                    -5.57505   0.87399   0.84846 
 C                    -2.70139   1.96256  -0.01301 
 C                    -3.36866   3.16909   0.29294 
 C                    -2.65176   4.30253   0.67634 
 C                    -1.26256   4.26096   0.75258 
 C                    -0.57776   3.08753   0.43972 
 C                    -1.27852   1.92351   0.05533 
 C                     1.50737   0.54367   1.14914 
 C                     0.74875   0.58419   2.34011 
 C                     1.37528   0.55758   3.58509 
 C                     2.76251   0.49212   3.66996 
 C                     3.53486   0.43409   2.51051 
 C                     2.92527   0.43659   1.23653 
 C                     5.99866   1.17107  -0.453 
 C                     7.38633   1.00594  -0.44272 
 C                     9.92199  -1.53795  -0.72648 
 C                     11.44945  -1.67568  -0.70806 
 H                     15.82058  -3.40064   1.26348 
 H                     16.14632  -1.65136   1.6092 
 H                     16.02174  -2.83752   2.96456 
 H                     13.96184  -1.4907    2.81087 
 H                     13.62262  -3.22552   2.44209 
 H                     13.81364  -2.68719  -0.03202 
 H                     13.98135  -0.945     0.37179 
 H                     11.56904  -2.70623   1.1927 
 H                     11.98977   0.36803   1.17043 
 H                     11.84151  -0.67869   2.62404 
 H                     9.71594   0.49742   2.10716 
 H                     9.54876  -1.2923    2.06601 
 H                     9.93518   0.58248  -0.35882 
 H                     7.53036  -2.08078   1.00399 
 H                     5.09813  -1.78856   0.97453 
 H                     3.63579   0.31367  -2.10678 
 H                    -3.24242  -1.22337  -1.13014 
 H                    -5.11188   0.2945   -2.47671 
 H                    -7.54968   0.06856  -2.38983 
 H                    -9.53112   0.45458   0.87388 
 H                    -9.6391    2.36455  -0.70886 
 H                    -9.63607   1.24043  -2.11279 
 H                    -11.93251   1.9408   -1.58883 
 H                    -11.75807   1.4151    0.12083 
 H                    -11.65449  -0.3889   -2.38948 
 H                    -13.91943   0.53686  -1.6419 
 H                    -13.70979  -0.31142  -0.07452 
 H                    -13.69759  -1.68031  -2.85573 
 H                    -13.65088  -2.5138   -1.25523 
 H                    -15.95125  -0.7469   -2.29753 
 H                    -15.88964  -1.56836  -0.68225 
 H                    -15.92937  -2.54914  -2.19823 
 H                    -11.42504  -2.30715  -0.81526 
 H                    -11.46422  -1.19827   0.5988 
 H                    -9.33724  -1.34608  -1.6305 
 H                    -9.15101  -1.86854   0.07996 
 H                    -7.46481   0.86864   1.85456 
 H                    -5.02671   1.08105   1.75945 
 H                    -4.44474   3.25469   0.22037 
 H                    -3.176     5.22091   0.90848 
 H                    -0.71178   5.1458    1.04627 
 H                     0.50283   3.1042    0.4924 
 H                    -0.33196   0.63297   2.32099 
 H                     0.78173   0.59407   4.48928 
 H                     3.2425    0.48163   4.63996 
 H                     4.60995   0.39588   2.6228 
 H                     5.57459   2.08176  -0.8576 
 H                     8.00986   1.79613  -0.84154 
 H                     9.47151  -2.47333  -0.32834 
 H                     9.58474  -1.41549  -1.77907 
 H                     11.72681  -2.58877  -1.27936 
 H                     11.90589  -0.79983  -1.22191 
 Cu                    0.29302  -1.27766  -2.84485 
 
 ITRead=  0  0  0  0  0  0  0  0  0  0  0  0  0  0  0  0  0  0  0  0
 ITRead=  0  0  0  0  0  0  0  0  0  0  0  0  0  0  0  0  0  0  0  0
 ITRead=  0  0  0  0  0  0  0  0  0  0  0  0  0  0  0  0  0  0  0  0
 ITRead=  0  0  0  0  0  0  0  0  0  0  0  0  0  0  0  0  0  0  0  0
 ITRead=  0  0  0  0  0  0  0  0  0  0  0  0  0  0  0  0  0  0  0  0
 ITRead=  0  0  0  0  0
 MicOpt= -1 -1 -1 -1 -1 -1 -1 -1 -1 -1 -1 -1 -1 -1 -1 -1 -1 -1 -1 -1
 MicOpt= -1 -1 -1 -1 -1 -1 -1 -1 -1 -1 -1 -1 -1 -1 -1 -1 -1 -1 -1 -1
 MicOpt= -1 -1 -1 -1 -1 -1 -1 -1 -1 -1 -1 -1 -1 -1 -1 -1 -1 -1 -1 -1
 MicOpt= -1 -1 -1 -1 -1 -1 -1 -1 -1 -1 -1 -1 -1 -1 -1 -1 -1 -1 -1 -1
 MicOpt= -1 -1 -1 -1 -1 -1 -1 -1 -1 -1 -1 -1 -1 -1 -1 -1 -1 -1 -1 -1
 MicOpt= -1 -1 -1 -1 -1
 NAtoms=    105 NQM=      105 NQMF=       0 NMMI=      0 NMMIF=      0
                NMic=       0 NMicF=      0.
                    Isotopes and Nuclear Properties:
 (Nuclear quadrupole moments (NQMom) in fm**2, nuclear magnetic moments (NMagM)
  in nuclear magnetons)

  Atom         1           2           3           4           5           6           7           8           9          10
 IAtWgt=          12          12          12          12          12          12          12          12          12          12
 AtmWgt=  12.0000000  12.0000000  12.0000000  12.0000000  12.0000000  12.0000000  12.0000000  12.0000000  12.0000000  12.0000000
 NucSpn=           0           0           0           0           0           0           0           0           0           0
 AtZEff=  -0.0000000  -0.0000000  -0.0000000  -0.0000000  -0.0000000  -0.0000000  -0.0000000  -0.0000000  -0.0000000  -0.0000000
 NQMom=    0.0000000   0.0000000   0.0000000   0.0000000   0.0000000   0.0000000   0.0000000   0.0000000   0.0000000   0.0000000
 NMagM=    0.0000000   0.0000000   0.0000000   0.0000000   0.0000000   0.0000000   0.0000000   0.0000000   0.0000000   0.0000000
 AtZNuc=   6.0000000   6.0000000   6.0000000   6.0000000   6.0000000   6.0000000   6.0000000   6.0000000   6.0000000   6.0000000

  Atom        11          12          13          14          15          16          17          18          19          20
 IAtWgt=          12          12          12          12          16          12          12          12          16          12
 AtmWgt=  12.0000000  12.0000000  12.0000000  12.0000000  15.9949146  12.0000000  12.0000000  12.0000000  15.9949146  12.0000000
 NucSpn=           0           0           0           0           0           0           0           0           0           0
 AtZEff=  -0.0000000  -0.0000000  -0.0000000  -0.0000000  -0.0000000  -0.0000000  -0.0000000  -0.0000000  -0.0000000  -0.0000000
 NQMom=    0.0000000   0.0000000   0.0000000   0.0000000   0.0000000   0.0000000   0.0000000   0.0000000   0.0000000   0.0000000
 NMagM=    0.0000000   0.0000000   0.0000000   0.0000000   0.0000000   0.0000000   0.0000000   0.0000000   0.0000000   0.0000000
 AtZNuc=   6.0000000   6.0000000   6.0000000   6.0000000   8.0000000   6.0000000   6.0000000   6.0000000   8.0000000   6.0000000

  Atom        21          22          23          24          25          26          27          28          29          30
 IAtWgt=          12          12          12          12          12          12          12          12          12          12
 AtmWgt=  12.0000000  12.0000000  12.0000000  12.0000000  12.0000000  12.0000000  12.0000000  12.0000000  12.0000000  12.0000000
 NucSpn=           0           0           0           0           0           0           0           0           0           0
 AtZEff=  -0.0000000  -0.0000000  -0.0000000  -0.0000000  -0.0000000  -0.0000000  -0.0000000  -0.0000000  -0.0000000  -0.0000000
 NQMom=    0.0000000   0.0000000   0.0000000   0.0000000   0.0000000   0.0000000   0.0000000   0.0000000   0.0000000   0.0000000
 NMagM=    0.0000000   0.0000000   0.0000000   0.0000000   0.0000000   0.0000000   0.0000000   0.0000000   0.0000000   0.0000000
 AtZNuc=   6.0000000   6.0000000   6.0000000   6.0000000   6.0000000   6.0000000   6.0000000   6.0000000   6.0000000   6.0000000

  Atom        31          32          33          34          35          36          37          38          39          40
 IAtWgt=          12          12          12          12          12          12          12          12          12          12
 AtmWgt=  12.0000000  12.0000000  12.0000000  12.0000000  12.0000000  12.0000000  12.0000000  12.0000000  12.0000000  12.0000000
 NucSpn=           0           0           0           0           0           0           0           0           0           0
 AtZEff=  -0.0000000  -0.0000000  -0.0000000  -0.0000000  -0.0000000  -0.0000000  -0.0000000  -0.0000000  -0.0000000  -0.0000000
 NQMom=    0.0000000   0.0000000   0.0000000   0.0000000   0.0000000   0.0000000   0.0000000   0.0000000   0.0000000   0.0000000
 NMagM=    0.0000000   0.0000000   0.0000000   0.0000000   0.0000000   0.0000000   0.0000000   0.0000000   0.0000000   0.0000000
 AtZNuc=   6.0000000   6.0000000   6.0000000   6.0000000   6.0000000   6.0000000   6.0000000   6.0000000   6.0000000   6.0000000

  Atom        41          42          43          44          45          46          47          48          49          50
 IAtWgt=          12          12          12          12          12          12          12          12          12          12
 AtmWgt=  12.0000000  12.0000000  12.0000000  12.0000000  12.0000000  12.0000000  12.0000000  12.0000000  12.0000000  12.0000000
 NucSpn=           0           0           0           0           0           0           0           0           0           0
 AtZEff=  -0.0000000  -0.0000000  -0.0000000  -0.0000000  -0.0000000  -0.0000000  -0.0000000  -0.0000000  -0.0000000  -0.0000000
 NQMom=    0.0000000   0.0000000   0.0000000   0.0000000   0.0000000   0.0000000   0.0000000   0.0000000   0.0000000   0.0000000
 NMagM=    0.0000000   0.0000000   0.0000000   0.0000000   0.0000000   0.0000000   0.0000000   0.0000000   0.0000000   0.0000000
 AtZNuc=   6.0000000   6.0000000   6.0000000   6.0000000   6.0000000   6.0000000   6.0000000   6.0000000   6.0000000   6.0000000

  Atom        51          52          53          54          55          56          57          58          59          60
 IAtWgt=          12          12           1           1           1           1           1           1           1           1
 AtmWgt=  12.0000000  12.0000000   1.0078250   1.0078250   1.0078250   1.0078250   1.0078250   1.0078250   1.0078250   1.0078250
 NucSpn=           0           0           1           1           1           1           1           1           1           1
 AtZEff=  -0.0000000  -0.0000000  -0.0000000  -0.0000000  -0.0000000  -0.0000000  -0.0000000  -0.0000000  -0.0000000  -0.0000000
 NQMom=    0.0000000   0.0000000   0.0000000   0.0000000   0.0000000   0.0000000   0.0000000   0.0000000   0.0000000   0.0000000
 NMagM=    0.0000000   0.0000000   2.7928460   2.7928460   2.7928460   2.7928460   2.7928460   2.7928460   2.7928460   2.7928460
 AtZNuc=   6.0000000   6.0000000   1.0000000   1.0000000   1.0000000   1.0000000   1.0000000   1.0000000   1.0000000   1.0000000

  Atom        61          62          63          64          65          66          67          68          69          70
 IAtWgt=           1           1           1           1           1           1           1           1           1           1
 AtmWgt=   1.0078250   1.0078250   1.0078250   1.0078250   1.0078250   1.0078250   1.0078250   1.0078250   1.0078250   1.0078250
 NucSpn=           1           1           1           1           1           1           1           1           1           1
 AtZEff=  -0.0000000  -0.0000000  -0.0000000  -0.0000000  -0.0000000  -0.0000000  -0.0000000  -0.0000000  -0.0000000  -0.0000000
 NQMom=    0.0000000   0.0000000   0.0000000   0.0000000   0.0000000   0.0000000   0.0000000   0.0000000   0.0000000   0.0000000
 NMagM=    2.7928460   2.7928460   2.7928460   2.7928460   2.7928460   2.7928460   2.7928460   2.7928460   2.7928460   2.7928460
 AtZNuc=   1.0000000   1.0000000   1.0000000   1.0000000   1.0000000   1.0000000   1.0000000   1.0000000   1.0000000   1.0000000

  Atom        71          72          73          74          75          76          77          78          79          80
 IAtWgt=           1           1           1           1           1           1           1           1           1           1
 AtmWgt=   1.0078250   1.0078250   1.0078250   1.0078250   1.0078250   1.0078250   1.0078250   1.0078250   1.0078250   1.0078250
 NucSpn=           1           1           1           1           1           1           1           1           1           1
 AtZEff=  -0.0000000  -0.0000000  -0.0000000  -0.0000000  -0.0000000  -0.0000000  -0.0000000  -0.0000000  -0.0000000  -0.0000000
 NQMom=    0.0000000   0.0000000   0.0000000   0.0000000   0.0000000   0.0000000   0.0000000   0.0000000   0.0000000   0.0000000
 NMagM=    2.7928460   2.7928460   2.7928460   2.7928460   2.7928460   2.7928460   2.7928460   2.7928460   2.7928460   2.7928460
 AtZNuc=   1.0000000   1.0000000   1.0000000   1.0000000   1.0000000   1.0000000   1.0000000   1.0000000   1.0000000   1.0000000

  Atom        81          82          83          84          85          86          87          88          89          90
 IAtWgt=           1           1           1           1           1           1           1           1           1           1
 AtmWgt=   1.0078250   1.0078250   1.0078250   1.0078250   1.0078250   1.0078250   1.0078250   1.0078250   1.0078250   1.0078250
 NucSpn=           1           1           1           1           1           1           1           1           1           1
 AtZEff=  -0.0000000  -0.0000000  -0.0000000  -0.0000000  -0.0000000  -0.0000000  -0.0000000  -0.0000000  -0.0000000  -0.0000000
 NQMom=    0.0000000   0.0000000   0.0000000   0.0000000   0.0000000   0.0000000   0.0000000   0.0000000   0.0000000   0.0000000
 NMagM=    2.7928460   2.7928460   2.7928460   2.7928460   2.7928460   2.7928460   2.7928460   2.7928460   2.7928460   2.7928460
 AtZNuc=   1.0000000   1.0000000   1.0000000   1.0000000   1.0000000   1.0000000   1.0000000   1.0000000   1.0000000   1.0000000

  Atom        91          92          93          94          95          96          97          98          99         100
 IAtWgt=           1           1           1           1           1           1           1           1           1           1
 AtmWgt=   1.0078250   1.0078250   1.0078250   1.0078250   1.0078250   1.0078250   1.0078250   1.0078250   1.0078250   1.0078250
 NucSpn=           1           1           1           1           1           1           1           1           1           1
 AtZEff=  -0.0000000  -0.0000000  -0.0000000  -0.0000000  -0.0000000  -0.0000000  -0.0000000  -0.0000000  -0.0000000  -0.0000000
 NQMom=    0.0000000   0.0000000   0.0000000   0.0000000   0.0000000   0.0000000   0.0000000   0.0000000   0.0000000   0.0000000
 NMagM=    2.7928460   2.7928460   2.7928460   2.7928460   2.7928460   2.7928460   2.7928460   2.7928460   2.7928460   2.7928460
 AtZNuc=   1.0000000   1.0000000   1.0000000   1.0000000   1.0000000   1.0000000   1.0000000   1.0000000   1.0000000   1.0000000

  Atom       101         102         103         104         105
 IAtWgt=           1           1           1           1          63
 AtmWgt=   1.0078250   1.0078250   1.0078250   1.0078250  62.9295992
 NucSpn=           1           1           1           1           3
 AtZEff=  -0.0000000  -0.0000000  -0.0000000  -0.0000000  -0.0000000
 NQMom=    0.0000000   0.0000000   0.0000000   0.0000000 -22.0000000
 NMagM=    2.7928460   2.7928460   2.7928460   2.7928460   2.2233000
 AtZNuc=   1.0000000   1.0000000   1.0000000   1.0000000  29.0000000
 Leave Link  101 at Wed Mar 26 20:41:57 2025, MaxMem= 13421772800 cpu:               4.6 elap:               0.2
 (Enter /public/software/apps/Gaussian/g16/l103.exe)

 GradGradGradGradGradGradGradGradGradGradGradGradGradGradGradGradGradGrad
 Berny optimization.
 Initialization pass.
                           ----------------------------
                           !    Initial Parameters    !
                           ! (Angstroms and Degrees)  !
 --------------------------                            --------------------------
 ! Name  Definition              Value          Derivative Info.                !
 --------------------------------------------------------------------------------
 ! R1    R(1,2)                  1.5265         estimate D2E/DX2                !
 ! R2    R(1,53)                 1.1109         estimate D2E/DX2                !
 ! R3    R(1,54)                 1.1112         estimate D2E/DX2                !
 ! R4    R(1,55)                 1.1107         estimate D2E/DX2                !
 ! R5    R(2,3)                  1.5373         estimate D2E/DX2                !
 ! R6    R(2,56)                 1.1103         estimate D2E/DX2                !
 ! R7    R(2,57)                 1.1121         estimate D2E/DX2                !
 ! R8    R(3,4)                  1.5464         estimate D2E/DX2                !
 ! R9    R(3,58)                 1.1131         estimate D2E/DX2                !
 ! R10   R(3,59)                 1.1128         estimate D2E/DX2                !
 ! R11   R(4,5)                  1.5462         estimate D2E/DX2                !
 ! R12   R(4,52)                 1.5443         estimate D2E/DX2                !
 ! R13   R(4,60)                 1.114          estimate D2E/DX2                !
 ! R14   R(5,6)                  1.5342         estimate D2E/DX2                !
 ! R15   R(5,61)                 1.1123         estimate D2E/DX2                !
 ! R16   R(5,62)                 1.1096         estimate D2E/DX2                !
 ! R17   R(6,7)                  1.5399         estimate D2E/DX2                !
 ! R18   R(6,63)                 1.112          estimate D2E/DX2                !
 ! R19   R(6,64)                 1.1118         estimate D2E/DX2                !
 ! R20   R(7,8)                  1.5177         estimate D2E/DX2                !
 ! R21   R(7,51)                 1.5399         estimate D2E/DX2                !
 ! R22   R(7,65)                 1.1141         estimate D2E/DX2                !
 ! R23   R(8,9)                  1.4085         estimate D2E/DX2                !
 ! R24   R(8,50)                 1.406          estimate D2E/DX2                !
 ! R25   R(9,10)                 1.3972         estimate D2E/DX2                !
 ! R26   R(9,66)                 1.0822         estimate D2E/DX2                !
 ! R27   R(10,11)                1.4027         estimate D2E/DX2                !
 ! R28   R(10,67)                1.0835         estimate D2E/DX2                !
 ! R29   R(11,12)                1.4799         estimate D2E/DX2                !
 ! R30   R(11,49)                1.4013         estimate D2E/DX2                !
 ! R31   R(12,13)                1.4            estimate D2E/DX2                !
 ! R32   R(12,48)                1.4178         estimate D2E/DX2                !
 ! R33   R(13,14)                1.3926         estimate D2E/DX2                !
 ! R34   R(13,68)                1.084          estimate D2E/DX2                !
 ! R35   R(14,15)                1.3915         estimate D2E/DX2                !
 ! R36   R(14,16)                1.4033         estimate D2E/DX2                !
 ! R37   R(15,105)               1.9633         estimate D2E/DX2                !
 ! R38   R(16,17)                1.489          estimate D2E/DX2                !
 ! R39   R(16,43)                1.4196         estimate D2E/DX2                !
 ! R40   R(17,18)                1.4026         estimate D2E/DX2                !
 ! R41   R(17,42)                1.4187         estimate D2E/DX2                !
 ! R42   R(18,19)                1.3915         estimate D2E/DX2                !
 ! R43   R(18,20)                1.3925         estimate D2E/DX2                !
 ! R44   R(19,105)               1.9629         estimate D2E/DX2                !
 ! R45   R(20,21)                1.4005         estimate D2E/DX2                !
 ! R46   R(20,69)                1.0834         estimate D2E/DX2                !
 ! R47   R(21,22)                1.4821         estimate D2E/DX2                !
 ! R48   R(21,37)                1.4183         estimate D2E/DX2                !
 ! R49   R(22,23)                1.4026         estimate D2E/DX2                !
 ! R50   R(22,36)                1.4029         estimate D2E/DX2                !
 ! R51   R(23,24)                1.3978         estimate D2E/DX2                !
 ! R52   R(23,70)                1.0829         estimate D2E/DX2                !
 ! R53   R(24,25)                1.4079         estimate D2E/DX2                !
 ! R54   R(24,71)                1.0821         estimate D2E/DX2                !
 ! R55   R(25,26)                1.5175         estimate D2E/DX2                !
 ! R56   R(25,35)                1.4056         estimate D2E/DX2                !
 ! R57   R(26,27)                1.5388         estimate D2E/DX2                !
 ! R58   R(26,34)                1.5398         estimate D2E/DX2                !
 ! R59   R(26,72)                1.1144         estimate D2E/DX2                !
 ! R60   R(27,28)                1.5336         estimate D2E/DX2                !
 ! R61   R(27,73)                1.1118         estimate D2E/DX2                !
 ! R62   R(27,74)                1.1118         estimate D2E/DX2                !
 ! R63   R(28,29)                1.5444         estimate D2E/DX2                !
 ! R64   R(28,75)                1.1117         estimate D2E/DX2                !
 ! R65   R(28,76)                1.1125         estimate D2E/DX2                !
 ! R66   R(29,30)                1.5457         estimate D2E/DX2                !
 ! R67   R(29,33)                1.5463         estimate D2E/DX2                !
 ! R68   R(29,77)                1.1133         estimate D2E/DX2                !
 ! R69   R(30,31)                1.5364         estimate D2E/DX2                !
 ! R70   R(30,78)                1.1126         estimate D2E/DX2                !
 ! R71   R(30,79)                1.1123         estimate D2E/DX2                !
 ! R72   R(31,32)                1.5262         estimate D2E/DX2                !
 ! R73   R(31,80)                1.1118         estimate D2E/DX2                !
 ! R74   R(31,81)                1.1102         estimate D2E/DX2                !
 ! R75   R(32,82)                1.1113         estimate D2E/DX2                !
 ! R76   R(32,83)                1.1115         estimate D2E/DX2                !
 ! R77   R(32,84)                1.1107         estimate D2E/DX2                !
 ! R78   R(33,34)                1.5342         estimate D2E/DX2                !
 ! R79   R(33,85)                1.1099         estimate D2E/DX2                !
 ! R80   R(33,86)                1.1124         estimate D2E/DX2                !
 ! R81   R(34,87)                1.112          estimate D2E/DX2                !
 ! R82   R(34,88)                1.1119         estimate D2E/DX2                !
 ! R83   R(35,36)                1.3967         estimate D2E/DX2                !
 ! R84   R(35,89)                1.083          estimate D2E/DX2                !
 ! R85   R(36,90)                1.0833         estimate D2E/DX2                !
 ! R86   R(37,38)                1.4123         estimate D2E/DX2                !
 ! R87   R(37,42)                1.425          estimate D2E/DX2                !
 ! R88   R(38,39)                1.3949         estimate D2E/DX2                !
 ! R89   R(38,91)                1.0819         estimate D2E/DX2                !
 ! R90   R(39,40)                1.3919         estimate D2E/DX2                !
 ! R91   R(39,92)                1.0827         estimate D2E/DX2                !
 ! R92   R(40,41)                1.3942         estimate D2E/DX2                !
 ! R93   R(40,93)                1.0828         estimate D2E/DX2                !
 ! R94   R(41,42)                1.412          estimate D2E/DX2                !
 ! R95   R(41,94)                1.082          estimate D2E/DX2                !
 ! R96   R(43,44)                1.4126         estimate D2E/DX2                !
 ! R97   R(43,48)                1.4246         estimate D2E/DX2                !
 ! R98   R(44,45)                1.394          estimate D2E/DX2                !
 ! R99   R(44,95)                1.082          estimate D2E/DX2                !
 ! R100  R(45,46)                1.3914         estimate D2E/DX2                !
 ! R101  R(45,96)                1.0822         estimate D2E/DX2                !
 ! R102  R(46,47)                1.3944         estimate D2E/DX2                !
 ! R103  R(46,97)                1.0823         estimate D2E/DX2                !
 ! R104  R(47,48)                1.4123         estimate D2E/DX2                !
 ! R105  R(47,98)                1.0816         estimate D2E/DX2                !
 ! R106  R(49,50)                1.3975         estimate D2E/DX2                !
 ! R107  R(49,99)                1.083          estimate D2E/DX2                !
 ! R108  R(50,100)               1.0827         estimate D2E/DX2                !
 ! R109  R(51,52)                1.5338         estimate D2E/DX2                !
 ! R110  R(51,101)               1.1119         estimate D2E/DX2                !
 ! R111  R(51,102)               1.1121         estimate D2E/DX2                !
 ! R112  R(52,103)               1.1122         estimate D2E/DX2                !
 ! R113  R(52,104)               1.1133         estimate D2E/DX2                !
 ! A1    A(2,1,53)             110.4069         estimate D2E/DX2                !
 ! A2    A(2,1,54)             110.2977         estimate D2E/DX2                !
 ! A3    A(2,1,55)             109.5703         estimate D2E/DX2                !
 ! A4    A(53,1,54)            109.3179         estimate D2E/DX2                !
 ! A5    A(53,1,55)            108.5144         estimate D2E/DX2                !
 ! A6    A(54,1,55)            108.6916         estimate D2E/DX2                !
 ! A7    A(1,2,3)              111.1143         estimate D2E/DX2                !
 ! A8    A(1,2,56)             108.1171         estimate D2E/DX2                !
 ! A9    A(1,2,57)             108.7544         estimate D2E/DX2                !
 ! A10   A(3,2,56)             110.2966         estimate D2E/DX2                !
 ! A11   A(3,2,57)             109.8125         estimate D2E/DX2                !
 ! A12   A(56,2,57)            108.6849         estimate D2E/DX2                !
 ! A13   A(2,3,4)              112.8033         estimate D2E/DX2                !
 ! A14   A(2,3,58)             108.0616         estimate D2E/DX2                !
 ! A15   A(2,3,59)             109.6123         estimate D2E/DX2                !
 ! A16   A(4,3,58)             108.7327         estimate D2E/DX2                !
 ! A17   A(4,3,59)             109.8755         estimate D2E/DX2                !
 ! A18   A(58,3,59)            107.6013         estimate D2E/DX2                !
 ! A19   A(3,4,5)              111.7379         estimate D2E/DX2                !
 ! A20   A(3,4,52)             109.7339         estimate D2E/DX2                !
 ! A21   A(3,4,60)             108.4775         estimate D2E/DX2                !
 ! A22   A(5,4,52)             110.1045         estimate D2E/DX2                !
 ! A23   A(5,4,60)             108.6914         estimate D2E/DX2                !
 ! A24   A(52,4,60)            108.0001         estimate D2E/DX2                !
 ! A25   A(4,5,6)              111.3523         estimate D2E/DX2                !
 ! A26   A(4,5,61)             110.1237         estimate D2E/DX2                !
 ! A27   A(4,5,62)             110.2161         estimate D2E/DX2                !
 ! A28   A(6,5,61)             109.3336         estimate D2E/DX2                !
 ! A29   A(6,5,62)             107.7348         estimate D2E/DX2                !
 ! A30   A(61,5,62)            107.9885         estimate D2E/DX2                !
 ! A31   A(5,6,7)              111.0568         estimate D2E/DX2                !
 ! A32   A(5,6,63)             108.931          estimate D2E/DX2                !
 ! A33   A(5,6,64)             108.9189         estimate D2E/DX2                !
 ! A34   A(7,6,63)             109.4426         estimate D2E/DX2                !
 ! A35   A(7,6,64)             110.5147         estimate D2E/DX2                !
 ! A36   A(63,6,64)            107.906          estimate D2E/DX2                !
 ! A37   A(6,7,8)              111.0964         estimate D2E/DX2                !
 ! A38   A(6,7,51)             110.7137         estimate D2E/DX2                !
 ! A39   A(6,7,65)             107.3418         estimate D2E/DX2                !
 ! A40   A(8,7,51)             111.3436         estimate D2E/DX2                !
 ! A41   A(8,7,65)             108.8903         estimate D2E/DX2                !
 ! A42   A(51,7,65)            107.279          estimate D2E/DX2                !
 ! A43   A(7,8,9)              121.2154         estimate D2E/DX2                !
 ! A44   A(7,8,50)             119.9246         estimate D2E/DX2                !
 ! A45   A(9,8,50)             118.8566         estimate D2E/DX2                !
 ! A46   A(8,9,10)             120.5085         estimate D2E/DX2                !
 ! A47   A(8,9,66)             120.7189         estimate D2E/DX2                !
 ! A48   A(10,9,66)            118.7724         estimate D2E/DX2                !
 ! A49   A(9,10,11)            120.2901         estimate D2E/DX2                !
 ! A50   A(9,10,67)            119.3929         estimate D2E/DX2                !
 ! A51   A(11,10,67)           120.3168         estimate D2E/DX2                !
 ! A52   A(10,11,12)           120.3563         estimate D2E/DX2                !
 ! A53   A(10,11,49)           119.4568         estimate D2E/DX2                !
 ! A54   A(12,11,49)           120.1755         estimate D2E/DX2                !
 ! A55   A(11,12,13)           117.952          estimate D2E/DX2                !
 ! A56   A(11,12,48)           122.3902         estimate D2E/DX2                !
 ! A57   A(13,12,48)           119.634          estimate D2E/DX2                !
 ! A58   A(12,13,14)           120.9618         estimate D2E/DX2                !
 ! A59   A(12,13,68)           119.9695         estimate D2E/DX2                !
 ! A60   A(14,13,68)           119.0573         estimate D2E/DX2                !
 ! A61   A(13,14,15)           119.1669         estimate D2E/DX2                !
 ! A62   A(13,14,16)           120.5712         estimate D2E/DX2                !
 ! A63   A(15,14,16)           120.2574         estimate D2E/DX2                !
 ! A64   A(14,15,105)          108.1178         estimate D2E/DX2                !
 ! A65   A(14,16,17)           118.5885         estimate D2E/DX2                !
 ! A66   A(14,16,43)           119.5848         estimate D2E/DX2                !
 ! A67   A(17,16,43)           121.8159         estimate D2E/DX2                !
 ! A68   A(16,17,18)           118.4857         estimate D2E/DX2                !
 ! A69   A(16,17,42)           122.0117         estimate D2E/DX2                !
 ! A70   A(18,17,42)           119.5017         estimate D2E/DX2                !
 ! A71   A(17,18,19)           120.2583         estimate D2E/DX2                !
 ! A72   A(17,18,20)           120.5567         estimate D2E/DX2                !
 ! A73   A(19,18,20)           119.1816         estimate D2E/DX2                !
 ! A74   A(18,19,105)          111.7625         estimate D2E/DX2                !
 ! A75   A(18,20,21)           121.0102         estimate D2E/DX2                !
 ! A76   A(18,20,69)           118.9273         estimate D2E/DX2                !
 ! A77   A(21,20,69)           120.0274         estimate D2E/DX2                !
 ! A78   A(20,21,22)           117.9497         estimate D2E/DX2                !
 ! A79   A(20,21,37)           119.4447         estimate D2E/DX2                !
 ! A80   A(22,21,37)           122.5614         estimate D2E/DX2                !
 ! A81   A(21,22,23)           120.5036         estimate D2E/DX2                !
 ! A82   A(21,22,36)           120.0761         estimate D2E/DX2                !
 ! A83   A(23,22,36)           119.3268         estimate D2E/DX2                !
 ! A84   A(22,23,24)           120.325          estimate D2E/DX2                !
 ! A85   A(22,23,70)           120.3308         estimate D2E/DX2                !
 ! A86   A(24,23,70)           119.3441         estimate D2E/DX2                !
 ! A87   A(23,24,25)           120.5169         estimate D2E/DX2                !
 ! A88   A(23,24,71)           118.8033         estimate D2E/DX2                !
 ! A89   A(25,24,71)           120.6765         estimate D2E/DX2                !
 ! A90   A(24,25,26)           121.241          estimate D2E/DX2                !
 ! A91   A(24,25,35)           118.8823         estimate D2E/DX2                !
 ! A92   A(26,25,35)           119.874          estimate D2E/DX2                !
 ! A93   A(25,26,27)           111.3758         estimate D2E/DX2                !
 ! A94   A(25,26,34)           111.3178         estimate D2E/DX2                !
 ! A95   A(25,26,72)           108.8544         estimate D2E/DX2                !
 ! A96   A(27,26,34)           110.4421         estimate D2E/DX2                !
 ! A97   A(27,26,72)           107.327          estimate D2E/DX2                !
 ! A98   A(34,26,72)           107.3437         estimate D2E/DX2                !
 ! A99   A(26,27,28)           110.6231         estimate D2E/DX2                !
 ! A100  A(26,27,73)           109.5496         estimate D2E/DX2                !
 ! A101  A(26,27,74)           110.6706         estimate D2E/DX2                !
 ! A102  A(28,27,73)           108.9427         estimate D2E/DX2                !
 ! A103  A(28,27,74)           109.0315         estimate D2E/DX2                !
 ! A104  A(73,27,74)           107.9636         estimate D2E/DX2                !
 ! A105  A(27,28,29)           111.5456         estimate D2E/DX2                !
 ! A106  A(27,28,75)           108.5323         estimate D2E/DX2                !
 ! A107  A(27,28,76)           109.2589         estimate D2E/DX2                !
 ! A108  A(29,28,75)           109.7116         estimate D2E/DX2                !
 ! A109  A(29,28,76)           109.9082         estimate D2E/DX2                !
 ! A110  A(75,28,76)           107.7972         estimate D2E/DX2                !
 ! A111  A(28,29,30)           109.6426         estimate D2E/DX2                !
 ! A112  A(28,29,33)           110.208          estimate D2E/DX2                !
 ! A113  A(28,29,77)           108.0358         estimate D2E/DX2                !
 ! A114  A(30,29,33)           111.654          estimate D2E/DX2                !
 ! A115  A(30,29,77)           108.569          estimate D2E/DX2                !
 ! A116  A(33,29,77)           108.6403         estimate D2E/DX2                !
 ! A117  A(29,30,31)           112.8384         estimate D2E/DX2                !
 ! A118  A(29,30,78)           108.7273         estimate D2E/DX2                !
 ! A119  A(29,30,79)           109.851          estimate D2E/DX2                !
 ! A120  A(31,30,78)           108.1101         estimate D2E/DX2                !
 ! A121  A(31,30,79)           109.6363         estimate D2E/DX2                !
 ! A122  A(78,30,79)           107.5185         estimate D2E/DX2                !
 ! A123  A(30,31,32)           111.0813         estimate D2E/DX2                !
 ! A124  A(30,31,80)           109.805          estimate D2E/DX2                !
 ! A125  A(30,31,81)           110.2238         estimate D2E/DX2                !
 ! A126  A(32,31,80)           108.8256         estimate D2E/DX2                !
 ! A127  A(32,31,81)           108.1828         estimate D2E/DX2                !
 ! A128  A(80,31,81)           108.6643         estimate D2E/DX2                !
 ! A129  A(31,32,82)           110.3836         estimate D2E/DX2                !
 ! A130  A(31,32,83)           110.2693         estimate D2E/DX2                !
 ! A131  A(31,32,84)           109.454          estimate D2E/DX2                !
 ! A132  A(82,32,83)           109.3141         estimate D2E/DX2                !
 ! A133  A(82,32,84)           108.6568         estimate D2E/DX2                !
 ! A134  A(83,32,84)           108.7249         estimate D2E/DX2                !
 ! A135  A(29,33,34)           111.3953         estimate D2E/DX2                !
 ! A136  A(29,33,85)           110.2066         estimate D2E/DX2                !
 ! A137  A(29,33,86)           110.1166         estimate D2E/DX2                !
 ! A138  A(34,33,85)           107.7479         estimate D2E/DX2                !
 ! A139  A(34,33,86)           109.3198         estimate D2E/DX2                !
 ! A140  A(85,33,86)           107.961          estimate D2E/DX2                !
 ! A141  A(26,34,33)           110.9341         estimate D2E/DX2                !
 ! A142  A(26,34,87)           110.6064         estimate D2E/DX2                !
 ! A143  A(26,34,88)           109.5241         estimate D2E/DX2                !
 ! A144  A(33,34,87)           108.8582         estimate D2E/DX2                !
 ! A145  A(33,34,88)           108.9431         estimate D2E/DX2                !
 ! A146  A(87,34,88)           107.9061         estimate D2E/DX2                !
 ! A147  A(25,35,36)           120.5403         estimate D2E/DX2                !
 ! A148  A(25,35,89)           120.6017         estimate D2E/DX2                !
 ! A149  A(36,35,89)           118.8561         estimate D2E/DX2                !
 ! A150  A(22,36,35)           120.402          estimate D2E/DX2                !
 ! A151  A(22,36,90)           120.3132         estimate D2E/DX2                !
 ! A152  A(35,36,90)           119.282          estimate D2E/DX2                !
 ! A153  A(21,37,38)           121.4429         estimate D2E/DX2                !
 ! A154  A(21,37,42)           119.5499         estimate D2E/DX2                !
 ! A155  A(38,37,42)           118.9979         estimate D2E/DX2                !
 ! A156  A(37,38,39)           120.7239         estimate D2E/DX2                !
 ! A157  A(37,38,91)           121.5331         estimate D2E/DX2                !
 ! A158  A(39,38,91)           117.732          estimate D2E/DX2                !
 ! A159  A(38,39,40)           120.2484         estimate D2E/DX2                !
 ! A160  A(38,39,92)           119.9571         estimate D2E/DX2                !
 ! A161  A(40,39,92)           119.7928         estimate D2E/DX2                !
 ! A162  A(39,40,41)           120.203          estimate D2E/DX2                !
 ! A163  A(39,40,93)           119.8743         estimate D2E/DX2                !
 ! A164  A(41,40,93)           119.9199         estimate D2E/DX2                !
 ! A165  A(40,41,42)           120.7414         estimate D2E/DX2                !
 ! A166  A(40,41,94)           117.8166         estimate D2E/DX2                !
 ! A167  A(42,41,94)           121.4394         estimate D2E/DX2                !
 ! A168  A(17,42,37)           119.6849         estimate D2E/DX2                !
 ! A169  A(17,42,41)           121.2355         estimate D2E/DX2                !
 ! A170  A(37,42,41)           119.0777         estimate D2E/DX2                !
 ! A171  A(16,43,44)           121.3282         estimate D2E/DX2                !
 ! A172  A(16,43,48)           119.662          estimate D2E/DX2                !
 ! A173  A(44,43,48)           119.008          estimate D2E/DX2                !
 ! A174  A(43,44,45)           120.7336         estimate D2E/DX2                !
 ! A175  A(43,44,95)           121.5196         estimate D2E/DX2                !
 ! A176  A(45,44,95)           117.7464         estimate D2E/DX2                !
 ! A177  A(44,45,46)           120.2307         estimate D2E/DX2                !
 ! A178  A(44,45,96)           119.9364         estimate D2E/DX2                !
 ! A179  A(46,45,96)           119.8318         estimate D2E/DX2                !
 ! A180  A(45,46,47)           120.232          estimate D2E/DX2                !
 ! A181  A(45,46,97)           119.8208         estimate D2E/DX2                !
 ! A182  A(47,46,97)           119.9466         estimate D2E/DX2                !
 ! A183  A(46,47,48)           120.7261         estimate D2E/DX2                !
 ! A184  A(46,47,98)           117.756          estimate D2E/DX2                !
 ! A185  A(48,47,98)           121.5159         estimate D2E/DX2                !
 ! A186  A(12,48,43)           119.5537         estimate D2E/DX2                !
 ! A187  A(12,48,47)           121.4275         estimate D2E/DX2                !
 ! A188  A(43,48,47)           119.0159         estimate D2E/DX2                !
 ! A189  A(11,49,50)           120.312          estimate D2E/DX2                !
 ! A190  A(11,49,99)           120.2839         estimate D2E/DX2                !
 ! A191  A(50,49,99)           119.4013         estimate D2E/DX2                !
 ! A192  A(8,50,49)            120.569          estimate D2E/DX2                !
 ! A193  A(8,50,100)           120.5552         estimate D2E/DX2                !
 ! A194  A(49,50,100)          118.8754         estimate D2E/DX2                !
 ! A195  A(7,51,52)            110.7953         estimate D2E/DX2                !
 ! A196  A(7,51,101)           110.7551         estimate D2E/DX2                !
 ! A197  A(7,51,102)           109.501          estimate D2E/DX2                !
 ! A198  A(52,51,101)          108.8822         estimate D2E/DX2                !
 ! A199  A(52,51,102)          108.8613         estimate D2E/DX2                !
 ! A200  A(101,51,102)         107.9794         estimate D2E/DX2                !
 ! A201  A(4,52,51)            111.4437         estimate D2E/DX2                !
 ! A202  A(4,52,103)           109.6561         estimate D2E/DX2                !
 ! A203  A(4,52,104)           109.9947         estimate D2E/DX2                !
 ! A204  A(51,52,103)          108.4151         estimate D2E/DX2                !
 ! A205  A(51,52,104)          109.3967         estimate D2E/DX2                !
 ! A206  A(103,52,104)         107.8504         estimate D2E/DX2                !
 ! A207  A(15,105,19)           99.9955         estimate D2E/DX2                !
 ! D1    D(53,1,2,3)           -61.1395         estimate D2E/DX2                !
 ! D2    D(53,1,2,56)          177.6902         estimate D2E/DX2                !
 ! D3    D(53,1,2,57)           59.8462         estimate D2E/DX2                !
 ! D4    D(54,1,2,3)            59.7866         estimate D2E/DX2                !
 ! D5    D(54,1,2,56)          -61.3836         estimate D2E/DX2                !
 ! D6    D(54,1,2,57)         -179.2276         estimate D2E/DX2                !
 ! D7    D(55,1,2,3)           179.399          estimate D2E/DX2                !
 ! D8    D(55,1,2,56)           58.2288         estimate D2E/DX2                !
 ! D9    D(55,1,2,57)          -59.6152         estimate D2E/DX2                !
 ! D10   D(1,2,3,4)            173.7687         estimate D2E/DX2                !
 ! D11   D(1,2,3,58)            53.534          estimate D2E/DX2                !
 ! D12   D(1,2,3,59)           -63.4573         estimate D2E/DX2                !
 ! D13   D(56,2,3,4)           -66.3488         estimate D2E/DX2                !
 ! D14   D(56,2,3,58)          173.4165         estimate D2E/DX2                !
 ! D15   D(56,2,3,59)           56.4253         estimate D2E/DX2                !
 ! D16   D(57,2,3,4)            53.4071         estimate D2E/DX2                !
 ! D17   D(57,2,3,58)          -66.8276         estimate D2E/DX2                !
 ! D18   D(57,2,3,59)          176.1812         estimate D2E/DX2                !
 ! D19   D(2,3,4,5)             69.3808         estimate D2E/DX2                !
 ! D20   D(2,3,4,52)          -168.1962         estimate D2E/DX2                !
 ! D21   D(2,3,4,60)           -50.4204         estimate D2E/DX2                !
 ! D22   D(58,3,4,5)          -170.7704         estimate D2E/DX2                !
 ! D23   D(58,3,4,52)          -48.3475         estimate D2E/DX2                !
 ! D24   D(58,3,4,60)           69.4284         estimate D2E/DX2                !
 ! D25   D(59,3,4,5)           -53.2461         estimate D2E/DX2                !
 ! D26   D(59,3,4,52)           69.1769         estimate D2E/DX2                !
 ! D27   D(59,3,4,60)         -173.0473         estimate D2E/DX2                !
 ! D28   D(3,4,5,6)            177.964          estimate D2E/DX2                !
 ! D29   D(3,4,5,61)            56.5093         estimate D2E/DX2                !
 ! D30   D(3,4,5,62)           -62.5313         estimate D2E/DX2                !
 ! D31   D(52,4,5,6)            55.7534         estimate D2E/DX2                !
 ! D32   D(52,4,5,61)          -65.7013         estimate D2E/DX2                !
 ! D33   D(52,4,5,62)          175.2581         estimate D2E/DX2                !
 ! D34   D(60,4,5,6)           -62.3606         estimate D2E/DX2                !
 ! D35   D(60,4,5,61)          176.1847         estimate D2E/DX2                !
 ! D36   D(60,4,5,62)           57.1441         estimate D2E/DX2                !
 ! D37   D(3,4,52,51)         -179.4688         estimate D2E/DX2                !
 ! D38   D(3,4,52,103)          60.4858         estimate D2E/DX2                !
 ! D39   D(3,4,52,104)         -57.9613         estimate D2E/DX2                !
 ! D40   D(5,4,52,51)          -56.0808         estimate D2E/DX2                !
 ! D41   D(5,4,52,103)        -176.1262         estimate D2E/DX2                !
 ! D42   D(5,4,52,104)          65.4267         estimate D2E/DX2                !
 ! D43   D(60,4,52,51)          62.4586         estimate D2E/DX2                !
 ! D44   D(60,4,52,103)        -57.5869         estimate D2E/DX2                !
 ! D45   D(60,4,52,104)       -176.034          estimate D2E/DX2                !
 ! D46   D(4,5,6,7)            -56.3387         estimate D2E/DX2                !
 ! D47   D(4,5,6,63)          -176.9441         estimate D2E/DX2                !
 ! D48   D(4,5,6,64)            65.5942         estimate D2E/DX2                !
 ! D49   D(61,5,6,7)            65.5751         estimate D2E/DX2                !
 ! D50   D(61,5,6,63)          -55.0304         estimate D2E/DX2                !
 ! D51   D(61,5,6,64)         -172.492          estimate D2E/DX2                !
 ! D52   D(62,5,6,7)          -177.3073         estimate D2E/DX2                !
 ! D53   D(62,5,6,63)           62.0872         estimate D2E/DX2                !
 ! D54   D(62,5,6,64)          -55.3744         estimate D2E/DX2                !
 ! D55   D(5,6,7,8)           -179.4254         estimate D2E/DX2                !
 ! D56   D(5,6,7,51)            56.3145         estimate D2E/DX2                !
 ! D57   D(5,6,7,65)           -60.4777         estimate D2E/DX2                !
 ! D58   D(63,6,7,8)           -59.1226         estimate D2E/DX2                !
 ! D59   D(63,6,7,51)          176.6172         estimate D2E/DX2                !
 ! D60   D(63,6,7,65)           59.8251         estimate D2E/DX2                !
 ! D61   D(64,6,7,8)            59.5763         estimate D2E/DX2                !
 ! D62   D(64,6,7,51)          -64.6839         estimate D2E/DX2                !
 ! D63   D(64,6,7,65)          178.524          estimate D2E/DX2                !
 ! D64   D(6,7,8,9)            -62.572          estimate D2E/DX2                !
 ! D65   D(6,7,8,50)           116.7406         estimate D2E/DX2                !
 ! D66   D(51,7,8,9)            61.3302         estimate D2E/DX2                !
 ! D67   D(51,7,8,50)         -119.3572         estimate D2E/DX2                !
 ! D68   D(65,7,8,9)           179.4141         estimate D2E/DX2                !
 ! D69   D(65,7,8,50)           -1.2733         estimate D2E/DX2                !
 ! D70   D(6,7,51,52)          -56.4374         estimate D2E/DX2                !
 ! D71   D(6,7,51,101)          64.5013         estimate D2E/DX2                !
 ! D72   D(6,7,51,102)        -176.5261         estimate D2E/DX2                !
 ! D73   D(8,7,51,52)          179.4438         estimate D2E/DX2                !
 ! D74   D(8,7,51,101)         -59.6175         estimate D2E/DX2                !
 ! D75   D(8,7,51,102)          59.3551         estimate D2E/DX2                !
 ! D76   D(65,7,51,52)          60.3935         estimate D2E/DX2                !
 ! D77   D(65,7,51,101)       -178.6678         estimate D2E/DX2                !
 ! D78   D(65,7,51,102)        -59.6952         estimate D2E/DX2                !
 ! D79   D(7,8,9,10)           179.2193         estimate D2E/DX2                !
 ! D80   D(7,8,9,66)            -0.6137         estimate D2E/DX2                !
 ! D81   D(50,8,9,10)           -0.1005         estimate D2E/DX2                !
 ! D82   D(50,8,9,66)         -179.9335         estimate D2E/DX2                !
 ! D83   D(7,8,50,49)         -179.1764         estimate D2E/DX2                !
 ! D84   D(7,8,50,100)           0.5811         estimate D2E/DX2                !
 ! D85   D(9,8,50,49)            0.1523         estimate D2E/DX2                !
 ! D86   D(9,8,50,100)         179.9099         estimate D2E/DX2                !
 ! D87   D(8,9,10,11)           -0.4673         estimate D2E/DX2                !
 ! D88   D(8,9,10,67)          179.724          estimate D2E/DX2                !
 ! D89   D(66,9,10,11)         179.369          estimate D2E/DX2                !
 ! D90   D(66,9,10,67)          -0.4397         estimate D2E/DX2                !
 ! D91   D(9,10,11,12)         179.7581         estimate D2E/DX2                !
 ! D92   D(9,10,11,49)           0.9778         estimate D2E/DX2                !
 ! D93   D(67,10,11,12)         -0.4349         estimate D2E/DX2                !
 ! D94   D(67,10,11,49)       -179.2153         estimate D2E/DX2                !
 ! D95   D(10,11,12,13)       -113.0292         estimate D2E/DX2                !
 ! D96   D(10,11,12,48)         65.1872         estimate D2E/DX2                !
 ! D97   D(49,11,12,13)         65.7424         estimate D2E/DX2                !
 ! D98   D(49,11,12,48)       -116.0413         estimate D2E/DX2                !
 ! D99   D(10,11,49,50)         -0.9262         estimate D2E/DX2                !
 ! D100  D(10,11,49,99)        179.6832         estimate D2E/DX2                !
 ! D101  D(12,11,49,50)       -179.7089         estimate D2E/DX2                !
 ! D102  D(12,11,49,99)          0.9006         estimate D2E/DX2                !
 ! D103  D(11,12,13,14)        177.5531         estimate D2E/DX2                !
 ! D104  D(11,12,13,68)         -1.2098         estimate D2E/DX2                !
 ! D105  D(48,12,13,14)         -0.7141         estimate D2E/DX2                !
 ! D106  D(48,12,13,68)       -179.477          estimate D2E/DX2                !
 ! D107  D(11,12,48,43)       -177.1441         estimate D2E/DX2                !
 ! D108  D(11,12,48,47)          3.4831         estimate D2E/DX2                !
 ! D109  D(13,12,48,43)          1.0432         estimate D2E/DX2                !
 ! D110  D(13,12,48,47)       -178.3296         estimate D2E/DX2                !
 ! D111  D(12,13,14,15)       -178.1939         estimate D2E/DX2                !
 ! D112  D(12,13,14,16)          1.0357         estimate D2E/DX2                !
 ! D113  D(68,13,14,15)          0.5802         estimate D2E/DX2                !
 ! D114  D(68,13,14,16)        179.8097         estimate D2E/DX2                !
 ! D115  D(13,14,15,105)       102.4005         estimate D2E/DX2                !
 ! D116  D(16,14,15,105)       -76.8315         estimate D2E/DX2                !
 ! D117  D(13,14,16,17)        179.5008         estimate D2E/DX2                !
 ! D118  D(13,14,16,43)         -1.6734         estimate D2E/DX2                !
 ! D119  D(15,14,16,17)         -1.2781         estimate D2E/DX2                !
 ! D120  D(15,14,16,43)        177.5477         estimate D2E/DX2                !
 ! D121  D(14,15,105,19)        47.8852         estimate D2E/DX2                !
 ! D122  D(14,16,17,18)         69.4613         estimate D2E/DX2                !
 ! D123  D(14,16,17,42)       -110.8789         estimate D2E/DX2                !
 ! D124  D(43,16,17,18)       -109.337          estimate D2E/DX2                !
 ! D125  D(43,16,17,42)         70.3228         estimate D2E/DX2                !
 ! D126  D(14,16,43,44)       -177.5018         estimate D2E/DX2                !
 ! D127  D(14,16,43,48)          1.9972         estimate D2E/DX2                !
 ! D128  D(17,16,43,44)          1.2849         estimate D2E/DX2                !
 ! D129  D(17,16,43,48)       -179.2162         estimate D2E/DX2                !
 ! D130  D(16,17,18,19)         -4.1145         estimate D2E/DX2                !
 ! D131  D(16,17,18,20)        175.206          estimate D2E/DX2                !
 ! D132  D(42,17,18,19)        176.217          estimate D2E/DX2                !
 ! D133  D(42,17,18,20)         -4.4625         estimate D2E/DX2                !
 ! D134  D(16,17,42,37)       -175.519          estimate D2E/DX2                !
 ! D135  D(16,17,42,41)          4.9907         estimate D2E/DX2                !
 ! D136  D(18,17,42,37)          4.1374         estimate D2E/DX2                !
 ! D137  D(18,17,42,41)       -175.3529         estimate D2E/DX2                !
 ! D138  D(17,18,19,105)       -72.0445         estimate D2E/DX2                !
 ! D139  D(20,18,19,105)       108.6257         estimate D2E/DX2                !
 ! D140  D(17,18,20,21)          0.5284         estimate D2E/DX2                !
 ! D141  D(17,18,20,69)       -177.3167         estimate D2E/DX2                !
 ! D142  D(19,18,20,21)        179.8561         estimate D2E/DX2                !
 ! D143  D(19,18,20,69)          2.011          estimate D2E/DX2                !
 ! D144  D(18,19,105,15)        42.6665         estimate D2E/DX2                !
 ! D145  D(18,20,21,22)       -173.9452         estimate D2E/DX2                !
 ! D146  D(18,20,21,37)          3.6992         estimate D2E/DX2                !
 ! D147  D(69,20,21,22)          3.8764         estimate D2E/DX2                !
 ! D148  D(69,20,21,37)       -178.4792         estimate D2E/DX2                !
 ! D149  D(20,21,22,23)        -59.7928         estimate D2E/DX2                !
 ! D150  D(20,21,22,36)        116.6678         estimate D2E/DX2                !
 ! D151  D(37,21,22,23)        122.6411         estimate D2E/DX2                !
 ! D152  D(37,21,22,36)        -60.8982         estimate D2E/DX2                !
 ! D153  D(20,21,37,38)        174.9513         estimate D2E/DX2                !
 ! D154  D(20,21,37,42)         -3.9302         estimate D2E/DX2                !
 ! D155  D(22,21,37,38)         -7.5177         estimate D2E/DX2                !
 ! D156  D(22,21,37,42)        173.6008         estimate D2E/DX2                !
 ! D157  D(21,22,23,24)        177.3396         estimate D2E/DX2                !
 ! D158  D(21,22,23,70)         -2.7573         estimate D2E/DX2                !
 ! D159  D(36,22,23,24)          0.8526         estimate D2E/DX2                !
 ! D160  D(36,22,23,70)       -179.2443         estimate D2E/DX2                !
 ! D161  D(21,22,36,35)       -177.3248         estimate D2E/DX2                !
 ! D162  D(21,22,36,90)          2.0729         estimate D2E/DX2                !
 ! D163  D(23,22,36,35)         -0.8226         estimate D2E/DX2                !
 ! D164  D(23,22,36,90)        178.5752         estimate D2E/DX2                !
 ! D165  D(22,23,24,25)         -0.662          estimate D2E/DX2                !
 ! D166  D(22,23,24,71)        179.9924         estimate D2E/DX2                !
 ! D167  D(70,23,24,25)        179.4339         estimate D2E/DX2                !
 ! D168  D(70,23,24,71)          0.0884         estimate D2E/DX2                !
 ! D169  D(23,24,25,26)       -178.9748         estimate D2E/DX2                !
 ! D170  D(23,24,25,35)          0.4253         estimate D2E/DX2                !
 ! D171  D(71,24,25,26)          0.3584         estimate D2E/DX2                !
 ! D172  D(71,24,25,35)        179.7585         estimate D2E/DX2                !
 ! D173  D(24,25,26,27)        -62.12           estimate D2E/DX2                !
 ! D174  D(24,25,26,34)         61.6149         estimate D2E/DX2                !
 ! D175  D(24,25,26,72)        179.7404         estimate D2E/DX2                !
 ! D176  D(35,25,26,27)        118.4858         estimate D2E/DX2                !
 ! D177  D(35,25,26,34)       -117.7794         estimate D2E/DX2                !
 ! D178  D(35,25,26,72)          0.3461         estimate D2E/DX2                !
 ! D179  D(24,25,35,36)         -0.3947         estimate D2E/DX2                !
 ! D180  D(24,25,35,89)       -179.8813         estimate D2E/DX2                !
 ! D181  D(26,25,35,36)        179.0139         estimate D2E/DX2                !
 ! D182  D(26,25,35,89)         -0.4728         estimate D2E/DX2                !
 ! D183  D(25,26,27,28)       -178.5686         estimate D2E/DX2                !
 ! D184  D(25,26,27,73)        -58.4559         estimate D2E/DX2                !
 ! D185  D(25,26,27,74)         60.4759         estimate D2E/DX2                !
 ! D186  D(34,26,27,28)         57.2009         estimate D2E/DX2                !
 ! D187  D(34,26,27,73)        177.3136         estimate D2E/DX2                !
 ! D188  D(34,26,27,74)        -63.7546         estimate D2E/DX2                !
 ! D189  D(72,26,27,28)        -59.5137         estimate D2E/DX2                !
 ! D190  D(72,26,27,73)         60.599          estimate D2E/DX2                !
 ! D191  D(72,26,27,74)        179.5308         estimate D2E/DX2                !
 ! D192  D(25,26,34,33)        178.6466         estimate D2E/DX2                !
 ! D193  D(25,26,34,87)        -60.452          estimate D2E/DX2                !
 ! D194  D(25,26,34,88)         58.3536         estimate D2E/DX2                !
 ! D195  D(27,26,34,33)        -57.0896         estimate D2E/DX2                !
 ! D196  D(27,26,34,87)         63.8118         estimate D2E/DX2                !
 ! D197  D(27,26,34,88)       -177.3826         estimate D2E/DX2                !
 ! D198  D(72,26,34,33)         59.6146         estimate D2E/DX2                !
 ! D199  D(72,26,34,87)       -179.484          estimate D2E/DX2                !
 ! D200  D(72,26,34,88)        -60.6784         estimate D2E/DX2                !
 ! D201  D(26,27,28,29)        -56.9903         estimate D2E/DX2                !
 ! D202  D(26,27,28,75)       -177.9751         estimate D2E/DX2                !
 ! D203  D(26,27,28,76)         64.7282         estimate D2E/DX2                !
 ! D204  D(73,27,28,29)       -177.4657         estimate D2E/DX2                !
 ! D205  D(73,27,28,75)         61.5495         estimate D2E/DX2                !
 ! D206  D(73,27,28,76)        -55.7472         estimate D2E/DX2                !
 ! D207  D(74,27,28,29)         64.9332         estimate D2E/DX2                !
 ! D208  D(74,27,28,75)        -56.0516         estimate D2E/DX2                !
 ! D209  D(74,27,28,76)       -173.3483         estimate D2E/DX2                !
 ! D210  D(27,28,29,30)        178.8848         estimate D2E/DX2                !
 ! D211  D(27,28,29,33)         55.5946         estimate D2E/DX2                !
 ! D212  D(27,28,29,77)        -62.9631         estimate D2E/DX2                !
 ! D213  D(75,28,29,30)        -60.8207         estimate D2E/DX2                !
 ! D214  D(75,28,29,33)        175.8892         estimate D2E/DX2                !
 ! D215  D(75,28,29,77)         57.3314         estimate D2E/DX2                !
 ! D216  D(76,28,29,30)         57.5428         estimate D2E/DX2                !
 ! D217  D(76,28,29,33)        -65.7474         estimate D2E/DX2                !
 ! D218  D(76,28,29,77)        175.6948         estimate D2E/DX2                !
 ! D219  D(28,29,30,31)        168.1269         estimate D2E/DX2                !
 ! D220  D(28,29,30,78)         48.1986         estimate D2E/DX2                !
 ! D221  D(28,29,30,79)        -69.2087         estimate D2E/DX2                !
 ! D222  D(33,29,30,31)        -69.4392         estimate D2E/DX2                !
 ! D223  D(33,29,30,78)        170.6326         estimate D2E/DX2                !
 ! D224  D(33,29,30,79)         53.2252         estimate D2E/DX2                !
 ! D225  D(77,29,30,31)         50.3067         estimate D2E/DX2                !
 ! D226  D(77,29,30,78)        -69.6216         estimate D2E/DX2                !
 ! D227  D(77,29,30,79)        172.9711         estimate D2E/DX2                !
 ! D228  D(28,29,33,34)        -55.2166         estimate D2E/DX2                !
 ! D229  D(28,29,33,85)       -174.7591         estimate D2E/DX2                !
 ! D230  D(28,29,33,86)         66.2446         estimate D2E/DX2                !
 ! D231  D(30,29,33,34)       -177.326          estimate D2E/DX2                !
 ! D232  D(30,29,33,85)         63.1316         estimate D2E/DX2                !
 ! D233  D(30,29,33,86)        -55.8648         estimate D2E/DX2                !
 ! D234  D(77,29,33,34)         62.9702         estimate D2E/DX2                !
 ! D235  D(77,29,33,85)        -56.5723         estimate D2E/DX2                !
 ! D236  D(77,29,33,86)       -175.5686         estimate D2E/DX2                !
 ! D237  D(29,30,31,32)       -174.0607         estimate D2E/DX2                !
 ! D238  D(29,30,31,80)        -53.6363         estimate D2E/DX2                !
 ! D239  D(29,30,31,81)         66.0438         estimate D2E/DX2                !
 ! D240  D(78,30,31,32)        -53.778          estimate D2E/DX2                !
 ! D241  D(78,30,31,80)         66.6464         estimate D2E/DX2                !
 ! D242  D(78,30,31,81)       -173.6735         estimate D2E/DX2                !
 ! D243  D(79,30,31,32)         63.155          estimate D2E/DX2                !
 ! D244  D(79,30,31,80)       -176.4206         estimate D2E/DX2                !
 ! D245  D(79,30,31,81)        -56.7405         estimate D2E/DX2                !
 ! D246  D(30,31,32,82)         60.9003         estimate D2E/DX2                !
 ! D247  D(30,31,32,83)        -59.9873         estimate D2E/DX2                !
 ! D248  D(30,31,32,84)       -179.5503         estimate D2E/DX2                !
 ! D249  D(80,31,32,82)        -60.1019         estimate D2E/DX2                !
 ! D250  D(80,31,32,83)        179.0105         estimate D2E/DX2                !
 ! D251  D(80,31,32,84)         59.4475         estimate D2E/DX2                !
 ! D252  D(81,31,32,82)       -177.9972         estimate D2E/DX2                !
 ! D253  D(81,31,32,83)         61.1152         estimate D2E/DX2                !
 ! D254  D(81,31,32,84)        -58.4478         estimate D2E/DX2                !
 ! D255  D(29,33,34,26)         56.4636         estimate D2E/DX2                !
 ! D256  D(29,33,34,87)        -65.4646         estimate D2E/DX2                !
 ! D257  D(29,33,34,88)        177.1012         estimate D2E/DX2                !
 ! D258  D(85,33,34,26)        177.455          estimate D2E/DX2                !
 ! D259  D(85,33,34,87)         55.5268         estimate D2E/DX2                !
 ! D260  D(85,33,34,88)        -61.9074         estimate D2E/DX2                !
 ! D261  D(86,33,34,26)        -65.4601         estimate D2E/DX2                !
 ! D262  D(86,33,34,87)        172.6117         estimate D2E/DX2                !
 ! D263  D(86,33,34,88)         55.1774         estimate D2E/DX2                !
 ! D264  D(25,35,36,22)          0.601          estimate D2E/DX2                !
 ! D265  D(25,35,36,90)       -178.803          estimate D2E/DX2                !
 ! D266  D(89,35,36,22)       -179.9036         estimate D2E/DX2                !
 ! D267  D(89,35,36,90)          0.6925         estimate D2E/DX2                !
 ! D268  D(21,37,38,39)       -179.8495         estimate D2E/DX2                !
 ! D269  D(21,37,38,91)         -1.0864         estimate D2E/DX2                !
 ! D270  D(42,37,38,39)         -0.9619         estimate D2E/DX2                !
 ! D271  D(42,37,38,91)        177.8012         estimate D2E/DX2                !
 ! D272  D(21,37,42,17)          0.0388         estimate D2E/DX2                !
 ! D273  D(21,37,42,41)        179.5401         estimate D2E/DX2                !
 ! D274  D(38,37,42,17)       -178.8702         estimate D2E/DX2                !
 ! D275  D(38,37,42,41)          0.6312         estimate D2E/DX2                !
 ! D276  D(37,38,39,40)          0.493          estimate D2E/DX2                !
 ! D277  D(37,38,39,92)       -179.9744         estimate D2E/DX2                !
 ! D278  D(91,38,39,40)       -178.3159         estimate D2E/DX2                !
 ! D279  D(91,38,39,92)          1.2167         estimate D2E/DX2                !
 ! D280  D(38,39,40,41)          0.3171         estimate D2E/DX2                !
 ! D281  D(38,39,40,93)        179.7057         estimate D2E/DX2                !
 ! D282  D(92,39,40,41)       -179.2162         estimate D2E/DX2                !
 ! D283  D(92,39,40,93)          0.1723         estimate D2E/DX2                !
 ! D284  D(39,40,41,42)         -0.6427         estimate D2E/DX2                !
 ! D285  D(39,40,41,94)        178.7696         estimate D2E/DX2                !
 ! D286  D(93,40,41,42)        179.969          estimate D2E/DX2                !
 ! D287  D(93,40,41,94)         -0.6188         estimate D2E/DX2                !
 ! D288  D(40,41,42,17)        179.6534         estimate D2E/DX2                !
 ! D289  D(40,41,42,37)          0.1601         estimate D2E/DX2                !
 ! D290  D(94,41,42,17)          0.2627         estimate D2E/DX2                !
 ! D291  D(94,41,42,37)       -179.2306         estimate D2E/DX2                !
 ! D292  D(16,43,44,45)       -178.7309         estimate D2E/DX2                !
 ! D293  D(16,43,44,95)          1.4965         estimate D2E/DX2                !
 ! D294  D(48,43,44,45)          1.7669         estimate D2E/DX2                !
 ! D295  D(48,43,44,95)       -178.0057         estimate D2E/DX2                !
 ! D296  D(16,43,48,12)         -1.6886         estimate D2E/DX2                !
 ! D297  D(16,43,48,47)        177.6995         estimate D2E/DX2                !
 ! D298  D(44,43,48,12)        177.822          estimate D2E/DX2                !
 ! D299  D(44,43,48,47)         -2.7899         estimate D2E/DX2                !
 ! D300  D(43,44,45,46)          0.0796         estimate D2E/DX2                !
 ! D301  D(43,44,45,96)        179.7024         estimate D2E/DX2                !
 ! D302  D(95,44,45,46)        179.8606         estimate D2E/DX2                !
 ! D303  D(95,44,45,96)         -0.5167         estimate D2E/DX2                !
 ! D304  D(44,45,46,47)         -0.8848         estimate D2E/DX2                !
 ! D305  D(44,45,46,97)        179.3992         estimate D2E/DX2                !
 ! D306  D(96,45,46,47)        179.4921         estimate D2E/DX2                !
 ! D307  D(96,45,46,97)         -0.2239         estimate D2E/DX2                !
 ! D308  D(45,46,47,48)         -0.1956         estimate D2E/DX2                !
 ! D309  D(45,46,47,98)        179.3015         estimate D2E/DX2                !
 ! D310  D(97,46,47,48)        179.5201         estimate D2E/DX2                !
 ! D311  D(97,46,47,98)         -0.9829         estimate D2E/DX2                !
 ! D312  D(46,47,48,12)       -178.5849         estimate D2E/DX2                !
 ! D313  D(46,47,48,43)          2.039          estimate D2E/DX2                !
 ! D314  D(98,47,48,12)          1.9372         estimate D2E/DX2                !
 ! D315  D(98,47,48,43)       -177.4389         estimate D2E/DX2                !
 ! D316  D(11,49,50,8)           0.3638         estimate D2E/DX2                !
 ! D317  D(11,49,50,100)      -179.3978         estimate D2E/DX2                !
 ! D318  D(99,49,50,8)         179.7598         estimate D2E/DX2                !
 ! D319  D(99,49,50,100)        -0.0018         estimate D2E/DX2                !
 ! D320  D(7,51,52,4)           56.8106         estimate D2E/DX2                !
 ! D321  D(7,51,52,103)        177.5856         estimate D2E/DX2                !
 ! D322  D(7,51,52,104)        -65.0437         estimate D2E/DX2                !
 ! D323  D(101,51,52,4)        -65.23           estimate D2E/DX2                !
 ! D324  D(101,51,52,103)       55.545          estimate D2E/DX2                !
 ! D325  D(101,51,52,104)      172.9156         estimate D2E/DX2                !
 ! D326  D(102,51,52,4)        177.2805         estimate D2E/DX2                !
 ! D327  D(102,51,52,103)      -61.9445         estimate D2E/DX2                !
 ! D328  D(102,51,52,104)       55.4261         estimate D2E/DX2                !
 --------------------------------------------------------------------------------
 Trust Radius=3.00D-01 FncErr=1.00D-07 GrdErr=1.00D-06 EigMax=2.50D+02 EigMin=1.00D-04
 Number of steps in this run=    630 maximum allowed number of steps=    630.
 GradGradGradGradGradGradGradGradGradGradGradGradGradGradGradGradGradGrad

 Leave Link  103 at Wed Mar 26 20:41:57 2025, MaxMem= 13421772800 cpu:               0.8 elap:               0.0
 (Enter /public/software/apps/Gaussian/g16/l202.exe)
 Symmetry turned off by external request.
 Stoichiometry    C50H52CuO2(2)
 Framework group  C1[X(C50H52CuO2)]
 Deg. of freedom   309
 Full point group                 C1      NOp   1
                          Input orientation:                          
 ---------------------------------------------------------------------
 Center     Atomic      Atomic             Coordinates (Angstroms)
 Number     Number       Type             X           Y           Z
 ---------------------------------------------------------------------
      1          6           0       15.620905   -2.563328    1.965689
      2          6           0       14.120384   -2.303038    2.070711
      3          6           0       13.530623   -1.905318    0.707931
      4          6           0       11.989409   -1.781727    0.734912
      5          6           0       11.527146   -0.562816    1.566273
      6          6           0        9.999812   -0.419430    1.545679
      7          6           0        9.472840   -0.320239    0.102188
      8          6           0        7.963296   -0.164231    0.081230
      9          6           0        7.118497   -1.168532    0.592584
     10          6           0        5.731213   -1.002452    0.580639
     11          6           0        5.163806    0.173032    0.067053
     12          6           0        3.694427    0.348236    0.048787
     13          6           0        3.053872    0.389314   -1.195389
     14          6           0        1.668591    0.501063   -1.284694
     15          8           0        1.067682    0.500400   -2.539770
     16          6           0        0.884067    0.596919   -0.125178
     17          6           0       -0.592014    0.726029   -0.272272
     18          6           0       -1.316505   -0.378712   -0.743350
     19          8           0       -0.652082   -1.534006   -1.143610
     20          6           0       -2.707119   -0.339862   -0.803510
     21          6           0       -3.414850    0.801949   -0.407443
     22          6           0       -4.894422    0.723614   -0.369023
     23          6           0       -5.621994    0.426072   -1.530603
     24          6           0       -7.012953    0.298440   -1.478808
     25          6           0       -7.700148    0.452761   -0.259712
     26          6           0       -9.207309    0.294986   -0.180393
     27          6           0       -9.927394    1.344737   -1.044887
     28          6           0      -11.448637    1.192316   -0.924328
     29          6           0      -11.909237   -0.228340   -1.317660
     30          6           0      -13.442081   -0.341614   -1.153724
     31          6           0      -14.017743   -1.614587   -1.793064
     32          6           0      -15.542890   -1.615478   -1.737254
     33          6           0      -11.165002   -1.285224   -0.469083
     34          6           0       -9.643499   -1.125360   -0.584532
     35          6           0       -6.964813    0.746091    0.901745
     36          6           0       -5.575052    0.873986    0.848455
     37          6           0       -2.701386    1.962559   -0.013008
     38          6           0       -3.368664    3.169088    0.292937
     39          6           0       -2.651756    4.302531    0.676335
     40          6           0       -1.262555    4.260962    0.752576
     41          6           0       -0.577758    3.087527    0.439715
     42          6           0       -1.278517    1.923511    0.055328
     43          6           0        1.507366    0.543669    1.149143
     44          6           0        0.748749    0.584188    2.340105
[...]
 0000018,0.00000044,0.00000020,-0.00000029,0.00000014,0.00000016,0.0000
 0002,0.00000019,-0.00000120,0.00000045,-0.00000064,-0.00000020,-0.0000
 0019,0.00000035,0.00000007,0.00000002,-0.00000010,-0.00000044,0.000000
 35,-0.00000033,-0.00000006,-0.00000012,0.00000013,0.00000001,-0.000000
 09,0.,0.00000005,0.00000028,-0.00000026,-0.00000015,0.00000033,-0.0000
 0014,-0.00000004,0.00000010,0.00000014,-0.00000040,-0.00000036,-0.0000
 0006,-0.00000083,-0.00000057,-0.00000015,-0.00000028,0.00000030,0.0000
 0018,0.00000019,0.00000002,0.00000034,0.00000005,0.00000049,-0.0000003
 5,-0.00000096,0.00000029,0.00000089,0.00000107,-0.00000007,-0.00000168
 ,-0.00000128,0.00000102,0.00000001,-0.00000085,0.00000140,0.00000067,0
 .00000163,0.00000179,0.00000135,0.00000180,0.00000208,0.00000212,0.000
 00073,-0.00000031,-0.00000389,-0.00000025,-0.00000069,-0.00000051,0.00
 000097,-0.00000122,-0.00000094,-0.00000120,-0.00000259,-0.00000651,-0.
 00001074,0.00000792,0.00000015,-0.00000199,0.00001709,0.00000646,0.000
 25897,0.00117984,-0.00033983,-0.00044358,0.00027937,-0.00027556,-0.009
 03288,-0.01879676,0.01320061,0.07523842,0.21426379,-0.00002260,-0.0000
 7578,0.00001442,-0.00008315,-0.00024450,0.00000590,0.00185909,0.000456
 31,0.00086686,0.00998478,0.02544010,-0.01858533,0.00049329,0.00178009,
 0.00143606,-0.00007098,-0.00017803,-0.00013822,-0.00011180,0.00067822,
 -0.00008484,0.00000772,-0.00018521,0.00013233,-0.00006042,-0.00000213,
 -0.00002881,-0.00003519,-0.00001719,0.00000233,-0.00000595,-0.00001729
 ,0.00000991,0.00000873,-0.00000237,-0.00000379,-0.00000098,-0.00000156
 ,0.00000143,0.00000877,0.00000326,-0.00001058,0.00000076,-0.00000115,0
 .00000946,-0.00001039,0.00000109,0.00000666,-0.00000735,-0.00000416,-0
 .00000293,0.00000377,0.00000928,0.00000232,0.00000080,-0.00001198,-0.0
 0000270,0.00000306,-0.00000054,0.00000104,0.00000187,0.00000493,0.0000
 0132,0.00000073,-0.00000020,-0.00000004,-0.00000036,0.00000021,0.00000
 034,-0.00000028,-0.00000009,0.00000031,0.00000028,0.,0.00000002,0.0000
 0024,-0.00000004,-0.00000027,-0.00000016,-0.00000016,0.00000016,0.0000
 0009,0.00000009,-0.00000012,-0.00000002,0.00000007,0.00000009,0.000000
 06,-0.00000004,-0.00000006,-0.00000004,0.00000011,0.00000003,0.0000000
 3,-0.00000004,-0.00000004,0.00000008,-0.00000014,-0.00000008,-0.000000
 22,0.00000040,-0.00000002,-0.00000017,-0.00000011,-0.00000025,-0.00000
 043,-0.00000047,-0.00000024,-0.00000177,-0.00000353,-0.00000100,0.0000
 0118,0.00000387,0.00000141,-0.00000284,-0.00000101,-0.00000032,0.00000
 106,-0.00000091,-0.00000025,-0.00000084,0.00000081,0.00000038,0.000000
 60,-0.00000039,0.00000044,0.00000060,-0.00000163,0.00000026,-0.0000017
 6,-0.00000001,-0.00000116,0.00000099,-0.00000052,0.00000244,-0.0000046
 1,-0.00000086,-0.00000017,0.00000184,0.00000008,-0.00000389,-0.0000045
 1,0.00000059,0.00000274,0.00001750,-0.00000285,0.00000346,-0.00000167,
 0.00003722,-0.00004868,-0.00047770,-0.00083897,0.00010882,0.04497477,0
 .09646632,-0.11231940,0.00000121,0.00000352,-0.00000036,-0.00005837,-0
 .00000496,0.00000088,-0.00000206,0.00000478,-0.00000797,0.00001333,0.0
 0000464,-0.00000868,0.00005885,-0.00017397,0.00026263,-0.00013332,-0.0
 0005497,0.00000452,-0.00086240,-0.00056649,0.00029950,-0.00245472,-0.0
 0035640,-0.00556216,-0.00010222,-0.00106471,-0.00003376,-0.00032519,-0
 .00025591,0.00042918,0.00007760,-0.00005001,0.00000465,-0.00021516,-0.
 00002936,0.00018670,0.00028733,-0.00040591,-0.00003928,-0.00000668,0.0
 0000605,0.00000986,-0.00000998,-0.00000105,-0.00000007,0.00000054,0.00
 000072,0.00000109,0.00000005,-0.00000027,-0.00000018,0.00000016,0.0000
 0011,0.00000014,-0.00000015,0.,-0.00000017,-0.00000010,0.00000002,0.00
 000009,0.,-0.00000015,-0.00000002,0.00000003,0.00000004,0.00000006,-0.
 00000010,0.,-0.00000002,-0.00000004,-0.00000001,0.00000004,0.,0.,0.,-0
 .00000002,-0.00000001,0.,-0.00000002,0.,0.00000001,0.,0.,-0.00000001,0
 .00000002,-0.00000002,0.00000002,0.,0.,0.00000002,0.,0.00000004,0.0000
 0002,-0.00000008,-0.00000006,-0.00000003,-0.00000017,-0.00000015,-0.00
 000005,-0.00000004,0.00000007,0.00000005,0.00000002,0.00000002,0.00000
 003,0.00000006,-0.00000001,0.00000006,-0.00000018,0.00000014,0.0000001
 1,0.00000018,0.00000014,-0.00000028,-0.00000016,0.00000022,-0.00000007
 ,0.00000003,0.00000016,-0.00000004,0.00000020,-0.00000002,-0.00000016,
 0.00000026,0.00000069,0.00000016,0.,0.00000018,-0.00000044,-0.00000044
 ,0.00000034,0.00000011,-0.00000009,0.00000085,0.00000086,-0.00000028,0
 .00000071,-0.00000283,-0.00000010,0.00000191,0.00000017,0.00001054,-0.
 00001465,0.00001602,-0.00046811,0.00008442,0.00104529,0.00020388,-0.00
 055215,0.00061819,-0.00600653,-0.01106367,0.00831848,-0.04647299,-0.10
 880618,0.12307901,0.00000226,0.00000016,-0.00000224,-0.00000124,-0.000
 00287,0.00000179,0.00000437,0.00000234,-0.00000088,-0.00000190,-0.0000
 1034,-0.00000247,0.00000838,0.00000124,-0.00001087,-0.00001815,0.00000
 462,0.00002133,0.00002046,0.00001962,-0.00001201,0.00001757,-0.0000255
 5,0.00000418,-0.00002597,-0.00003517,0.00001477,-0.00003608,0.00000516
 ,0.00015518,0.00001926,-0.00005118,0.00013412,0.00054948,0.00033507,-0
 .00396739,0.00359325,0.00015944,0.00092496,-0.00996272,-0.00424058,-0.
 02388084,-0.02464217,-0.04691628,0.00870275,-0.00202135,-0.00006908,0.
 00700653,-0.00176628,-0.00667011,-0.00271639,-0.01146909,0.02068061,0.
 01411914,-0.02572562,-0.02804088,0.03944311,0.00379902,-0.00091004,-0.
 00039825,0.00048271,0.00399210,0.00108503,0.00006519,-0.00018633,0.000
 00569,-0.00008587,0.00008873,0.00023683,-0.00006042,-0.00002459,-0.000
 03391,0.00002720,0.00000924,0.00000302,0.00001321,-0.00001800,-0.00003
 505,-0.00001776,-0.00001106,0.00002926,0.00000563,0.00000597,-0.000010
 90,-0.00000305,0.00000567,0.00001299,0.00000310,-0.00000407,-0.0000027
 1,-0.00000307,0.00000474,0.00000564,0.00000098,-0.00000283,-0.00000156
 ,0.00000361,-0.00001595,-0.00000659,-0.00002543,0.00003538,0.00001418,
 -0.00000928,0.00000852,-0.00007486,-0.00003823,-0.00011496,-0.00003546
 ,-0.00021967,-0.00311818,-0.00094441,0.00058428,0.00334330,0.00107850,
 -0.00211912,-0.00102015,-0.00038645,0.00055996,-0.00099788,-0.00029809
 ,-0.00050290,0.00015498,-0.00001954,-0.00107689,0.00094406,0.00078352,
 -0.00093574,-0.00061823,-0.00107130,-0.00047242,0.00007921,-0.00019331
 ,0.00053535,0.00003804,0.00103330,-0.00209282,-0.00002501,0.00100428,0
 .00064347,0.00020783,-0.00338656,-0.00032266,-0.00001851,0.00316941,-0
 .00003260,0.00009093,-0.00006544,-0.00007473,0.00002984,0.00000988,-0.
 00002746,-0.00002942,-0.00003158,0.00000445,0.00001627,0.00000850,-0.0
 0000152,0.00000184,0.00000163,-0.00000070,-0.00000090,0.00000068,-0.00
 000188,0.00000005,-0.00000137,0.00000123,0.00000332,0.00000243,0.00000
 013,-0.00000106,-0.00000052,-0.00000500,0.00000457,0.00000249,-0.00000
 058,-0.00000161,-0.00000045,0.00000076,0.00000034,0.00000018,-0.000004
 79,-0.00000110,0.00000344,-0.00000769,0.00000194,-0.00000207,0.0000040
 3,0.00000970,0.00000650,0.00000326,-0.00000762,0.00000112,-0.00001133,
 -0.00000344,0.00000596,-0.00001808,0.00000367,-0.00002466,0.00003170,-
 0.00005564,-0.00002799,-0.00024655,-0.00021243,0.00013961,-0.00018545,
 -0.00018882,0.00010113,0.00000022,0.00000242,-0.00004466,-0.00003816,-
 0.00000191,-0.00001157,-0.00000249,0.00000013,-0.00000068,0.00000272,-
 0.00000820,0.00000091,0.00000190,-0.00000161,-0.00000415,-0.00001133,0
 .00000259,-0.00000268,0.00000007,-0.00000152,-0.00000045,0.00000090,-0
 .00000160,-0.00000490,-0.00000223,0.00000128,-0.00000062,0.00000035,-0
 .00000090,-0.00000117,0.00000045,-0.00000095,-0.00000260,0.00000057,0.
 00000066,-0.00000041,-0.00000065,0.00000140,0.00000023,0.00000044,0.00
 000059,-0.00000034,-0.00000321,-0.00000220,-0.00000036,-0.00001262,-0.
 00000654,-0.00000063,0.00000049,0.00000207,-0.00000086,0.00000127,-0.0
 0000008,-0.00000644,0.00000253,0.00000159,0.00000294,-0.00001420,0.000
 01399,0.00000247,0.00003558,0.00000237,-0.00006632,-0.00002124,0.00005
 597,-0.00001673,-0.00001924,0.00001524,-0.00001513,0.00007630,0.000046
 34,0.00002089,0.00007985,0.00019325,0.00007771,0.00008168,-0.00001480,
 -0.00020642,0.00007642,-0.00000356,-0.00005050,-0.00001871,-0.00004055
 ,-0.00001279,-0.00001243,0.00000216,-0.00005354,0.00001091,-0.00001770
 ,-0.00001116,-0.00002714,-0.00001047,0.00000451,0.00000111,-0.00000005
 ,-0.00000502,0.00000240,-0.00000635,0.00001145,-0.00001589,0.00000927,
 0.00000314,-0.00000079,-0.00000357,-0.00000104,0.07311414,-0.00000072,
 0.00000075,0.00000161,0.00000209,0.00000451,-0.00000253,-0.00000208,0.
 00000133,0.00000119,0.00000268,0.00001027,-0.00000181,-0.00000364,0.00
 000215,0.00000923,0.00001916,-0.00000028,-0.00002109,-0.00001977,-0.00
 000952,0.00001841,0.00000179,-0.00000131,-0.00000424,0.00003598,-0.000
 06936,-0.00000770,0.00015334,0.00009672,-0.00005571,-0.00009194,-0.000
 11048,0.00035045,0.00087749,0.00000615,-0.00343535,0.00513379,0.000322
 79,0.00461101,-0.01533349,-0.00631979,-0.02950204,-0.04012620,-0.07256
 258,0.00328649,-0.00018511,-0.00162925,0.00730201,0.00072614,-0.000315
 53,-0.00353292,0.00650718,-0.00034554,-0.00725606,-0.01834523,-0.00996
 486,0.02522675,0.00051464,-0.00043988,-0.00002467,0.00010156,-0.000463
 97,-0.00032191,0.00004522,-0.00000025,-0.00002369,-0.00002337,0.000014
 40,-0.00000202,-0.00002675,-0.00002186,0.00006163,0.00001989,0.0000015
 6,0.00000078,0.00002245,-0.00000157,-0.00002147,-0.00001693,-0.0000202
 3,0.00001386,0.00000889,0.00000834,-0.00001047,-0.00000222,0.00000594,
 0.00000849,0.00000532,-0.00000444,-0.00000403,-0.00000364,0.00000767,0
 .00000415,0.00000202,-0.00000354,-0.00000234,0.00000599,-0.00001355,-0
 .00000551,-0.00002208,0.00003637,0.00000098,-0.00003231,0.00000356,-0.
 00001485,-0.00003990,-0.00003626,-0.00005190,-0.00019213,0.00018804,-0
 .00000183,-0.00002159,-0.00049240,-0.00006594,0.00036517,0.00008804,0.
 00004178,-0.00006711,0.00025243,-0.00008790,0.00013103,-0.00019357,0.0
 0020564,0.00015651,-0.00079319,-0.00013972,-0.00231250,-0.00002738,-0.
 00205074,-0.00021780,0.00010376,0.00052778,0.00014508,-0.00024229,0.00
 069868,-0.00135524,-0.00005689,0.00097498,0.00020848,0.00020575,-0.002
 62500,0.00055667,-0.00021223,0.00252440,0.00003424,0.00005768,0.000005
 41,-0.00001156,-0.00005008,0.00000455,0.00002076,0.00002447,0.00001321
 ,-0.00000251,-0.00000613,-0.00000565,0.00000121,-0.00000134,-0.0000016
 9,-0.00000067,-0.00000095,0.00000068,0.00000140,0.00000054,0.00000067,
 -0.00000041,-0.00000224,-0.00000227,-0.00000117,-0.00000180,0.00000198
 ,0.00000382,-0.00000325,-0.00000242,-0.00000111,-0.00000175,0.00000162
 ,-0.00000156,-0.00000473,0.00000308,-0.00000045,-0.00000274,0.00000015
 ,0.00000798,-0.00000098,0.00000207,-0.00000097,-0.00000326,-0.00000643
 ,-0.00000234,-0.00000259,0.00000232,0.00000155,-0.00000459,-0.00000011
 ,0.00003424,-0.00001247,0.00001200,-0.00000441,-0.00001339,0.00004811,
 -0.00041304,0.00013375,-0.00015115,-0.00007758,-0.00001294,0.00004236,
 0.00003064,0.00004106,0.00002043,-0.00001438,0.00000151,-0.00001670,-0
 .00001146,-0.00000004,0.00000791,0.00000190,-0.00001035,-0.00000146,0.
 00000327,0.00000451,0.00000577,-0.00001081,0.00000090,-0.00000379,-0.0
 0000429,-0.00000199,0.00000407,0.00000098,0.00000032,-0.00000064,-0.00
 000185,0.00000004,-0.00000061,-0.00000116,-0.00000096,0.00000077,0.000
 00016,-0.00000005,-0.00000169,0.00000119,-0.00000043,0.00000075,-0.000
 00033,0.00000116,0.00000070,-0.00000018,0.00000167,0.00000076,-0.00000
 557,-0.00000406,-0.00000149,-0.00001507,-0.00001061,-0.00000261,-0.000
 00242,0.00000404,0.00000249,0.00000211,0.00000358,-0.00000027,0.000003
 85,0.00000021,0.00000637,-0.00001854,0.00000689,0.00001280,0.00000949,
 0.00000769,-0.00000434,-0.00000500,-0.00000654,0.00001923,-0.00000183,
 0.00001093,0.00002591,-0.00000311,0.00001485,-0.00002615,0.00001037,-0
 .00001478,0.00008893,-0.00002159,0.00015828,-0.00000410,0.00004264,0.0
 0001865,0.00003564,-0.00001746,0.00002686,0.00002568,0.00002026,0.0000
 1633,-0.00001914,-0.00003118,-0.00004975,0.00002059,0.00000509,0.00000
 409,-0.00000543,-0.00000144,-0.00000523,0.00000922,-0.00000167,0.00000
 836,-0.00000513,0.00001324,-0.00000728,-0.00000335,-0.00000274,-0.0000
 0204,0.00000218,0.06313265,0.09268244,-0.00000374,-0.00000062,0.000004
 96,0.00000270,0.00000244,-0.00000501,-0.00000772,-0.00000305,0.0000056
 8,0.00000334,0.00000976,-0.00000158,-0.00001004,-0.00000209,0.00001785
 ,0.00002601,-0.00001291,-0.00003265,-0.00003616,-0.00002061,0.00002156
 ,-0.00001479,0.00000961,-0.00001398,0.00002187,0.00000701,0.00000174,0
 .00011826,0.00003313,-0.00001059,-0.00017097,-0.00007365,0.00012565,0.
 00032887,-0.00007850,-0.00212001,0.00173458,0.00031683,0.00153233,-0.0
 1384479,-0.01014300,-0.01731552,0.00125125,-0.00304588,0.00336627,-0.0
 0073537,-0.00405598,0.00136925,0.00036450,0.00772820,-0.00006268,0.020
 25540,-0.02586428,-0.02187994,0.03642987,0.03106939,-0.05709923,-0.005
 46020,0.00412515,0.00217916,-0.00081657,-0.00363116,-0.00150699,0.0001
 0666,0.00035898,0.00000773,-0.00013298,0.00011478,0.00010620,-0.000004
 99,-0.00003052,0.00003674,0.00001506,-0.00000054,0.00001305,0.00002573
 ,-0.00000161,-0.00003373,-0.00002886,-0.00002965,0.00003531,0.00000651
 ,0.00001128,-0.00001570,-0.00000459,0.00000136,0.00002056,0.00000539,-
 0.00000290,-0.00000345,-0.00000349,0.00000456,0.00001000,0.00000219,-0
 .00000371,-0.00000165,0.00000836,-0.00001319,-0.00000683,-0.00002487,0
 .00003130,0.00001845,-0.00003987,-0.00002513,-0.00000264,-0.00012759,-
 0.00001496,-0.00011426,-0.00074745,0.00270891,0.00063399,-0.00015525,-
 0.00289303,-0.00085000,0.00157091,0.00106858,0.00033426,-0.00017968,0.
 00091255,-0.00010339,0.00029346,0.00040241,0.00040766,0.00258991,-0.00
 241938,-0.00075362,-0.00126189,0.00011838,-0.00176097,-0.00023353,0.00
 034457,0.00013139,0.00015712,-0.00028218,0.00057695,-0.00104809,-0.000
 02543,0.00056127,0.00012755,0.00021501,-0.00177397,0.00045810,-0.00014
 563,0.00134506,0.00007985,-0.00001547,0.00005620,0.00002358,-0.0000464
 0,-0.00001803,0.00002744,0.00002320,0.00003450,-0.00001173,-0.00001623
 ,-0.00000589,0.00000162,-0.00000248,-0.00000225,0.00000138,0.00000218,
 -0.00000187,0.00000426,-0.00000063,0.00000308,-0.00000151,-0.00000337,
 -0.00000241,0.00000042,0.00000179,-0.00000009,0.00000530,-0.00000582,-
 0.00000253,0.00000191,0.00000379,0.00000019,-0.00000059,0.00000150,-0.
 00000223,0.00000596,0.00000297,-0.00000598,0.00001350,-0.00000263,0.00
 000692,-0.00000327,-0.00000386,-0.00000605,-0.00000251,0.00000729,-0.0
 0000402,0.00001526,0.00000974,-0.00000580,0.00002052,-0.00001805,0.000
 01007,-0.00001601,0.00001004,-0.00001775,-0.00009553,0.00009766,-0.000
 05511,0.00041663,-0.00018170,0.00008782,0.00004224,0.00000237,0.000047
 26,-0.00004038,-0.00001270,-0.00001361,-0.00000978,0.00000121,0.000002
 02,0.00000316,-0.00000078,0.00000406,0.00000296,-0.00000311,-0.0000042
 9,-0.00001932,0.00000633,-0.00000676,-0.00000027,-0.00000308,0.0000006
 0,0.00000181,-0.00000131,-0.00000685,-0.00000604,0.00000406,-0.0000029
 7,0.00000043,-0.00000212,-0.00000150,0.00000126,-0.00000168,-0.0000034
 8,0.00000081,0.00000337,-0.00000244,-0.00000193,0.00000332,-0.00000071
 ,0.00000052,0.00000019,-0.00000070,-0.00000431,-0.00000320,0.00000018,
 -0.00001350,-0.00000681,-0.00000052,-0.00000203,0.00000217,-0.00000114
 ,0.00000428,-0.00000040,-0.00000125,0.00000283,0.00000907,-0.00000627,
 -0.00002675,-0.00000435,0.00001425,0.00000599,0.,0.00000065,-0.0000298
 1,-0.00003945,0.00006050,0.00001295,0.00001157,0.00009473,-0.00004815,
 0.00003635,0.00002318,0.00002509,-0.00007443,0.00021182,-0.00002005,0.
 00016510,0.00001081,0.00002516,-0.00002565,0.00002270,-0.00000752,0.00
 002910,0.00003337,0.00002041,0.00002286,-0.00000829,-0.00003346,-0.000
 02042,0.00002161,0.00003090,0.00001638,-0.00000792,-0.00000227,0.00000
 667,-0.00000385,-0.00000587,0.00000411,-0.00000095,0.00001807,-0.00001
 266,-0.00000242,0.00000600,0.00000847,0.00000086,-0.04123004,0.0032413
 2,0.09206388\\-0.00000204,0.00000063,0.00000016,0.00000130,-0.00000100
 ,-0.00000431,-0.00000216,-0.00000019,0.00000239,0.00000626,-0.00000067
 ,0.00000506,-0.00000615,0.00000134,-0.00000226,0.00000415,-0.00000291,
 -0.00000243,-0.00000246,0.00000417,0.00000212,-0.00000257,0.00000291,-
 0.00000341,-0.00000419,-0.00000448,0.00000283,0.00000156,-0.00000318,0
 .00000303,0.00000343,0.00000480,-0.00000482,0.00000171,-0.00000104,-0.
 00000266,0.00001222,0.00000230,0.00000561,-0.00001874,-0.00000288,-0.0
 0001916,0.00001913,0.00002355,0.00000104,-0.00000063,-0.00000471,0.000
 01916,0.00000559,0.00002878,0.00000626,0.00000567,-0.00002755,-0.00000
 538,-0.00002066,0.00000742,0.00001583,-0.00000627,0.00000099,0.0000018
 9,-0.00000744,-0.00000467,-0.00000435,0.00000195,0.00000304,0.00000776
 ,0.00000313,-0.00000206,-0.00000282,-0.00000298,0.00000135,-0.00000100
 ,0.00000172,-0.00000162,-0.00000323,0.00000177,0.00000417,0.00000263,-
 0.00000193,-0.00000263,-0.00000102,0.00000569,0.00000381,0.00000216,-0
 .00000681,-0.00000511,-0.00000154,0.00000273,-0.00000233,-0.00000143,-
 0.00000085,0.00000487,0.00000048,0.00000194,-0.00000010,0.00000061,0.0
 0000555,0.00000265,0.00000138,-0.00000478,-0.00000064,-0.00000132,-0.0
 0000212,-0.00000032,0.00000300,0.00000053,-0.00000113,-0.00000267,0.00
 001140,0.00000908,0.00000230,-0.00000419,-0.00001036,-0.00000290,0.000
 00492,0.00000401,0.00000080,-0.00000142,0.00000025,-0.00000014,0.00000
 734,0.00000369,0.00000272,-0.00001006,-0.00001256,-0.00000801,0.000012
 49,-0.00000219,-0.00000688,-0.00000652,0.00000030,-0.00000272,0.000004
 52,-0.00000027,0.00000230,-0.00000596,0.00000030,0.00000368,0.00000408
 ,-0.00000020,-0.00001418,-0.00001160,0.00000021,0.00001123,-0.00000855
 ,-0.00000139,0.00000153,0.00000848,-0.00000120,-0.00000035,0.00000293,
 -0.00000250,-0.00000002,-0.00000508,0.00000133,-0.00000299,0.00000038,
 -0.00000040,-0.00000012,0.00000013,0.00000029,0.00000036,0.00000043,-0
 .00000072,0.00000050,0.00000072,0.00000073,0.00000016,-0.00000003,-0.0
 0000053,0.00000197,-0.00000019,-0.00000091,-0.00000039,0.00000112,0.00
 000037,-0.00000026,-0.00000096,0.00000006,-0.00000020,0.00000111,0.000
 00008,0.00000029,-0.00000030,-0.00000038,0.00000087,-0.00000069,0.0000
 0081,0.00000029,0.00000059,-0.00000024,0.00000092,0.00000078,-0.000000
 15,0.00000100,0.00000090,0.00000214,-0.00000008,-0.00000036,0.00000111
 ,-0.00000018,-0.00000307,0.00000184,-0.00000051,0.00000237,-0.00000035
 ,0.00000125,-0.00000123,-0.00000013,0.00000089,0.00000094,-0.00000034,
 0.00000074,-0.00000065,0.00000063,-0.00000101,0.00000035,0.00000119,-0
 .00000009,-0.00000039,0.00000069,-0.00000012,-0.00000052,0.00000005,-0
 .00000049,-0.00000111,-0.00000060,0.00000006,0.00000097,0.00000017,0.0
 0000017,0.00000020,0.00000092,-0.00000070,-0.00000104,0.00000035,0.000
 00057,0.,-0.00000156,-0.00000078,0.00000018,-0.00000082,0.00000116,-0.
 00000029,0.00000045,-0.00000019,-0.00000018,-0.00000012,0.00000034,-0.
 00000043,-0.00000014,-0.00000051,-0.00000063,-0.00000123,-0.00000070,-
 0.00000111,-0.00000043,0.00000016,0.00000056,0.00000021,-0.00000040,0.
 00000065,-0.00000008,0.00000072,0.00000075,0.00000010,-0.00000107,-0.0
 0000151,-0.00000149,0.00000030,0.00000281,0.00000347,-0.00000089,0.000
 00098,-0.00000002,0.00000022,-0.00000179,0.00000057,-0.00000007,-0.000
 00091,-0.00000043,0.00000034,0.00000038,0.00000138,0.00000062,0.000001
 55,0.00000014,0.00000071,-0.00000098,-0.00000038,0.00000004,0.00000024
 ,-0.00000082,0.00000180,0.00000192,-0.00000038,0.00000083,-0.00000120,
 -0.00000083,0.00000035,-0.00000117,-0.00000004,0.00000041,0.00000004,-
 0.00000020,-0.00000070,0.00000048,-0.00000078,0.00000013,0.00000085,0.
 00000017,0.00000055,0.00000236,-0.00001947,-0.00001525\\\@
 The archive entry for this job was punched.


 MEMORIES ARE LIKE AN ENGLISH GRAMMER LESSON -
 PRESENT TENSE, AND PAST PERFECT.
 Job cpu time:       1 days 16 hours 11 minutes  8.2 seconds.
 Elapsed time:       0 days  1 hours 15 minutes 40.2 seconds.
 File lengths (MBytes):  RWF=  16697 Int=      0 D2E=      0 Chk=     89 Scr=      1
 Normal termination of Gaussian 16 at Wed Mar 26 22:44:19 2025.
