 Entering Gaussian System, Link 0=g16
 Initial command:
 /public/software/apps/Gaussian/g16/l1.exe "/tmp/Gau-86883.inp" -scrdir="/tmp/"
 Entering Link 1 = /public/software/apps/Gaussian/g16/l1.exe PID=     86884.
  
 Copyright (c) 1988-2019, Gaussian, Inc.  All Rights Reserved.
  
 This is part of the Gaussian(R) 16 program.  It is based on
 the Gaussian(R) 09 system (copyright 2009, Gaussian, Inc.),
 the Gaussian(R) 03 system (copyright 2003, Gaussian, Inc.),
 the Gaussian(R) 98 system (copyright 1998, Gaussian, Inc.),
 the Gaussian(R) 94 system (copyright 1995, Gaussian, Inc.),
 the Gaussian 92(TM) system (copyright 1992, Gaussian, Inc.),
 the Gaussian 90(TM) system (copyright 1990, Gaussian, Inc.),
 the Gaussian 88(TM) system (copyright 1988, Gaussian, Inc.),
 the Gaussian 86(TM) system (copyright 1986, Carnegie Mellon
 University), and the Gaussian 82(TM) system (copyright 1983,
 Carnegie Mellon University). Gaussian is a federally registered
 trademark of Gaussian, Inc.
  
 This software contains proprietary and confidential information,
 including trade secrets, belonging to Gaussian, Inc.
  
 This software is provided under written license and may be
 used, copied, transmitted, or stored only in accord with that
 written license.
  
 The following legend is applicable only to US Government
 contracts under FAR:
  
                    RESTRICTED RIGHTS LEGEND
  
 Use, reproduction and disclosure by the US Government is
 subject to restrictions as set forth in subparagraphs (a)
 and (c) of the Commercial Computer Software - Restricted
 Rights clause in FAR 52.227-19.
  
 Gaussian, Inc.
 340 Quinnipiac St., Bldg. 40, Wallingford CT 06492
  
  
 ---------------------------------------------------------------
 Warning -- This program may not be used in any manner that
 competes with the business of Gaussian, Inc. or will provide
 assistance to any competitor of Gaussian, Inc.  The licensee
 of this program is prohibited from giving any competitor of
 Gaussian, Inc. access to this program.  By using this program,
 the user acknowledges that Gaussian, Inc. is engaged in the
 business of creating and licensing software in the field of
 computational chemistry and represents and warrants to the
 licensee that it is not a competitor of Gaussian, Inc. and that
 it will not use this program in any manner prohibited above.
 ---------------------------------------------------------------
  

 Cite this work as:
 Gaussian 16, Revision C.01,
 M. J. Frisch, G. W. Trucks, H. B. Schlegel, G. E. Scuseria, 
 M. A. Robb, J. R. Cheeseman, G. Scalmani, V. Barone, 
 G. A. Petersson, H. Nakatsuji, X. Li, M. Caricato, A. V. Marenich, 
 J. Bloino, B. G. Janesko, R. Gomperts, B. Mennucci, H. P. Hratchian, 
 J. V. Ortiz, A. F. Izmaylov, J. L. Sonnenberg, D. Williams-Young, 
 F. Ding, F. Lipparini, F. Egidi, J. Goings, B. Peng, A. Petrone, 
 T. Henderson, D. Ranasinghe, V. G. Zakrzewski, J. Gao, N. Rega, 
 G. Zheng, W. Liang, M. Hada, M. Ehara, K. Toyota, R. Fukuda, 
 J. Hasegawa, M. Ishida, T. Nakajima, Y. Honda, O. Kitao, H. Nakai, 
 T. Vreven, K. Throssell, J. A. Montgomery, Jr., J. E. Peralta, 
 F. Ogliaro, M. J. Bearpark, J. J. Heyd, E. N. Brothers, K. N. Kudin, 
 V. N. Staroverov, T. A. Keith, R. Kobayashi, J. Normand, 
 K. Raghavachari, A. P. Rendell, J. C. Burant, S. S. Iyengar, 
 J. Tomasi, M. Cossi, J. M. Millam, M. Klene, C. Adamo, R. Cammi, 
 J. W. Ochterski, R. L. Martin, K. Morokuma, O. Farkas, 
 J. B. Foresman, and D. J. Fox, Gaussian, Inc., Wallingford CT, 2019.
 
 ******************************************
 Gaussian 16:  ES64L-G16RevC.01  3-Jul-2019
                26-Mar-2025 
 ******************************************
 %nprocshared=32
 Will use up to   32 processors via shared memory.
 %mem=100GB
 ------------------------------------------
 #p opt freq b3lyp/def2svpp em=gd3bj nosymm
 ------------------------------------------
 1/18=20,19=15,26=3,38=1/1,3;
 2/9=110,12=2,15=1,17=6,18=5,40=1/2;
 3/5=43,7=202,11=2,25=1,30=1,71=1,74=-5,124=41/1,2,3;
 4//1;
 5/5=2,38=5/2;
 6/7=2,8=2,9=2,10=2,28=1/1;
 7/30=1/1,2,3,16;
 1/18=20,19=15,26=3/3(2);
 2/9=110,15=1/2;
 99//99;
 2/9=110,15=1/2;
 3/5=43,7=202,11=2,25=1,30=1,71=1,74=-5,124=41/1,2,3;
 4/5=5,16=3,69=1/1;
 5/5=2,38=5/2;
 7/30=1/1,2,3,16;
 1/18=20,19=15,26=3/3(-5);
 2/9=110,15=1/2;
 6/7=2,8=2,9=2,10=2,19=2,28=1/1;
 99/9=1/99;
 Leave Link    1 at Wed Mar 26 20:55:57 2025, MaxMem= 13421772800 cpu:               1.7 elap:               0.1
 (Enter /public/software/apps/Gaussian/g16/l101.exe)
 ------------------
 $$$$Title####0????
 ------------------
 Symbolic Z-matrix:
 Charge =  0 Multiplicity = 2
 C                     9.58086  -0.64342   3.35464 
 O                     10.65728  -0.31974   2.50328 
 C                     10.32084   0.77181   1.66527 
 C                     10.31217   0.31833   0.205 
 O                     9.34064  -0.7064   -0.00815 
 C                     7.95046  -0.51539  -0.06928 
 C                     7.13245  -1.64911  -0.14152 
 C                     5.74224  -1.52118  -0.20022 
 C                     5.14925  -0.25004  -0.20087 
 C                     3.67585  -0.1106   -0.2408 
 C                     3.03952   0.43514   0.88034 
 C                     1.65382   0.56171   0.92745 
 O                     1.05975   1.08469   2.07178 
 C                     0.8626    0.15957  -0.15928 
 C                    -0.61196   0.34733  -0.07177 
 C                    -1.33372  -0.43992   0.83817 
 O                    -0.67097  -1.34061   1.66609 
 C                    -2.71899  -0.33159   0.92555 
 C                    -3.42403   0.56855   0.11754 
 C                    -4.90106   0.58582   0.22381 
 C                    -5.51774   0.93101   1.43513 
 C                    -6.91148   0.92779   1.54436 
 C                    -7.70965   0.56535   0.44159 
 O                    -9.11302   0.54037   0.49286 
 C                    -9.90554   0.72509   1.66637 
 C                    -9.85836  -0.51399   2.56088 
 O                    -10.37825  -1.62964   1.85938 
 C                    -9.38386  -2.61354   1.68263 
 C                    -7.08835   0.21559  -0.76307 
 C                    -5.69533   0.21795  -0.87236 
 C                    -2.71305   1.41846  -0.76764 
 C                    -3.37578   2.39838  -1.5389 
 C                    -2.66103   3.2359   -2.39449 
 C                    -1.277     3.12576  -2.48808 
 C                    -0.59537   2.17863  -1.72532 
 C                    -1.29526   1.30879  -0.8605 
 C                     1.48019  -0.41727  -1.29918 
 C                     0.71514  -0.88468  -2.39029 
 C                     1.3357   -1.4156   -3.52016 
 C                     2.72367  -1.49194  -3.586 
 C                     3.50248  -1.05559  -2.51479 
 C                     2.89944  -0.53448  -1.34911 
 C                     5.963     0.88909  -0.12176 
 C                     7.35387   0.76079  -0.06306 
 H                     8.67539  -0.92045   2.7708 
 H                     9.86677  -1.52052   3.97052 
 H                     9.35584   0.19847   4.04634 
 H                     9.35337   1.26925   1.91363 
 H                     11.10667   1.54803   1.78067 
 H                     11.31323  -0.09391  -0.04307 
 H                     10.13494   1.17723  -0.47638 
 H                     7.57765  -2.63596  -0.14448 
 H                     5.12711  -2.41171  -0.24413 
 H                     3.62523   0.75039   1.73616 
 H                    -3.25276  -0.97031   1.61982 
 H                    -4.9182    1.21036   2.29306 
 H                    -7.35227   1.21126   2.48898 
 H                    -10.95735   0.89511   1.35283 
 H                    -9.58078   1.62935   2.22331 
 H                    -10.50846  -0.32871   3.44204 
 H                    -8.82541  -0.65357   2.95936 
 H                    -9.81607  -3.45523   1.10368 
 H                    -8.52074  -2.21377   1.10571 
 H                    -9.04484  -3.01445   2.66352 
 H                    -7.68976  -0.06751  -1.61766 
 H                    -5.23472  -0.06778  -1.81023 
 H                    -4.44616   2.53916  -1.4766 
 H                    -3.18294   3.98169  -2.9803 
 H                    -0.72729   3.78504  -3.14751 
 H                     0.48236   2.14222  -1.8124 
 H                    -0.36591  -0.84439  -2.38069 
 H                     0.73664  -1.76375  -4.35181 
 H                     3.19972  -1.89368  -4.47123 
 H                     4.57724  -1.1234   -2.6139 
 H                     5.51954   1.87739  -0.11358 
 H                     7.94998   1.66041  -0.01572 
 Cu                    0.10986  -0.27673   3.11886 
 
 ITRead=  0  0  0  0  0  0  0  0  0  0  0  0  0  0  0  0  0  0  0  0
 ITRead=  0  0  0  0  0  0  0  0  0  0  0  0  0  0  0  0  0  0  0  0
 ITRead=  0  0  0  0  0  0  0  0  0  0  0  0  0  0  0  0  0  0  0  0
 ITRead=  0  0  0  0  0  0  0  0  0  0  0  0  0  0  0  0  0
 MicOpt= -1 -1 -1 -1 -1 -1 -1 -1 -1 -1 -1 -1 -1 -1 -1 -1 -1 -1 -1 -1
 MicOpt= -1 -1 -1 -1 -1 -1 -1 -1 -1 -1 -1 -1 -1 -1 -1 -1 -1 -1 -1 -1
 MicOpt= -1 -1 -1 -1 -1 -1 -1 -1 -1 -1 -1 -1 -1 -1 -1 -1 -1 -1 -1 -1
 MicOpt= -1 -1 -1 -1 -1 -1 -1 -1 -1 -1 -1 -1 -1 -1 -1 -1 -1
 NAtoms=     77 NQM=       77 NQMF=       0 NMMI=      0 NMMIF=      0
                NMic=       0 NMicF=      0.
                    Isotopes and Nuclear Properties:
 (Nuclear quadrupole moments (NQMom) in fm**2, nuclear magnetic moments (NMagM)
  in nuclear magnetons)

  Atom         1           2           3           4           5           6           7           8           9          10
 IAtWgt=          12          16          12          12          16          12          12          12          12          12
 AtmWgt=  12.0000000  15.9949146  12.0000000  12.0000000  15.9949146  12.0000000  12.0000000  12.0000000  12.0000000  12.0000000
 NucSpn=           0           0           0           0           0           0           0           0           0           0
 AtZEff=  -0.0000000  -0.0000000  -0.0000000  -0.0000000  -0.0000000  -0.0000000  -0.0000000  -0.0000000  -0.0000000  -0.0000000
 NQMom=    0.0000000   0.0000000   0.0000000   0.0000000   0.0000000   0.0000000   0.0000000   0.0000000   0.0000000   0.0000000
 NMagM=    0.0000000   0.0000000   0.0000000   0.0000000   0.0000000   0.0000000   0.0000000   0.0000000   0.0000000   0.0000000
 AtZNuc=   6.0000000   8.0000000   6.0000000   6.0000000   8.0000000   6.0000000   6.0000000   6.0000000   6.0000000   6.0000000

  Atom        11          12          13          14          15          16          17          18          19          20
 IAtWgt=          12          12          16          12          12          12          16          12          12          12
 AtmWgt=  12.0000000  12.0000000  15.9949146  12.0000000  12.0000000  12.0000000  15.9949146  12.0000000  12.0000000  12.0000000
 NucSpn=           0           0           0           0           0           0           0           0           0           0
 AtZEff=  -0.0000000  -0.0000000  -0.0000000  -0.0000000  -0.0000000  -0.0000000  -0.0000000  -0.0000000  -0.0000000  -0.0000000
 NQMom=    0.0000000   0.0000000   0.0000000   0.0000000   0.0000000   0.0000000   0.0000000   0.0000000   0.0000000   0.0000000
 NMagM=    0.0000000   0.0000000   0.0000000   0.0000000   0.0000000   0.0000000   0.0000000   0.0000000   0.0000000   0.0000000
 AtZNuc=   6.0000000   6.0000000   8.0000000   6.0000000   6.0000000   6.0000000   8.0000000   6.0000000   6.0000000   6.0000000

  Atom        21          22          23          24          25          26          27          28          29          30
 IAtWgt=          12          12          12          16          12          12          16          12          12          12
 AtmWgt=  12.0000000  12.0000000  12.0000000  15.9949146  12.0000000  12.0000000  15.9949146  12.0000000  12.0000000  12.0000000
 NucSpn=           0           0           0           0           0           0           0           0           0           0
 AtZEff=  -0.0000000  -0.0000000  -0.0000000  -0.0000000  -0.0000000  -0.0000000  -0.0000000  -0.0000000  -0.0000000  -0.0000000
 NQMom=    0.0000000   0.0000000   0.0000000   0.0000000   0.0000000   0.0000000   0.0000000   0.0000000   0.0000000   0.0000000
 NMagM=    0.0000000   0.0000000   0.0000000   0.0000000   0.0000000   0.0000000   0.0000000   0.0000000   0.0000000   0.0000000
 AtZNuc=   6.0000000   6.0000000   6.0000000   8.0000000   6.0000000   6.0000000   8.0000000   6.0000000   6.0000000   6.0000000

  Atom        31          32          33          34          35          36          37          38          39          40
 IAtWgt=          12          12          12          12          12          12          12          12          12          12
 AtmWgt=  12.0000000  12.0000000  12.0000000  12.0000000  12.0000000  12.0000000  12.0000000  12.0000000  12.0000000  12.0000000
 NucSpn=           0           0           0           0           0           0           0           0           0           0
 AtZEff=  -0.0000000  -0.0000000  -0.0000000  -0.0000000  -0.0000000  -0.0000000  -0.0000000  -0.0000000  -0.0000000  -0.0000000
 NQMom=    0.0000000   0.0000000   0.0000000   0.0000000   0.0000000   0.0000000   0.0000000   0.0000000   0.0000000   0.0000000
 NMagM=    0.0000000   0.0000000   0.0000000   0.0000000   0.0000000   0.0000000   0.0000000   0.0000000   0.0000000   0.0000000
 AtZNuc=   6.0000000   6.0000000   6.0000000   6.0000000   6.0000000   6.0000000   6.0000000   6.0000000   6.0000000   6.0000000

  Atom        41          42          43          44          45          46          47          48          49          50
 IAtWgt=          12          12          12          12           1           1           1           1           1           1
 AtmWgt=  12.0000000  12.0000000  12.0000000  12.0000000   1.0078250   1.0078250   1.0078250   1.0078250   1.0078250   1.0078250
 NucSpn=           0           0           0           0           1           1           1           1           1           1
 AtZEff=  -0.0000000  -0.0000000  -0.0000000  -0.0000000  -0.0000000  -0.0000000  -0.0000000  -0.0000000  -0.0000000  -0.0000000
 NQMom=    0.0000000   0.0000000   0.0000000   0.0000000   0.0000000   0.0000000   0.0000000   0.0000000   0.0000000   0.0000000
 NMagM=    0.0000000   0.0000000   0.0000000   0.0000000   2.7928460   2.7928460   2.7928460   2.7928460   2.7928460   2.7928460
 AtZNuc=   6.0000000   6.0000000   6.0000000   6.0000000   1.0000000   1.0000000   1.0000000   1.0000000   1.0000000   1.0000000

  Atom        51          52          53          54          55          56          57          58          59          60
 IAtWgt=           1           1           1           1           1           1           1           1           1           1
 AtmWgt=   1.0078250   1.0078250   1.0078250   1.0078250   1.0078250   1.0078250   1.0078250   1.0078250   1.0078250   1.0078250
 NucSpn=           1           1           1           1           1           1           1           1           1           1
 AtZEff=  -0.0000000  -0.0000000  -0.0000000  -0.0000000  -0.0000000  -0.0000000  -0.0000000  -0.0000000  -0.0000000  -0.0000000
 NQMom=    0.0000000   0.0000000   0.0000000   0.0000000   0.0000000   0.0000000   0.0000000   0.0000000   0.0000000   0.0000000
 NMagM=    2.7928460   2.7928460   2.7928460   2.7928460   2.7928460   2.7928460   2.7928460   2.7928460   2.7928460   2.7928460
 AtZNuc=   1.0000000   1.0000000   1.0000000   1.0000000   1.0000000   1.0000000   1.0000000   1.0000000   1.0000000   1.0000000

  Atom        61          62          63          64          65          66          67          68          69          70
 IAtWgt=           1           1           1           1           1           1           1           1           1           1
 AtmWgt=   1.0078250   1.0078250   1.0078250   1.0078250   1.0078250   1.0078250   1.0078250   1.0078250   1.0078250   1.0078250
 NucSpn=           1           1           1           1           1           1           1           1           1           1
 AtZEff=  -0.0000000  -0.0000000  -0.0000000  -0.0000000  -0.0000000  -0.0000000  -0.0000000  -0.0000000  -0.0000000  -0.0000000
 NQMom=    0.0000000   0.0000000   0.0000000   0.0000000   0.0000000   0.0000000   0.0000000   0.0000000   0.0000000   0.0000000
 NMagM=    2.7928460   2.7928460   2.7928460   2.7928460   2.7928460   2.7928460   2.7928460   2.7928460   2.7928460   2.7928460
 AtZNuc=   1.0000000   1.0000000   1.0000000   1.0000000   1.0000000   1.0000000   1.0000000   1.0000000   1.0000000   1.0000000

  Atom        71          72          73          74          75          76          77
 IAtWgt=           1           1           1           1           1           1          63
 AtmWgt=   1.0078250   1.0078250   1.0078250   1.0078250   1.0078250   1.0078250  62.9295992
 NucSpn=           1           1           1           1           1           1           3
 AtZEff=  -0.0000000  -0.0000000  -0.0000000  -0.0000000  -0.0000000  -0.0000000  -0.0000000
 NQMom=    0.0000000   0.0000000   0.0000000   0.0000000   0.0000000   0.0000000 -22.0000000
 NMagM=    2.7928460   2.7928460   2.7928460   2.7928460   2.7928460   2.7928460   2.2233000
 AtZNuc=   1.0000000   1.0000000   1.0000000   1.0000000   1.0000000   1.0000000  29.0000000
 Leave Link  101 at Wed Mar 26 20:55:57 2025, MaxMem= 13421772800 cpu:               5.9 elap:               0.2
 (Enter /public/software/apps/Gaussian/g16/l103.exe)

 GradGradGradGradGradGradGradGradGradGradGradGradGradGradGradGradGradGrad
 Berny optimization.
 Initialization pass.
                           ----------------------------
                           !    Initial Parameters    !
                           ! (Angstroms and Degrees)  !
 --------------------------                            --------------------------
 ! Name  Definition              Value          Derivative Info.                !
 --------------------------------------------------------------------------------
 ! R1    R(1,2)                  1.4101         estimate D2E/DX2                !
 ! R2    R(1,45)                 1.1124         estimate D2E/DX2                !
 ! R3    R(1,46)                 1.1092         estimate D2E/DX2                !
 ! R4    R(1,47)                 1.1126         estimate D2E/DX2                !
 ! R5    R(2,3)                  1.4167         estimate D2E/DX2                !
 ! R6    R(3,4)                  1.5291         estimate D2E/DX2                !
 ! R7    R(3,48)                 1.1159         estimate D2E/DX2                !
 ! R8    R(3,49)                 1.1106         estimate D2E/DX2                !
 ! R9    R(4,5)                  1.4281         estimate D2E/DX2                !
 ! R10   R(4,50)                 1.1107         estimate D2E/DX2                !
 ! R11   R(4,51)                 1.1106         estimate D2E/DX2                !
 ! R12   R(5,6)                  1.4046         estimate D2E/DX2                !
 ! R13   R(6,7)                  1.3999         estimate D2E/DX2                !
 ! R14   R(6,44)                 1.4087         estimate D2E/DX2                !
 ! R15   R(7,8)                  1.3973         estimate D2E/DX2                !
 ! R16   R(7,52)                 1.0826         estimate D2E/DX2                !
 ! R17   R(8,9)                  1.4027         estimate D2E/DX2                !
 ! R18   R(8,53)                 1.0832         estimate D2E/DX2                !
 ! R19   R(9,10)                 1.4805         estimate D2E/DX2                !
 ! R20   R(9,43)                 1.4022         estimate D2E/DX2                !
 ! R21   R(10,11)                1.3999         estimate D2E/DX2                !
 ! R22   R(10,42)                1.418          estimate D2E/DX2                !
 ! R23   R(11,12)                1.3923         estimate D2E/DX2                !
 ! R24   R(11,54)                1.0839         estimate D2E/DX2                !
 ! R25   R(12,13)                1.3914         estimate D2E/DX2                !
 ! R26   R(12,14)                1.4031         estimate D2E/DX2                !
 ! R27   R(13,77)                1.9627         estimate D2E/DX2                !
 ! R28   R(14,15)                1.489          estimate D2E/DX2                !
 ! R29   R(14,37)                1.419          estimate D2E/DX2                !
 ! R30   R(15,16)                1.4031         estimate D2E/DX2                !
 ! R31   R(15,36)                1.4189         estimate D2E/DX2                !
 ! R32   R(16,17)                1.3914         estimate D2E/DX2                !
 ! R33   R(16,18)                1.3922         estimate D2E/DX2                !
 ! R34   R(17,77)                1.9627         estimate D2E/DX2                !
 ! R35   R(18,19)                1.4001         estimate D2E/DX2                !
 ! R36   R(18,55)                1.0839         estimate D2E/DX2                !
 ! R37   R(19,20)                1.4809         estimate D2E/DX2                !
 ! R38   R(19,31)                1.4182         estimate D2E/DX2                !
 ! R39   R(20,21)                1.4024         estimate D2E/DX2                !
 ! R40   R(20,30)                1.4028         estimate D2E/DX2                !
 ! R41   R(21,22)                1.398          estimate D2E/DX2                !
 ! R42   R(21,56)                1.0833         estimate D2E/DX2                !
 ! R43   R(22,23)                1.4087         estimate D2E/DX2                !
 ! R44   R(22,57)                1.0803         estimate D2E/DX2                !
 ! R45   R(23,24)                1.4045         estimate D2E/DX2                !
 ! R46   R(23,29)                1.3998         estimate D2E/DX2                !
 ! R47   R(24,25)                1.4281         estimate D2E/DX2                !
 ! R48   R(25,26)                1.529          estimate D2E/DX2                !
 ! R49   R(25,58)                1.1106         estimate D2E/DX2                !
 ! R50   R(25,59)                1.1106         estimate D2E/DX2                !
 ! R51   R(26,27)                1.4167         estimate D2E/DX2                !
 ! R52   R(26,60)                1.1106         estimate D2E/DX2                !
 ! R53   R(26,61)                1.1159         estimate D2E/DX2                !
 ! R54   R(27,28)                1.41           estimate D2E/DX2                !
 ! R55   R(28,62)                1.1093         estimate D2E/DX2                !
 ! R56   R(28,63)                1.1125         estimate D2E/DX2                !
 ! R57   R(28,64)                1.1126         estimate D2E/DX2                !
 ! R58   R(29,30)                1.3973         estimate D2E/DX2                !
 ! R59   R(29,65)                1.0827         estimate D2E/DX2                !
 ! R60   R(30,66)                1.0832         estimate D2E/DX2                !
 ! R61   R(31,32)                1.4122         estimate D2E/DX2                !
 ! R62   R(31,36)                1.4251         estimate D2E/DX2                !
 ! R63   R(32,33)                1.3944         estimate D2E/DX2                !
 ! R64   R(32,67)                1.0814         estimate D2E/DX2                !
 ! R65   R(33,34)                1.3916         estimate D2E/DX2                !
 ! R66   R(33,68)                1.0825         estimate D2E/DX2                !
 ! R67   R(34,35)                1.3941         estimate D2E/DX2                !
 ! R68   R(34,69)                1.0824         estimate D2E/DX2                !
 ! R69   R(35,36)                1.4122         estimate D2E/DX2                !
 ! R70   R(35,70)                1.0818         estimate D2E/DX2                !
 ! R71   R(37,38)                1.4122         estimate D2E/DX2                !
 ! R72   R(37,42)                1.4249         estimate D2E/DX2                !
 ! R73   R(38,39)                1.3941         estimate D2E/DX2                !
 ! R74   R(38,71)                1.0818         estimate D2E/DX2                !
 ! R75   R(39,40)                1.3916         estimate D2E/DX2                !
 ! R76   R(39,72)                1.0825         estimate D2E/DX2                !
 ! R77   R(40,41)                1.3944         estimate D2E/DX2                !
 ! R78   R(40,73)                1.0824         estimate D2E/DX2                !
 ! R79   R(41,42)                1.4121         estimate D2E/DX2                !
 ! R80   R(41,74)                1.0815         estimate D2E/DX2                !
 ! R81   R(43,44)                1.398          estimate D2E/DX2                !
 ! R82   R(43,75)                1.0833         estimate D2E/DX2                !
 ! R83   R(44,76)                1.0802         estimate D2E/DX2                !
 ! A1    A(2,1,45)             111.2017         estimate D2E/DX2                !
 ! A2    A(2,1,46)             108.6619         estimate D2E/DX2                !
 ! A3    A(2,1,47)             110.8585         estimate D2E/DX2                !
 ! A4    A(45,1,46)            107.716          estimate D2E/DX2                !
 ! A5    A(45,1,47)            110.4938         estimate D2E/DX2                !
 ! A6    A(46,1,47)            107.7753         estimate D2E/DX2                !
 ! A7    A(1,2,3)              110.6548         estimate D2E/DX2                !
 ! A8    A(2,3,4)              109.7402         estimate D2E/DX2                !
 ! A9    A(2,3,48)             114.6911         estimate D2E/DX2                !
 ! A10   A(2,3,49)             108.0002         estimate D2E/DX2                !
 ! A11   A(4,3,48)             109.8681         estimate D2E/DX2                !
 ! A12   A(4,3,49)             108.0912         estimate D2E/DX2                !
 ! A13   A(48,3,49)            106.1881         estimate D2E/DX2                !
 ! A14   A(3,4,5)              111.0516         estimate D2E/DX2                !
 ! A15   A(3,4,50)             108.5582         estimate D2E/DX2                !
 ! A16   A(3,4,51)             110.9444         estimate D2E/DX2                !
 ! A17   A(5,4,50)             108.2704         estimate D2E/DX2                !
 ! A18   A(5,4,51)             110.781          estimate D2E/DX2                !
 ! A19   A(50,4,51)            107.0886         estimate D2E/DX2                !
 ! A20   A(4,5,6)              125.6093         estimate D2E/DX2                !
 ! A21   A(5,6,7)              118.0641         estimate D2E/DX2                !
 ! A22   A(5,6,44)             122.8301         estimate D2E/DX2                !
 ! A23   A(7,6,44)             119.1057         estimate D2E/DX2                !
 ! A24   A(6,7,8)              120.6228         estimate D2E/DX2                !
 ! A25   A(6,7,52)             119.8724         estimate D2E/DX2                !
 ! A26   A(8,7,52)             119.5032         estimate D2E/DX2                !
 ! A27   A(7,8,9)              120.2387         estimate D2E/DX2                !
 ! A28   A(7,8,53)             119.4336         estimate D2E/DX2                !
 ! A29   A(9,8,53)             120.3277         estimate D2E/DX2                !
 ! A30   A(8,9,10)             120.4038         estimate D2E/DX2                !
 ! A31   A(8,9,43)             119.3972         estimate D2E/DX2                !
 ! A32   A(10,9,43)            120.1701         estimate D2E/DX2                !
 ! A33   A(9,10,11)            117.8714         estimate D2E/DX2                !
 ! A34   A(9,10,42)            122.5354         estimate D2E/DX2                !
 ! A35   A(11,10,42)           119.577          estimate D2E/DX2                !
 ! A36   A(10,11,12)           120.9943         estimate D2E/DX2                !
 ! A37   A(10,11,54)           120.0068         estimate D2E/DX2                !
 ! A38   A(12,11,54)           118.99           estimate D2E/DX2                !
 ! A39   A(11,12,13)           119.1403         estimate D2E/DX2                !
 ! A40   A(11,12,14)           120.5959         estimate D2E/DX2                !
 ! A41   A(13,12,14)           120.2624         estimate D2E/DX2                !
 ! A42   A(12,13,77)           112.6243         estimate D2E/DX2                !
 ! A43   A(12,14,15)           118.4738         estimate D2E/DX2                !
 ! A44   A(12,14,37)           119.5551         estimate D2E/DX2                !
 ! A45   A(15,14,37)           121.9701         estimate D2E/DX2                !
 ! A46   A(14,15,16)           118.4749         estimate D2E/DX2                !
 ! A47   A(14,15,36)           121.9812         estimate D2E/DX2                !
 ! A48   A(16,15,36)           119.5346         estimate D2E/DX2                !
 ! A49   A(15,16,17)           120.2695         estimate D2E/DX2                !
 ! A50   A(15,16,18)           120.589          estimate D2E/DX2                !
 ! A51   A(17,16,18)           119.1414         estimate D2E/DX2                !
 ! A52   A(16,17,77)           106.2037         estimate D2E/DX2                !
 ! A53   A(16,18,19)           120.9876         estimate D2E/DX2                !
 ! A54   A(16,18,55)           118.9683         estimate D2E/DX2                !
 ! A55   A(19,18,55)           120.035          estimate D2E/DX2                !
 ! A56   A(18,19,20)           117.9255         estimate D2E/DX2                !
 ! A57   A(18,19,31)           119.5407         estimate D2E/DX2                !
 ! A58   A(20,19,31)           122.5332         estimate D2E/DX2                !
 ! A59   A(19,20,21)           120.2266         estimate D2E/DX2                !
 ! A60   A(19,20,30)           120.3698         estimate D2E/DX2                !
 ! A61   A(21,20,30)           119.3749         estimate D2E/DX2                !
 ! A62   A(20,21,22)           120.3512         estimate D2E/DX2                !
 ! A63   A(20,21,56)           120.2753         estimate D2E/DX2                !
 ! A64   A(22,21,56)           119.3717         estimate D2E/DX2                !
 ! A65   A(21,22,23)           120.284          estimate D2E/DX2                !
 ! A66   A(21,22,57)           118.327          estimate D2E/DX2                !
 ! A67   A(23,22,57)           121.3888         estimate D2E/DX2                !
 ! A68   A(22,23,24)           122.828          estimate D2E/DX2                !
 ! A69   A(22,23,29)           119.109          estimate D2E/DX2                !
 ! A70   A(24,23,29)           118.0629         estimate D2E/DX2                !
 ! A71   A(23,24,25)           125.6058         estimate D2E/DX2                !
 ! A72   A(24,25,26)           111.0273         estimate D2E/DX2                !
 ! A73   A(24,25,58)           108.2636         estimate D2E/DX2                !
 ! A74   A(24,25,59)           110.8021         estimate D2E/DX2                !
 ! A75   A(26,25,58)           108.569          estimate D2E/DX2                !
 ! A76   A(26,25,59)           110.9432         estimate D2E/DX2                !
 ! A77   A(58,25,59)           107.0897         estimate D2E/DX2                !
 ! A78   A(25,26,27)           109.7047         estimate D2E/DX2                !
 ! A79   A(25,26,60)           108.1148         estimate D2E/DX2                !
 ! A80   A(25,26,61)           109.8065         estimate D2E/DX2                !
 ! A81   A(27,26,60)           108.0256         estimate D2E/DX2                !
 ! A82   A(27,26,61)           114.709          estimate D2E/DX2                !
 ! A83   A(60,26,61)           106.2238         estimate D2E/DX2                !
 ! A84   A(26,27,28)           110.6573         estimate D2E/DX2                !
 ! A85   A(27,28,62)           108.6699         estimate D2E/DX2                !
 ! A86   A(27,28,63)           111.1867         estimate D2E/DX2                !
 ! A87   A(27,28,64)           110.8447         estimate D2E/DX2                !
 ! A88   A(62,28,63)           107.7164         estimate D2E/DX2                !
 ! A89   A(62,28,64)           107.7859         estimate D2E/DX2                !
 ! A90   A(63,28,64)           110.505          estimate D2E/DX2                !
 ! A91   A(23,29,30)           120.6217         estimate D2E/DX2                !
 ! A92   A(23,29,65)           119.8721         estimate D2E/DX2                !
 ! A93   A(30,29,65)           119.5044         estimate D2E/DX2                !
 ! A94   A(20,30,29)           120.2516         estimate D2E/DX2                !
 ! A95   A(20,30,66)           120.3296         estimate D2E/DX2                !
 ! A96   A(29,30,66)           119.4188         estimate D2E/DX2                !
 ! A97   A(19,31,32)           121.4289         estimate D2E/DX2                !
 ! A98   A(19,31,36)           119.5583         estimate D2E/DX2                !
 ! A99   A(32,31,36)           118.9939         estimate D2E/DX2                !
 ! A100  A(31,32,33)           120.7523         estimate D2E/DX2                !
 ! A101  A(31,32,67)           121.5594         estimate D2E/DX2                !
 ! A102  A(33,32,67)           117.6797         estimate D2E/DX2                !
 ! A103  A(32,33,34)           120.235          estimate D2E/DX2                !
 ! A104  A(32,33,68)           119.9157         estimate D2E/DX2                !
 ! A105  A(34,33,68)           119.846          estimate D2E/DX2                !
 ! A106  A(33,34,35)           120.2172         estimate D2E/DX2                !
 ! A107  A(33,34,69)           119.8588         estimate D2E/DX2                !
 ! A108  A(35,34,69)           119.9208         estimate D2E/DX2                !
 ! A109  A(34,35,36)           120.7436         estimate D2E/DX2                !
 ! A110  A(34,35,70)           117.7691         estimate D2E/DX2                !
 ! A111  A(36,35,70)           121.4843         estimate D2E/DX2                !
 ! A112  A(15,36,31)           119.6715         estimate D2E/DX2                !
 ! A113  A(15,36,35)           121.2715         estimate D2E/DX2                !
 ! A114  A(31,36,35)           119.0496         estimate D2E/DX2                !
 ! A115  A(14,37,38)           121.2939         estimate D2E/DX2                !
 ! A116  A(14,37,42)           119.6748         estimate D2E/DX2                !
 ! A117  A(38,37,42)           119.031          estimate D2E/DX2                !
 ! A118  A(37,38,39)           120.7358         estimate D2E/DX2                !
 ! A119  A(37,38,71)           121.4777         estimate D2E/DX2                !
 ! A120  A(39,38,71)           117.7865         estimate D2E/DX2                !
 ! A121  A(38,39,40)           120.2114         estimate D2E/DX2                !
 ! A122  A(38,39,72)           119.921          estimate D2E/DX2                !
 ! A123  A(40,39,72)           119.8664         estimate D2E/DX2                !
 ! A124  A(39,40,41)           120.2344         estimate D2E/DX2                !
 ! A125  A(39,40,73)           119.8477         estimate D2E/DX2                !
 ! A126  A(41,40,73)           119.9177         estimate D2E/DX2                !
 ! A127  A(40,41,42)           120.7379         estimate D2E/DX2                !
 ! A128  A(40,41,74)           117.7128         estimate D2E/DX2                !
 ! A129  A(42,41,74)           121.5473         estimate D2E/DX2                !
 ! A130  A(10,42,37)           119.5619         estimate D2E/DX2                !
 ! A131  A(10,42,41)           121.4446         estimate D2E/DX2                !
 ! A132  A(37,42,41)           118.9876         estimate D2E/DX2                !
 ! A133  A(9,43,44)            120.3444         estimate D2E/DX2                !
 ! A134  A(9,43,75)            120.2671         estimate D2E/DX2                !
 ! A135  A(44,43,75)           119.3867         estimate D2E/DX2                !
 ! A136  A(6,44,43)            120.2835         estimate D2E/DX2                !
 ! A137  A(6,44,76)            121.3943         estimate D2E/DX2                !
 ! A138  A(43,44,76)           118.322          estimate D2E/DX2                !
 ! A139  A(13,77,17)           100.0001         estimate D2E/DX2                !
 ! D1    D(45,1,2,3)            59.7523         estimate D2E/DX2                !
 ! D2    D(46,1,2,3)           178.1454         estimate D2E/DX2                !
 ! D3    D(47,1,2,3)           -63.5919         estimate D2E/DX2                !
 ! D4    D(1,2,3,4)           -115.9254         estimate D2E/DX2                !
 ! D5    D(1,2,3,48)             8.296          estimate D2E/DX2                !
 ! D6    D(1,2,3,49)           126.4618         estimate D2E/DX2                !
 ! D7    D(2,3,4,5)             61.1129         estimate D2E/DX2                !
 ! D8    D(2,3,4,50)           -57.8058         estimate D2E/DX2                !
 ! D9    D(2,3,4,51)          -175.2185         estimate D2E/DX2                !
 ! D10   D(48,3,4,5)           -65.8694         estimate D2E/DX2                !
 ! D11   D(48,3,4,50)          175.2118         estimate D2E/DX2                !
 ! D12   D(48,3,4,51)           57.7991         estimate D2E/DX2                !
 ! D13   D(49,3,4,5)           178.669          estimate D2E/DX2                !
 ! D14   D(49,3,4,50)           59.7503         estimate D2E/DX2                !
 ! D15   D(49,3,4,51)          -57.6624         estimate D2E/DX2                !
 ! D16   D(3,4,5,6)             74.5356         estimate D2E/DX2                !
 ! D17   D(50,4,5,6)          -166.3729         estimate D2E/DX2                !
 ! D18   D(51,4,5,6)           -49.2262         estimate D2E/DX2                !
 ! D19   D(4,5,6,7)           -173.2477         estimate D2E/DX2                !
 ! D20   D(4,5,6,44)             6.8637         estimate D2E/DX2                !
 ! D21   D(5,6,7,8)            179.7968         estimate D2E/DX2                !
 ! D22   D(5,6,7,52)             0.2684         estimate D2E/DX2                !
 ! D23   D(44,6,7,8)            -0.3104         estimate D2E/DX2                !
 ! D24   D(44,6,7,52)         -179.8387         estimate D2E/DX2                !
 ! D25   D(5,6,44,43)         -179.8022         estimate D2E/DX2                !
 ! D26   D(5,6,44,76)            0.3441         estimate D2E/DX2                !
 ! D27   D(7,6,44,43)            0.3103         estimate D2E/DX2                !
 ! D28   D(7,6,44,76)         -179.5434         estimate D2E/DX2                !
 ! D29   D(6,7,8,9)              0.6399         estimate D2E/DX2                !
 ! D30   D(6,7,8,53)          -179.297          estimate D2E/DX2                !
 ! D31   D(52,7,8,9)          -179.8301         estimate D2E/DX2                !
 ! D32   D(52,7,8,53)            0.2331         estimate D2E/DX2                !
 ! D33   D(7,8,9,10)          -179.0049         estimate D2E/DX2                !
 ! D34   D(7,8,9,43)            -0.9567         estimate D2E/DX2                !
 ! D35   D(53,8,9,10)            0.9314         estimate D2E/DX2                !
 ! D36   D(53,8,9,43)          178.9796         estimate D2E/DX2                !
 ! D37   D(8,9,10,11)          113.868          estimate D2E/DX2                !
 ! D38   D(8,9,10,42)          -64.6566         estimate D2E/DX2                !
 ! D39   D(43,9,10,11)         -64.165          estimate D2E/DX2                !
 ! D40   D(43,9,10,42)         117.3104         estimate D2E/DX2                !
 ! D41   D(8,9,43,44)            0.9587         estimate D2E/DX2                !
 ! D42   D(8,9,43,75)         -179.5333         estimate D2E/DX2                !
 ! D43   D(10,9,43,44)         179.0116         estimate D2E/DX2                !
 ! D44   D(10,9,43,75)          -1.4804         estimate D2E/DX2                !
 ! D45   D(9,10,11,12)        -178.2118         estimate D2E/DX2                !
 ! D46   D(9,10,11,54)           0.6945         estimate D2E/DX2                !
 ! D47   D(42,10,11,12)          0.358          estimate D2E/DX2                !
 ! D48   D(42,10,11,54)        179.2643         estimate D2E/DX2                !
 ! D49   D(9,10,42,37)         177.5922         estimate D2E/DX2                !
 ! D50   D(9,10,42,41)          -3.3014         estimate D2E/DX2                !
 ! D51   D(11,10,42,37)         -0.9081         estimate D2E/DX2                !
 ! D52   D(11,10,42,41)        178.1983         estimate D2E/DX2                !
 ! D53   D(10,11,12,13)        178.7172         estimate D2E/DX2                !
 ! D54   D(10,11,12,14)         -0.8431         estimate D2E/DX2                !
 ! D55   D(54,11,12,13)         -0.2            estimate D2E/DX2                !
 ! D56   D(54,11,12,14)       -179.7603         estimate D2E/DX2                !
 ! D57   D(11,12,13,77)       -108.0171         estimate D2E/DX2                !
 ! D58   D(14,12,13,77)         71.5446         estimate D2E/DX2                !
 ! D59   D(11,12,14,15)       -178.5074         estimate D2E/DX2                !
 ! D60   D(11,12,14,37)          1.8652         estimate D2E/DX2                !
 ! D61   D(13,12,14,15)          1.9373         estimate D2E/DX2                !
 ! D62   D(13,12,14,37)       -177.6901         estimate D2E/DX2                !
 ! D63   D(12,13,77,17)        -38.697          estimate D2E/DX2                !
 ! D64   D(12,14,15,16)        -68.8569         estimate D2E/DX2                !
 ! D65   D(12,14,15,36)        110.0277         estimate D2E/DX2                !
 ! D66   D(37,14,15,16)        110.7611         estimate D2E/DX2                !
 ! D67   D(37,14,15,36)        -70.3544         estimate D2E/DX2                !
 ! D68   D(12,14,37,38)        177.3898         estimate D2E/DX2                !
 ! D69   D(12,14,37,42)         -2.4031         estimate D2E/DX2                !
 ! D70   D(15,14,37,38)         -2.2241         estimate D2E/DX2                !
 ! D71   D(15,14,37,42)        177.983          estimate D2E/DX2                !
 ! D72   D(14,15,16,17)          2.0919         estimate D2E/DX2                !
 ! D73   D(14,15,16,18)       -177.9087         estimate D2E/DX2                !
 ! D74   D(36,15,16,17)       -176.8207         estimate D2E/DX2                !
 ! D75   D(36,15,16,18)          3.1787         estimate D2E/DX2                !
 ! D76   D(14,15,36,31)        178.0524         estimate D2E/DX2                !
 ! D77   D(14,15,36,35)         -2.9429         estimate D2E/DX2                !
 ! D78   D(16,15,36,31)         -3.0745         estimate D2E/DX2                !
 ! D79   D(16,15,36,35)        175.9302         estimate D2E/DX2                !
 ! D80   D(15,16,17,77)         78.213          estimate D2E/DX2                !
 ! D81   D(18,16,17,77)       -101.7863         estimate D2E/DX2                !
 ! D82   D(15,16,18,19)         -0.4398         estimate D2E/DX2                !
 ! D83   D(15,16,18,55)        178.4637         estimate D2E/DX2                !
 ! D84   D(17,16,18,19)        179.5595         estimate D2E/DX2                !
 ! D85   D(17,16,18,55)         -1.5369         estimate D2E/DX2                !
 ! D86   D(16,17,77,13)        -51.8325         estimate D2E/DX2                !
 ! D87   D(16,18,19,20)        177.3612         estimate D2E/DX2                !
 ! D88   D(16,18,19,31)         -2.3825         estimate D2E/DX2                !
 ! D89   D(55,18,19,20)         -1.5307         estimate D2E/DX2                !
 ! D90   D(55,18,19,31)        178.7255         estimate D2E/DX2                !
 ! D91   D(18,19,20,21)         62.3259         estimate D2E/DX2                !
 ! D92   D(18,19,20,30)       -115.7122         estimate D2E/DX2                !
 ! D93   D(31,19,20,21)       -117.9386         estimate D2E/DX2                !
 ! D94   D(31,19,20,30)         64.0233         estimate D2E/DX2                !
 ! D95   D(18,19,31,32)       -175.9831         estimate D2E/DX2                !
 ! D96   D(18,19,31,36)          2.4228         estimate D2E/DX2                !
 ! D97   D(20,19,31,32)          4.2855         estimate D2E/DX2                !
 ! D98   D(20,19,31,36)       -177.3086         estimate D2E/DX2                !
 ! D99   D(19,20,21,22)       -178.9911         estimate D2E/DX2                !
 ! D100  D(19,20,21,56)          1.4941         estimate D2E/DX2                !
 ! D101  D(30,20,21,22)         -0.9335         estimate D2E/DX2                !
 ! D102  D(30,20,21,56)        179.5517         estimate D2E/DX2                !
 ! D103  D(19,20,30,29)        179.0247         estimate D2E/DX2                !
 ! D104  D(19,20,30,66)         -0.9043         estimate D2E/DX2                !
 ! D105  D(21,20,30,29)          0.9699         estimate D2E/DX2                !
 ! D106  D(21,20,30,66)       -178.9591         estimate D2E/DX2                !
 ! D107  D(20,21,22,23)          0.5996         estimate D2E/DX2                !
 ! D108  D(20,21,22,57)       -179.2344         estimate D2E/DX2                !
 ! D109  D(56,21,22,23)       -179.8813         estimate D2E/DX2                !
 ! D110  D(56,21,22,57)          0.2848         estimate D2E/DX2                !
 ! D111  D(21,22,23,24)        179.8348         estimate D2E/DX2                !
 ! D112  D(21,22,23,29)         -0.2911         estimate D2E/DX2                !
 ! D113  D(57,22,23,24)         -0.3364         estimate D2E/DX2                !
 ! D114  D(57,22,23,29)        179.5377         estimate D2E/DX2                !
 ! D115  D(22,23,24,25)         -7.2468         estimate D2E/DX2                !
 ! D116  D(29,23,24,25)        172.8779         estimate D2E/DX2                !
 ! D117  D(22,23,29,30)          0.3297         estimate D2E/DX2                !
 ! D118  D(22,23,29,65)        179.8395         estimate D2E/DX2                !
 ! D119  D(24,23,29,30)       -179.7902         estimate D2E/DX2                !
 ! D120  D(24,23,29,65)         -0.2804         estimate D2E/DX2                !
 ! D121  D(23,24,25,26)        -74.4089         estimate D2E/DX2                !
 ! D122  D(23,24,25,58)        166.505          estimate D2E/DX2                !
 ! D123  D(23,24,25,59)         49.3492         estimate D2E/DX2                !
 ! D124  D(24,25,26,27)        -60.9953         estimate D2E/DX2                !
 ! D125  D(24,25,26,60)       -178.5757         estimate D2E/DX2                !
 ! D126  D(24,25,26,61)         65.9402         estimate D2E/DX2                !
 ! D127  D(58,25,26,27)         57.9073         estimate D2E/DX2                !
 ! D128  D(58,25,26,60)        -59.673          estimate D2E/DX2                !
 ! D129  D(58,25,26,61)       -175.1572         estimate D2E/DX2                !
 ! D130  D(59,25,26,27)        175.3273         estimate D2E/DX2                !
 ! D131  D(59,25,26,60)         57.7469         estimate D2E/DX2                !
 ! D132  D(59,25,26,61)        -57.7373         estimate D2E/DX2                !
 ! D133  D(25,26,27,28)        116.6398         estimate D2E/DX2                !
 ! D134  D(60,26,27,28)       -125.7242         estimate D2E/DX2                !
 ! D135  D(61,26,27,28)         -7.4847         estimate D2E/DX2                !
 ! D136  D(26,27,28,62)       -178.2242         estimate D2E/DX2                !
 ! D137  D(26,27,28,63)        -59.8347         estimate D2E/DX2                !
 ! D138  D(26,27,28,64)         63.5033         estimate D2E/DX2                !
 ! D139  D(23,29,30,20)         -0.6757         estimate D2E/DX2                !
 ! D140  D(23,29,30,66)        179.254          estimate D2E/DX2                !
 ! D141  D(65,29,30,20)        179.8127         estimate D2E/DX2                !
 ! D142  D(65,29,30,66)         -0.2576         estimate D2E/DX2                !
 ! D143  D(19,31,32,33)        179.3284         estimate D2E/DX2                !
 ! D144  D(19,31,32,67)          0.418          estimate D2E/DX2                !
 ! D145  D(36,31,32,33)          0.9137         estimate D2E/DX2                !
 ! D146  D(36,31,32,67)       -177.9967         estimate D2E/DX2                !
 ! D147  D(19,31,36,15)          0.29           estimate D2E/DX2                !
 ! D148  D(19,31,36,35)       -178.7369         estimate D2E/DX2                !
 ! D149  D(32,31,36,15)        178.7349         estimate D2E/DX2                !
 ! D150  D(32,31,36,35)         -0.292          estimate D2E/DX2                !
 ! D151  D(31,32,33,34)         -0.7237         estimate D2E/DX2                !
 ! D152  D(31,32,33,68)        179.9319         estimate D2E/DX2                !
 ! D153  D(67,32,33,34)        178.2279         estimate D2E/DX2                !
 ! D154  D(67,32,33,68)         -1.1165         estimate D2E/DX2                !
 ! D155  D(32,33,34,35)         -0.1041         estimate D2E/DX2                !
 ! D156  D(32,33,34,69)       -179.4473         estimate D2E/DX2                !
 ! D157  D(68,33,34,35)        179.2407         estimate D2E/DX2                !
 ! D158  D(68,33,34,69)         -0.1025         estimate D2E/DX2                !
 ! D159  D(33,34,35,36)          0.7286         estimate D2E/DX2                !
 ! D160  D(33,34,35,70)       -178.6537         estimate D2E/DX2                !
 ! D161  D(69,34,35,36)       -179.9286         estimate D2E/DX2                !
 ! D162  D(69,34,35,70)          0.6891         estimate D2E/DX2                !
 ! D163  D(34,35,36,15)       -179.532          estimate D2E/DX2                !
 ! D164  D(34,35,36,31)         -0.5212         estimate D2E/DX2                !
 ! D165  D(70,35,36,15)         -0.1728         estimate D2E/DX2                !
 ! D166  D(70,35,36,31)        178.8379         estimate D2E/DX2                !
 ! D167  D(14,37,38,39)        178.2141         estimate D2E/DX2                !
 ! D168  D(14,37,38,71)         -1.7827         estimate D2E/DX2                !
 ! D169  D(42,37,38,39)         -1.9917         estimate D2E/DX2                !
 ! D170  D(42,37,38,71)        178.0115         estimate D2E/DX2                !
 ! D171  D(14,37,42,10)          1.9323         estimate D2E/DX2                !
 ! D172  D(14,37,42,41)       -177.1961         estimate D2E/DX2                !
 ! D173  D(38,37,42,10)       -177.8653         estimate D2E/DX2                !
 ! D174  D(38,37,42,41)          3.0063         estimate D2E/DX2                !
 ! D175  D(37,38,39,40)          0.0224         estimate D2E/DX2                !
 ! D176  D(37,38,39,72)       -179.5779         estimate D2E/DX2                !
 ! D177  D(71,38,39,40)       -179.9807         estimate D2E/DX2                !
 ! D178  D(71,38,39,72)          0.419          estimate D2E/DX2                !
 ! D179  D(38,39,40,41)          0.9139         estimate D2E/DX2                !
 ! D180  D(38,39,40,73)       -179.2279         estimate D2E/DX2                !
 ! D181  D(72,39,40,41)       -179.4855         estimate D2E/DX2                !
 ! D182  D(72,39,40,73)          0.3727         estimate D2E/DX2                !
 ! D183  D(39,40,41,42)          0.1622         estimate D2E/DX2                !
 ! D184  D(39,40,41,74)       -179.3347         estimate D2E/DX2                !
 ! D185  D(73,40,41,42)       -179.6959         estimate D2E/DX2                !
 ! D186  D(73,40,41,74)          0.8072         estimate D2E/DX2                !
 ! D187  D(40,41,42,10)        178.7598         estimate D2E/DX2                !
 ! D188  D(40,41,42,37)         -2.1288         estimate D2E/DX2                !
 ! D189  D(74,41,42,10)         -1.7628         estimate D2E/DX2                !
 ! D190  D(74,41,42,37)        177.3486         estimate D2E/DX2                !
 ! D191  D(9,43,44,6)           -0.641          estimate D2E/DX2                !
 ! D192  D(9,43,44,76)         179.2171         estimate D2E/DX2                !
 ! D193  D(75,43,44,6)         179.8467         estimate D2E/DX2                !
 ! D194  D(75,43,44,76)         -0.2952         estimate D2E/DX2                !
 --------------------------------------------------------------------------------
 Trust Radius=3.00D-01 FncErr=1.00D-07 GrdErr=1.00D-06 EigMax=2.50D+02 EigMin=1.00D-04
 Number of steps in this run=    426 maximum allowed number of steps=    462.
 GradGradGradGradGradGradGradGradGradGradGradGradGradGradGradGradGradGrad

 Leave Link  103 at Wed Mar 26 20:55:57 2025, MaxMem= 13421772800 cpu:               0.8 elap:               0.0
 (Enter /public/software/apps/Gaussian/g16/l202.exe)
 Symmetry turned off by external request.
 Stoichiometry    C38H32CuO6(2)
 Framework group  C1[X(C38H32CuO6)]
 Deg. of freedom   225
 Full point group                 C1      NOp   1
                          Input orientation:                          
 ---------------------------------------------------------------------
 Center     Atomic      Atomic             Coordinates (Angstroms)
 Number     Number       Type             X           Y           Z
 ---------------------------------------------------------------------
      1          6           0        9.580859   -0.643419    3.354642
      2          8           0       10.657278   -0.319736    2.503285
      3          6           0       10.320838    0.771811    1.665265
      4          6           0       10.312172    0.318328    0.205003
      5          8           0        9.340639   -0.706397   -0.008154
      6          6           0        7.950458   -0.515385   -0.069283
      7          6           0        7.132450   -1.649113   -0.141522
      8          6           0        5.742239   -1.521180   -0.200217
      9          6           0        5.149250   -0.250039   -0.200868
     10          6           0        3.675854   -0.110604   -0.240796
     11          6           0        3.039524    0.435142    0.880336
     12          6           0        1.653815    0.561707    0.927447
     13          8           0        1.059747    1.084686    2.071781
     14          6           0        0.862600    0.159567   -0.159284
     15          6           0       -0.611958    0.347325   -0.071767
     16          6           0       -1.333724   -0.439922    0.838171
     17          8           0       -0.670967   -1.340613    1.666090
     18          6           0       -2.718991   -0.331590    0.925554
     19          6           0       -3.424031    0.568547    0.117535
     20          6           0       -4.901061    0.585823    0.223810
     21          6           0       -5.517743    0.931010    1.435134
     22          6           0       -6.911482    0.927785    1.544357
     23          6           0       -7.709647    0.565346    0.441592
     24          8           0       -9.113017    0.540369    0.492860
     25          6           0       -9.905542    0.725088    1.666369
     26          6           0       -9.858360   -0.513990    2.560880
     27          8           0      -10.378250   -1.629638    1.859377
     28          6           0       -9.383859   -2.613537    1.682634
     29          6           0       -7.088348    0.215591   -0.763065
     30          6           0       -5.695331    0.217950   -0.872360
     31          6           0       -2.713046    1.418464   -0.767638
     32          6           0       -3.375782    2.398383   -1.538904
     33          6           0       -2.661027    3.235898   -2.394487
     34          6           0       -1.277003    3.125759   -2.488076
     35          6           0       -0.595365    2.178632   -1.725318
     36          6           0       -1.295255    1.308791   -0.860495
     37          6           0        1.480193   -0.417270   -1.299179
     38          6           0        0.715136   -0.884680   -2.390291
     39          6           0        1.335700   -1.415602   -3.520158
     40          6           0        2.723671   -1.491941   -3.585995
     41          6           0        3.502480   -1.055594   -2.514789
     42          6           0        2.899436   -0.534480   -1.349105
     43          6           0        5.962999    0.889094   -0.121756
     44          6           0        7.353872    0.760788   -0.063063
     45          1           0        8.675387   -0.920448    2.770804
     46          1           0        9.866774   -1.520515    3.970521
     47          1           0        9.355839    0.198468    4.046339
     48          1           0        9.353367    1.269249    1.913630
     49          1           0       11.106670    1.548028    1.780666
     50          1           0       11.313226   -0.093909   -0.043067
     51          1           0       10.134936    1.177230   -0.476378
     52          1           0        7.577648   -2.635957   -0.144483
     53          1           0        5.127113   -2.411714   -0.244132
     54          1           0        3.625225    0.750386    1.736156
     55          1           0       -3.252761   -0.970314    1.619820
     56          1           0       -4.918200    1.210361    2.293057
     57          1           0       -7.352271    1.211263    2.488980
     58          1           0      -10.957350    0.895107    1.352831
     59          1           0       -9.580784    1.629345    2.223311
     60          1           0      -10.508457   -0.328707    3.442041
     61          1           0       -8.825410   -0.653565    2.959362
     62          1           0       -9.816072   -3.455226    1.103678
     63          1           0       -8.520742   -2.213766    1.105712
     64          1           0       -9.044843   -3.014449    2.663518
     65          1           0       -7.689762   -0.067505   -1.617658
     66          1           0       -5.234723   -0.067778   -1.810227
     67          1           0       -4.446157    2.539164   -1.476602
     68          1           0       -3.182941    3.981691   -2.980297
     69          1           0       -0.727287    3.785040   -3.147514
     70          1           0        0.482355    2.142223   -1.812396
     71          1           0       -0.365910   -0.844391   -2.380688
     72          1           0        0.736640   -1.763749   -4.351810
     73          1           0        3.199725   -1.893681   -4.471226
     74          1           0        4.577243   -1.123401   -2.613898
     75          1           0        5.519538    1.877386   -0.113583
     76          1           0        7.949984    1.660405   -0.015723
     77         29           0        0.109860   -0.276731    3.118861
 ---------------------------------------------------------------------
 Rotational constants (GHZ):           0.1659214           0.0215769           0.0204318
 Leave Link  202 at Wed Mar 26 20:55:57 2025, MaxMem= 13421772800 cpu:               1.3 elap:               0.1
 (Enter /public/software/apps/Gaussian/g16/l301.exe)
 Standard basis: def2SVPP (5D, 7F)
 Ernie: Thresh=  0.10000D-02 Tol=  0.10000D-05 Strict=F.
   704 basis functions,  1299 primitive gaussians,   750 cartesian basis functions
   169 alpha electrons      168 beta electrons
       nuclear repulsion energy      5496.4199290627 Hartrees.
 IExCor=  402 DFT=T Ex+Corr=B3LYP ExCW=0 ScaHFX=  0.200000
 ScaDFX=  0.800000  0.720000  1.000000  0.810000 ScalE2=  1.000000  1.000000
 IRadAn=      5 IRanWt=     -1 IRanGd=            0 ICorTp=0 IEmpDi=141
 NAtoms=   77 NActive=   77 NUniq=   77 SFac= 1.00D+00 NAtFMM=   60 NAOKFM=T Big=T
 Integral buffers will be    131072 words long.
 Raffenetti 2 integral format.
 Two-electron integral symmetry is turned off.
 R6Disp:  Grimme-D3(BJ) Dispersion energy=       -0.1929839955 Hartrees.
 Nuclear repulsion after empirical dispersion term =     5496.2269450672 Hartrees.
 Leave Link  301 at Wed Mar 26 20:55:57 2025, MaxMem= 13421772800 cpu:               1.0 elap:               0.0
 (Enter /public/software/apps/Gaussian/g16/l302.exe)
 NPDir=0 NMtPBC=     1 NCelOv=     1 NCel=       1 NClECP=     1 NCelD=      1
         NCelK=      1 NCelE2=     1 NClLst=     1 CellRange=     0.0.
 One-electron integrals computed using PRISM.
   1 Symmetry operations used in ECPInt.
 ECPInt:  NShTT=   57291 NPrTT=  234978 LenC2=   38472 LenP2D=   96693.
 LDataN:  DoStor=T MaxTD1= 4 Len=   56
 NBasis=   704 RedAO= T EigKep=  1.70D-04  NBF=   704
 NBsUse=   704 1.00D-06 EigRej= -1.00D+00 NBFU=   704
 Precomputing XC quadrature grid using
 IXCGrd= 4 IRadAn=           5 IRanWt=          -1 IRanGd=           0 AccXCQ= 0.00D+00.
 Generated NRdTot=       0 NPtTot=           0 NUsed=           0 NTot=          32
 NSgBfM=   656   650   656   656   656 MxSgAt=    77 MxSgA2=    77.
 Leave Link  302 at Wed Mar 26 20:55:58 2025, MaxMem= 13421772800 cpu:              29.7 elap:               0.9
 (Enter /public/software/apps/Gaussian/g16/l303.exe)
 DipDrv:  MaxL=1.
 Leave Link  303 at Wed Mar 26 20:55:58 2025, MaxMem= 13421772800 cpu:               3.5 elap:               0.1
 (Enter /public/software/apps/Gaussian/g16/l401.exe)
 ExpMin= 3.30D-02 ExpMax= 7.64D+04 ExpMxC= 1.15D+04 IAcc=3 IRadAn=         5 AccDes= 0.00D+00
 Harris functional with IExCor=  402 and IRadAn=       5 diagonalized for initial guess.
 HarFok:  IExCor=  402 AccDes= 0.00D+00 IRadAn=         5 IDoV= 1 UseB2=F ITyADJ=14
 ICtDFT=  3500011 ScaDFX=  1.000000  1.000000  1.000000  1.000000
 FoFCou: FMM=F IPFlag=           0 FMFlag=      100000 FMFlg1=        2001
         NFxFlg=           0 DoJE=T BraDBF=F KetDBF=T FulRan=T
         wScrn=  0.000000 ICntrl=       500 IOpCl=  0 I1Cent=   200000004 NGrid=           0
         NMat0=    1 NMatS0=      1 NMatT0=    0 NMatD0=    1 NMtDS0=    0 NMtDT0=    0
 Symmetry not used in FoFCou.
 Harris En= -3557.83592006382    
 JPrj=0 DoOrth=F DoCkMO=F.
 Initial guess <Sx>= 0.0000 <Sy>= 0.0000 <Sz>= 0.5000 <S**2>= 0.7500 S= 0.5000
 Leave Link  401 at Wed Mar 26 20:56:00 2025, MaxMem= 13421772800 cpu:              60.1 elap:               1.9
 (Enter /public/software/apps/Gaussian/g16/l502.exe)
 Two-electron integral symmetry not used.
 UHF open shell SCF:
 Using DIIS extrapolation, IDIIS=  1040.
 NGot= 13421772800 LenX= 13420615726 LenY= 13420052476
 Requested convergence on RMS density matrix=1.00D-08 within 128 cycles.
 Requested convergence on MAX density matrix=1.00D-06.
 Requested convergence on             energy=1.00D-06.
 No special actions if energy rises.
 Fock matrices will be formed incrementally for  20 cycles.

 Cycle   1  Pass 1  IDiag  1:
 FoFJK:  IHMeth= 1 ICntrl=       0 DoSepK=F KAlg= 0 I1Cent=           0 FoldK=F
 IRaf= 770000000 NMat=       1 IRICut=       1 DoRegI=T DoRafI=F ISym2E= 0 IDoP0=0 IntGTp=1.
 FoFCou: FMM=T IPFlag=           0 FMFlag=      100000 FMFlg1=        2001
         NFxFlg=           0 DoJE=F BraDBF=F KetDBF=F FulRan=T
         wScrn=  0.000000 ICntrl=         0 IOpCl=  1 I1Cent=           0 NGrid=           0
         NMat0=    1 NMatS0=      1 NMatT0=    0 NMatD0=    1 NMtDS0=    0 NMtDT0=    0
 Symmetry not used in FoFCou.
 FMM levels:  10  Number of levels for PrismC:   9
 E= -3543.25704185184    
 DIIS: error= 3.17D-01 at cycle   1 NSaved=   1.
 NSaved= 1 IEnMin= 1 EnMin= -3543.25704185184     IErMin= 1 ErrMin= 3.17D-01
 ErrMax= 3.17D-01  0.00D+00 EMaxC= 1.00D-01 BMatC= 5.54D+01 BMatP= 5.54D+01
 IDIUse=3 WtCom= 0.00D+00 WtEn= 1.00D+00
 Coeff-Com:  0.100D+01
 Coeff-En:   0.100D+01
 Coeff:      0.100D+01
 Gap=     0.234 Goal=   None    Shift=    0.000
 Gap=    -0.032 Goal=   None    Shift=    0.000
 GapD=   -0.032 DampG=0.250 DampE=0.125 DampFc=0.1250 IDamp=-1.
 Damping current iteration by 1.25D-01
 RMSDP=4.29D-02 MaxDP=7.97D+00              OVMax= 9.88D-01

 Cycle   2  Pass 1  IDiag  1:
 RMSU=  5.36D-03    CP:  1.02D+00
 E= -3548.10323997606     Delta-E=       -4.846198124214 Rises=F Damp=T
 DIIS: error= 2.10D-01 at cycle   2 NSaved=   2.
 NSaved= 2 IEnMin= 2 EnMin= -3548.10323997606     IErMin= 2 ErrMin= 2.10D-01
 ErrMax= 2.10D-01  0.00D+00 EMaxC= 1.00D-01 BMatC= 2.13D+01 BMatP= 5.54D+01
 IDIUse=3 WtCom= 0.00D+00 WtEn= 1.00D+00
 Coeff-Com: -0.122D+01 0.222D+01
 Coeff-En:   0.000D+00 0.100D+01
 Coeff:      0.000D+00 0.100D+01
 Gap=     0.023 Goal=   None    Shift=    0.000
 Gap=    -0.023 Goal=   None    Shift=    0.000
 RMSDP=1.17D-02 MaxDP=3.08D+00 DE=-4.85D+00 OVMax= 8.57D-01

 Cycle   3  Pass 1  IDiag  1:
 RMSU=  1.02D-02    CP:  9.40D-01  2.03D+00
 E= -3533.21902755084     Delta-E=       14.884212425219 Rises=F Damp=F
 DIIS: error= 2.40D-01 at cycle   3 NSaved=   3.
 NSaved= 3 IEnMin= 2 EnMin= -3548.10323997606     IErMin= 2 ErrMin= 2.10D-01
 ErrMax= 2.40D-01  0.00D+00 EMaxC= 1.00D-01 BMatC= 6.75D+01 BMatP= 2.13D+01
 IDIUse=2 WtCom= 0.00D+00 WtEn= 1.00D+00
 EnCoef did   100 forward-backward iterations
 Coeff-En:   0.585D+00 0.378D-02 0.411D+00
 Coeff:      0.585D+00 0.378D-02 0.411D+00
 Gap=     0.055 Goal=   None    Shift=    0.000
 Gap=    -0.034 Goal=   None    Shift=    0.000
 RMSDP=1.46D-02 MaxDP=3.97D+00 DE= 1.49D+01 OVMax= 7.77D-01

 Cycle   4  Pass 1  IDiag  1:
 RMSU=  4.96D-03    CP:  9.02D-01  7.39D-02  1.28D-01
 E= -3552.64687061249     Delta-E=      -19.427843061654 Rises=F Damp=F
 DIIS: error= 1.35D-01 at cycle   4 NSaved=   4.
 NSaved= 4 IEnMin= 4 EnMin= -3552.64687061249     IErMin= 4 ErrMin= 1.35D-01
 ErrMax= 1.35D-01  0.00D+00 EMaxC= 1.00D-01 BMatC= 1.78D+01 BMatP= 2.13D+01
 IDIUse=3 WtCom= 0.00D+00 WtEn= 1.00D+00
 EnCoef did   100 forward-backward iterations
 Coeff-Com: -0.624D+00 0.129D+01 0.859D-01 0.250D+00
 Coeff-En:   0.328D+00 0.963D-02 0.997D-01 0.562D+00
 Coeff:      0.328D+00 0.963D-02 0.997D-01 0.562D+00
 Gap=     0.130 Goal=   None    Shift=    0.000
 Gap=     0.046 Goal=   None    Shift=    0.000
 RMSDP=7.69D-03 MaxDP=9.99D-01 DE=-1.94D+01 OVMax= 8.93D-01

 Cycle   5  Pass 1  IDiag  1:
 RMSU=  6.21D-03    CP:  9.05D-01  1.39D-01  2.35D-01  1.15D-01
 E= -3544.08387188609     Delta-E=        8.562998726402 Rises=F Damp=F
 DIIS: error= 1.02D-01 at cycle   5 NSaved=   5.
 NSaved= 5 IEnMin= 4 EnMin= -3552.64687061249     IErMin= 5 ErrMin= 1.02D-01
 ErrMax= 1.02D-01  0.00D+00 EMaxC= 1.00D-01 BMatC= 3.54D+01 BMatP= 1.78D+01
 IDIUse=2 WtCom= 0.00D+00 WtEn= 1.00D+00
 EnCoef did   100 forward-backward iterations
 Coeff-En:   0.203D+00 0.362D-02 0.000D+00 0.570D+00 0.223D+00
 Coeff:      0.203D+00 0.362D-02 0.000D+00 0.570D+00 0.223D+00
 Gap=     0.153 Goal=   None    Shift=    0.000
 Gap=     0.319 Goal=   None    Shift=    0.000
 RMSDP=5.42D-03 MaxDP=2.91D-01 DE= 8.56D+00 OVMax= 7.61D-01

 Cycle   6  Pass 1  IDiag  1:
 RMSU=  3.06D-03    CP:  8.96D-01  7.95D-02  1.75D-01  3.79D-01  3.20D-01
 E= -3556.08363782286     Delta-E=      -11.999765936767 Rises=F Damp=F
 DIIS: error= 2.48D-02 at cycle   6 NSaved=   6.
 NSaved= 6 IEnMin= 6 EnMin= -3556.08363782286     IErMin= 6 ErrMin= 2.48D-02
 ErrMax= 2.48D-02  0.00D+00 EMaxC= 1.00D-01 BMatC= 2.98D+00 BMatP= 1.78D+01
 IDIUse=3 WtCom= 7.52D-01 WtEn= 2.48D-01
 EnCoef did   100 forward-backward iterations
 Coeff-Com: -0.301D-01 0.196D+00-0.179D-01 0.216D+00 0.823D-01 0.553D+00
 Coeff-En:   0.147D+00 0.150D-02 0.000D+00 0.167D+00 0.000D+00 0.684D+00
 Coeff:      0.139D-01 0.148D+00-0.135D-01 0.204D+00 0.619D-01 0.586D+00
 Gap=     0.035 Goal=   None    Shift=    0.000
 Gap=    -0.101 Goal=   None    Shift=    0.000
 RMSDP=5.67D-03 MaxDP=9.43D-01 DE=-1.20D+01 OVMax= 8.17D-01

 Cycle   7  Pass 1  IDiag  1:
 RMSU=  4.25D-03    CP:  9.17D-01  3.06D-02  8.89D-02  4.25D-01  2.15D-01
                    CP: -1.65D-01
 E= -3549.68364155293     Delta-E=        6.399996269934 Rises=F Damp=F
 DIIS: error= 1.08D-01 at cycle   7 NSaved=   7.
 NSaved= 7 IEnMin= 6 EnMin= -3556.08363782286     IErMin= 6 ErrMin= 2.48D-02
 ErrMax= 1.08D-01  0.00D+00 EMaxC= 1.00D-01 BMatC= 2.08D+01 BMatP= 2.98D+00
 IDIUse=2 WtCom= 0.00D+00 WtEn= 1.00D+00
 EnCoef did     9 forward-backward iterations
 Coeff-En:   0.724D-01 0.000D+00 0.000D+00 0.118D+00 0.000D+00 0.651D+00
 Coeff-En:   0.158D+00
 Coeff:      0.724D-01 0.000D+00 0.000D+00 0.118D+00 0.000D+00 0.651D+00
 Coeff:      0.158D+00
 Gap=     0.067 Goal=   None    Shift=    0.000
 Gap=     0.055 Goal=   None    Shift=    0.000
 RMSDP=4.32D-03 MaxDP=3.16D-01 DE= 6.40D+00 OVMax= 6.69D-01

 Cycle   8  Pass 1  IDiag  1:
 RMSU=  2.08D-03    CP:  9.05D-01 -1.24D-02  1.01D-01  6.06D-01  8.61D-02
                    CP:  3.40D-01  2.41D-01
 E= -3557.27837138521     Delta-E=       -7.594729832286 Rises=F Damp=F
 DIIS: error= 2.36D-02 at cycle   8 NSaved=   8.
 NSaved= 8 IEnMin= 8 EnMin= -3557.27837138521     IErMin= 8 ErrMin= 2.36D-02
 ErrMax= 2.36D-02  0.00D+00 EMaxC= 1.00D-01 BMatC= 1.06D+00 BMatP= 2.98D+00
 IDIUse=3 WtCom= 7.64D-01 WtEn= 2.36D-01
 Coeff-Com: -0.297D-01 0.380D-01 0.472D-02 0.140D-01 0.318D-01 0.315D+00
 Coeff-Com:  0.388D-01 0.587D+00
 Coeff-En:   0.000D+00 0.000D+00 0.000D+00 0.000D+00 0.000D+00 0.238D+00
 Coeff-En:   0.000D+00 0.762D+00
 Coeff:     -0.227D-01 0.291D-01 0.360D-02 0.107D-01 0.243D-01 0.297D+00
 Coeff:      0.296D-01 0.628D+00
 Gap=     0.203 Goal=   None    Shift=    0.000
 Gap=     0.107 Goal=   None    Shift=    0.000
 RMSDP=1.42D-03 MaxDP=1.24D-01 DE=-7.59D+00 OVMax= 1.57D-01

 Cycle   9  Pass 1  IDiag  1:
 RMSU=  1.07D-03    CP:  8.99D-01 -1.64D-03  1.22D-01  5.20D-01  1.72D-01
                    CP:  4.76D-01  1.80D-01  8.33D-01
 E= -3557.57117105714     Delta-E=       -0.292799671926 Rises=F Damp=F
 DIIS: error= 7.76D-03 at cycle   9 NSaved=   9.
 NSaved= 9 IEnMin= 9 EnMin= -3557.57117105714     IErMin= 9 ErrMin= 7.76D-03
 ErrMax= 7.76D-03  0.00D+00 EMaxC= 1.00D-01 BMatC= 2.14D-01 BMatP= 1.06D+00
 IDIUse=3 WtCom= 9.22D-01 WtEn= 7.76D-02
 Coeff-Com: -0.377D-01 0.501D-01 0.302D-02-0.218D-02 0.110D-01 0.152D+00
 Coeff-Com: -0.925D-03 0.323D+00 0.501D+00
 Coeff-En:   0.000D+00 0.000D+00 0.000D+00 0.000D+00 0.000D+00 0.000D+00
 Coeff-En:   0.000D+00 0.000D+00 0.100D+01
 Coeff:     -0.347D-01 0.462D-01 0.278D-02-0.201D-02 0.101D-01 0.141D+00
 Coeff:     -0.853D-03 0.298D+00 0.540D+00
 Gap=     0.151 Goal=   None    Shift=    0.000
 Gap=     0.030 Goal=   None    Shift=    0.000
 RMSDP=7.39D-04 MaxDP=7.69D-02 DE=-2.93D-01 OVMax= 1.61D-01

 Cycle  10  Pass 1  IDiag  1:
 RMSU=  6.47D-04    CP:  8.97D-01 -3.38D-03  1.26D-01  5.29D-01  1.71D-01
                    CP:  4.79D-01  1.61D-01  7.68D-01  7.07D-01
 E= -3557.61627408993     Delta-E=       -0.045103032797 Rises=F Damp=F
 DIIS: error= 8.30D-03 at cycle  10 NSaved=  10.
 NSaved=10 IEnMin=10 EnMin= -3557.61627408993     IErMin= 9 ErrMin= 7.76D-03
 ErrMax= 8.30D-03  0.00D+00 EMaxC= 1.00D-01 BMatC= 1.03D-01 BMatP= 2.14D-01
 IDIUse=3 WtCom= 9.22D-01 WtEn= 7.76D-02
 Coeff-Com: -0.346D-01 0.578D-01-0.783D-03-0.974D-02-0.379D-02 0.762D-01
 Coeff-Com: -0.540D-02 0.911D-01 0.356D+00 0.473D+00
 Coeff-En:   0.000D+00 0.000D+00 0.000D+00 0.000D+00 0.000D+00 0.000D+00
 Coeff-En:   0.000D+00 0.000D+00 0.190D+00 0.810D+00
 Coeff:     -0.319D-01 0.533D-01-0.722D-03-0.899D-02-0.350D-02 0.703D-01
 Coeff:     -0.498D-02 0.841D-01 0.343D+00 0.499D+00
 Gap=     0.094 Goal=   None    Shift=    0.000
 Gap=     0.028 Goal=   None    Shift=    0.000
 RMSDP=4.00D-04 MaxDP=4.51D-02 DE=-4.51D-02 OVMax= 1.17D-01

 Cycle  11  Pass 1  IDiag  1:
 RMSU=  3.04D-04    CP:  8.97D-01  1.66D-03  1.28D-01  5.25D-01  1.77D-01
                    CP:  5.02D-01  1.48D-01  7.19D-01  8.61D-01  7.88D-01
 E= -3557.63042752447     Delta-E=       -0.014153434535 Rises=F Damp=F
 DIIS: error= 1.15D-02 at cycle  11 NSaved=  11.
 NSaved=11 IEnMin=11 EnMin= -3557.63042752447     IErMin= 9 ErrMin= 7.76D-03
 ErrMax= 1.15D-02  0.00D+00 EMaxC= 1.00D-01 BMatC= 7.36D-02 BMatP= 1.03D-01
 IDIUse=3 WtCom= 9.22D-01 WtEn= 7.76D-02
 Coeff-Com: -0.326D-01 0.577D-01-0.132D-02-0.172D-01-0.444D-02 0.628D-01
 Coeff-Com: -0.437D-02 0.962D-01 0.209D+00 0.318D+00 0.316D+00
 Coeff-En:   0.000D+00 0.000D+00 0.000D+00 0.000D+00 0.000D+00 0.000D+00
 Coeff-En:   0.000D+00 0.000D+00 0.000D+00 0.215D+00 0.785D+00
 Coeff:     -0.300D-01 0.532D-01-0.121D-02-0.159D-01-0.410D-02 0.579D-01
 Coeff:     -0.403D-02 0.887D-01 0.193D+00 0.310D+00 0.352D+00
 Gap=     0.100 Goal=   None    Shift=    0.000
 Gap=     0.032 Goal=   None    Shift=    0.000
 RMSDP=1.79D-04 MaxDP=1.69D-02 DE=-1.42D-02 OVMax= 6.51D-02

 Cycle  12  Pass 1  IDiag  1:
 RMSU=  1.31D-04    CP:  8.97D-01  4.29D-04  1.27D-01  5.24D-01  1.76D-01
                    CP:  5.03D-01  1.48D-01  7.21D-01  8.37D-01  8.60D-01
                    CP:  6.45D-01
 E= -3557.63651707406     Delta-E=       -0.006089549588 Rises=F Damp=F
 DIIS: error= 9.82D-03 at cycle  12 NSaved=  12.
 NSaved=12 IEnMin=12 EnMin= -3557.63651707406     IErMin= 9 ErrMin= 7.76D-03
 ErrMax= 9.82D-03  0.00D+00 EMaxC= 1.00D-01 BMatC= 4.26D-02 BMatP= 7.36D-02
 IDIUse=3 WtCom= 9.22D-01 WtEn= 7.76D-02
 Coeff-Com: -0.262D-01 0.479D-01-0.964D-03-0.232D-01-0.278D-02 0.525D-01
 Coeff-Com: -0.240D-02 0.129D+00 0.596D-01-0.995D-02 0.112D+00 0.664D+00
 Coeff-En:   0.000D+00 0.000D+00 0.000D+00 0.000D+00 0.000D+00 0.000D+00
 Coeff-En:   0.000D+00 0.000D+00 0.000D+00 0.000D+00 0.000D+00 0.100D+01
 Coeff:     -0.242D-01 0.442D-01-0.889D-03-0.214D-01-0.256D-02 0.485D-01
 Coeff:     -0.221D-02 0.119D+00 0.550D-01-0.918D-02 0.104D+00 0.690D+00
 Gap=     0.106 Goal=   None    Shift=    0.000
 Gap=     0.035 Goal=   None    Shift=    0.000
 RMSDP=1.30D-04 MaxDP=1.62D-02 DE=-6.09D-03 OVMax= 4.67D-02

 Cycle  13  Pass 1  IDiag  1:
 RMSU=  9.22D-05    CP:  8.97D-01 -9.32D-04  1.26D-01  5.23D-01  1.73D-01
                    CP:  5.04D-01  1.50D-01  7.27D-01  8.10D-01  8.49D-01
                    CP:  8.70D-01  6.75D-01
 E= -3557.63965573128     Delta-E=       -0.003138657226 Rises=F Damp=F
 DIIS: error= 6.76D-03 at cycle  13 NSaved=  13.
 NSaved=13 IEnMin=13 EnMin= -3557.63965573128     IErMin=13 ErrMin= 6.76D-03
 ErrMax= 6.76D-03  0.00D+00 EMaxC= 1.00D-01 BMatC= 2.26D-02 BMatP= 4.26D-02
 IDIUse=3 WtCom= 9.32D-01 WtEn= 6.76D-02
 Coeff-Com: -0.148D-01 0.269D-01 0.175D-03-0.193D-01 0.407D-03 0.249D-01
 Coeff-Com: -0.133D-03 0.989D-01-0.530D-01-0.294D+00-0.467D+00 0.615D+00
 Coeff-Com:  0.108D+01
 Coeff-En:   0.000D+00 0.000D+00 0.000D+00 0.000D+00 0.000D+00 0.000D+00
 Coeff-En:   0.000D+00 0.000D+00 0.000D+00 0.000D+00 0.000D+00 0.000D+00
 Coeff-En:   0.100D+01
 Coeff:     -0.138D-01 0.251D-01 0.163D-03-0.180D-01 0.380D-03 0.232D-01
 Coeff:     -0.124D-03 0.922D-01-0.494D-01-0.274D+00-0.436D+00 0.574D+00
 Coeff:      0.108D+01
 Gap=     0.112 Goal=   None    Shift=    0.000
 Gap=     0.039 Goal=   None    Shift=    0.000
 RMSDP=1.46D-04 MaxDP=1.55D-02 DE=-3.14D-03 OVMax= 2.55D-02

 Cycle  14  Pass 1  IDiag  1:
 RMSU=  9.57D-05    CP:  8.98D-01 -6.09D-04  1.24D-01  5.19D-01  1.70D-01
                    CP:  5.10D-01  1.49D-01  7.28D-01  7.91D-01  8.44D-01
                    CP:  8.81D-01  1.43D+00  7.77D-01
 E= -3557.64219294812     Delta-E=       -0.002537216838 Rises=F Damp=F
 DIIS: error= 2.20D-03 at cycle  14 NSaved=  14.
 NSaved=14 IEnMin=14 EnMin= -3557.64219294812     IErMin=14 ErrMin= 2.20D-03
 ErrMax= 2.20D-03  0.00D+00 EMaxC= 1.00D-01 BMatC= 5.99D-03 BMatP= 2.26D-02
 IDIUse=3 WtCom= 9.78D-01 WtEn= 2.20D-02
 Coeff-Com: -0.527D-02 0.916D-02 0.356D-03-0.384D-02 0.913D-03 0.261D-03
 Coeff-Com:  0.904D-03-0.111D-02-0.175D-01-0.138D+00-0.479D+00-0.106D+00
 Coeff-Com:  0.102D+01 0.724D+00
 Coeff-En:   0.000D+00 0.000D+00 0.000D+00 0.000D+00 0.000D+00 0.000D+00
 Coeff-En:   0.000D+00 0.000D+00 0.000D+00 0.000D+00 0.000D+00 0.000D+00
 Coeff-En:   0.691D-01 0.931D+00
 Coeff:     -0.516D-02 0.895D-02 0.348D-03-0.375D-02 0.893D-03 0.256D-03
 Coeff:      0.884D-03-0.108D-02-0.171D-01-0.135D+00-0.469D+00-0.104D+00
 Coeff:      0.995D+00 0.729D+00
 Gap=     0.108 Goal=   None    Shift=    0.000
 Gap=     0.040 Goal=   None    Shift=    0.000
 RMSDP=1.16D-04 MaxDP=1.15D-02 DE=-2.54D-03 OVMax= 3.62D-02

 Cycle  15  Pass 1  IDiag  1:
 RMSU=  5.51D-05    CP:  8.98D-01  2.11D-04  1.24D-01  5.16D-01  1.71D-01
                    CP:  5.15D-01  1.44D-01  7.13D-01  7.86D-01  8.94D-01
                    CP:  9.85D-01  1.47D+00  1.54D+00  6.10D-01
 E= -3557.64342909271     Delta-E=       -0.001236144592 Rises=F Damp=F
 DIIS: error= 8.39D-04 at cycle  15 NSaved=  15.
 NSaved=15 IEnMin=15 EnMin= -3557.64342909271     IErMin=15 ErrMin= 8.39D-04
 ErrMax= 8.39D-04  0.00D+00 EMaxC= 1.00D-01 BMatC= 1.16D-03 BMatP= 5.99D-03
 IDIUse=3 WtCom= 9.92D-01 WtEn= 8.39D-03
 Coeff-Com: -0.111D-02 0.204D-02 0.208D-03-0.990D-03 0.206D-03-0.183D-03
 Coeff-Com:  0.568D-03-0.802D-02 0.236D-02-0.518D-01-0.264D+00-0.146D+00
 Coeff-Com:  0.516D+00 0.499D+00 0.452D+00
 Coeff-En:   0.000D+00 0.000D+00 0.000D+00 0.000D+00 0.000D+00 0.000D+00
 Coeff-En:   0.000D+00 0.000D+00 0.000D+00 0.000D+00 0.000D+00 0.000D+00
 Coeff-En:   0.000D+00 0.588D-01 0.941D+00
 Coeff:     -0.110D-02 0.202D-02 0.206D-03-0.982D-03 0.204D-03-0.181D-03
 Coeff:      0.563D-03-0.795D-02 0.234D-02-0.514D-01-0.262D+00-0.145D+00
 Coeff:      0.511D+00 0.495D+00 0.457D+00
 Gap=     0.109 Goal=   None    Shift=    0.000
 Gap=     0.040 Goal=   None    Shift=    0.000
 RMSDP=3.93D-05 MaxDP=3.24D-03 DE=-1.24D-03 OVMax= 7.54D-03

 Cycle  16  Pass 1  IDiag  1:
 RMSU=  2.66D-05    CP:  8.98D-01  4.85D-04  1.23D-01  5.16D-01  1.70D-01
                    CP:  5.16D-01  1.45D-01  7.15D-01  7.84D-01  8.84D-01
                    CP:  9.90D-01  1.50D+00  1.50D+00  7.60D-01  6.01D-01
 E= -3557.64370698398     Delta-E=       -0.000277891264 Rises=F Damp=F
 DIIS: error= 1.52D-04 at cycle  16 NSaved=  16.
 NSaved=16 IEnMin=16 EnMin= -3557.64370698398     IErMin=16 ErrMin= 1.52D-04
 ErrMax= 1.52D-04  0.00D+00 EMaxC= 1.00D-01 BMatC= 9.99D-05 BMatP= 1.16D-03
 IDIUse=3 WtCom= 9.98D-01 WtEn= 1.52D-03
 Coeff-Com:  0.126D-03-0.328D-04-0.423D-05 0.620D-04 0.630D-04 0.913D-03
 Coeff-Com: -0.459D-04-0.364D-02 0.519D-02-0.249D-02-0.653D-01-0.468D-01
 Coeff-Com:  0.102D+00 0.156D+00 0.263D+00 0.591D+00
 Coeff-En:   0.000D+00 0.000D+00 0.000D+00 0.000D+00 0.000D+00 0.000D+00
 Coeff-En:   0.000D+00 0.000D+00 0.000D+00 0.000D+00 0.000D+00 0.000D+00
 Coeff-En:   0.000D+00 0.000D+00 0.240D-01 0.976D+00
 Coeff:      0.126D-03-0.327D-04-0.423D-05 0.619D-04 0.629D-04 0.912D-03
 Coeff:     -0.459D-04-0.364D-02 0.518D-02-0.248D-02-0.652D-01-0.467D-01
 Coeff:      0.102D+00 0.156D+00 0.262D+00 0.592D+00
 Gap=     0.109 Goal=   None    Shift=    0.000
 Gap=     0.040 Goal=   None    Shift=    0.000
 RMSDP=1.62D-05 MaxDP=1.69D-03 DE=-2.78D-04 OVMax= 3.74D-03

 Cycle  17  Pass 1  IDiag  1:
 RMSU=  1.23D-05    CP:  8.98D-01  1.62D-04  1.23D-01  5.15D-01  1.70D-01
                    CP:  5.16D-01  1.45D-01  7.16D-01  7.86D-01  8.79D-01
                    CP:  9.72D-01  1.49D+00  1.51D+00  7.80D-01  7.15D-01
                    CP:  8.69D-01
 E= -3557.64372901839     Delta-E=       -0.000022034412 Rises=F Damp=F
 DIIS: error= 3.18D-04 at cycle  17 NSaved=  17.
 NSaved=17 IEnMin=17 EnMin= -3557.64372901839     IErMin=16 ErrMin= 1.52D-04
 ErrMax= 3.18D-04  0.00D+00 EMaxC= 1.00D-01 BMatC= 6.39D-05 BMatP= 9.99D-05
 IDIUse=3 WtCom= 9.98D-01 WtEn= 1.52D-03
 Coeff-Com: -0.295D-04 0.128D-03-0.169D-04 0.199D-03 0.322D-04 0.716D-03
 Coeff-Com: -0.122D-03-0.139D-02 0.508D-04-0.635D-04-0.181D-01 0.536D-02
 Coeff-Com:  0.177D-01 0.454D-01 0.113D+00 0.362D+00 0.475D+00
 Coeff-En:   0.000D+00 0.000D+00 0.000D+00 0.000D+00 0.000D+00 0.000D+00
 Coeff-En:   0.000D+00 0.000D+00 0.000D+00 0.000D+00 0.000D+00 0.000D+00
 Coeff-En:   0.000D+00 0.000D+00 0.000D+00 0.127D+00 0.873D+00
 Coeff:     -0.295D-04 0.128D-03-0.168D-04 0.199D-03 0.321D-04 0.715D-03
 Coeff:     -0.122D-03-0.139D-02 0.507D-04-0.634D-04-0.181D-01 0.535D-02
 Coeff:      0.177D-01 0.454D-01 0.113D+00 0.361D+00 0.476D+00
 Gap=     0.109 Goal=   None    Shift=    0.000
 Gap=     0.040 Goal=   None    Shift=    0.000
 RMSDP=7.61D-06 MaxDP=4.67D-04 DE=-2.20D-05 OVMax= 2.73D-03

 Cycle  18  Pass 1  IDiag  1:
 RMSU=  5.90D-06    CP:  8.98D-01  1.76D-04  1.23D-01  5.15D-01  1.70D-01
                    CP:  5.15D-01  1.45D-01  7.16D-01  7.86D-01  8.79D-01
[...]
 0.00000007,0.00000072,-0.00000018,-0.00000049,0.00000035,-0.00000064,0
 .00000043,-0.00000035,-0.00000042,-0.00000064,0.00000011,0.00000051,0.
 00000023,0.00000020,-0.00000015,0.00000032,-0.00000040,-0.00000108,0.0
 0000014,-0.00000043,0.00000129,0.00000041,0.00000071,-0.00000031,0.000
 00159,0.00000008,-0.00000012,0.00000133,0.00000017,-0.00000195,0.00000
 705,-0.00000726,-0.00000112,-0.00000117,0.00000287,-0.00000499,-0.0000
 0653,0.00000248,0.00000414,0.00000379,-0.00000256,-0.00000154,-0.00001
 556,0.00000072,0.00003188,0.00000892,0.00000644,-0.00475400,0.01037048
 ,0.02674212,0.00012412,0.00001766,-0.00006945,-0.00006810,-0.00005109,
 0.00022571,-0.00018692,0.00007885,-0.00088432,-0.00225225,0.00137136,0
 .00032583,-0.00014058,-0.00192679,-0.00031130,0.01214565,0.01129267,0.
 00061983,-0.00084678,0.00252838,0.00026113,-0.00059921,0.00095357,-0.0
 0004437,-0.00486154,0.00175461,0.00041079,0.00006483,-0.00112579,-0.00
 014693,-0.00000936,0.00003422,-0.00007118,0.00022247,0.00021613,0.0001
 7511,0.00001017,-0.00009875,-0.00018785,-0.00026278,-0.00006035,-0.000
 14194,-0.00018266,-0.00005434,0.00013668,0.00011368,0.00016186,-0.0001
 5752,0.00001440,-0.00018118,0.00018575,0.00007116,-0.00002428,-0.00002
 522,0.00004729,0.00009066,-0.00009338,0.00000186,0.00000043,0.00000368
 ,0.00000205,0.00000396,-0.00001479,-0.00001641,-0.00000429,-0.00000933
 ,0.00005139,0.00000106,0.00000321,-0.00006489,0.00000065,0.00000970,0.
 00001919,-0.00000411,-0.00002076,0.00000733,0.00000757,0.00000386,-0.0
 0000786,-0.00000633,-0.00000189,0.00000301,0.00000209,-0.00000061,-0.0
 0001260,0.00000294,0.00001144,0.00000148,-0.00000489,0.00001299,-0.000
 03976,-0.00007184,0.00007406,0.00003824,0.00008184,-0.00009247,-0.0000
 8837,-0.00000942,0.00002092,0.00002752,-0.00002983,0.00003701,-0.00003
 630,0.00002942,-0.00002489,0.00002836,-0.00002643,0.00000828,-0.000009
 79,-0.00004595,-0.00008589,-0.00006436,0.00003686,0.00004765,0.0000426
 1,-0.00002974,-0.00005092,-0.00010933,-0.00002788,-0.00003880,0.000043
 79,0.00008372,0.00014437,-0.00037132,0.00002682,0.00004144,-0.01264636
 ,-0.02853653,-0.00068114,-0.13444894,-0.12613664,-0.00451445,-0.000018
 88,0.00000165,-0.00000485,-0.00000999,-0.00001437,0.00001690,-0.000025
 29,0.00000466,0.00001569,-0.00069966,0.00025918,-0.00036937,-0.0001303
 6,-0.00004961,0.00001015,0.00013533,0.00005303,0.00007566,-0.00284995,
 0.00082703,0.00046654,0.00039124,0.00073469,0.00010555,-0.00000830,-0.
 00007795,-0.00001373,0.00002017,-0.00004146,0.00002860,0.00000298,-0.0
 0000514,0.00000354,0.00000324,-0.00000168,-0.00000228,-0.00000288,-0.0
 0000064,0.00000274,-0.00000351,-0.00000064,0.00000086,0.00000035,0.000
 00050,0.00000327,-0.00000159,-0.00000141,0.00000203,-0.00000160,0.0000
 0166,-0.00000177,-0.00000144,-0.00000188,0.00000032,0.00000178,0.00000
 025,0.00000165,-0.00000070,0.00000133,-0.00000148,-0.00000265,0.000000
 38,-0.00000165,0.00000400,0.00000242,0.00000361,-0.00000368,0.00000290
 ,-0.00000155,-0.00000277,0.00000255,-0.00000331,0.00000333,0.00000552,
 -0.00000986,0.00000605,-0.00000217,-0.00000791,-0.00000178,0.00000469,
 0.00000269,-0.00000027,-0.00000034,0.00000019,-0.00000193,-0.00000643,
 -0.00000622,-0.00000083,0.00001448,0.00001567,0.00128528,0.00028592,-0
 .00004400,0.14618729,-0.00024542,-0.00049569,0.00011383,-0.00043019,0.
 00065823,-0.00054983,0.00097824,0.00007793,0.00015495,-0.00065140,-0.0
 0137981,0.00071078,-0.00012575,0.00173332,0.00016934,-0.01916597,-0.01
 739962,-0.00050036,0.00398392,-0.00335454,-0.00040165,0.00109674,0.000
 16539,0.00002621,0.00107335,0.00180325,-0.00030651,0.00021004,0.000162
 24,0.00001594,-0.00000237,-0.00006093,0.00000100,0.00011669,0.00010743
 ,0.00010191,0.00000462,-0.00007422,-0.00011772,-0.00015389,-0.00002721
 ,-0.00008760,-0.00012137,-0.00003628,0.00008757,0.00007351,0.00010969,
 -0.00010531,0.00001408,-0.00011621,0.00012401,0.00004475,-0.00001572,-
 0.00001583,0.00003378,0.00005869,-0.00006018,0.00000190,-0.00000069,0.
 00000286,0.00000212,0.00000268,-0.00001028,-0.00001300,-0.00000369,-0.
 00000770,0.00004289,0.00000113,0.00000260,-0.00005355,0.00000007,0.000
 00834,0.00001632,-0.00000290,-0.00001717,0.00000658,0.00000683,0.00000
 320,-0.00000715,-0.00000594,-0.00000157,0.00000275,0.00000198,-0.00000
 056,-0.00000975,0.00000196,0.00000932,0.00000133,-0.00000366,0.0000089
 8,-0.00002587,-0.00004634,0.00004840,0.00002280,0.00005167,-0.00005866
 ,-0.00005363,-0.00000907,0.00001515,0.00001676,-0.00001769,0.00001945,
 -0.00001900,0.00001474,-0.00001376,0.00001556,-0.00001445,-0.00000188,
 0.00001708,-0.00003182,0.00000555,-0.00002785,0.00001552,0.00001785,0.
 00001860,-0.00001370,-0.00002801,-0.00006417,-0.00000364,-0.00000704,0
 .00004694,0.00006699,0.00006610,-0.00005338,-0.00004784,0.00000514,0.0
 0255330,0.00487492,0.00025899,-0.12528073,-0.26426841,-0.00758230,0.00
 000666,0.00007658,0.00003549,-0.00000036,0.00006250,-0.00002655,0.0000
 5790,0.00000809,-0.00002749,-0.00040076,0.00021402,0.00041348,-0.00013
 271,-0.00005061,0.00008035,-0.00002661,0.00055453,-0.00017298,0.000041
 75,0.00115466,-0.00082549,-0.00091491,-0.00095319,0.00000617,-0.000071
 30,-0.00002511,0.00003066,0.00000321,-0.00000687,-0.00002283,0.0000020
 8,-0.00000335,0.00000307,0.00000249,-0.00000096,-0.00000208,-0.0000020
 5,-0.00000017,0.00000224,-0.00000293,-0.00000050,0.00000067,0.00000023
 ,0.00000025,0.00000261,-0.00000132,-0.00000115,0.00000171,-0.00000140,
 0.00000142,-0.00000149,-0.00000125,-0.00000170,0.00000022,0.00000155,0
 .00000018,0.00000144,-0.00000063,0.00000113,-0.00000134,-0.00000188,0.
 00000036,-0.00000142,0.00000303,0.00000214,0.00000290,-0.00000278,0.00
 000222,-0.00000074,-0.00000165,0.00000239,-0.00000190,0.00000349,0.000
 00248,-0.00000294,0.00000385,0.00000358,-0.00000587,0.00000159,0.00000
 400,0.00000714,-0.00000165,-0.00000050,0.00000082,0.00000138,-0.000003
 90,-0.00000009,0.00000743,-0.00000095,0.00002475,-0.00014033,0.0009112
 2,0.00022065,0.13768974,0.27556365,-0.00005213,0.00017464,0.00006948,0
 .00032820,-0.00038421,-0.00015629,-0.00113803,0.00030984,0.00023696,0.
 00025727,0.00048213,-0.00022927,-0.00005389,0.00000696,-0.00297406,-0.
 00152799,-0.00102852,0.00384214,0.00058797,-0.00031181,0.00519608,-0.0
 0008715,0.00010410,-0.00050356,-0.00017416,-0.00033244,0.00664803,0.00
 020536,-0.00011185,0.00051912,-0.00007221,0.00016983,-0.00005356,0.000
 14181,0.00009393,0.00009115,-0.00000897,-0.00007148,-0.00009522,-0.000
 11619,-0.00004166,-0.00006016,-0.00005672,-0.00001699,0.00003891,0.000
 03647,0.00005625,-0.00005652,0.00001204,-0.00005279,0.00006285,0.00002
 576,-0.00000975,-0.00000843,0.00001584,0.00003140,-0.00003335,-0.00000
 027,0.00000025,0.00000051,0.00000071,0.00000132,-0.00000372,-0.0000045
 6,-0.00000141,-0.00000310,0.00001478,0.00000046,0.00000115,-0.00001831
 ,0.,0.00000167,0.00000513,-0.00000101,-0.00000485,0.00000271,0.0000030
 5,0.00000184,-0.00000239,-0.00000294,-0.00000206,0.00000045,0.00000114
 ,0.00000098,-0.00000396,0.00000082,0.00000318,0.00000081,-0.00000145,0
 .00000491,-0.00001192,-0.00002600,0.00002648,0.00001392,0.00003038,-0.
 00003492,-0.00003335,-0.00000401,0.00000735,0.00001050,-0.00001446,0.0
 0001453,-0.00001610,0.00001025,-0.00001113,0.00000872,-0.00000676,0.00
 000200,-0.00000189,-0.00001531,0.00002607,0.00000382,0.00001845,0.0000
 1322,0.00002596,-0.00002138,-0.00001771,-0.00004306,-0.00001992,-0.000
 01890,0.00005391,0.00001821,0.00001492,0.00007236,-0.00001855,-0.00002
 010,0.00058696,0.00048390,0.00278755,-0.00443953,-0.00797665,-0.033257
 55,-0.00000049,-0.00004340,-0.00001189,0.00002033,-0.00002456,-0.00000
 298,0.00002602,-0.00000897,-0.00002140,-0.00047983,0.00025559,-0.00077
 078,-0.00001006,-0.00006058,-0.00008899,-0.00007989,0.00012177,-0.0002
 6240,0.00146018,-0.00010317,0.00017455,-0.00005415,-0.00008777,0.00010
 005,-0.00000149,0.00002394,-0.00082146,0.00004609,-0.00000037,0.000003
 26,0.00000125,-0.00000131,0.00000115,0.00000068,-0.00000036,-0.0000007
 8,-0.00000052,-0.00000016,0.00000074,-0.00000102,-0.00000013,0.0000002
 2,0.00000001,-0.00000009,0.00000080,-0.00000023,-0.00000054,0.00000040
 ,-0.00000070,0.00000049,-0.00000041,-0.00000049,-0.00000072,0.00000012
 ,0.00000058,0.00000024,0.00000025,-0.00000017,0.00000037,-0.00000046,-
 0.00000105,0.00000012,-0.00000049,0.00000132,0.00000072,0.00000087,-0.
 00000088,0.00000121,-0.00000013,-0.00000112,0.00000129,-0.00000045,0.0
 0000081,0.00000373,-0.00000313,0.00000251,0.00000034,0.00000050,0.0000
 0428,0.00000795,0.00000375,0.00000036,0.00000032,-0.00000008,-0.000001
 44,-0.00000092,-0.00000439,-0.00001548,0.00000923,-0.00001637,-0.00010
 638,0.00020421,-0.00427462,0.00464462,0.00817358,0.02392795,-0.0000419
 6,-0.00001813,0.00004891,-0.00000973,0.00006190,-0.00008034,0.00002713
 ,-0.00004852,0.00007709,0.00013144,0.00011684,0.00001327,-0.00041778,-
 0.00001967,-0.00001816,0.00031657,-0.00007110,0.00001573,-0.00009873,-
 0.00008276,-0.00001033,0.00001731,-0.00010818,-0.00016067,-0.00008421,
 -0.00011715,-0.00010920,0.00078967,0.00222006,0.00326972,0.00343481,-0
 .00026433,-0.00091922,-0.00820463,0.00831557,0.02234145,-0.02376297,-0
 .04392843,0.01593795,-0.00245348,-0.00337380,-0.00603462,-0.00177709,-
 0.00474637,0.00593455,-0.01292341,0.01163856,-0.02346900,-0.02810863,-
 0.04570026,-0.02008999,0.00400887,-0.00073307,0.00075804,0.00053316,0.
 00311025,-0.00311369,-0.00003323,-0.00018130,0.00014111,0.00000202,-0.
 00002000,-0.00029795,-0.00014478,-0.00001745,0.00001227,0.00027377,0.0
 0001821,0.00000592,-0.00034934,-0.00000098,0.00007740,0.00010400,-0.00
 002721,-0.00012475,0.00000805,0.00003979,0.00000579,-0.00001638,-0.000
 02944,0.00000602,-0.00000058,0.00001510,-0.00001602,-0.00005601,0.0000
 4187,0.00010987,0.00001409,-0.00010248,0.00010726,-0.00015369,-0.00238
 870,0.00253443,0.00054139,0.00251990,-0.00277440,-0.00223635,-0.000717
 31,0.00097730,0.00063435,-0.00079436,0.00077178,-0.00054664,0.00018462
 ,-0.00005134,-0.00117208,0.00047685,-0.00116630,-0.00077452,-0.0001051
 3,0.00117780,-0.00047847,0.00019548,0.00021206,0.00053857,-0.00047836,
 -0.00097004,-0.00217351,-0.00050429,-0.00077617,0.00079440,0.00186556,
 0.00284197,-0.00051374,-0.00160550,-0.00278088,0.00005244,0.00015430,0
 .00004859,-0.00016258,0.00007657,-0.00002673,0.00001488,-0.00001307,-0
 .00000300,-0.00001064,0.00000334,-0.00001260,0.00001519,-0.00000401,0.
 00000470,-0.00000241,0.00000668,0.00000676,-0.00000900,-0.00000373,-0.
 00001571,-0.00001895,-0.00000764,-0.00000474,-0.00000444,-0.00001598,-
 0.00000378,-0.00001896,0.00001075,0.00002652,0.00003895,-0.00003817,0.
 00005116,-0.00024594,-0.00026418,-0.00000975,-0.00019370,-0.00020065,0
 .00002008,-0.00000078,0.00002043,0.00003703,-0.00003679,-0.00000089,0.
 00000913,-0.00001489,-0.00000226,0.00000954,-0.00000077,0.00000979,0.0
 0001728,-0.00001151,-0.00000805,0.00001155,0.00000093,0.00000201,-0.00
 000977,-0.00000597,-0.00000719,0.00000255,0.00000961,-0.00000065,0.000
 01204,0.00000256,0.00000481,-0.00000368,-0.00001294,0.00001628,-0.0000
 0796,0.00004272,0.00003644,0.00005444,-0.00002314,0.00005794,-0.000011
 01,-0.00001860,0.00002622,0.00001260,0.00007973,0.00003091,-0.00004666
 ,0.00008147,0.00014487,-0.00017560,0.00009895,0.00009334,0.00020085,0.
 00008060,0.00002475,0.00004710,-0.00001690,-0.00003470,0.00003788,-0.0
 0001312,0.00003066,0.00004430,0.00001515,-0.00000967,0.00001679,-0.000
 02714,-0.00001209,-0.00000236,0.07467832,0.00003380,0.00004095,-0.0000
 1527,-0.00001442,-0.00006108,0.00002823,-0.00001819,0.00002835,-0.0000
 2062,0.00002722,0.00003443,0.00000085,-0.00004037,-0.00003725,-0.00000
 071,0.00003462,0.00000675,-0.00000302,0.00002736,-0.00006102,0.0000377
 3,0.00005912,0.00008825,-0.00000597,-0.00000803,-0.00019777,-0.0001849
 6,0.00067173,0.00096765,0.00163315,0.00343918,-0.00153217,-0.00301994,
 -0.00572658,0.00805482,0.01514535,-0.03446973,-0.05329528,0.03041808,-
 0.00001499,-0.00227045,-0.00516903,0.00060380,-0.00202676,0.00461528,-
 0.00453386,0.00857727,-0.00981638,-0.03540957,-0.04511510,-0.03006172,
 0.00317001,-0.00159435,0.00202885,0.00047081,0.00097296,-0.00109489,-0
 .00002452,-0.00014902,0.00010418,0.00004861,-0.00000710,0.00006133,-0.
 00002951,-0.00002995,-0.00003850,0.00008367,0.00002277,0.00001031,-0.0
 0009669,-0.00002348,0.00000495,0.00003585,0.00001334,-0.00001783,0.000
 01393,0.00005192,0.00001106,-0.00000373,-0.00006411,-0.00002650,-0.000
 02865,0.00003289,0.00001300,-0.00002486,0.00001261,0.00001543,0.000047
 54,-0.00002990,0.00001080,0.00022502,-0.00086302,0.00084364,0.00003236
 ,0.00068396,-0.00080460,-0.00044581,-0.00032304,0.00035022,0.00003746,
 -0.00018977,0.00013318,-0.00002691,-0.00030304,0.00019838,-0.00114479,
 0.00032120,-0.00041795,-0.00133399,0.00038316,0.00086618,-0.00008442,-
 0.00026152,-0.00029186,0.00004000,-0.00021865,-0.00024544,-0.00067327,
 -0.00030615,-0.00044673,0.00016704,0.00074718,0.00116543,0.00020041,-0
 .00084800,-0.00127286,0.00001226,0.00007400,0.00000061,-0.00003687,-0.
 00002959,-0.00000206,-0.00000083,-0.00000570,-0.00000721,0.00000315,-0
 .00000144,0.00000330,-0.00000678,0.00000635,0.00000287,0.00000658,0.00
 000443,0.00000202,-0.00000722,-0.00000737,0.00000282,-0.00000256,-0.00
 000108,-0.00000258,0.00000184,-0.00000713,0.00000605,0.00001801,-0.000
 00166,-0.00000418,0.00000408,-0.00003559,-0.00003651,-0.00030636,0.000
 11595,0.00006891,-0.00027251,0.00007524,-0.00002126,0.00000725,0.00003
 425,-0.00001009,0.00000727,0.00001180,0.00000389,-0.00000450,-0.000001
 06,0.00000314,-0.00000341,-0.00000780,-0.00000003,-0.00000021,-0.00000
 497,-0.00000036,-0.00000090,0.00000209,-0.00000197,-0.00000567,-0.0000
 0706,-0.00000174,0.00000828,-0.00000047,0.00000400,0.00001056,0.000002
 63,0.00000009,-0.00000166,0.00000800,-0.00000643,0.00000587,0.00000846
 ,-0.00000035,0.00001061,0.00001751,0.00000436,-0.00000685,0.00001616,0
 .00002049,0.00002221,0.00001225,0.00003131,-0.00000244,0.00003456,0.00
 001146,-0.00000949,0.00005360,-0.00001995,0.00002309,0.00001552,-0.000
 03248,-0.00001165,0.00000369,-0.00000826,0.00000735,0.00000867,0.00000
 871,-0.00001197,-0.00003149,0.00000898,-0.00000974,-0.00000107,0.00000
 202,0.07523656,0.08840582,-0.00001774,-0.00002036,0.00004196,-0.000035
 44,0.00006231,-0.00008095,0.00005035,-0.00005870,0.00007075,0.00014239
 ,0.00012686,0.00002006,-0.00045578,-0.00001732,-0.00000283,0.00033771,
 -0.00006133,-0.00002275,-0.00009994,-0.00000446,-0.00002147,-0.0001187
 8,-0.00010638,0.00000700,0.00015260,0.00025385,0.00019754,-0.00083808,
 -0.00175038,-0.00319798,-0.00399261,0.00145127,0.00352291,0.01861937,-
 0.00467499,-0.03302478,0.01946794,0.03713979,-0.01636375,0.00092254,0.
 00622410,0.00209627,-0.00060023,-0.00637587,0.00143681,-0.02131638,0.0
 0810268,-0.02908306,-0.02264007,-0.03554337,-0.01959208,0.00439989,-0.
 00201232,0.00311088,0.00049354,0.00213448,-0.00283779,-0.00001891,-0.0
 0028448,0.00013274,0.00003472,-0.00006428,0.00018004,0.00012358,0.0000
 7531,0.00007615,-0.00040207,0.00000647,-0.00002860,0.00053530,-0.00001
 491,-0.00008677,-0.00015661,0.00003423,0.00018503,-0.00003696,-0.00004
 340,-0.00001338,0.00004927,0.00002964,-0.00001458,-0.00002632,-0.00000
 693,0.00002388,0.00012326,0.00000483,-0.00007231,0.00005115,-0.0000328
 0,-0.00016108,0.00079472,-0.00176440,0.00153322,0.00006875,0.00189617,
 -0.00190833,-0.00142302,-0.00063987,0.00076044,0.00016472,-0.00083077,
 0.00029515,-0.00027669,0.00000399,0.00052662,-0.00231734,0.00180503,-0
 .00170735,0.00215048,-0.00132742,-0.00224090,0.00033123,-0.00013402,0.
 00046431,-0.00020258,0.00074947,0.00059514,0.00167657,0.00052349,0.000
 77338,-0.00033849,-0.00169734,-0.00238858,-0.00055451,0.00142930,0.002
 09726,-0.00001966,0.00001313,0.00006535,-0.00008157,0.00009558,-0.0000
 3990,0.00001641,-0.00001395,-0.00000399,-0.00001594,0.00000609,-0.0000
 1386,0.00001105,0.00000189,0.00001230,-0.00000616,0.00000968,0.0000139
 8,-0.00001163,-0.00000472,-0.00001374,-0.00002323,-0.00000550,-0.00000
 529,-0.00000273,-0.00001819,-0.00000869,-0.00003244,0.00001491,0.00000
 536,0.00001688,0.00000212,0.00000615,0.00028794,-0.00018344,-0.0000448
 2,-0.00030626,0.00020393,0.00001458,-0.00005167,0.00000554,0.00005681,
 0.00004055,0.00000478,-0.00001909,0.00002583,0.00000534,-0.00001032,-0
 .00000186,-0.00001030,-0.00002761,0.00001920,0.00000807,-0.00001806,0.
 00000408,-0.00000982,0.00001743,0.00001035,0.00001057,-0.00000251,-0.0
 0001262,0.00000042,-0.00001688,0.00000399,-0.00001047,0.00001080,0.000
 02883,0.00000566,0.00000903,-0.00001377,-0.00000501,-0.00000122,0.0000
 3060,0.00006112,0.00003413,-0.00000533,0.00003318,0.00009082,0.0000403
 2,-0.00003154,0.00002610,-0.00002205,0.00016877,0.00017013,0.00003006,
 -0.00019360,0.00010829,-0.00004391,0.00002894,0.00002647,0.00001745,-0
 .00000975,0.00005217,-0.00002744,-0.00003364,-0.00000124,0.00004774,0.
 00005174,0.00000241,-0.00002235,-0.00001832,-0.00000004,0.00524783,-0.
 00477039,0.09420679\\-0.00000450,-0.00000057,0.00000101,0.00000506,-0.
 00000081,-0.00000256,-0.00000596,0.00000094,-0.00000121,0.00000324,0.0
 0000108,-0.00000205,-0.00000224,-0.00000095,0.00000652,0.00000454,0.00
 000002,-0.00000015,0.00000144,0.00000199,-0.00000200,-0.00000079,0.000
 00216,-0.00000025,-0.00000476,-0.00000140,0.00000005,0.00000320,-0.000
 00050,-0.00000223,-0.00000492,0.00000104,0.00000146,0.00000843,0.00000
 101,0.00000081,-0.00000237,-0.00000297,-0.00000374,-0.00000601,0.00000
 266,0.00000194,0.00000419,-0.00000355,0.00000280,-0.00000457,-0.000001
 25,0.00000236,0.00000126,0.00000415,-0.00000364,0.00000299,-0.00000087
 ,0.00000033,-0.00000065,-0.00000053,0.00000056,0.00000192,0.00000036,0
 .00000005,-0.00000196,-0.00000034,-0.00000122,0.00000142,-0.00000038,0
 .00000026,-0.00000364,0.00000171,0.00000097,0.00000149,-0.00000781,-0.
 00000056,-0.00000136,0.00000116,0.00000136,0.00000430,0.00000187,0.000
 00009,-0.00000478,0.00000041,0.00000075,0.00000462,-0.00000033,-0.0000
 0084,-0.00000137,0.00000245,0.00000089,0.00000066,-0.00000003,0.000000
 83,-0.00000232,-0.00000109,0.00000006,-0.00000033,-0.00000123,0.000001
 43,0.00000224,0.00000003,-0.00000114,-0.00000267,0.00000125,-0.0000007
 3,-0.00000197,-0.00000358,0.00000352,0.00000463,0.00000450,-0.00000548
 ,-0.00000436,-0.00000379,-0.00000594,0.00000256,0.00000132,0.00000352,
 0.00000116,-0.00000079,-0.00000163,-0.00000158,-0.00000071,-0.00000008
 ,0.00000040,0.00000066,0.00000165,0.00000126,0.00000217,0.00000355,0.0
 0000299,-0.00000119,-0.00000085,-0.00000171,0.00000008,0.00000031,0.00
 000016,0.00000056,-0.00000035,0.00000104,0.00000212,-0.00000089,0.0000
 0006,-0.00000032,-0.00000009,-0.00000008,0.00000039,-0.00000046,0.0000
 0011,-0.00000045,-0.00000084,0.00000041,0.00000034,-0.00000163,-0.0000
 0006,-0.00000061,0.00000123,-0.00000108,-0.00000085,-0.00000010,-0.000
 00037,-0.00000102,-0.00000095,0.00000114,-0.00000062,-0.00000036,-0.00
 000113,0.00000024,-0.00000025,0.00000023,0.00000040,0.00000064,0.00000
 100,0.00000077,0.00000034,0.00000002,0.00000102,-0.00000036,0.00000073
 ,-0.00000112,-0.00000002,-0.00000044,0.00000015,-0.00000005,-0.0000013
 7,-0.00000054,0.00000003,-0.00000099,0.00000135,0.00000198,0.00000017,
 0.00000037,0.00000054,0.00000010,-0.00000066,-0.00000016,0.00000061,-0
 .00000033,-0.00000055,0.00000015,0.00000019,-0.00000059,-0.00000119,-0
 .00000050,-0.00000050,-0.00000105,0.00000022,0.00000018,0.00000097,-0.
 00000072,-0.00000055,0.00000057,-0.00000003,-0.00000100,-0.00000060,-0
 .00000052,0.00000013,-0.00000097,-0.00000044,0.00000063,0.00000114,-0.
 00000005,-0.00000010,0.00000179,-0.00000087,0.00000040,-0.00000020,0.0
 0000085,-0.00000021,-0.00000061,0.00000083,-0.00000013,0.00000058,0.00
 000146,0.00000323\\\@
 The archive entry for this job was punched.


 STEINBACH'S GUIDELINES FOR SYSTEMS PROGRAMMING:
 NEVER TEST FOR AN ERROR CONDITION YOU DON'T KNOW HOW
 TO HANDLE.
 Job cpu time:       1 days  0 hours 21 minutes 40.3 seconds.
 Elapsed time:       0 days  0 hours 45 minutes 52.0 seconds.
 File lengths (MBytes):  RWF=   8471 Int=      0 D2E=      0 Chk=     59 Scr=      1
 Normal termination of Gaussian 16 at Wed Mar 26 22:23:41 2025.
