 Entering Gaussian System, Link 0=g16
 Initial command:
 /public/software/apps/Gaussian/g16/l1.exe "/tmp/Gau-94923.inp" -scrdir="/tmp/"
 Entering Link 1 = /public/software/apps/Gaussian/g16/l1.exe PID=     94924.
  
 Copyright (c) 1988-2019, Gaussian, Inc.  All Rights Reserved.
  
 This is part of the Gaussian(R) 16 program.  It is based on
 the Gaussian(R) 09 system (copyright 2009, Gaussian, Inc.),
 the Gaussian(R) 03 system (copyright 2003, Gaussian, Inc.),
 the Gaussian(R) 98 system (copyright 1998, Gaussian, Inc.),
 the Gaussian(R) 94 system (copyright 1995, Gaussian, Inc.),
 the Gaussian 92(TM) system (copyright 1992, Gaussian, Inc.),
 the Gaussian 90(TM) system (copyright 1990, Gaussian, Inc.),
 the Gaussian 88(TM) system (copyright 1988, Gaussian, Inc.),
 the Gaussian 86(TM) system (copyright 1986, Carnegie Mellon
 University), and the Gaussian 82(TM) system (copyright 1983,
 Carnegie Mellon University). Gaussian is a federally registered
 trademark of Gaussian, Inc.
  
 This software contains proprietary and confidential information,
 including trade secrets, belonging to Gaussian, Inc.
  
 This software is provided under written license and may be
 used, copied, transmitted, or stored only in accord with that
 written license.
  
 The following legend is applicable only to US Government
 contracts under FAR:
  
                    RESTRICTED RIGHTS LEGEND
  
 Use, reproduction and disclosure by the US Government is
 subject to restrictions as set forth in subparagraphs (a)
 and (c) of the Commercial Computer Software - Restricted
 Rights clause in FAR 52.227-19.
  
 Gaussian, Inc.
 340 Quinnipiac St., Bldg. 40, Wallingford CT 06492
  
  
 ---------------------------------------------------------------
 Warning -- This program may not be used in any manner that
 competes with the business of Gaussian, Inc. or will provide
 assistance to any competitor of Gaussian, Inc.  The licensee
 of this program is prohibited from giving any competitor of
 Gaussian, Inc. access to this program.  By using this program,
 the user acknowledges that Gaussian, Inc. is engaged in the
 business of creating and licensing software in the field of
 computational chemistry and represents and warrants to the
 licensee that it is not a competitor of Gaussian, Inc. and that
 it will not use this program in any manner prohibited above.
 ---------------------------------------------------------------
  

 Cite this work as:
 Gaussian 16, Revision C.01,
 M. J. Frisch, G. W. Trucks, H. B. Schlegel, G. E. Scuseria, 
 M. A. Robb, J. R. Cheeseman, G. Scalmani, V. Barone, 
 G. A. Petersson, H. Nakatsuji, X. Li, M. Caricato, A. V. Marenich, 
 J. Bloino, B. G. Janesko, R. Gomperts, B. Mennucci, H. P. Hratchian, 
 J. V. Ortiz, A. F. Izmaylov, J. L. Sonnenberg, D. Williams-Young, 
 F. Ding, F. Lipparini, F. Egidi, J. Goings, B. Peng, A. Petrone, 
 T. Henderson, D. Ranasinghe, V. G. Zakrzewski, J. Gao, N. Rega, 
 G. Zheng, W. Liang, M. Hada, M. Ehara, K. Toyota, R. Fukuda, 
 J. Hasegawa, M. Ishida, T. Nakajima, Y. Honda, O. Kitao, H. Nakai, 
 T. Vreven, K. Throssell, J. A. Montgomery, Jr., J. E. Peralta, 
 F. Ogliaro, M. J. Bearpark, J. J. Heyd, E. N. Brothers, K. N. Kudin, 
 V. N. Staroverov, T. A. Keith, R. Kobayashi, J. Normand, 
 K. Raghavachari, A. P. Rendell, J. C. Burant, S. S. Iyengar, 
 J. Tomasi, M. Cossi, J. M. Millam, M. Klene, C. Adamo, R. Cammi, 
 J. W. Ochterski, R. L. Martin, K. Morokuma, O. Farkas, 
 J. B. Foresman, and D. J. Fox, Gaussian, Inc., Wallingford CT, 2019.
 
 ******************************************
 Gaussian 16:  ES64L-G16RevC.01  3-Jul-2019
                26-Mar-2025 
 ******************************************
 %nprocshared=32
 Will use up to   32 processors via shared memory.
 %mem=100GB
 ------------------------------------------
 #p opt freq b3lyp/def2svpp em=gd3bj nosymm
 ------------------------------------------
 1/18=20,19=15,26=3,38=1/1,3;
 2/9=110,12=2,15=1,17=6,18=5,40=1/2;
 3/5=43,7=202,11=2,25=1,30=1,71=1,74=-5,124=41/1,2,3;
 4//1;
 5/5=2,38=5/2;
 6/7=2,8=2,9=2,10=2,28=1/1;
 7/30=1/1,2,3,16;
 1/18=20,19=15,26=3/3(2);
 2/9=110,15=1/2;
 99//99;
 2/9=110,15=1/2;
 3/5=43,7=202,11=2,25=1,30=1,71=1,74=-5,124=41/1,2,3;
 4/5=5,16=3,69=1/1;
 5/5=2,38=5/2;
 7/30=1/1,2,3,16;
 1/18=20,19=15,26=3/3(-5);
 2/9=110,15=1/2;
 6/7=2,8=2,9=2,10=2,19=2,28=1/1;
 99/9=1/99;
 Leave Link    1 at Wed Mar 26 23:40:21 2025, MaxMem= 13421772800 cpu:               1.9 elap:               0.1
 (Enter /public/software/apps/Gaussian/g16/l101.exe)
 ------------------
 $$$$Title####0????
 ------------------
 Symbolic Z-matrix:
 Charge =  0 Multiplicity = 2
 C                    -9.39033  -1.29278   0.13292 
 C                    -8.09917  -2.12353   0.13309 
 C                    -7.22534  -1.69987   1.32825 
 C                    -8.458    -3.6167    0.24613 
 O                    -7.41753  -1.86679  -1.10299 
 C                    -6.20337  -2.46008  -1.46571 
 C                    -6.19748  -3.63955  -2.22006 
 C                    -4.98616  -4.23188  -2.58695 
 C                    -3.77548  -3.64158  -2.21332 
 C                    -3.77038  -2.44395  -1.48099 
 C                    -2.48882  -1.82538  -1.07134 
 C                    -1.65525  -2.55128  -0.21199 
 C                    -0.46546  -2.00572   0.26266 
 O                     0.33703  -2.76357   1.1098 
 C                    -0.07851  -0.7081   -0.10507 
 C                     1.17737  -0.15103   0.4687 
 C                     2.4018   -0.70556   0.06619 
 O                     2.42857  -1.78223  -0.81479 
 C                     3.60398  -0.18696   0.53987 
 C                     3.62195   0.89139   1.43277 
 C                     4.93873   1.43199   1.8415 
 C                     5.85144   0.62182   2.53513 
 C                     7.09948   1.1291    2.90785 
 C                     7.44969   2.44123   2.5789 
 C                     6.55766   3.24836   1.8629 
 O                     6.90873   4.56336   1.53863 
 C                     7.53866   4.94622   0.3079 
 C                     6.63131   4.60762  -0.88918 
 C                     7.76598   6.46393   0.35481 
 C                     8.8962    4.23536   0.15769 
 C                     5.30097   2.74587   1.50271 
 C                     2.39726   1.43166   1.90137 
 C                     2.36831   2.46303   2.86562 
 C                     1.15573   2.9758    3.325 
 C                    -0.04717   2.4647    2.84734 
 C                    -0.04804   1.43439   1.90824 
 C                     1.16527   0.90451   1.41676 
 C                    -0.87601   0.02708  -1.0198 
 C                    -0.47923   1.30285  -1.47742 
 C                    -1.26626   2.01119  -2.38421 
 C                    -2.4511    1.46034  -2.8628 
 C                    -2.86069   0.19742  -2.43682 
 C                    -2.0921   -0.53487  -1.50543 
 C                    -4.99067  -1.85949  -1.10493 
 H                    -9.15168  -0.21109   0.04294 
 H                    -9.96603  -1.45198   1.07055 
 H                    -10.03122  -1.57777  -0.72923 
 H                    -6.91912  -0.63698   1.22374 
 H                    -6.30955  -2.32545   1.38799 
 H                    -7.78319  -1.81558   2.28266 
 H                    -9.05599  -3.80853   1.16327 
 H                    -9.05027  -3.9383   -0.63716 
 H                    -7.53917  -4.23874   0.29681 
 H                    -7.13154  -4.09929  -2.51623 
 H                    -4.98541  -5.14901  -3.16185 
 H                    -2.84297  -4.11041  -2.50279 
 H                    -1.94185  -3.54593   0.10955 
 H                     4.53522  -0.61821   0.19118 
 H                     5.59159  -0.39695   2.7956 
 H                     7.79555   0.50501   3.45303 
 H                     8.41561   2.82975   2.87497 
 H                     7.07686   4.98059  -1.83669 
 H                     6.4963    3.50911  -0.98264 
 H                     5.63199   5.07549  -0.75876 
 H                     8.25596   6.82216  -0.57654 
 H                     6.79677   6.99487   0.47213 
 H                     8.41153   6.72974   1.21942 
 H                     8.7569    3.13667   0.07166 
 H                     9.53738   4.43976   1.04183 
 H                     9.42517   4.58843  -0.75385 
 H                     4.60839   3.37667   0.95898 
 H                     3.27754   2.87066   3.28582 
 H                     1.14933   3.76736   4.0633 
 H                    -0.98498   2.8618    3.21416 
 H                    -1.00554   1.05222   1.58026 
 H                     0.44477   1.7591   -1.14807 
 H                    -0.95001   2.98858  -2.7253 
 H                    -3.05137   2.01038  -3.5761 
 H                    -3.77295  -0.20308  -2.85739 
 H                    -4.99828  -0.94014  -0.53217 
 Cu                    1.99794  -3.36885   0.25719 
 
 ITRead=  0  0  0  0  0  0  0  0  0  0  0  0  0  0  0  0  0  0  0  0
 ITRead=  0  0  0  0  0  0  0  0  0  0  0  0  0  0  0  0  0  0  0  0
 ITRead=  0  0  0  0  0  0  0  0  0  0  0  0  0  0  0  0  0  0  0  0
 ITRead=  0  0  0  0  0  0  0  0  0  0  0  0  0  0  0  0  0  0  0  0
 ITRead=  0
 MicOpt= -1 -1 -1 -1 -1 -1 -1 -1 -1 -1 -1 -1 -1 -1 -1 -1 -1 -1 -1 -1
 MicOpt= -1 -1 -1 -1 -1 -1 -1 -1 -1 -1 -1 -1 -1 -1 -1 -1 -1 -1 -1 -1
 MicOpt= -1 -1 -1 -1 -1 -1 -1 -1 -1 -1 -1 -1 -1 -1 -1 -1 -1 -1 -1 -1
 MicOpt= -1 -1 -1 -1 -1 -1 -1 -1 -1 -1 -1 -1 -1 -1 -1 -1 -1 -1 -1 -1
 MicOpt= -1
 NAtoms=     81 NQM=       81 NQMF=       0 NMMI=      0 NMMIF=      0
                NMic=       0 NMicF=      0.
                    Isotopes and Nuclear Properties:
 (Nuclear quadrupole moments (NQMom) in fm**2, nuclear magnetic moments (NMagM)
  in nuclear magnetons)

  Atom         1           2           3           4           5           6           7           8           9          10
 IAtWgt=          12          12          12          12          16          12          12          12          12          12
 AtmWgt=  12.0000000  12.0000000  12.0000000  12.0000000  15.9949146  12.0000000  12.0000000  12.0000000  12.0000000  12.0000000
 NucSpn=           0           0           0           0           0           0           0           0           0           0
 AtZEff=  -0.0000000  -0.0000000  -0.0000000  -0.0000000  -0.0000000  -0.0000000  -0.0000000  -0.0000000  -0.0000000  -0.0000000
 NQMom=    0.0000000   0.0000000   0.0000000   0.0000000   0.0000000   0.0000000   0.0000000   0.0000000   0.0000000   0.0000000
 NMagM=    0.0000000   0.0000000   0.0000000   0.0000000   0.0000000   0.0000000   0.0000000   0.0000000   0.0000000   0.0000000
 AtZNuc=   6.0000000   6.0000000   6.0000000   6.0000000   8.0000000   6.0000000   6.0000000   6.0000000   6.0000000   6.0000000

  Atom        11          12          13          14          15          16          17          18          19          20
 IAtWgt=          12          12          12          16          12          12          12          16          12          12
 AtmWgt=  12.0000000  12.0000000  12.0000000  15.9949146  12.0000000  12.0000000  12.0000000  15.9949146  12.0000000  12.0000000
 NucSpn=           0           0           0           0           0           0           0           0           0           0
 AtZEff=  -0.0000000  -0.0000000  -0.0000000  -0.0000000  -0.0000000  -0.0000000  -0.0000000  -0.0000000  -0.0000000  -0.0000000
 NQMom=    0.0000000   0.0000000   0.0000000   0.0000000   0.0000000   0.0000000   0.0000000   0.0000000   0.0000000   0.0000000
 NMagM=    0.0000000   0.0000000   0.0000000   0.0000000   0.0000000   0.0000000   0.0000000   0.0000000   0.0000000   0.0000000
 AtZNuc=   6.0000000   6.0000000   6.0000000   8.0000000   6.0000000   6.0000000   6.0000000   8.0000000   6.0000000   6.0000000

  Atom        21          22          23          24          25          26          27          28          29          30
 IAtWgt=          12          12          12          12          12          16          12          12          12          12
 AtmWgt=  12.0000000  12.0000000  12.0000000  12.0000000  12.0000000  15.9949146  12.0000000  12.0000000  12.0000000  12.0000000
 NucSpn=           0           0           0           0           0           0           0           0           0           0
 AtZEff=  -0.0000000  -0.0000000  -0.0000000  -0.0000000  -0.0000000  -0.0000000  -0.0000000  -0.0000000  -0.0000000  -0.0000000
 NQMom=    0.0000000   0.0000000   0.0000000   0.0000000   0.0000000   0.0000000   0.0000000   0.0000000   0.0000000   0.0000000
 NMagM=    0.0000000   0.0000000   0.0000000   0.0000000   0.0000000   0.0000000   0.0000000   0.0000000   0.0000000   0.0000000
 AtZNuc=   6.0000000   6.0000000   6.0000000   6.0000000   6.0000000   8.0000000   6.0000000   6.0000000   6.0000000   6.0000000

  Atom        31          32          33          34          35          36          37          38          39          40
 IAtWgt=          12          12          12          12          12          12          12          12          12          12
 AtmWgt=  12.0000000  12.0000000  12.0000000  12.0000000  12.0000000  12.0000000  12.0000000  12.0000000  12.0000000  12.0000000
 NucSpn=           0           0           0           0           0           0           0           0           0           0
 AtZEff=  -0.0000000  -0.0000000  -0.0000000  -0.0000000  -0.0000000  -0.0000000  -0.0000000  -0.0000000  -0.0000000  -0.0000000
 NQMom=    0.0000000   0.0000000   0.0000000   0.0000000   0.0000000   0.0000000   0.0000000   0.0000000   0.0000000   0.0000000
 NMagM=    0.0000000   0.0000000   0.0000000   0.0000000   0.0000000   0.0000000   0.0000000   0.0000000   0.0000000   0.0000000
 AtZNuc=   6.0000000   6.0000000   6.0000000   6.0000000   6.0000000   6.0000000   6.0000000   6.0000000   6.0000000   6.0000000

  Atom        41          42          43          44          45          46          47          48          49          50
 IAtWgt=          12          12          12          12           1           1           1           1           1           1
 AtmWgt=  12.0000000  12.0000000  12.0000000  12.0000000   1.0078250   1.0078250   1.0078250   1.0078250   1.0078250   1.0078250
 NucSpn=           0           0           0           0           1           1           1           1           1           1
 AtZEff=  -0.0000000  -0.0000000  -0.0000000  -0.0000000  -0.0000000  -0.0000000  -0.0000000  -0.0000000  -0.0000000  -0.0000000
 NQMom=    0.0000000   0.0000000   0.0000000   0.0000000   0.0000000   0.0000000   0.0000000   0.0000000   0.0000000   0.0000000
 NMagM=    0.0000000   0.0000000   0.0000000   0.0000000   2.7928460   2.7928460   2.7928460   2.7928460   2.7928460   2.7928460
 AtZNuc=   6.0000000   6.0000000   6.0000000   6.0000000   1.0000000   1.0000000   1.0000000   1.0000000   1.0000000   1.0000000

  Atom        51          52          53          54          55          56          57          58          59          60
 IAtWgt=           1           1           1           1           1           1           1           1           1           1
 AtmWgt=   1.0078250   1.0078250   1.0078250   1.0078250   1.0078250   1.0078250   1.0078250   1.0078250   1.0078250   1.0078250
 NucSpn=           1           1           1           1           1           1           1           1           1           1
 AtZEff=  -0.0000000  -0.0000000  -0.0000000  -0.0000000  -0.0000000  -0.0000000  -0.0000000  -0.0000000  -0.0000000  -0.0000000
 NQMom=    0.0000000   0.0000000   0.0000000   0.0000000   0.0000000   0.0000000   0.0000000   0.0000000   0.0000000   0.0000000
 NMagM=    2.7928460   2.7928460   2.7928460   2.7928460   2.7928460   2.7928460   2.7928460   2.7928460   2.7928460   2.7928460
 AtZNuc=   1.0000000   1.0000000   1.0000000   1.0000000   1.0000000   1.0000000   1.0000000   1.0000000   1.0000000   1.0000000

  Atom        61          62          63          64          65          66          67          68          69          70
 IAtWgt=           1           1           1           1           1           1           1           1           1           1
 AtmWgt=   1.0078250   1.0078250   1.0078250   1.0078250   1.0078250   1.0078250   1.0078250   1.0078250   1.0078250   1.0078250
 NucSpn=           1           1           1           1           1           1           1           1           1           1
 AtZEff=  -0.0000000  -0.0000000  -0.0000000  -0.0000000  -0.0000000  -0.0000000  -0.0000000  -0.0000000  -0.0000000  -0.0000000
 NQMom=    0.0000000   0.0000000   0.0000000   0.0000000   0.0000000   0.0000000   0.0000000   0.0000000   0.0000000   0.0000000
 NMagM=    2.7928460   2.7928460   2.7928460   2.7928460   2.7928460   2.7928460   2.7928460   2.7928460   2.7928460   2.7928460
 AtZNuc=   1.0000000   1.0000000   1.0000000   1.0000000   1.0000000   1.0000000   1.0000000   1.0000000   1.0000000   1.0000000

  Atom        71          72          73          74          75          76          77          78          79          80
 IAtWgt=           1           1           1           1           1           1           1           1           1           1
 AtmWgt=   1.0078250   1.0078250   1.0078250   1.0078250   1.0078250   1.0078250   1.0078250   1.0078250   1.0078250   1.0078250
 NucSpn=           1           1           1           1           1           1           1           1           1           1
 AtZEff=  -0.0000000  -0.0000000  -0.0000000  -0.0000000  -0.0000000  -0.0000000  -0.0000000  -0.0000000  -0.0000000  -0.0000000
 NQMom=    0.0000000   0.0000000   0.0000000   0.0000000   0.0000000   0.0000000   0.0000000   0.0000000   0.0000000   0.0000000
 NMagM=    2.7928460   2.7928460   2.7928460   2.7928460   2.7928460   2.7928460   2.7928460   2.7928460   2.7928460   2.7928460
 AtZNuc=   1.0000000   1.0000000   1.0000000   1.0000000   1.0000000   1.0000000   1.0000000   1.0000000   1.0000000   1.0000000

  Atom        81
 IAtWgt=          63
 AtmWgt=  62.9295992
 NucSpn=           3
 AtZEff=  -0.0000000
 NQMom=  -22.0000000
 NMagM=    2.2233000
 AtZNuc=  29.0000000
 Leave Link  101 at Wed Mar 26 23:40:21 2025, MaxMem= 13421772800 cpu:               3.6 elap:               0.1
 (Enter /public/software/apps/Gaussian/g16/l103.exe)

 GradGradGradGradGradGradGradGradGradGradGradGradGradGradGradGradGradGrad
 Berny optimization.
 Initialization pass.
                           ----------------------------
                           !    Initial Parameters    !
                           ! (Angstroms and Degrees)  !
 --------------------------                            --------------------------
 ! Name  Definition              Value          Derivative Info.                !
 --------------------------------------------------------------------------------
 ! R1    R(1,2)                  1.5353         estimate D2E/DX2                !
 ! R2    R(1,45)                 1.1114         estimate D2E/DX2                !
 ! R3    R(1,46)                 1.1117         estimate D2E/DX2                !
 ! R4    R(1,47)                 1.1114         estimate D2E/DX2                !
 ! R5    R(2,3)                  1.54           estimate D2E/DX2                !
 ! R6    R(2,4)                  1.5398         estimate D2E/DX2                !
 ! R7    R(2,5)                  1.4347         estimate D2E/DX2                !
 ! R8    R(3,48)                 1.111          estimate D2E/DX2                !
 ! R9    R(3,49)                 1.1107         estimate D2E/DX2                !
 ! R10   R(3,50)                 1.1115         estimate D2E/DX2                !
 ! R11   R(4,51)                 1.1115         estimate D2E/DX2                !
 ! R12   R(4,52)                 1.111          estimate D2E/DX2                !
 ! R13   R(4,53)                 1.1107         estimate D2E/DX2                !
 ! R14   R(5,6)                  1.3992         estimate D2E/DX2                !
 ! R15   R(6,7)                  1.4001         estimate D2E/DX2                !
 ! R16   R(6,44)                 1.4005         estimate D2E/DX2                !
 ! R17   R(7,8)                  1.3974         estimate D2E/DX2                !
 ! R18   R(7,54)                 1.0824         estimate D2E/DX2                !
 ! R19   R(8,9)                  1.3978         estimate D2E/DX2                !
 ! R20   R(8,55)                 1.0824         estimate D2E/DX2                !
 ! R21   R(9,10)                 1.4038         estimate D2E/DX2                !
 ! R22   R(9,56)                 1.0831         estimate D2E/DX2                !
 ! R23   R(10,11)                1.4808         estimate D2E/DX2                !
 ! R24   R(10,44)                1.4043         estimate D2E/DX2                !
 ! R25   R(11,12)                1.4001         estimate D2E/DX2                !
 ! R26   R(11,43)                1.4182         estimate D2E/DX2                !
 ! R27   R(12,13)                1.3923         estimate D2E/DX2                !
 ! R28   R(12,57)                1.0839         estimate D2E/DX2                !
 ! R29   R(13,14)                1.3914         estimate D2E/DX2                !
 ! R30   R(13,15)                1.4031         estimate D2E/DX2                !
 ! R31   R(14,81)                1.9626         estimate D2E/DX2                !
 ! R32   R(15,16)                1.4889         estimate D2E/DX2                !
 ! R33   R(15,38)                1.4189         estimate D2E/DX2                !
 ! R34   R(16,17)                1.4031         estimate D2E/DX2                !
 ! R35   R(16,37)                1.4188         estimate D2E/DX2                !
 ! R36   R(17,18)                1.3914         estimate D2E/DX2                !
 ! R37   R(17,19)                1.3923         estimate D2E/DX2                !
 ! R38   R(18,81)                1.9626         estimate D2E/DX2                !
 ! R39   R(19,20)                1.4001         estimate D2E/DX2                !
 ! R40   R(19,58)                1.0839         estimate D2E/DX2                !
 ! R41   R(20,21)                1.4809         estimate D2E/DX2                !
 ! R42   R(20,32)                1.4182         estimate D2E/DX2                !
 ! R43   R(21,22)                1.4038         estimate D2E/DX2                !
 ! R44   R(21,31)                1.4044         estimate D2E/DX2                !
 ! R45   R(22,23)                1.3978         estimate D2E/DX2                !
 ! R46   R(22,59)                1.0832         estimate D2E/DX2                !
 ! R47   R(23,24)                1.3973         estimate D2E/DX2                !
 ! R48   R(23,60)                1.0822         estimate D2E/DX2                !
 ! R49   R(24,25)                1.3999         estimate D2E/DX2                !
 ! R50   R(24,61)                1.0824         estimate D2E/DX2                !
 ! R51   R(25,26)                1.3992         estimate D2E/DX2                !
 ! R52   R(25,31)                1.4005         estimate D2E/DX2                !
 ! R53   R(26,27)                1.4346         estimate D2E/DX2                !
 ! R54   R(27,28)                1.5398         estimate D2E/DX2                !
 ! R55   R(27,29)                1.5354         estimate D2E/DX2                !
 ! R56   R(27,30)                1.5397         estimate D2E/DX2                !
 ! R57   R(28,62)                1.1115         estimate D2E/DX2                !
 ! R58   R(28,63)                1.1107         estimate D2E/DX2                !
 ! R59   R(28,64)                1.1111         estimate D2E/DX2                !
 ! R60   R(29,65)                1.1117         estimate D2E/DX2                !
 ! R61   R(29,66)                1.1113         estimate D2E/DX2                !
 ! R62   R(29,67)                1.1113         estimate D2E/DX2                !
 ! R63   R(30,68)                1.1108         estimate D2E/DX2                !
 ! R64   R(30,69)                1.1111         estimate D2E/DX2                !
 ! R65   R(30,70)                1.1115         estimate D2E/DX2                !
 ! R66   R(31,71)                1.0832         estimate D2E/DX2                !
 ! R67   R(32,33)                1.4122         estimate D2E/DX2                !
 ! R68   R(32,37)                1.425          estimate D2E/DX2                !
 ! R69   R(33,34)                1.3944         estimate D2E/DX2                !
 ! R70   R(33,72)                1.0814         estimate D2E/DX2                !
 ! R71   R(34,35)                1.3915         estimate D2E/DX2                !
 ! R72   R(34,73)                1.0825         estimate D2E/DX2                !
 ! R73   R(35,36)                1.3941         estimate D2E/DX2                !
 ! R74   R(35,74)                1.0825         estimate D2E/DX2                !
 ! R75   R(36,37)                1.4123         estimate D2E/DX2                !
 ! R76   R(36,75)                1.0819         estimate D2E/DX2                !
 ! R77   R(38,39)                1.4123         estimate D2E/DX2                !
 ! R78   R(38,43)                1.425          estimate D2E/DX2                !
 ! R79   R(39,40)                1.3941         estimate D2E/DX2                !
 ! R80   R(39,76)                1.0819         estimate D2E/DX2                !
 ! R81   R(40,41)                1.3915         estimate D2E/DX2                !
 ! R82   R(40,77)                1.0824         estimate D2E/DX2                !
 ! R83   R(41,42)                1.3943         estimate D2E/DX2                !
 ! R84   R(41,78)                1.0824         estimate D2E/DX2                !
 ! R85   R(42,43)                1.4123         estimate D2E/DX2                !
 ! R86   R(42,79)                1.0814         estimate D2E/DX2                !
 ! R87   R(44,80)                1.0832         estimate D2E/DX2                !
 ! A1    A(2,1,45)             110.2472         estimate D2E/DX2                !
 ! A2    A(2,1,46)             110.9723         estimate D2E/DX2                !
 ! A3    A(2,1,47)             110.2599         estimate D2E/DX2                !
 ! A4    A(45,1,46)            108.5942         estimate D2E/DX2                !
 ! A5    A(45,1,47)            108.0946         estimate D2E/DX2                !
 ! A6    A(46,1,47)            108.5971         estimate D2E/DX2                !
 ! A7    A(1,2,3)              109.173          estimate D2E/DX2                !
 ! A8    A(1,2,4)              109.1916         estimate D2E/DX2                !
 ! A9    A(1,2,5)              107.6149         estimate D2E/DX2                !
 ! A10   A(3,2,4)              110.0007         estimate D2E/DX2                !
 ! A11   A(3,2,5)              110.4763         estimate D2E/DX2                !
 ! A12   A(4,2,5)              110.3337         estimate D2E/DX2                !
 ! A13   A(2,3,48)             110.2782         estimate D2E/DX2                !
 ! A14   A(2,3,49)             110.773          estimate D2E/DX2                !
 ! A15   A(2,3,50)             110.6695         estimate D2E/DX2                !
 ! A16   A(48,3,49)            108.4594         estimate D2E/DX2                !
 ! A17   A(48,3,50)            108.5828         estimate D2E/DX2                !
 ! A18   A(49,3,50)            107.9989         estimate D2E/DX2                !
 ! A19   A(2,4,51)             110.6886         estimate D2E/DX2                !
 ! A20   A(2,4,52)             110.2761         estimate D2E/DX2                !
 ! A21   A(2,4,53)             110.709          estimate D2E/DX2                !
 ! A22   A(51,4,52)            108.6163         estimate D2E/DX2                !
 ! A23   A(51,4,53)            108.1039         estimate D2E/DX2                !
 ! A24   A(52,4,53)            108.3696         estimate D2E/DX2                !
 ! A25   A(2,5,6)              124.0372         estimate D2E/DX2                !
 ! A26   A(5,6,7)              120.0353         estimate D2E/DX2                !
 ! A27   A(5,6,44)             120.1828         estimate D2E/DX2                !
 ! A28   A(7,6,44)             119.7627         estimate D2E/DX2                !
 ! A29   A(6,7,8)              120.1453         estimate D2E/DX2                !
 ! A30   A(6,7,54)             120.1072         estimate D2E/DX2                !
 ! A31   A(8,7,54)             119.7464         estimate D2E/DX2                !
 ! A32   A(7,8,9)              120.1062         estimate D2E/DX2                !
 ! A33   A(7,8,55)             119.9472         estimate D2E/DX2                !
 ! A34   A(9,8,55)             119.9466         estimate D2E/DX2                !
 ! A35   A(8,9,10)             120.1911         estimate D2E/DX2                !
 ! A36   A(8,9,56)             119.4365         estimate D2E/DX2                !
 ! A37   A(10,9,56)            120.3691         estimate D2E/DX2                !
 ! A38   A(9,10,11)            120.2539         estimate D2E/DX2                !
 ! A39   A(9,10,44)            119.4461         estimate D2E/DX2                !
 ! A40   A(11,10,44)           120.2712         estimate D2E/DX2                !
 ! A41   A(10,11,12)           117.9348         estimate D2E/DX2                !
 ! A42   A(10,11,43)           122.5164         estimate D2E/DX2                !
 ! A43   A(12,11,43)           119.5458         estimate D2E/DX2                !
 ! A44   A(11,12,13)           120.9877         estimate D2E/DX2                !
 ! A45   A(11,12,57)           120.0286         estimate D2E/DX2                !
 ! A46   A(13,12,57)           118.9726         estimate D2E/DX2                !
 ! A47   A(12,13,14)           119.1432         estimate D2E/DX2                !
 ! A48   A(12,13,15)           120.5768         estimate D2E/DX2                !
 ! A49   A(14,13,15)           120.2799         estimate D2E/DX2                !
 ! A50   A(13,14,81)           113.052          estimate D2E/DX2                !
 ! A51   A(13,15,16)           118.5315         estimate D2E/DX2                !
 ! A52   A(13,15,38)           119.5466         estimate D2E/DX2                !
 ! A53   A(16,15,38)           121.9162         estimate D2E/DX2                !
 ! A54   A(15,16,17)           118.5331         estimate D2E/DX2                !
 ! A55   A(15,16,37)           121.9145         estimate D2E/DX2                !
 ! A56   A(17,16,37)           119.547          estimate D2E/DX2                !
 ! A57   A(16,17,18)           120.2804         estimate D2E/DX2                !
 ! A58   A(16,17,19)           120.5757         estimate D2E/DX2                !
 ! A59   A(18,17,19)           119.1439         estimate D2E/DX2                !
 ! A60   A(17,18,81)           105.9914         estimate D2E/DX2                !
 ! A61   A(17,19,20)           120.991          estimate D2E/DX2                !
 ! A62   A(17,19,58)           118.9599         estimate D2E/DX2                !
 ! A63   A(20,19,58)           120.0377         estimate D2E/DX2                !
 ! A64   A(19,20,21)           117.9406         estimate D2E/DX2                !
 ! A65   A(19,20,32)           119.5394         estimate D2E/DX2                !
 ! A66   A(21,20,32)           122.5176         estimate D2E/DX2                !
 ! A67   A(20,21,22)           120.2519         estimate D2E/DX2                !
 ! A68   A(20,21,31)           120.2838         estimate D2E/DX2                !
 ! A69   A(22,21,31)           119.4356         estimate D2E/DX2                !
 ! A70   A(21,22,23)           120.1872         estimate D2E/DX2                !
 ! A71   A(21,22,59)           120.3761         estimate D2E/DX2                !
 ! A72   A(23,22,59)           119.4334         estimate D2E/DX2                !
 ! A73   A(22,23,24)           120.1182         estimate D2E/DX2                !
 ! A74   A(22,23,60)           119.9537         estimate D2E/DX2                !
 ! A75   A(24,23,60)           119.928          estimate D2E/DX2                !
 ! A76   A(23,24,25)           120.1389         estimate D2E/DX2                !
 ! A77   A(23,24,61)           119.7562         estimate D2E/DX2                !
 ! A78   A(25,24,61)           120.1041         estimate D2E/DX2                !
 ! A79   A(24,25,26)           120.0343         estimate D2E/DX2                !
 ! A80   A(24,25,31)           119.7638         estimate D2E/DX2                !
 ! A81   A(26,25,31)           120.1821         estimate D2E/DX2                !
 ! A82   A(25,26,27)           124.0435         estimate D2E/DX2                !
 ! A83   A(26,27,28)           110.4582         estimate D2E/DX2                !
 ! A84   A(26,27,29)           107.614          estimate D2E/DX2                !
 ! A85   A(26,27,30)           110.3415         estimate D2E/DX2                !
 ! A86   A(28,27,29)           109.1703         estimate D2E/DX2                !
 ! A87   A(28,27,30)           110.0098         estimate D2E/DX2                !
 ! A88   A(29,27,30)           109.1964         estimate D2E/DX2                !
 ! A89   A(27,28,62)           110.6547         estimate D2E/DX2                !
 ! A90   A(27,28,63)           110.7644         estimate D2E/DX2                !
 ! A91   A(27,28,64)           110.2514         estimate D2E/DX2                !
 ! A92   A(62,28,63)           107.9908         estimate D2E/DX2                !
 ! A93   A(62,28,64)           108.6204         estimate D2E/DX2                !
 ! A94   A(63,28,64)           108.4823         estimate D2E/DX2                !
 ! A95   A(27,29,65)           110.9895         estimate D2E/DX2                !
 ! A96   A(27,29,66)           110.2651         estimate D2E/DX2                !
 ! A97   A(27,29,67)           110.2569         estimate D2E/DX2                !
 ! A98   A(65,29,66)           108.5956         estimate D2E/DX2                !
 ! A99   A(65,29,67)           108.5843         estimate D2E/DX2                !
 ! A100  A(66,29,67)           108.0725         estimate D2E/DX2                !
 ! A101  A(27,30,68)           110.7093         estimate D2E/DX2                !
 ! A102  A(27,30,69)           110.2561         estimate D2E/DX2                !
 ! A103  A(27,30,70)           110.6685         estimate D2E/DX2                !
 ! A104  A(68,30,69)           108.417          estimate D2E/DX2                !
 ! A105  A(68,30,70)           108.0805         estimate D2E/DX2                !
 ! A106  A(69,30,70)           108.6336         estimate D2E/DX2                !
 ! A107  A(21,31,25)           120.336          estimate D2E/DX2                !
 ! A108  A(21,31,71)           120.0673         estimate D2E/DX2                !
 ! A109  A(25,31,71)           119.5966         estimate D2E/DX2                !
 ! A110  A(20,32,33)           121.4344         estimate D2E/DX2                !
 ! A111  A(20,32,37)           119.5574         estimate D2E/DX2                !
 ! A112  A(33,32,37)           118.9904         estimate D2E/DX2                !
 ! A113  A(32,33,34)           120.7529         estimate D2E/DX2                !
 ! A114  A(32,33,72)           121.5588         estimate D2E/DX2                !
 ! A115  A(34,33,72)           117.6799         estimate D2E/DX2                !
 ! A116  A(33,34,35)           120.2373         estimate D2E/DX2                !
 ! A117  A(33,34,73)           119.9181         estimate D2E/DX2                !
 ! A118  A(35,34,73)           119.8417         estimate D2E/DX2                !
 ! A119  A(34,35,36)           120.2138         estimate D2E/DX2                !
 ! A120  A(34,35,74)           119.8583         estimate D2E/DX2                !
 ! A121  A(36,35,74)           119.9248         estimate D2E/DX2                !
 ! A122  A(35,36,37)           120.7433         estimate D2E/DX2                !
 ! A123  A(35,36,75)           117.7651         estimate D2E/DX2                !
 ! A124  A(37,36,75)           121.4888         estimate D2E/DX2                !
 ! A125  A(16,37,32)           119.6753         estimate D2E/DX2                !
 ! A126  A(16,37,36)           121.2647         estimate D2E/DX2                !
 ! A127  A(32,37,36)           119.0536         estimate D2E/DX2                !
 ! A128  A(15,38,39)           121.2688         estimate D2E/DX2                !
 ! A129  A(15,38,43)           119.6736         estimate D2E/DX2                !
 ! A130  A(39,38,43)           119.0511         estimate D2E/DX2                !
 ! A131  A(38,39,40)           120.7414         estimate D2E/DX2                !
 ! A132  A(38,39,76)           121.4862         estimate D2E/DX2                !
 ! A133  A(40,39,76)           117.7694         estimate D2E/DX2                !
 ! A134  A(39,40,41)           120.2169         estimate D2E/DX2                !
 ! A135  A(39,40,77)           119.9228         estimate D2E/DX2                !
 ! A136  A(41,40,77)           119.8574         estimate D2E/DX2                !
 ! A137  A(40,41,42)           120.2385         estimate D2E/DX2                !
 ! A138  A(40,41,78)           119.846          estimate D2E/DX2                !
 ! A139  A(42,41,78)           119.9125         estimate D2E/DX2                !
 ! A140  A(41,42,43)           120.7482         estimate D2E/DX2                !
 ! A141  A(41,42,79)           117.6728         estimate D2E/DX2                !
 ! A142  A(43,42,79)           121.5704         estimate D2E/DX2                !
 ! A143  A(11,43,38)           119.5561         estimate D2E/DX2                !
 ! A144  A(11,43,42)           121.4308         estimate D2E/DX2                !
 ! A145  A(38,43,42)           118.9953         estimate D2E/DX2                !
 ! A146  A(6,44,10)            120.3282         estimate D2E/DX2                !
 ! A147  A(6,44,80)            119.6097         estimate D2E/DX2                !
 ! A148  A(10,44,80)           120.062          estimate D2E/DX2                !
 ! A149  A(14,81,18)           100.0001         estimate D2E/DX2                !
 ! D1    D(45,1,2,3)            60.1973         estimate D2E/DX2                !
 ! D2    D(45,1,2,4)          -179.5075         estimate D2E/DX2                !
 ! D3    D(45,1,2,5)           -59.7355         estimate D2E/DX2                !
 ! D4    D(46,1,2,3)           -60.1583         estimate D2E/DX2                !
 ! D5    D(46,1,2,4)            60.1369         estimate D2E/DX2                !
 ! D6    D(46,1,2,5)           179.9089         estimate D2E/DX2                !
 ! D7    D(47,1,2,3)           179.4741         estimate D2E/DX2                !
 ! D8    D(47,1,2,4)           -60.2308         estimate D2E/DX2                !
 ! D9    D(47,1,2,5)            59.5413         estimate D2E/DX2                !
 ! D10   D(1,2,3,48)           -63.1843         estimate D2E/DX2                !
 ! D11   D(1,2,3,49)           176.7379         estimate D2E/DX2                !
 ! D12   D(1,2,3,50)            56.9808         estimate D2E/DX2                !
 ! D13   D(4,2,3,48)           177.0186         estimate D2E/DX2                !
 ! D14   D(4,2,3,49)            56.9408         estimate D2E/DX2                !
 ! D15   D(4,2,3,50)           -62.8163         estimate D2E/DX2                !
 ! D16   D(5,2,3,48)            54.9694         estimate D2E/DX2                !
 ! D17   D(5,2,3,49)           -65.1084         estimate D2E/DX2                !
 ! D18   D(5,2,3,50)           175.1345         estimate D2E/DX2                !
 ! D19   D(1,2,4,51)           -57.4715         estimate D2E/DX2                !
 ! D20   D(1,2,4,52)            62.7463         estimate D2E/DX2                !
 ! D21   D(1,2,4,53)          -177.3307         estimate D2E/DX2                !
 ! D22   D(3,2,4,51)            62.3144         estimate D2E/DX2                !
 ! D23   D(3,2,4,52)          -177.4678         estimate D2E/DX2                !
 ! D24   D(3,2,4,53)           -57.5448         estimate D2E/DX2                !
 ! D25   D(5,2,4,51)          -175.5518         estimate D2E/DX2                !
 ! D26   D(5,2,4,52)           -55.334          estimate D2E/DX2                !
 ! D27   D(5,2,4,53)            64.589          estimate D2E/DX2                !
 ! D28   D(1,2,5,6)           -179.3915         estimate D2E/DX2                !
 ! D29   D(3,2,5,6)             61.5056         estimate D2E/DX2                !
 ! D30   D(4,2,5,6)            -60.3475         estimate D2E/DX2                !
 ! D31   D(2,5,6,7)             92.8185         estimate D2E/DX2                !
 ! D32   D(2,5,6,44)           -88.782          estimate D2E/DX2                !
 ! D33   D(5,6,7,8)            179.8105         estimate D2E/DX2                !
 ! D34   D(5,6,7,54)            -0.5575         estimate D2E/DX2                !
 ! D35   D(44,6,7,8)             1.4043         estimate D2E/DX2                !
 ! D36   D(44,6,7,54)         -178.9638         estimate D2E/DX2                !
 ! D37   D(5,6,44,10)         -179.2449         estimate D2E/DX2                !
 ! D38   D(5,6,44,80)            0.8125         estimate D2E/DX2                !
 ! D39   D(7,6,44,10)           -0.841          estimate D2E/DX2                !
 ! D40   D(7,6,44,80)          179.2164         estimate D2E/DX2                !
 ! D41   D(6,7,8,9)             -0.6356         estimate D2E/DX2                !
 ! D42   D(6,7,8,55)           179.3974         estimate D2E/DX2                !
 ! D43   D(54,7,8,9)           179.7311         estimate D2E/DX2                !
 ! D44   D(54,7,8,55)           -0.2359         estimate D2E/DX2                !
 ! D45   D(7,8,9,10)            -0.7036         estimate D2E/DX2                !
 ! D46   D(7,8,9,56)           179.948          estimate D2E/DX2                !
 ! D47   D(55,8,9,10)          179.2634         estimate D2E/DX2                !
 ! D48   D(55,8,9,56)           -0.085          estimate D2E/DX2                !
 ! D49   D(8,9,10,11)          179.3126         estimate D2E/DX2                !
 ! D50   D(8,9,10,44)            1.2585         estimate D2E/DX2                !
 ! D51   D(56,9,10,11)          -1.3451         estimate D2E/DX2                !
 ! D52   D(56,9,10,44)        -179.3993         estimate D2E/DX2                !
 ! D53   D(9,10,11,12)         -62.1945         estimate D2E/DX2                !
 ! D54   D(9,10,11,43)         118.4353         estimate D2E/DX2                !
 ! D55   D(44,10,11,12)        115.8436         estimate D2E/DX2                !
 ! D56   D(44,10,11,43)        -63.5267         estimate D2E/DX2                !
 ! D57   D(9,10,44,6)           -0.4851         estimate D2E/DX2                !
 ! D58   D(9,10,44,80)         179.4572         estimate D2E/DX2                !
 ! D59   D(11,10,44,6)        -178.539          estimate D2E/DX2                !
 ! D60   D(11,10,44,80)          1.4033         estimate D2E/DX2                !
 ! D61   D(10,11,12,13)       -176.9957         estimate D2E/DX2                !
 ! D62   D(10,11,12,57)          1.7765         estimate D2E/DX2                !
 ! D63   D(43,11,12,13)          2.3938         estimate D2E/DX2                !
 ! D64   D(43,11,12,57)       -178.8339         estimate D2E/DX2                !
 ! D65   D(10,11,43,38)        176.9051         estimate D2E/DX2                !
 ! D66   D(10,11,43,42)         -4.6433         estimate D2E/DX2                !
 ! D67   D(12,11,43,38)         -2.4554         estimate D2E/DX2                !
 ! D68   D(12,11,43,42)        175.9963         estimate D2E/DX2                !
 ! D69   D(11,12,13,14)       -179.6939         estimate D2E/DX2                !
 ! D70   D(11,12,13,15)          0.3911         estimate D2E/DX2                !
 ! D71   D(57,12,13,14)          1.5211         estimate D2E/DX2                !
 ! D72   D(57,12,13,15)       -178.3939         estimate D2E/DX2                !
 ! D73   D(12,13,14,81)        109.1427         estimate D2E/DX2                !
 ! D74   D(15,13,14,81)        -70.9421         estimate D2E/DX2                !
 ! D75   D(12,13,15,16)        177.7785         estimate D2E/DX2                !
 ! D76   D(12,13,15,38)         -3.0726         estimate D2E/DX2                !
 ! D77   D(14,13,15,16)         -2.1355         estimate D2E/DX2                !
 ! D78   D(14,13,15,38)        177.0135         estimate D2E/DX2                !
 ! D79   D(13,14,81,18)         37.9754         estimate D2E/DX2                !
 ! D80   D(13,15,16,17)         68.9039         estimate D2E/DX2                !
 ! D81   D(13,15,16,37)       -110.2424         estimate D2E/DX2                !
 ! D82   D(38,15,16,17)       -110.2239         estimate D2E/DX2                !
 ! D83   D(38,15,16,37)         70.6299         estimate D2E/DX2                !
 ! D84   D(13,15,38,39)       -176.1124         estimate D2E/DX2                !
 ! D85   D(13,15,38,43)          2.9484         estimate D2E/DX2                !
 ! D86   D(16,15,38,39)          3.0068         estimate D2E/DX2                !
 ! D87   D(16,15,38,43)       -177.9325         estimate D2E/DX2                !
 ! D88   D(15,16,17,18)         -2.1744         estimate D2E/DX2                !
 ! D89   D(15,16,17,19)        177.7476         estimate D2E/DX2                !
 ! D90   D(37,16,17,18)        176.9925         estimate D2E/DX2                !
 ! D91   D(37,16,17,19)         -3.0854         estimate D2E/DX2                !
 ! D92   D(15,16,37,32)       -177.9067         estimate D2E/DX2                !
 ! D93   D(15,16,37,36)          3.0263         estimate D2E/DX2                !
 ! D94   D(17,16,37,32)          2.9555         estimate D2E/DX2                !
 ! D95   D(17,16,37,36)       -176.1115         estimate D2E/DX2                !
 ! D96   D(16,17,18,81)        -78.3543         estimate D2E/DX2                !
 ! D97   D(19,17,18,81)        101.7225         estimate D2E/DX2                !
 ! D98   D(16,17,19,20)          0.3993         estimate D2E/DX2                !
 ! D99   D(16,17,19,58)       -178.3728         estimate D2E/DX2                !
 ! D100  D(18,17,19,20)       -179.6777         estimate D2E/DX2                !
 ! D101  D(18,17,19,58)          1.5501         estimate D2E/DX2                !
 ! D102  D(17,18,81,14)         52.3852         estimate D2E/DX2                !
 ! D103  D(17,19,20,21)       -177.051          estimate D2E/DX2                !
 ! D104  D(17,19,20,32)          2.3959         estimate D2E/DX2                !
 ! D105  D(58,19,20,21)          1.708          estimate D2E/DX2                !
 ! D106  D(58,19,20,32)       -178.8451         estimate D2E/DX2                !
 ! D107  D(19,20,21,22)        -62.0995         estimate D2E/DX2                !
 ! D108  D(19,20,21,31)        115.9407         estimate D2E/DX2                !
 ! D109  D(32,20,21,22)        118.4712         estimate D2E/DX2                !
 ! D110  D(32,20,21,31)        -63.4885         estimate D2E/DX2                !
 ! D111  D(19,20,32,33)        175.9893         estimate D2E/DX2                !
 ! D112  D(19,20,32,37)         -2.463          estimate D2E/DX2                !
 ! D113  D(21,20,32,33)         -4.5902         estimate D2E/DX2                !
 ! D114  D(21,20,32,37)        176.9575         estimate D2E/DX2                !
 ! D115  D(20,21,22,23)        179.3225         estimate D2E/DX2                !
 ! D116  D(20,21,22,59)         -1.3459         estimate D2E/DX2                !
 ! D117  D(31,21,22,23)          1.2656         estimate D2E/DX2                !
 ! D118  D(31,21,22,59)       -179.4028         estimate D2E/DX2                !
 ! D119  D(20,21,31,25)       -178.5787         estimate D2E/DX2                !
 ! D120  D(20,21,31,71)          1.3394         estimate D2E/DX2                !
 ! D121  D(22,21,31,25)         -0.5225         estimate D2E/DX2                !
 ! D122  D(22,21,31,71)        179.3957         estimate D2E/DX2                !
 ! D123  D(21,22,23,24)         -0.6812         estimate D2E/DX2                !
 ! D124  D(21,22,23,60)        179.2584         estimate D2E/DX2                !
 ! D125  D(59,22,23,24)        179.9809         estimate D2E/DX2                !
 ! D126  D(59,22,23,60)         -0.0796         estimate D2E/DX2                !
 ! D127  D(22,23,24,25)         -0.658          estimate D2E/DX2                !
 ! D128  D(22,23,24,61)        179.6789         estimate D2E/DX2                !
 ! D129  D(60,23,24,25)        179.4025         estimate D2E/DX2                !
 ! D130  D(60,23,24,61)         -0.2607         estimate D2E/DX2                !
 ! D131  D(23,24,25,26)        179.782          estimate D2E/DX2                !
 ! D132  D(23,24,25,31)          1.3966         estimate D2E/DX2                !
 ! D133  D(61,24,25,26)         -0.556          estimate D2E/DX2                !
 ! D134  D(61,24,25,31)       -178.9414         estimate D2E/DX2                !
 ! D135  D(24,25,26,27)         92.6085         estimate D2E/DX2                !
 ! D136  D(31,25,26,27)        -89.0129         estimate D2E/DX2                !
 ! D137  D(24,25,31,21)         -0.8035         estimate D2E/DX2                !
 ! D138  D(24,25,31,71)        179.278          estimate D2E/DX2                !
 ! D139  D(26,25,31,21)       -179.1865         estimate D2E/DX2                !
 ! D140  D(26,25,31,71)          0.8949         estimate D2E/DX2                !
 ! D141  D(25,26,27,28)         61.5348         estimate D2E/DX2                !
 ! D142  D(25,26,27,29)       -179.3766         estimate D2E/DX2                !
 ! D143  D(25,26,27,30)        -60.3229         estimate D2E/DX2                !
 ! D144  D(26,27,28,62)        175.1818         estimate D2E/DX2                !
 ! D145  D(26,27,28,63)        -65.0867         estimate D2E/DX2                !
 ! D146  D(26,27,28,64)         54.9967         estimate D2E/DX2                !
 ! D147  D(29,27,28,62)         57.0417         estimate D2E/DX2                !
 ! D148  D(29,27,28,63)        176.7733         estimate D2E/DX2                !
 ! D149  D(29,27,28,64)        -63.1433         estimate D2E/DX2                !
 ! D150  D(30,27,28,62)        -62.7652         estimate D2E/DX2                !
 ! D151  D(30,27,28,63)         56.9664         estimate D2E/DX2                !
 ! D152  D(30,27,28,64)        177.0497         estimate D2E/DX2                !
 ! D153  D(26,27,29,65)        179.8978         estimate D2E/DX2                !
 ! D154  D(26,27,29,66)        -59.7218         estimate D2E/DX2                !
 ! D155  D(26,27,29,67)         59.537          estimate D2E/DX2                !
 ! D156  D(28,27,29,65)        -60.1934         estimate D2E/DX2                !
 ! D157  D(28,27,29,66)         60.1871         estimate D2E/DX2                !
 ! D158  D(28,27,29,67)        179.4459         estimate D2E/DX2                !
 ! D159  D(30,27,29,65)         60.1142         estimate D2E/DX2                !
 ! D160  D(30,27,29,66)       -179.5054         estimate D2E/DX2                !
 ! D161  D(30,27,29,67)        -60.2466         estimate D2E/DX2                !
 ! D162  D(26,27,30,68)         64.6499         estimate D2E/DX2                !
 ! D163  D(26,27,30,69)        -55.3195         estimate D2E/DX2                !
 ! D164  D(26,27,30,70)       -175.533          estimate D2E/DX2                !
 ! D165  D(28,27,30,68)        -57.4723         estimate D2E/DX2                !
 ! D166  D(28,27,30,69)       -177.4418         estimate D2E/DX2                !
 ! D167  D(28,27,30,70)         62.3447         estimate D2E/DX2                !
 ! D168  D(29,27,30,68)       -177.2634         estimate D2E/DX2                !
 ! D169  D(29,27,30,69)         62.7672         estimate D2E/DX2                !
 ! D170  D(29,27,30,70)        -57.4463         estimate D2E/DX2                !
 ! D171  D(20,32,33,34)       -179.4363         estimate D2E/DX2                !
 ! D172  D(20,32,33,72)         -0.5133         estimate D2E/DX2                !
 ! D173  D(37,32,33,34)         -0.9754         estimate D2E/DX2                !
 ! D174  D(37,32,33,72)        177.9475         estimate D2E/DX2                !
 ! D175  D(20,32,37,16)         -0.1967         estimate D2E/DX2                !
 ! D176  D(20,32,37,36)        178.891          estimate D2E/DX2                !
 ! D177  D(33,32,37,16)       -178.6869         estimate D2E/DX2                !
 ! D178  D(33,32,37,36)          0.4007         estimate D2E/DX2                !
 ! D179  D(32,33,34,35)          0.7138         estimate D2E/DX2                !
 ! D180  D(32,33,34,73)       -179.9105         estimate D2E/DX2                !
 ! D181  D(72,33,34,35)       -178.2498         estimate D2E/DX2                !
 ! D182  D(72,33,34,73)          1.1259         estimate D2E/DX2                !
 ! D183  D(33,34,35,36)          0.1378         estimate D2E/DX2                !
 ! D184  D(33,34,35,74)        179.502          estimate D2E/DX2                !
 ! D185  D(73,34,35,36)       -179.2384         estimate D2E/DX2                !
 ! D186  D(73,34,35,74)          0.1258         estimate D2E/DX2                !
 ! D187  D(34,35,36,37)         -0.713          estimate D2E/DX2                !
 ! D188  D(34,35,36,75)        178.6838         estimate D2E/DX2                !
 ! D189  D(74,35,36,37)        179.9233         estimate D2E/DX2                !
 ! D190  D(74,35,36,75)         -0.68           estimate D2E/DX2                !
 ! D191  D(35,36,37,16)        179.5069         estimate D2E/DX2                !
 ! D192  D(35,36,37,32)          0.4342         estimate D2E/DX2                !
 ! D193  D(75,36,37,16)          0.1329         estimate D2E/DX2                !
 ! D194  D(75,36,37,32)       -178.9398         estimate D2E/DX2                !
 ! D195  D(15,38,39,40)        179.502          estimate D2E/DX2                !
 ! D196  D(15,38,39,76)          0.1511         estimate D2E/DX2                !
 ! D197  D(43,38,39,40)          0.4355         estimate D2E/DX2                !
 ! D198  D(43,38,39,76)       -178.9154         estimate D2E/DX2                !
 ! D199  D(15,38,43,11)         -0.1999         estimate D2E/DX2                !
 ! D200  D(15,38,43,42)       -178.6894         estimate D2E/DX2                !
 ! D201  D(39,38,43,11)        178.8818         estimate D2E/DX2                !
 ! D202  D(39,38,43,42)          0.3923         estimate D2E/DX2                !
 ! D203  D(38,39,40,41)         -0.7041         estimate D2E/DX2                !
 ! D204  D(38,39,40,77)        179.9281         estimate D2E/DX2                !
 ! D205  D(76,39,40,41)        178.6703         estimate D2E/DX2                !
 ! D206  D(76,39,40,77)         -0.6975         estimate D2E/DX2                !
 ! D207  D(39,40,41,42)          0.126          estimate D2E/DX2                !
 ! D208  D(39,40,41,78)       -179.2439         estimate D2E/DX2                !
 ! D209  D(77,40,41,42)        179.4942         estimate D2E/DX2                !
 ! D210  D(77,40,41,78)          0.1243         estimate D2E/DX2                !
 ! D211  D(40,41,42,43)          0.7183         estimate D2E/DX2                !
 ! D212  D(40,41,42,79)       -178.2282         estimate D2E/DX2                !
 ! D213  D(78,41,42,43)       -179.9122         estimate D2E/DX2                !
 ! D214  D(78,41,42,79)          1.1413         estimate D2E/DX2                !
 ! D215  D(41,42,43,11)       -179.4299         estimate D2E/DX2                !
 ! D216  D(41,42,43,38)         -0.9698         estimate D2E/DX2                !
 ! D217  D(79,42,43,11)         -0.525          estimate D2E/DX2                !
 ! D218  D(79,42,43,38)        177.9351         estimate D2E/DX2                !
 --------------------------------------------------------------------------------
 Trust Radius=3.00D-01 FncErr=1.00D-07 GrdErr=1.00D-06 EigMax=2.50D+02 EigMin=1.00D-04
 Number of steps in this run=    464 maximum allowed number of steps=    486.
 GradGradGradGradGradGradGradGradGradGradGradGradGradGradGradGradGradGrad

 Leave Link  103 at Wed Mar 26 23:40:21 2025, MaxMem= 13421772800 cpu:               0.8 elap:               0.0
 (Enter /public/software/apps/Gaussian/g16/l202.exe)
 Symmetry turned off by external request.
 Stoichiometry    C40H36CuO4(2)
 Framework group  C1[X(C40H36CuO4)]
 Deg. of freedom   237
 Full point group                 C1      NOp   1
                          Input orientation:                          
 ---------------------------------------------------------------------
 Center     Atomic      Atomic             Coordinates (Angstroms)
 Number     Number       Type             X           Y           Z
 ---------------------------------------------------------------------
      1          6           0       -9.390330   -1.292782    0.132918
      2          6           0       -8.099170   -2.123533    0.133090
      3          6           0       -7.225341   -1.699872    1.328246
      4          6           0       -8.458001   -3.616704    0.246131
      5          8           0       -7.417529   -1.866787   -1.102994
      6          6           0       -6.203368   -2.460081   -1.465710
      7          6           0       -6.197479   -3.639546   -2.220065
      8          6           0       -4.986164   -4.231883   -2.586952
      9          6           0       -3.775483   -3.641575   -2.213322
     10          6           0       -3.770380   -2.443949   -1.480986
     11          6           0       -2.488820   -1.825375   -1.071343
     12          6           0       -1.655254   -2.551279   -0.211992
     13          6           0       -0.465460   -2.005717    0.262659
     14          8           0        0.337029   -2.763573    1.109800
     15          6           0       -0.078511   -0.708101   -0.105068
     16          6           0        1.177370   -0.151031    0.468696
     17          6           0        2.401799   -0.705564    0.066193
     18          8           0        2.428573   -1.782230   -0.814791
     19          6           0        3.603982   -0.186956    0.539868
     20          6           0        3.621952    0.891385    1.432772
     21          6           0        4.938725    1.431991    1.841498
     22          6           0        5.851437    0.621817    2.535134
     23          6           0        7.099484    1.129104    2.907850
     24          6           0        7.449690    2.441231    2.578895
     25          6           0        6.557659    3.248360    1.862897
     26          8           0        6.908733    4.563360    1.538633
     27          6           0        7.538655    4.946219    0.307896
     28          6           0        6.631308    4.607624   -0.889175
     29          6           0        7.765979    6.463927    0.354814
     30          6           0        8.896197    4.235364    0.157689
     31          6           0        5.300970    2.745870    1.502709
     32          6           0        2.397259    1.431657    1.901373
     33          6           0        2.368313    2.463028    2.865623
     34          6           0        1.155731    2.975795    3.325001
     35          6           0       -0.047171    2.464697    2.847338
     36          6           0       -0.048044    1.434386    1.908239
     37          6           0        1.165271    0.904508    1.416757
     38          6           0       -0.876007    0.027075   -1.019798
     39          6           0       -0.479225    1.302849   -1.477418
     40          6           0       -1.266256    2.011190   -2.384213
     41          6           0       -2.451097    1.460337   -2.862798
     42          6           0       -2.860686    0.197420   -2.436819
     43          6           0       -2.092098   -0.534866   -1.505432
     44          6           0       -4.990667   -1.859488   -1.104928
     45          1           0       -9.151682   -0.211086    0.042935
     46          1           0       -9.966035   -1.451977    1.070548
     47          1           0      -10.031222   -1.577765   -0.729232
     48          1           0       -6.919123   -0.636983    1.223737
     49          1           0       -6.309546   -2.325447    1.387988
     50          1           0       -7.783190   -1.815578    2.282664
     51          1           0       -9.055993   -3.808534    1.163267
     52          1           0       -9.050267   -3.938302   -0.637163
     53          1           0       -7.539165   -4.238735    0.296810
     54          1           0       -7.131536   -4.099288   -2.516228
     55          1           0       -4.985410   -5.149011   -3.161851
     56          1           0       -2.842972   -4.110409   -2.502789
     57          1           0       -1.941850   -3.545925    0.109549
     58          1           0        4.535223   -0.618213    0.191177
     59          1           0        5.591591   -0.396953    2.795600
     60          1           0        7.795546    0.505006    3.453025
     61          1           0        8.415609    2.829748    2.874969
     62          1           0        7.076863    4.980592   -1.836693
     63          1           0        6.496300    3.509111   -0.982635
     64          1           0        5.631993    5.075488   -0.758758
     65          1           0        8.255965    6.822158   -0.576535
     66          1           0        6.796773    6.994865    0.472128
     67          1           0        8.411531    6.729737    1.219416
     68          1           0        8.756903    3.136665    0.071663
     69          1           0        9.537375    4.439763    1.041833
     70          1           0        9.425175    4.588430   -0.753852
     71          1           0        4.608392    3.376672    0.958977
     72          1           0        3.277541    2.870658    3.285825
     73          1           0        1.149329    3.767357    4.063305
     74          1           0       -0.984979    2.861798    3.214165
     75          1           0       -1.005542    1.052222    1.580259
     76          1           0        0.444773    1.759102   -1.148069
     77          1           0       -0.950010    2.988577   -2.725303
     78          1           0       -3.051368    2.010379   -3.576095
     79          1           0       -3.772947   -0.203080   -2.857393
     80          1           0       -4.998279   -0.940136   -0.532166
     81         29           0        1.997936   -3.368849    0.257186
 ---------------------------------------------------------------------
 Rotational constants (GHZ):           0.1420628           0.0258262           0.0244685
 Leave Link  202 at Wed Mar 26 23:40:21 2025, MaxMem= 13421772800 cpu:               0.1 elap:               0.0
 (Enter /public/software/apps/Gaussian/g16/l301.exe)
 Standard basis: def2SVPP (5D, 7F)
 Ernie: Thresh=  0.10000D-02 Tol=  0.10000D-05 Strict=F.
   712 basis functions,  1315 primitive gaussians,   758 cartesian basis functions
   169 alpha electrons      168 beta electrons
       nuclear repulsion energy      5623.8773611974 Hartrees.
 IExCor=  402 DFT=T Ex+Corr=B3LYP ExCW=0 ScaHFX=  0.200000
 ScaDFX=  0.800000  0.720000  1.000000  0.810000 ScalE2=  1.000000  1.000000
 IRadAn=      5 IRanWt=     -1 IRanGd=            0 ICorTp=0 IEmpDi=141
 NAtoms=   81 NActive=   81 NUniq=   81 SFac= 1.00D+00 NAtFMM=   60 NAOKFM=T Big=T
 Integral buffers will be    131072 words long.
 Raffenetti 2 integral format.
 Two-electron integral symmetry is turned off.
 R6Disp:  Grimme-D3(BJ) Dispersion energy=       -0.2056773193 Hartrees.
 Nuclear repulsion after empirical dispersion term =     5623.6716838781 Hartrees.
 Leave Link  301 at Wed Mar 26 23:40:21 2025, MaxMem= 13421772800 cpu:               0.9 elap:               0.0
 (Enter /public/software/apps/Gaussian/g16/l302.exe)
 NPDir=0 NMtPBC=     1 NCelOv=     1 NCel=       1 NClECP=     1 NCelD=      1
         NCelK=      1 NCelE2=     1 NClLst=     1 CellRange=     0.0.
 One-electron integrals computed using PRISM.
   1 Symmetry operations used in ECPInt.
 ECPInt:  NShTT=   60031 NPrTT=  246070 LenC2=   42378 LenP2D=  105915.
 LDataN:  DoStor=T MaxTD1= 4 Len=   56
 NBasis=   712 RedAO= T EigKep=  1.70D-04  NBF=   712
 NBsUse=   712 1.00D-06 EigRej= -1.00D+00 NBFU=   712
 Precomputing XC quadrature grid using
 IXCGrd= 4 IRadAn=           5 IRanWt=          -1 IRanGd=           0 AccXCQ= 0.00D+00.
 Generated NRdTot=       0 NPtTot=           0 NUsed=           0 NTot=          32
 NSgBfM=   700   689   690   693   700 MxSgAt=    81 MxSgA2=    81.
 Leave Link  302 at Wed Mar 26 23:40:22 2025, MaxMem= 13421772800 cpu:              30.8 elap:               1.0
 (Enter /public/software/apps/Gaussian/g16/l303.exe)
 DipDrv:  MaxL=1.
 Leave Link  303 at Wed Mar 26 23:40:22 2025, MaxMem= 13421772800 cpu:               3.5 elap:               0.1
 (Enter /public/software/apps/Gaussian/g16/l401.exe)
 ExpMin= 3.30D-02 ExpMax= 7.64D+04 ExpMxC= 1.15D+04 IAcc=3 IRadAn=         5 AccDes= 0.00D+00
 Harris functional with IExCor=  402 and IRadAn=       5 diagonalized for initial guess.
 HarFok:  IExCor=  402 AccDes= 0.00D+00 IRadAn=         5 IDoV= 1 UseB2=F ITyADJ=14
 ICtDFT=  3500011 ScaDFX=  1.000000  1.000000  1.000000  1.000000
 FoFCou: FMM=F IPFlag=           0 FMFlag=      100000 FMFlg1=        2001
         NFxFlg=           0 DoJE=T BraDBF=F KetDBF=T FulRan=T
         wScrn=  0.000000 ICntrl=       500 IOpCl=  0 I1Cent=   200000004 NGrid=           0
         NMat0=    1 NMatS0=      1 NMatT0=    0 NMatD0=    1 NMtDS0=    0 NMtDT0=    0
 Symmetry not used in FoFCou.
 Harris En= -3486.20481812745    
 JPrj=0 DoOrth=F DoCkMO=F.
 Initial guess <Sx>= 0.0000 <Sy>= 0.0000 <Sz>= 0.5000 <S**2>= 0.7500 S= 0.5000
 Leave Link  401 at Wed Mar 26 23:40:24 2025, MaxMem= 13421772800 cpu:              63.4 elap:               2.0
 (Enter /public/software/apps/Gaussian/g16/l502.exe)
 Two-electron integral symmetry not used.
 UHF open shell SCF:
 Using DIIS extrapolation, IDIIS=  1040.
 NGot= 13421772800 LenX= 13420591086 LenY= 13420015764
 Requested convergence on RMS density matrix=1.00D-08 within 128 cycles.
 Requested convergence on MAX density matrix=1.00D-06.
 Requested convergence on             energy=1.00D-06.
 No special actions if energy rises.
 Fock matrices will be formed incrementally for  20 cycles.

 Cycle   1  Pass 1  IDiag  1:
 FoFJK:  IHMeth= 1 ICntrl=       0 DoSepK=F KAlg= 0 I1Cent=           0 FoldK=F
 IRaf= 820000000 NMat=       1 IRICut=       1 DoRegI=T DoRafI=F ISym2E= 0 IDoP0=0 IntGTp=1.
 FoFCou: FMM=T IPFlag=           0 FMFlag=      100000 FMFlg1=        2001
         NFxFlg=           0 DoJE=F BraDBF=F KetDBF=F FulRan=T
         wScrn=  0.000000 ICntrl=         0 IOpCl=  1 I1Cent=           0 NGrid=           0
         NMat0=    1 NMatS0=      1 NMatT0=    0 NMatD0=    1 NMtDS0=    0 NMtDT0=    0
 Symmetry not used in FoFCou.
 FMM levels:  10  Number of levels for PrismC:   9
 E= -3471.50351071891    
 DIIS: error= 3.72D-01 at cycle   1 NSaved=   1.
 NSaved= 1 IEnMin= 1 EnMin= -3471.50351071891     IErMin= 1 ErrMin= 3.72D-01
 ErrMax= 3.72D-01  0.00D+00 EMaxC= 1.00D-01 BMatC= 5.50D+01 BMatP= 5.50D+01
 IDIUse=3 WtCom= 0.00D+00 WtEn= 1.00D+00
 Coeff-Com:  0.100D+01
 Coeff-En:   0.100D+01
 Coeff:      0.100D+01
 Gap=     0.195 Goal=   None    Shift=    0.000
 Gap=    -0.052 Goal=   None    Shift=    0.000
 GapD=   -0.052 DampG=0.250 DampE=0.125 DampFc=0.1250 IDamp=-1.
 Damping current iteration by 1.25D-01
 RMSDP=4.06D-02 MaxDP=7.67D+00              OVMax= 9.88D-01

 Cycle   2  Pass 1  IDiag  1:
 RMSU=  5.06D-03    CP:  1.01D+00
 E= -3476.34490837967     Delta-E=       -4.841397660763 Rises=F Damp=T
 DIIS: error= 2.46D-01 at cycle   2 NSaved=   2.
 NSaved= 2 IEnMin= 2 EnMin= -3476.34490837967     IErMin= 2 ErrMin= 2.46D-01
 ErrMax= 2.46D-01  0.00D+00 EMaxC= 1.00D-01 BMatC= 2.13D+01 BMatP= 5.50D+01
 IDIUse=3 WtCom= 0.00D+00 WtEn= 1.00D+00
 Coeff-Com: -0.124D+01 0.224D+01
 Coeff-En:   0.000D+00 0.100D+01
 Coeff:      0.000D+00 0.100D+01
 Gap=     0.016 Goal=   None    Shift=    0.000
 Gap=     0.017 Goal=   None    Shift=    0.000
 RMSDP=1.15D-02 MaxDP=3.12D+00 DE=-4.84D+00 OVMax= 8.21D-01

 Cycle   3  Pass 1  IDiag  1:
 RMSU=  9.86D-03    CP:  9.33D-01  2.13D+00
 E= -3461.60351680724     Delta-E=       14.741391572432 Rises=F Damp=F
 DIIS: error= 2.07D-01 at cycle   3 NSaved=   3.
 NSaved= 3 IEnMin= 2 EnMin= -3476.34490837967     IErMin= 3 ErrMin= 2.07D-01
 ErrMax= 2.07D-01  0.00D+00 EMaxC= 1.00D-01 BMatC= 6.62D+01 BMatP= 2.13D+01
 IDIUse=2 WtCom= 0.00D+00 WtEn= 1.00D+00
 EnCoef did   100 forward-backward iterations
 Coeff-En:   0.580D+00 0.911D-02 0.411D+00
 Coeff:      0.580D+00 0.911D-02 0.411D+00
 Gap=     0.023 Goal=   None    Shift=    0.000
 Gap=    -0.052 Goal=   None    Shift=    0.000
 RMSDP=1.43D-02 MaxDP=4.03D+00 DE= 1.47D+01 OVMax= 8.84D-01

 Cycle   4  Pass 1  IDiag  1:
 RMSU=  4.98D-03    CP:  9.00D-01  8.23D-02  1.34D-01
 E= -3480.78449719985     Delta-E=      -19.180980392610 Rises=F Damp=F
 DIIS: error= 1.41D-01 at cycle   4 NSaved=   4.
 NSaved= 4 IEnMin= 4 EnMin= -3480.78449719985     IErMin= 4 ErrMin= 1.41D-01
 ErrMax= 1.41D-01  0.00D+00 EMaxC= 1.00D-01 BMatC= 1.71D+01 BMatP= 2.13D+01
 IDIUse=3 WtCom= 0.00D+00 WtEn= 1.00D+00
 EnCoef did   100 forward-backward iterations
 Coeff-Com: -0.617D+00 0.127D+01 0.866D-01 0.257D+00
 Coeff-En:   0.332D+00 0.103D-01 0.108D+00 0.549D+00
 Coeff:      0.332D+00 0.103D-01 0.108D+00 0.549D+00
 Gap=    -0.313 Goal=   None    Shift=    0.000
 Gap=     0.258 Goal=   None    Shift=    0.000
 RMSDP=1.03D-02 MaxDP=1.89D+00 DE=-1.92D+01 OVMax= 9.05D-01

 Cycle   5  Pass 1  IDiag  1:
 RMSU=  9.41D-03    CP:  9.00D-01  1.70D-01  2.45D-01  1.84D-01
 E= -3469.34721772158     Delta-E=       11.437279478267 Rises=F Damp=F
 DIIS: error= 9.51D-02 at cycle   5 NSaved=   5.
 NSaved= 5 IEnMin= 4 EnMin= -3480.78449719985     IErMin= 5 ErrMin= 9.51D-02
 ErrMax= 9.51D-02  0.00D+00 EMaxC= 1.00D-01 BMatC= 3.84D+01 BMatP= 1.71D+01
 IDIUse=2 WtCom= 0.00D+00 WtEn= 1.00D+00
 EnCoef did   100 forward-backward iterations
 Coeff-En:   0.213D+00 0.484D-02 0.000D+00 0.580D+00 0.202D+00
 Coeff:      0.213D+00 0.484D-02 0.000D+00 0.580D+00 0.202D+00
 Gap=     0.040 Goal=   None    Shift=    0.000
 Gap=    -0.058 Goal=   None    Shift=    0.000
 RMSDP=8.88D-03 MaxDP=1.95D+00 DE= 1.14D+01 OVMax= 8.51D-01

 Cycle   6  Pass 1  IDiag  1:
 RMSU=  3.55D-03    CP:  8.96D-01  8.89D-02  2.00D-01  3.42D-01  1.41D-01
 E= -3483.97204399809     Delta-E=      -14.624826276515 Rises=F Damp=F
 DIIS: error= 2.88D-02 at cycle   6 NSaved=   6.
 NSaved= 6 IEnMin= 6 EnMin= -3483.97204399809     IErMin= 6 ErrMin= 2.88D-02
 ErrMax= 2.88D-02  0.00D+00 EMaxC= 1.00D-01 BMatC= 4.11D+00 BMatP= 1.71D+01
 IDIUse=3 WtCom= 7.12D-01 WtEn= 2.88D-01
 EnCoef did   100 forward-backward iterations
 Coeff-Com: -0.196D+00 0.471D+00-0.228D-01 0.212D+00 0.934D-01 0.442D+00
 Coeff-En:   0.157D+00 0.252D-02 0.000D+00 0.223D+00 0.787D-02 0.610D+00
 Coeff:     -0.945D-01 0.336D+00-0.162D-01 0.215D+00 0.688D-01 0.490D+00
 Gap=    -0.043 Goal=   None    Shift=    0.000
 Gap=    -0.020 Goal=   None    Shift=    0.000
 RMSDP=5.64D-03 MaxDP=9.88D-01 DE=-1.46D+01 OVMax= 9.27D-01

 Cycle   7  Pass 1  IDiag  1:
 RMSU=  4.67D-03    CP:  9.05D-01  4.26D-02  1.14D-01  4.67D-01  1.29D-01
                    CP:  1.64D-01
 E= -3477.55435110668     Delta-E=        6.417692891413 Rises=F Damp=F
 DIIS: error= 8.38D-02 at cycle   7 NSaved=   7.
 NSaved= 7 IEnMin= 6 EnMin= -3483.97204399809     IErMin= 6 ErrMin= 2.88D-02
 ErrMax= 8.38D-02  0.00D+00 EMaxC= 1.00D-01 BMatC= 2.17D+01 BMatP= 4.11D+00
 IDIUse=2 WtCom= 0.00D+00 WtEn= 1.00D+00
 EnCoef did     7 forward-backward iterations
 Coeff-En:   0.102D+00 0.000D+00 0.000D+00 0.181D+00 0.000D+00 0.571D+00
 Coeff-En:   0.146D+00
 Coeff:      0.102D+00 0.000D+00 0.000D+00 0.181D+00 0.000D+00 0.571D+00
 Coeff:      0.146D+00
 Gap=     0.044 Goal=   None    Shift=    0.000
 Gap=    -0.131 Goal=   None    Shift=    0.000
 RMSDP=4.34D-03 MaxDP=3.81D-01 DE= 6.42D+00 OVMax= 6.41D-01

 Cycle   8  Pass 1  IDiag  1:
 RMSU=  2.43D-03    CP:  9.01D-01  2.14D-02  1.02D-01  5.60D-01  5.67D-02
                    CP:  2.99D-01  2.58D-01
 E= -3484.58138972032     Delta-E=       -7.027038613636 Rises=F Damp=F
 DIIS: error= 2.41D-02 at cycle   8 NSaved=   8.
 NSaved= 8 IEnMin= 8 EnMin= -3484.58138972032     IErMin= 8 ErrMin= 2.41D-02
 ErrMax= 2.41D-02  0.00D+00 EMaxC= 1.00D-01 BMatC= 3.44D+00 BMatP= 4.11D+00
 IDIUse=3 WtCom= 7.59D-01 WtEn= 2.41D-01
 EnCoef did     4 forward-backward iterations
 Coeff-Com: -0.445D-01 0.149D+00-0.124D-01 0.717D-01 0.120D-03 0.435D+00
 Coeff-Com:  0.102D+00 0.299D+00
 Coeff-En:   0.506D-01 0.000D+00 0.000D+00 0.000D+00 0.000D+00 0.417D+00
 Coeff-En:   0.314D-01 0.501D+00
 Coeff:     -0.216D-01 0.113D+00-0.944D-02 0.544D-01 0.912D-04 0.431D+00
 Coeff:      0.854D-01 0.348D+00
 Gap=    -0.191 Goal=   None    Shift=    0.000
 Gap=     0.188 Goal=   None    Shift=    0.000
 RMSDP=3.29D-03 MaxDP=2.31D-01 DE=-7.03D+00 OVMax= 7.40D-01

 Cycle   9  Pass 1  IDiag  1:
 RMSU=  2.65D-03    CP:  9.07D-01  4.73D-03  1.09D-01  4.79D-01  6.08D-02
                    CP:  3.95D-01  2.24D-01  2.31D-01
 E= -3484.75297199179     Delta-E=       -0.171582271476 Rises=F Damp=F
 DIIS: error= 4.96D-02 at cycle   9 NSaved=   9.
 NSaved= 9 IEnMin= 9 EnMin= -3484.75297199179     IErMin= 8 ErrMin= 2.41D-02
 ErrMax= 4.96D-02  0.00D+00 EMaxC= 1.00D-01 BMatC= 3.78D+00 BMatP= 3.44D+00
 IDIUse=3 WtCom= 7.59D-01 WtEn= 2.41D-01
 EnCoef did     3 forward-backward iterations
 Coeff-Com: -0.102D+00 0.169D+00-0.572D-02 0.542D-01 0.189D-01 0.279D+00
 Coeff-Com:  0.367D-01 0.275D+00 0.275D+00
 Coeff-En:   0.000D+00 0.000D+00 0.000D+00 0.000D+00 0.000D+00 0.226D+00
 Coeff-En:   0.000D+00 0.380D+00 0.394D+00
 Coeff:     -0.776D-01 0.129D+00-0.434D-02 0.412D-01 0.143D-01 0.266D+00
 Coeff:      0.278D-01 0.300D+00 0.303D+00
 Gap=    -0.013 Goal=   None    Shift=    0.000
 Gap=     0.110 Goal=   None    Shift=    0.000
 RMSDP=2.14D-03 MaxDP=2.14D-01 DE=-1.72D-01 OVMax= 5.31D-01

 Cycle  10  Pass 1  IDiag  1:
 RMSU=  1.23D-03    CP:  8.96D-01  7.69D-04  1.35D-01  5.25D-01  7.88D-02
                    CP:  5.06D-01  1.54D-01  3.56D-01  3.99D-01
 E= -3485.84918748326     Delta-E=       -1.096215491471 Rises=F Damp=F
 DIIS: error= 3.34D-02 at cycle  10 NSaved=  10.
 NSaved=10 IEnMin=10 EnMin= -3485.84918748326     IErMin= 8 ErrMin= 2.41D-02
 ErrMax= 3.34D-02  0.00D+00 EMaxC= 1.00D-01 BMatC= 4.96D-01 BMatP= 3.44D+00
 IDIUse=3 WtCom= 7.59D-01 WtEn= 2.41D-01
 Coeff-Com: -0.127D+00 0.215D+00-0.201D-02-0.412D-01 0.299D-03 0.648D-01
 Coeff-Com:  0.121D-01 0.150D+00 0.160D+00 0.568D+00
 Coeff-En:   0.000D+00 0.000D+00 0.000D+00 0.000D+00 0.000D+00 0.000D+00
 Coeff-En:   0.000D+00 0.000D+00 0.000D+00 0.100D+01
 Coeff:     -0.966D-01 0.163D+00-0.153D-02-0.313D-01 0.227D-03 0.492D-01
 Coeff:      0.916D-02 0.114D+00 0.122D+00 0.672D+00
 Gap=     0.181 Goal=   None    Shift=    0.000
 Gap=     0.001 Goal=   None    Shift=    0.000
 RMSDP=1.14D-03 MaxDP=8.93D-02 DE=-1.10D+00 OVMax= 5.63D-01

 Cycle  11  Pass 1  IDiag  1:
 RMSU=  9.96D-04    CP:  8.96D-01  1.50D-02  1.27D-01  5.12D-01  7.72D-02
                    CP:  4.73D-01  1.75D-01  4.55D-01  4.03D-01  6.22D-01
 E= -3485.89307556901     Delta-E=       -0.043888085742 Rises=F Damp=F
 DIIS: error= 1.00D-02 at cycle  11 NSaved=  11.
 NSaved=11 IEnMin=11 EnMin= -3485.89307556901     IErMin=11 ErrMin= 1.00D-02
 ErrMax= 1.00D-02  0.00D+00 EMaxC= 1.00D-01 BMatC= 2.17D-01 BMatP= 4.96D-01
 IDIUse=3 WtCom= 9.00D-01 WtEn= 1.00D-01
 Coeff-Com: -0.703D-01 0.123D+00-0.173D-02-0.359D-01-0.298D-02 0.220D-01
 Coeff-Com: -0.341D-02 0.617D-01 0.348D-01 0.425D+00 0.447D+00
 Coeff-En:   0.000D+00 0.000D+00 0.000D+00 0.000D+00 0.000D+00 0.000D+00
 Coeff-En:   0.000D+00 0.000D+00 0.000D+00 0.364D+00 0.636D+00
 Coeff:     -0.633D-01 0.111D+00-0.156D-02-0.323D-01-0.268D-02 0.198D-01
 Coeff:     -0.306D-02 0.555D-01 0.313D-01 0.419D+00 0.466D+00
 Gap=     0.142 Goal=   None    Shift=    0.000
 Gap=     0.021 Goal=   None    Shift=    0.000
 RMSDP=9.14D-04 MaxDP=6.60D-02 DE=-4.39D-02 OVMax= 4.03D-01

 Cycle  12  Pass 1  IDiag  1:
 RMSU=  4.16D-04    CP:  8.95D-01  1.06D-02  1.33D-01  5.17D-01  7.88D-02
                    CP:  4.99D-01  1.50D-01  3.97D-01  3.36D-01  9.44D-01
                    CP:  3.46D-01
 E= -3485.90835198764     Delta-E=       -0.015276418631 Rises=F Damp=F
 DIIS: error= 1.51D-02 at cycle  12 NSaved=  12.
 NSaved=12 IEnMin=12 EnMin= -3485.90835198764     IErMin=11 ErrMin= 1.00D-02
 ErrMax= 1.51D-02  0.00D+00 EMaxC= 1.00D-01 BMatC= 1.80D-01 BMatP= 2.17D-01
 IDIUse=3 WtCom= 9.00D-01 WtEn= 1.00D-01
 Coeff-Com: -0.300D-01 0.585D-01-0.272D-02-0.144D-01-0.218D-02 0.211D-01
 Coeff-Com: -0.792D-02 0.151D-01 0.128D-02-0.195D-02 0.431D+00 0.533D+00
 Coeff-En:   0.000D+00 0.000D+00 0.000D+00 0.000D+00 0.000D+00 0.000D+00
 Coeff-En:   0.000D+00 0.000D+00 0.000D+00 0.000D+00 0.438D+00 0.562D+00
 Coeff:     -0.269D-01 0.526D-01-0.245D-02-0.129D-01-0.196D-02 0.190D-01
 Coeff:     -0.713D-02 0.136D-01 0.115D-02-0.176D-02 0.431D+00 0.535D+00
 Gap=     0.111 Goal=   None    Shift=    0.000
 Gap=     0.025 Goal=   None    Shift=    0.000
 RMSDP=4.76D-04 MaxDP=3.75D-02 DE=-1.53D-02 OVMax= 2.67D-01

 Cycle  13  Pass 1  IDiag  1:
 RMSU=  2.14D-04    CP:  8.96D-01  8.48D-03  1.31D-01  5.05D-01  7.92D-02
                    CP:  4.89D-01  1.51D-01  4.17D-01  3.30D-01  8.06D-01
                    CP:  7.04D-01  6.97D-01
 E= -3485.94412841295     Delta-E=       -0.035776425315 Rises=F Damp=F
 DIIS: error= 6.45D-03 at cycle  13 NSaved=  13.
 NSaved=13 IEnMin=13 EnMin= -3485.94412841295     IErMin=13 ErrMin= 6.45D-03
 ErrMax= 6.45D-03  0.00D+00 EMaxC= 1.00D-01 BMatC= 2.33D-02 BMatP= 1.80D-01
 IDIUse=3 WtCom= 9.36D-01 WtEn= 6.45D-02
 Coeff-Com: -0.818D-02 0.172D-01-0.895D-03 0.121D-02-0.305D-02 0.148D-01
 Coeff-Com: -0.501D-02-0.649D-02 0.809D-02-0.219D+00 0.131D+00 0.346D+00
 Coeff-Com:  0.725D+00
 Coeff-En:   0.000D+00 0.000D+00 0.000D+00 0.000D+00 0.000D+00 0.000D+00
 Coeff-En:   0.000D+00 0.000D+00 0.000D+00 0.000D+00 0.000D+00 0.000D+00
 Coeff-En:   0.100D+01
 Coeff:     -0.765D-02 0.161D-01-0.837D-03 0.114D-02-0.286D-02 0.139D-01
 Coeff:     -0.469D-02-0.607D-02 0.757D-02-0.205D+00 0.122D+00 0.324D+00
 Coeff:      0.742D+00
 Gap=     0.113 Goal=   None    Shift=    0.000
 Gap=     0.041 Goal=   None    Shift=    0.000
 RMSDP=1.80D-04 MaxDP=1.88D-02 DE=-3.58D-02 OVMax= 7.29D-02

 Cycle  14  Pass 1  IDiag  1:
 RMSU=  1.49D-04    CP:  8.96D-01  1.15D-02  1.30D-01  5.03D-01  7.80D-02
                    CP:  4.88D-01  1.49D-01  4.19D-01  3.33D-01  7.54D-01
                    CP:  7.56D-01  8.16D-01  8.96D-01
 E= -3485.94800057136     Delta-E=       -0.003872158408 Rises=F Damp=F
 DIIS: error= 1.01D-03 at cycle  14 NSaved=  14.
 NSaved=14 IEnMin=14 EnMin= -3485.94800057136     IErMin=14 ErrMin= 1.01D-03
 ErrMax= 1.01D-03  0.00D+00 EMaxC= 1.00D-01 BMatC= 3.58D-03 BMatP= 2.33D-02
 IDIUse=3 WtCom= 9.90D-01 WtEn= 1.01D-02
 Coeff-Com: -0.582D-02 0.998D-02 0.225D-04 0.363D-02-0.203D-02 0.681D-02
 Coeff-Com: -0.185D-02-0.882D-02 0.561D-02-0.136D+00-0.542D-02 0.119D+00
 Coeff-Com:  0.463D+00 0.552D+00
 Coeff-En:   0.000D+00 0.000D+00 0.000D+00 0.000D+00 0.000D+00 0.000D+00
 Coeff-En:   0.000D+00 0.000D+00 0.000D+00 0.000D+00 0.000D+00 0.000D+00
 Coeff-En:   0.279D-01 0.972D+00
 Coeff:     -0.576D-02 0.988D-02 0.223D-04 0.360D-02-0.201D-02 0.674D-02
 Coeff:     -0.183D-02-0.873D-02 0.555D-02-0.135D+00-0.536D-02 0.118D+00
 Coeff:      0.459D+00 0.556D+00
 Gap=     0.109 Goal=   None    Shift=    0.000
 Gap=     0.042 Goal=   None    Shift=    0.000
 RMSDP=1.08D-04 MaxDP=1.50D-02 DE=-3.87D-03 OVMax= 3.29D-02

[...]
 69,-0.00033482,0.00037062,-0.00021392,0.00031511,-0.00025786,0.0002735
 3,0.00035493,0.00006847,0.00046308,-0.00007574,0.00002074,-0.00039188,
 0.00014171,0.00023612,0.00020782,-0.00030757,-0.00034242,-0.00012944,-
 0.00001988,-0.00008194,-0.00018287,0.00011469,0.00013370,-0.00002952,-
 0.00001802,-0.00000917,0.00001688,0.00002671,0.00000889,-0.00000427,-0
 .00000286,-0.00000589,0.00001068,0.00001662,-0.00000095,-0.00001764,-0
 .00007816,0.00001010,0.00002942,0.00008697,-0.00003127,-0.00002328,-0.
 00003323,0.00004249,0.00000218,0.00000140,-0.00000809,0.00000149,0.000
 00152,-0.00000302,0.00000438,0.00000120,-0.00000857,0.00003715,0.00000
 203,-0.00000032,0.00015520,-0.00008312,-0.00010492,-0.00016520,0.00011
 058,0.00011573,0.00015112,0.00003247,0.00001713,0.00000970,-0.00006852
 ,-0.00005348,0.00000679,0.00004070,0.00004356,-0.00003855,-0.00000097,
 -0.00004721,-0.00009783,-0.00018660,-0.00028369,0.00007241,0.00002591,
 0.00009014,-0.00005064,0.00003060,-0.00007042,0.00015033,0.00004201,0.
 00002869,-0.00021974,-0.00053991,0.00076415,-0.00029419,0.00038877,-0.
 00011955,-0.05854030,-0.01835879,-0.00959475,-0.00001981,0.00004224,0.
 00000550,0.00001996,0.00000549,-0.00002662,0.00003727,0.00000113,0.000
 02604,-0.00032452,0.00042282,0.00054445,-0.00017985,-0.00009662,0.0002
 8086,0.00010453,0.00011050,-0.00005912,0.00001161,0.00003993,-0.000022
 30,0.00006531,0.00003421,0.00002268,-0.00000642,0.00002824,-0.00005810
 ,-0.00000504,-0.00136092,-0.00060273,0.00005573,-0.00001003,0.00002842
 ,0.00022133,0.00125252,0.00047861,0.00000762,-0.00001508,0.00004276,-0
 .00000108,-0.00001046,-0.00001038,-0.00000702,0.00000197,-0.00000424,0
 .00000714,-0.00000121,0.00000232,0.00000457,0.00000250,0.00000231,0.00
 000249,0.00000341,-0.00000534,-0.00000358,0.00000310,0.00000662,0.0000
 0153,-0.00000490,0.00000219,0.00000140,0.00000321,-0.00000328,-0.00000
 084,-0.00000209,0.00000121,0.00000040,-0.00000065,0.00000244,-0.000003
 12,0.00000261,0.00000560,-0.00000067,-0.00000170,0.00000229,0.00000229
 ,0.00000299,-0.00000476,-0.00000655,-0.00001076,0.00000419,0.00000353,
 0.00000377,0.00000747,0.00000167,0.00000785,0.00000677,-0.00001553,0.0
 0000456,0.00000186,-0.00003067,0.00001666,0.00000192,-0.00000280,-0.00
 001702,0.00002025,0.00001305,0.00000136,-0.00000359,-0.00000164,0.0000
 3869,-0.00000718,-0.00033873,-0.00011370,0.00054000,0.05787246,0.00000
 542,0.00004279,0.00021080,-0.00053649,-0.00007081,-0.00060973,0.000405
 12,0.00010201,-0.00064913,0.00004165,-0.00001553,0.00008276,0.00009638
 ,0.00096727,0.00252428,0.00368299,-0.00807315,-0.00532317,-0.00210514,
 0.00160426,-0.00177489,-0.00005495,0.00056548,0.00056783,0.00315793,0.
 00133673,-0.00199454,-0.00262090,-0.01078268,-0.00540557,-0.00167319,-
 0.00051902,0.00107116,0.00060168,0.00016562,0.00040113,-0.00011376,-0.
 00018822,-0.00011733,0.00010213,-0.00002642,0.00007021,-0.00005219,0.0
 0004714,-0.00006912,-0.00007249,0.00001942,-0.00000321,0.00004957,-0.0
 0002045,-0.00003345,-0.00003102,0.00004187,0.00006103,0.00001745,0.000
 00474,0.00001016,0.00002547,-0.00001522,-0.00001868,0.00000495,0.00000
 310,0.00000231,-0.00000293,-0.00000394,-0.00000101,0.00000069,0.000000
 47,0.00000114,-0.00000177,-0.00000264,0.00000033,0.00000314,0.00001318
 ,-0.00000159,-0.00000509,-0.00001462,0.00000623,0.00000401,0.00000562,
 -0.00000822,-0.00000022,-0.00000020,0.00000154,-0.00000020,-0.00000028
 ,0.00000056,-0.00000080,-0.00000018,0.00000151,-0.00000609,-0.00000063
 ,0.00000019,-0.00002273,0.00001102,0.00001336,0.00001901,-0.00001404,-
 0.00001361,-0.00001789,-0.00000404,-0.00000074,-0.00000142,0.00000511,
 0.00000748,0.00000784,-0.00000292,-0.00000087,0.00000578,-0.00000172,0
 .00000498,0.00036131,0.00001920,-0.00008226,-0.00003138,-0.00004603,0.
 00004138,-0.00004260,-0.00007265,-0.00006088,-0.00008091,0.00006448,-0
 .00004470,-0.00026508,0.00020205,0.00080056,-0.00019712,0.00016106,0.0
 0012151,-0.01982415,-0.29374188,-0.10972560,-0.00000146,0.00001083,-0.
 00001465,-0.00005193,0.00003238,-0.00001052,0.00003973,-0.00002098,0.0
 0002749,0.00009599,0.00041083,-0.00028400,-0.00003858,-0.00052619,0.00
 025703,0.00041196,0.00005469,0.00002620,-0.00002024,0.00000743,0.00001
 716,0.00005396,0.00001878,0.00001780,0.00000128,-0.00000979,-0.0000561
 4,0.00004491,-0.00038236,-0.00023350,-0.00003576,-0.00018604,0.0002288
 8,-0.00017351,-0.00053649,-0.00036179,-0.00000975,0.00000093,-0.000044
 04,-0.00000017,0.00000135,0.00000159,0.00000132,-0.00000048,0.00000037
 ,-0.00000104,0.00000013,-0.00000059,-0.00000068,-0.00000042,-0.0000005
 6,-0.00000051,-0.00000074,0.00000096,0.00000064,-0.00000039,-0.0000012
 4,-0.00000029,0.00000084,-0.00000044,-0.00000030,-0.00000059,0.0000006
 1,0.00000003,0.00000038,-0.00000031,0.00000010,0.00000015,-0.00000034,
 0.00000052,-0.00000032,-0.00000104,0.00000021,0.00000032,-0.00000030,-
 0.00000045,-0.00000063,0.00000084,0.00000114,0.00000176,-0.00000100,-0
 .00000058,-0.00000038,-0.00000127,-0.00000029,-0.00000061,-0.00000147,
 0.00000177,0.00000365,-0.00000170,0.00000661,0.00000344,-0.00000492,-0
 .00001242,0.00001554,0.00002150,-0.00000260,-0.00000994,-0.00001470,-0
 .00000619,0.00000501,0.00002138,-0.00062719,-0.00016466,0.00011275,0.0
 1951703,0.30951018,-0.00000435,-0.00002011,-0.00012186,0.00040517,0.00
 001384,0.00077135,0.00039296,0.00008741,-0.00071905,0.00004846,-0.0001
 0753,-0.00016654,0.00131222,0.00217734,-0.00384112,0.00015051,-0.00731
 941,0.00243074,-0.00160490,-0.00179194,0.00467634,0.00017441,0.0005056
 3,-0.00052869,0.00036147,-0.00210679,0.00565353,-0.00154750,-0.0041329
 2,0.00114545,0.00064364,0.00191694,-0.00311768,-0.00054352,-0.00002970
 ,-0.00013278,0.00008696,0.00042713,-0.00004859,0.00003816,-0.00012684,
 0.00001810,-0.00006097,-0.00025873,0.00005240,-0.00023630,0.00003425,-
 0.00003046,0.00020313,-0.00003909,-0.00011099,-0.00009315,0.00013238,0
 .00015185,0.00006357,0.00000024,0.00003741,0.00008246,-0.00005192,-0.0
 0005742,0.00000994,0.00000549,0.00000093,-0.00000576,-0.00001040,-0.00
 000393,0.00000179,0.00000109,0.00000198,-0.00000393,-0.00000586,0.0000
 0002,0.00000538,0.00002468,-0.00000354,-0.00001015,-0.00002713,0.00000
 770,0.00000847,0.00001040,-0.00001077,-0.00000112,-0.00000070,0.000001
 70,-0.00000065,-0.00000042,0.00000070,-0.00000159,-0.00000042,0.000002
 35,-0.00001201,0.00000023,0.00000010,-0.00006289,0.00004067,0.00005029
 ,0.00008693,-0.00004738,-0.00005480,-0.00007187,-0.00002005,-0.0000138
 6,-0.00000265,0.00004000,0.00003013,-0.00002621,-0.00003186,-0.0000356
 1,0.00003542,0.00000841,0.00004791,-0.00006084,0.00028528,0.00002460,-
 0.00009174,-0.00014949,0.00002259,-0.00004005,-0.00002081,-0.00008152,
 -0.00013615,0.00014811,-0.00012981,0.00017747,0.00016630,0.00027384,0.
 00071900,-0.00031999,0.00042767,-0.01006368,-0.10940489,-0.08275301,-0
 .00000254,0.00000322,0.00002135,0.00002456,-0.00001013,-0.00000755,-0.
 00002083,0.00000733,-0.00001563,0.00041939,-0.00008330,-0.00025063,0.0
 0047061,0.00016441,-0.00037875,-0.00001491,0.00002924,-0.00002300,0.00
 001324,0.00005587,-0.00001897,-0.00000916,-0.00003471,-0.00001028,-0.0
 0003321,0.00001813,-0.00001475,0.00004217,-0.00028225,0.00000532,0.000
 04841,0.00025846,-0.00066265,-0.00011033,-0.00028156,0.00028419,-0.000
 00899,0.00001080,-0.00005880,0.00000268,0.00000501,0.00000455,0.000002
 29,-0.00000025,0.00000200,-0.00000293,0.00000055,-0.00000068,-0.000001
 68,-0.00000094,-0.00000048,-0.00000040,-0.00000085,0.00000158,0.000001
 44,-0.00000133,-0.00000185,-0.00000075,0.00000192,-0.00000012,-0.00000
 016,-0.00000094,0.00000100,0.00000029,0.00000072,0.,-0.00000051,0.0000
 0007,-0.00000111,0.00000114,-0.00000093,-0.00000165,-0.00000017,0.0000
 0049,-0.00000106,-0.00000049,-0.00000087,0.00000154,0.00000213,0.00000
 401,-0.00000046,-0.00000059,-0.00000146,-0.00000278,0.00000080,-0.0000
 0231,-0.00000128,0.00000624,-0.00001208,-0.00000614,-0.00000178,-0.000
 00616,0.00000831,0.00001075,0.00002034,-0.00002500,-0.00002964,-0.0000
 1712,-0.00001237,0.00000508,0.00001883,0.00001312,0.00049084,-0.000094
 83,-0.00098504,0.00839962,0.12024438,0.07827157,-0.00000034,0.00000610
 ,0.00000720,0.00004036,-0.00000053,-0.00007191,-0.00000224,0.00001482,
 0.00001781,-0.00000598,-0.00000100,0.00001136,-0.00006002,-0.00000392,
 0.00005057,0.00008079,-0.00002277,-0.00006401,-0.00001215,-0.00000546,
 -0.00000328,-0.00000822,-0.00005245,-0.00002601,-0.00010388,0.00009667
 ,0.00006180,0.00003258,-0.00016114,0.00026119,-0.00020496,0.00471168,-
 0.00309347,0.00598280,-0.00030800,0.00294141,-0.02866825,0.02697991,-0
 .01693869,-0.06179310,0.00430854,0.05452470,-0.00031859,-0.00828724,0.
 00588599,-0.00401123,0.00441065,0.00113969,0.00391604,-0.00926444,-0.0
 0835483,-0.02094285,-0.02671610,0.02886498,0.00208975,0.00084288,0.000
 73308,0.00143490,-0.00132209,-0.00175140,0.00012268,0.00008047,0.00009
 542,-0.00007627,-0.00028089,-0.00000879,-0.00002282,0.00003803,0.00003
 183,-0.00006764,-0.00005926,-0.00000437,0.00007115,0.00026171,-0.00006
 308,-0.00011800,-0.00026810,0.00012095,0.00008408,0.00010768,-0.000169
 06,-0.00000254,-0.00000795,0.00003660,-0.00000343,-0.00000635,0.000014
 86,-0.00001727,-0.00000640,0.00003377,-0.00019943,0.00004500,0.0000174
 0,-0.00147861,0.00122385,0.00122955,0.00152205,-0.00127096,-0.00122979
 ,-0.00156048,-0.00011831,0.00002769,0.00006461,0.00069466,0.00041033,-
 0.00018987,-0.00035441,-0.00013567,-0.00009838,-0.00043399,0.00023230,
 -0.00241566,0.00116493,-0.00153977,-0.00045339,-0.00040255,-0.00023030
 ,0.00066994,-0.00073887,0.00108389,-0.00210842,-0.00223057,0.00018410,
 -0.00021112,0.00387365,-0.00260123,0.00076736,-0.00324323,0.00267010,0
 .00000156,-0.00004744,0.00008586,0.00000188,-0.00000497,-0.00000454,-0
 .00000545,-0.00000112,0.00000451,0.00000466,0.00000042,0.00000033,0.00
 000335,-0.00000793,-0.00000841,0.00000250,-0.00000008,-0.00001200,-0.0
 0001024,-0.00000176,0.00000689,-0.00000657,-0.00000059,0.00000415,0.00
 000445,0.00000022,0.00000088,0.00000088,0.00000020,-0.00000717,0.00000
 267,-0.00001016,-0.00000183,-0.00001271,-0.00000609,-0.00001031,0.0000
 0929,-0.00004549,-0.00003953,-0.00033609,-0.00015155,0.00000765,-0.000
 14707,-0.00006090,0.00021900,0.00002754,0.00001311,-0.00002160,-0.0000
 4811,-0.00000653,-0.00002177,-0.00001396,-0.00000257,-0.00001252,-0.00
 001109,-0.00001613,0.00001851,0.00001270,-0.00000547,-0.00002743,-0.00
 000789,0.00001750,-0.00001136,-0.00000579,-0.00001189,0.00001088,-0.00
 000072,0.00000862,-0.00000567,0.00000188,0.00000344,-0.00000599,0.0000
 1094,-0.00000569,-0.00002162,0.00000431,0.00000622,-0.00000561,-0.0000
 0933,-0.00001326,0.00001530,0.00003129,0.00006563,-0.00002700,-0.00000
 543,-0.00002936,-0.00003565,0.00000171,-0.00003202,-0.00000848,0.00007
 919,-0.00001325,-0.00002524,0.00018264,-0.00015861,-0.00002005,0.00006
 546,0.00013860,-0.00017222,0.00007640,0.00006107,0.00000757,0.00000486
 ,-0.00004217,-0.00004182,0.00001597,0.00000821,-0.00008235,0.00005878,
 -0.00002529,-0.00002812,0.10829157,-0.00000880,-0.00000385,0.00001375,
 0.00014290,-0.00000302,-0.00016521,-0.00000761,-0.00001005,0.00003344,
 -0.00001577,-0.00001216,0.00003492,-0.00031679,0.00011632,0.00012596,0
 .00025183,-0.00013597,-0.00003734,-0.00010770,-0.00001019,-0.00000148,
 0.00002568,-0.00001123,0.00006350,-0.00025417,0.00008381,-0.00005536,0
 .00016176,0.00018818,-0.00010235,0.00009401,-0.00147601,0.00046638,-0.
 00252957,0.00156852,-0.00157712,0.01919106,-0.01128421,0.00412411,0.00
 883968,-0.00230543,-0.00846624,0.00121962,-0.00068122,-0.00388557,-0.0
 0493452,0.00289734,0.00717663,-0.00200807,-0.04370483,-0.01684120,-0.0
 3089306,-0.04475277,0.04664344,0.00318190,0.00544632,0.00341813,0.0032
 2063,-0.00306908,-0.00276361,-0.00023867,0.00009438,0.00027213,0.00007
 445,0.00005810,0.00008454,-0.00004048,0.00000454,-0.00006064,0.0000435
 0,0.00004541,-0.00000051,-0.00001546,-0.00012698,-0.00002779,0.0000482
 9,0.00017738,-0.00003967,-0.00004053,-0.00005096,0.00005356,0.00001559
 ,-0.00000919,-0.00000913,0.00000901,-0.00000044,-0.00000373,0.00000916
 ,0.00000001,-0.00001469,0.00013259,-0.00000001,0.00010137,-0.00121752,
 0.00244409,0.00261748,0.00230063,-0.00240126,-0.00253487,-0.00270884,-
 0.00004591,0.00027235,-0.00018803,0.00066376,0.00112289,-0.00063838,0.
 00022574,-0.00017330,-0.00091433,-0.00300377,-0.00235478,0.00158972,-0
 .00074981,0.00167023,-0.00012185,0.00047585,0.00003922,0.00016485,0.00
 008866,-0.00043478,0.00036764,0.00050541,-0.00014404,0.00023030,-0.000
 72284,0.00072637,-0.00072432,0.00025284,-0.00078102,-0.00013151,-0.000
 19671,-0.00005769,0.00000620,-0.00000370,-0.00000398,-0.00001202,0.000
 00519,0.00001090,0.00000098,-0.00000123,-0.00000829,0.00000737,-0.0000
 1578,-0.00000861,0.00000309,0.00001862,-0.00002555,-0.00001656,0.00000
 391,0.00001904,-0.00001547,0.00000221,0.00001708,0.00000608,-0.0000010
 9,-0.00000833,0.00000281,0.00001658,-0.00002209,-0.00001746,-0.0000021
 5,-0.00001525,-0.00003766,-0.00003574,-0.00002063,0.00002909,0.0000573
 0,0.00000546,0.00010773,0.00002959,0.00027985,-0.00032155,-0.00015410,
 -0.00018478,-0.00006236,0.00003910,-0.00003209,0.00002521,-0.00000112,
 0.00000546,0.00000447,0.00001390,0.00000907,-0.00000091,0.00000514,-0.
 00000722,-0.00000928,0.00000797,0.00000813,0.00000179,-0.00000468,-0.0
 0000077,-0.00000074,0.00000579,-0.00000363,-0.00000281,-0.00000113,-0.
 00000081,0.00000291,0.00000129,0.00000582,-0.00000882,0.00000608,0.000
 00943,0.00000039,-0.00000120,0.00000625,0.00000189,0.00000539,-0.00000
 803,-0.00000170,0.00002409,-0.00001147,0.00002591,0.00003806,-0.000078
 11,-0.00004034,0.00007229,-0.00004683,0.00005825,0.00003489,0.00003127
 ,0.00003125,0.00009083,-0.00021608,-0.00005582,0.00019867,0.00013423,-
 0.00001095,0.00003722,-0.00003839,-0.00003480,0.00006697,0.00002663,-0
 .00004841,0.00001449,0.00002594,0.00004055,-0.00000291,-0.00001320,0.0
 0708287,0.09886053,0.00000005,-0.00000244,-0.00000696,-0.00001595,0.00
 000989,0.00005590,0.00000253,-0.00000879,-0.00001220,0.00000348,-0.000
 00051,-0.00000756,0.00004016,-0.00003579,-0.00004884,-0.00002711,0.000
 02396,0.00002875,-0.00001132,-0.00001284,-0.00000989,0.00002325,-0.000
 02237,-0.00001444,-0.00012573,0.00008195,-0.00001945,0.00001467,0.0001
 3849,-0.00008771,-0.00021683,-0.00068324,0.00019551,-0.00271703,0.0012
 9485,-0.00188593,0.00400904,-0.00576339,0.00616504,0.04348197,-0.00788
 936,-0.02964685,-0.00180839,0.00276929,-0.00130559,0.00077720,-0.00312
 392,-0.00121558,-0.00171318,0.00549567,0.00600539,0.02187491,0.0379433
 1,-0.02798923,-0.00078385,-0.00269363,-0.00186905,-0.00057893,0.000210
 89,0.00015511,0.00010376,-0.00007647,-0.00008500,-0.00001868,-0.000142
 63,-0.00002145,-0.00000245,0.00003227,-0.00001561,-0.00001513,0.000002
 27,-0.00000958,-0.00000096,-0.00004394,0.00002756,0.00000182,0.0000636
 3,-0.00004976,-0.00000456,-0.00002307,0.00005891,-0.00000459,0.0000079
 3,-0.00001256,-0.00000157,0.00000194,-0.00000716,0.00000231,0.00000329
 ,-0.00000832,-0.00004481,0.00002100,-0.00002009,-0.00005326,-0.0003603
 7,-0.00038303,-0.00003554,0.00021116,0.00014848,0.00006271,-0.00013523
 ,-0.00016639,0.00008630,0.00009475,-0.00000687,0.00010169,-0.00023521,
 -0.00033611,0.00065609,0.00058927,0.00050323,0.00096130,0.00005082,0.0
 0056308,-0.00011127,0.00026045,-0.00032368,0.00012390,0.00001470,-0.00
 003545,-0.00002370,0.00018548,-0.00016829,0.00014657,-0.00024279,0.000
 19750,-0.00034210,0.00025938,-0.00043134,-0.00001785,-0.00005185,-0.00
 002420,0.00000036,0.00000149,0.00000258,0.00000376,-0.00000064,-0.0000
 0157,-0.00000513,-0.00000045,-0.00000236,-0.00000051,0.00000020,0.0000
 0174,-0.00000212,0.00000441,0.00000943,0.00000586,-0.00000237,-0.00000
 347,0.00000597,-0.00000029,-0.00000249,-0.00000596,-0.00000073,-0.0000
 0368,-0.00000105,0.00000213,0.00000748,0.00000375,-0.00000343,0.000002
 68,-0.00001782,-0.00001280,0.00000277,-0.00000217,-0.00001966,0.000024
 04,0.00020324,0.00003663,0.00019304,0.00015684,0.00011836,0.00018693,-
 0.00001809,0.00001146,0.00002414,-0.00002002,-0.00000496,0.00000340,0.
 00000023,0.00000542,0.00000327,0.00000213,0.00000641,-0.00000375,0.000
 00158,-0.00000449,0.00000981,0.,-0.00000094,0.00000183,0.00000203,0.00
 000360,-0.00000174,0.00000133,-0.00000095,0.00000258,-0.00000370,-0.00
 000348,-0.00000217,0.00000062,-0.00000220,0.00000794,-0.00000457,-0.00
 000399,-0.00000348,0.00000385,0.00000507,-0.00000282,0.00000055,0.0000
 1391,-0.00000071,-0.00001214,-0.00001556,0.00000214,0.00000929,-0.0000
 1874,0.00001263,0.00001552,-0.00004071,0.00000389,0.00004995,-0.000048
 99,0.00001611,-0.00000599,0.00007317,0.00002433,-0.00002157,0.00003868
 ,0.00000407,-0.00000878,0.00002145,0.00001462,-0.00002120,0.00000133,0
 .00000427,0.00001122,-0.00000854,-0.00000113,-0.06412614,-0.02836864,0
 .05158334\\0.00000196,-0.00000065,-0.00000148,-0.00001059,-0.00000050,
 0.00002493,-0.00000714,0.00000194,-0.00000116,-0.00000106,0.00000757,-
 0.00000264,0.00001054,-0.00000585,-0.00002240,0.00000373,0.00000106,-0
 .00000396,0.00000059,0.00000033,-0.00000104,-0.00000416,-0.00000430,-0
 .00000199,0.00000969,0.00000174,-0.00000206,-0.00000798,-0.00000035,0.
 00000249,0.00000466,-0.00000223,-0.00000180,-0.00001279,0.00000225,0.0
 0000041,0.00002446,-0.00000609,0.00001213,-0.00003603,0.00000380,0.000
 01206,-0.00000524,0.00001143,-0.00001923,-0.00001399,0.00001558,0.0000
 2262,-0.00000348,-0.00002886,-0.00001338,0.00002095,0.00003396,-0.0000
 1253,0.00000757,0.00001011,0.00000450,0.00000543,-0.00000479,-0.000001
 78,0.00000328,0.00000441,0.00000145,-0.00000601,-0.00000620,-0.0000004
 9,0.00000580,0.00000068,0.00000201,0.00000059,-0.00000080,-0.00000109,
 -0.00000160,0.00000039,0.00000684,-0.00000688,-0.00001399,0.00001124,0
 .00001013,0.00001252,-0.00002382,0.00000186,0.00000111,0.00000917,-0.0
 0000109,0.00000163,0.00000149,-0.00000476,0.00000251,0.00000475,0.0000
 0030,0.00000441,-0.00000629,-0.00002032,0.00000345,0.00000644,0.000011
 39,-0.00000549,-0.00000531,-0.00000870,0.00000082,0.00000150,0.0000017
 3,0.00000343,0.00000101,-0.00001217,-0.00000144,-0.00000132,0.00002623
 ,-0.00000787,-0.00000628,-0.00001206,-0.00002353,0.00000609,0.00000876
 ,0.00000720,0.00000111,-0.00000190,0.00000010,-0.00000172,0.00000345,0
 .00000424,-0.00000248,-0.00000391,-0.00001372,0.00000912,0.00001155,0.
 00001168,-0.00000683,0.00000509,0.00000319,-0.00000086,0.00000088,-0.0
 0000042,0.,-0.00000079,-0.00000017,0.00000161,0.00000045,-0.00000139,-
 0.00000016,0.00000038,0.00000022,-0.00000085,-0.00000331,-0.00000114,0
 .00000138,0.00000122,0.00000141,0.00000308,-0.00000149,-0.00000184,0.0
 0000124,0.00000031,-0.00000053,-0.00000074,0.00000095,0.00000098,0.000
 00157,0.00000067,0.00000100,0.00000072,0.00000060,0.00000133,0.0000020
 4,-0.00000194,0.00000051,0.00000173,0.00000288,0.00000024,0.00000311,-
 0.00000228,-0.00000182,-0.00000239,0.00000058,0.00000263,-0.00000038,-
 0.00000187,0.00000161,-0.00000038,-0.00000142,-0.00000060,0.00000002,-
 0.00000024,-0.00000096,-0.00000230,0.00000025,-0.00000308,0.00000059,0
 .,-0.00000008,-0.00000018,0.00000077,0.00000026,-0.00000229,-0.0000001
 7,-0.00000039,-0.00000116,0.00000034,-0.00000062,-0.00000092,-0.000000
 64,-0.00000190,-0.00000069,-0.00000045,0.00000050,-0.00000024,0.000001
 95,-0.00000112,-0.00000186,0.00000350,-0.00000045,-0.00000325,-0.00000
 656,-0.00000111,0.00000264,-0.00000221,0.00000020,-0.00000251,0.000002
 64,0.00000094,0.00000111,0.00000146,0.00000158,0.00000106,-0.00000203,
 0.,-0.00000124,-0.00000184,-0.00000210,-0.00000158,0.00000164,-0.00000
 001,0.00000176,-0.00000067,0.00000046,-0.00000015,0.00000201,-0.000001
 40,-0.00000281,0.00000651,-0.00001757,0.00000299\\\@
 The archive entry for this job was punched.


 REVOLUTIONS HAVE NEVER LIGHTENED THE BURDEN OF TYRANNY:
 THEY HAVE MERELY SHIFTED IT TO OTHER SHOULDERS.
                                   -- G. B. SHAW (1903)
 Job cpu time:       1 days  4 hours 53 minutes 25.1 seconds.
 Elapsed time:       0 days  0 hours 54 minutes 32.3 seconds.
 File lengths (MBytes):  RWF=   9021 Int=      0 D2E=      0 Chk=     61 Scr=      1
 Normal termination of Gaussian 16 at Thu Mar 27 01:16:51 2025.
