 Entering Gaussian System, Link 0=g16
 Initial command:
 /public/software/apps/Gaussian/g16/l1.exe "/tmp/Gau-43736.inp" -scrdir="/tmp/"
 Entering Link 1 = /public/software/apps/Gaussian/g16/l1.exe PID=     43744.
  
 Copyright (c) 1988-2019, Gaussian, Inc.  All Rights Reserved.
  
 This is part of the Gaussian(R) 16 program.  It is based on
 the Gaussian(R) 09 system (copyright 2009, Gaussian, Inc.),
 the Gaussian(R) 03 system (copyright 2003, Gaussian, Inc.),
 the Gaussian(R) 98 system (copyright 1998, Gaussian, Inc.),
 the Gaussian(R) 94 system (copyright 1995, Gaussian, Inc.),
 the Gaussian 92(TM) system (copyright 1992, Gaussian, Inc.),
 the Gaussian 90(TM) system (copyright 1990, Gaussian, Inc.),
 the Gaussian 88(TM) system (copyright 1988, Gaussian, Inc.),
 the Gaussian 86(TM) system (copyright 1986, Carnegie Mellon
 University), and the Gaussian 82(TM) system (copyright 1983,
 Carnegie Mellon University). Gaussian is a federally registered
 trademark of Gaussian, Inc.
  
 This software contains proprietary and confidential information,
 including trade secrets, belonging to Gaussian, Inc.
  
 This software is provided under written license and may be
 used, copied, transmitted, or stored only in accord with that
 written license.
  
 The following legend is applicable only to US Government
 contracts under FAR:
  
                    RESTRICTED RIGHTS LEGEND
  
 Use, reproduction and disclosure by the US Government is
 subject to restrictions as set forth in subparagraphs (a)
 and (c) of the Commercial Computer Software - Restricted
 Rights clause in FAR 52.227-19.
  
 Gaussian, Inc.
 340 Quinnipiac St., Bldg. 40, Wallingford CT 06492
  
  
 ---------------------------------------------------------------
 Warning -- This program may not be used in any manner that
 competes with the business of Gaussian, Inc. or will provide
 assistance to any competitor of Gaussian, Inc.  The licensee
 of this program is prohibited from giving any competitor of
 Gaussian, Inc. access to this program.  By using this program,
 the user acknowledges that Gaussian, Inc. is engaged in the
 business of creating and licensing software in the field of
 computational chemistry and represents and warrants to the
 licensee that it is not a competitor of Gaussian, Inc. and that
 it will not use this program in any manner prohibited above.
 ---------------------------------------------------------------
  

 Cite this work as:
 Gaussian 16, Revision C.01,
 M. J. Frisch, G. W. Trucks, H. B. Schlegel, G. E. Scuseria, 
 M. A. Robb, J. R. Cheeseman, G. Scalmani, V. Barone, 
 G. A. Petersson, H. Nakatsuji, X. Li, M. Caricato, A. V. Marenich, 
 J. Bloino, B. G. Janesko, R. Gomperts, B. Mennucci, H. P. Hratchian, 
 J. V. Ortiz, A. F. Izmaylov, J. L. Sonnenberg, D. Williams-Young, 
 F. Ding, F. Lipparini, F. Egidi, J. Goings, B. Peng, A. Petrone, 
 T. Henderson, D. Ranasinghe, V. G. Zakrzewski, J. Gao, N. Rega, 
 G. Zheng, W. Liang, M. Hada, M. Ehara, K. Toyota, R. Fukuda, 
 J. Hasegawa, M. Ishida, T. Nakajima, Y. Honda, O. Kitao, H. Nakai, 
 T. Vreven, K. Throssell, J. A. Montgomery, Jr., J. E. Peralta, 
 F. Ogliaro, M. J. Bearpark, J. J. Heyd, E. N. Brothers, K. N. Kudin, 
 V. N. Staroverov, T. A. Keith, R. Kobayashi, J. Normand, 
 K. Raghavachari, A. P. Rendell, J. C. Burant, S. S. Iyengar, 
 J. Tomasi, M. Cossi, J. M. Millam, M. Klene, C. Adamo, R. Cammi, 
 J. W. Ochterski, R. L. Martin, K. Morokuma, O. Farkas, 
 J. B. Foresman, and D. J. Fox, Gaussian, Inc., Wallingford CT, 2019.
 
 ******************************************
 Gaussian 16:  ES64L-G16RevC.01  3-Jul-2019
                27-Mar-2025 
 ******************************************
 %nprocshared=32
 Will use up to   32 processors via shared memory.
 %mem=100GB
 ------------------------------------------
 #p opt freq b3lyp/def2svpp em=gd3bj nosymm
 ------------------------------------------
 1/18=20,19=15,26=3,38=1/1,3;
 2/9=110,12=2,15=1,17=6,18=5,40=1/2;
 3/5=43,7=202,11=2,25=1,30=1,71=1,74=-5,124=41/1,2,3;
 4//1;
 5/5=2,38=5/2;
 6/7=2,8=2,9=2,10=2,28=1/1;
 7/30=1/1,2,3,16;
 1/18=20,19=15,26=3/3(2);
 2/9=110,15=1/2;
 99//99;
 2/9=110,15=1/2;
 3/5=43,7=202,11=2,25=1,30=1,71=1,74=-5,124=41/1,2,3;
 4/5=5,16=3,69=1/1;
 5/5=2,38=5/2;
 7/30=1/1,2,3,16;
 1/18=20,19=15,26=3/3(-5);
 2/9=110,15=1/2;
 6/7=2,8=2,9=2,10=2,19=2,28=1/1;
 99/9=1/99;
 Leave Link    1 at Thu Mar 27 11:51:11 2025, MaxMem= 13421772800 cpu:               0.9 elap:               0.0
 (Enter /public/software/apps/Gaussian/g16/l101.exe)
 ------------------
 $$$$Title####0????
 ------------------
 Symbolic Z-matrix:
 Charge =  0 Multiplicity = 2
 C                     5.06396   5.74474  -1.90287 
 C                     6.29359   4.9824   -1.41829 
 C                     5.98239   4.18062  -0.14814 
 C                     7.21894   3.43333   0.36678 
 O                     7.70392   2.49963  -0.60004 
 C                     7.09366   1.28101  -0.93992 
 C                     7.62095   0.56001  -2.01635 
 C                     7.05405  -0.65586  -2.40142 
 C                     5.95289  -1.16639  -1.71205 
 C                     5.407    -0.4638   -0.62377 
 C                     4.23254  -1.00378   0.10736 
 C                     3.18815  -0.15328   0.50266 
 C                     2.07797  -0.65588   1.18333 
 C                     1.97719  -2.0299    1.47979 
 C                     0.85094  -2.57267   2.15394 
 C                    -0.31674  -1.73338   2.53774 
 C                    -0.5514   -1.48611   3.9031 
 O                     0.27592  -2.0469    4.87093 
 C                    -1.61699  -0.67914   4.30373 
 C                    -2.46971  -0.11513   3.3569 
 C                    -2.27722  -0.36754   1.99168 
 C                    -3.15036   0.19156   1.04554 
 C                    -2.9797   -0.06137  -0.32555 
 C                    -3.90207   0.53796  -1.323 
 C                    -3.40257   1.07444  -2.5225 
 C                    -4.27012   1.64291  -3.45688 
 C                    -5.6424    1.68496  -3.2055 
 C                    -6.16413   1.16074  -2.01815 
 O                    -7.55274   1.23245  -1.81943 
 C                    -8.24155   0.88176  -0.61765 
 C                    -8.01574   1.92628   0.4828 
 C                    -8.53046   3.30939   0.06426 
 C                    -8.32796   4.33201   1.1785 
 C                    -5.28773   0.57983  -1.07992 
 C                    -1.92658  -0.89121  -0.73976 
 C                    -1.05314  -1.45413   0.19223 
 C                    -1.20234  -1.19092   1.5687 
 C                     0.83574  -3.94107   2.4824 
 O                    -0.23599  -4.48314   3.18475 
 C                     1.89494  -4.77012   2.11144 
 C                     2.98642  -4.25218   1.41716 
 C                     3.0411   -2.88799   1.10035 
 C                     4.15201  -2.37164   0.4155 
 C                     5.98708   0.75983  -0.23989 
 H                     4.72201   6.46038  -1.12506 
 H                     4.2402    5.03779  -2.13906 
 H                     5.31777   6.31392  -2.8219 
 H                     6.62839   4.29557  -2.22575 
 H                     7.10938   5.7092   -1.21294 
 H                     5.16297   3.46001  -0.35462 
 H                     5.63399   4.87366   0.64841 
 H                     8.02343   4.16983   0.57692 
 H                     6.9955    2.92087   1.32622 
 H                     8.47276   0.94788  -2.56062 
 H                     7.46595  -1.20157  -3.24038 
 H                     5.51759  -2.10203  -2.04006 
 H                     3.22141   0.90383   0.26954 
 H                     1.3027    0.04076   1.47325 
 H                    -1.78474  -0.48855   5.35625 
 H                    -3.28809   0.51057   3.69348 
 H                    -3.95514   0.83864   1.37628 
 H                    -2.33976   1.06924  -2.72975 
 H                    -3.87715   2.05706  -4.37652 
 H                    -6.30541   2.1311   -3.93594 
 H                    -9.32812   0.82326  -0.841 
 H                    -7.93087  -0.12619  -0.2702 
 H                    -8.55366   1.5945    1.39766 
 H                    -6.93453   1.99051   0.72839 
 H                    -7.98651   3.65645  -0.84124 
 H                    -9.61434   3.24983  -0.17684 
 H                    -8.70743   5.32191   0.84804 
 H                    -7.24809   4.42871   1.42176 
 H                    -8.8837    4.02493   2.09024 
 H                    -5.67416   0.14147  -0.17107 
 H                    -1.78826  -1.12098  -1.78901 
 H                    -0.26674  -2.09962  -0.17552 
 H                     1.87114  -5.82292   2.36275 
 H                     3.79446  -4.91768   1.13667 
 H                     4.96522  -3.03312   0.13847 
 H                     5.58405   1.28631   0.61317 
 Cu                   -0.14583  -3.95302   5.0721 
 
 ITRead=  0  0  0  0  0  0  0  0  0  0  0  0  0  0  0  0  0  0  0  0
 ITRead=  0  0  0  0  0  0  0  0  0  0  0  0  0  0  0  0  0  0  0  0
 ITRead=  0  0  0  0  0  0  0  0  0  0  0  0  0  0  0  0  0  0  0  0
 ITRead=  0  0  0  0  0  0  0  0  0  0  0  0  0  0  0  0  0  0  0  0
 ITRead=  0
 MicOpt= -1 -1 -1 -1 -1 -1 -1 -1 -1 -1 -1 -1 -1 -1 -1 -1 -1 -1 -1 -1
 MicOpt= -1 -1 -1 -1 -1 -1 -1 -1 -1 -1 -1 -1 -1 -1 -1 -1 -1 -1 -1 -1
 MicOpt= -1 -1 -1 -1 -1 -1 -1 -1 -1 -1 -1 -1 -1 -1 -1 -1 -1 -1 -1 -1
 MicOpt= -1 -1 -1 -1 -1 -1 -1 -1 -1 -1 -1 -1 -1 -1 -1 -1 -1 -1 -1 -1
 MicOpt= -1
 NAtoms=     81 NQM=       81 NQMF=       0 NMMI=      0 NMMIF=      0
                NMic=       0 NMicF=      0.
                    Isotopes and Nuclear Properties:
 (Nuclear quadrupole moments (NQMom) in fm**2, nuclear magnetic moments (NMagM)
  in nuclear magnetons)

  Atom         1           2           3           4           5           6           7           8           9          10
 IAtWgt=          12          12          12          12          16          12          12          12          12          12
 AtmWgt=  12.0000000  12.0000000  12.0000000  12.0000000  15.9949146  12.0000000  12.0000000  12.0000000  12.0000000  12.0000000
 NucSpn=           0           0           0           0           0           0           0           0           0           0
 AtZEff=  -0.0000000  -0.0000000  -0.0000000  -0.0000000  -0.0000000  -0.0000000  -0.0000000  -0.0000000  -0.0000000  -0.0000000
 NQMom=    0.0000000   0.0000000   0.0000000   0.0000000   0.0000000   0.0000000   0.0000000   0.0000000   0.0000000   0.0000000
 NMagM=    0.0000000   0.0000000   0.0000000   0.0000000   0.0000000   0.0000000   0.0000000   0.0000000   0.0000000   0.0000000
 AtZNuc=   6.0000000   6.0000000   6.0000000   6.0000000   8.0000000   6.0000000   6.0000000   6.0000000   6.0000000   6.0000000

  Atom        11          12          13          14          15          16          17          18          19          20
 IAtWgt=          12          12          12          12          12          12          12          16          12          12
 AtmWgt=  12.0000000  12.0000000  12.0000000  12.0000000  12.0000000  12.0000000  12.0000000  15.9949146  12.0000000  12.0000000
 NucSpn=           0           0           0           0           0           0           0           0           0           0
 AtZEff=  -0.0000000  -0.0000000  -0.0000000  -0.0000000  -0.0000000  -0.0000000  -0.0000000  -0.0000000  -0.0000000  -0.0000000
 NQMom=    0.0000000   0.0000000   0.0000000   0.0000000   0.0000000   0.0000000   0.0000000   0.0000000   0.0000000   0.0000000
 NMagM=    0.0000000   0.0000000   0.0000000   0.0000000   0.0000000   0.0000000   0.0000000   0.0000000   0.0000000   0.0000000
 AtZNuc=   6.0000000   6.0000000   6.0000000   6.0000000   6.0000000   6.0000000   6.0000000   8.0000000   6.0000000   6.0000000

  Atom        21          22          23          24          25          26          27          28          29          30
 IAtWgt=          12          12          12          12          12          12          12          12          16          12
 AtmWgt=  12.0000000  12.0000000  12.0000000  12.0000000  12.0000000  12.0000000  12.0000000  12.0000000  15.9949146  12.0000000
 NucSpn=           0           0           0           0           0           0           0           0           0           0
 AtZEff=  -0.0000000  -0.0000000  -0.0000000  -0.0000000  -0.0000000  -0.0000000  -0.0000000  -0.0000000  -0.0000000  -0.0000000
 NQMom=    0.0000000   0.0000000   0.0000000   0.0000000   0.0000000   0.0000000   0.0000000   0.0000000   0.0000000   0.0000000
 NMagM=    0.0000000   0.0000000   0.0000000   0.0000000   0.0000000   0.0000000   0.0000000   0.0000000   0.0000000   0.0000000
 AtZNuc=   6.0000000   6.0000000   6.0000000   6.0000000   6.0000000   6.0000000   6.0000000   6.0000000   8.0000000   6.0000000

  Atom        31          32          33          34          35          36          37          38          39          40
 IAtWgt=          12          12          12          12          12          12          12          12          16          12
 AtmWgt=  12.0000000  12.0000000  12.0000000  12.0000000  12.0000000  12.0000000  12.0000000  12.0000000  15.9949146  12.0000000
 NucSpn=           0           0           0           0           0           0           0           0           0           0
 AtZEff=  -0.0000000  -0.0000000  -0.0000000  -0.0000000  -0.0000000  -0.0000000  -0.0000000  -0.0000000  -0.0000000  -0.0000000
 NQMom=    0.0000000   0.0000000   0.0000000   0.0000000   0.0000000   0.0000000   0.0000000   0.0000000   0.0000000   0.0000000
 NMagM=    0.0000000   0.0000000   0.0000000   0.0000000   0.0000000   0.0000000   0.0000000   0.0000000   0.0000000   0.0000000
 AtZNuc=   6.0000000   6.0000000   6.0000000   6.0000000   6.0000000   6.0000000   6.0000000   6.0000000   8.0000000   6.0000000

  Atom        41          42          43          44          45          46          47          48          49          50
 IAtWgt=          12          12          12          12           1           1           1           1           1           1
 AtmWgt=  12.0000000  12.0000000  12.0000000  12.0000000   1.0078250   1.0078250   1.0078250   1.0078250   1.0078250   1.0078250
 NucSpn=           0           0           0           0           1           1           1           1           1           1
 AtZEff=  -0.0000000  -0.0000000  -0.0000000  -0.0000000  -0.0000000  -0.0000000  -0.0000000  -0.0000000  -0.0000000  -0.0000000
 NQMom=    0.0000000   0.0000000   0.0000000   0.0000000   0.0000000   0.0000000   0.0000000   0.0000000   0.0000000   0.0000000
 NMagM=    0.0000000   0.0000000   0.0000000   0.0000000   2.7928460   2.7928460   2.7928460   2.7928460   2.7928460   2.7928460
 AtZNuc=   6.0000000   6.0000000   6.0000000   6.0000000   1.0000000   1.0000000   1.0000000   1.0000000   1.0000000   1.0000000

  Atom        51          52          53          54          55          56          57          58          59          60
 IAtWgt=           1           1           1           1           1           1           1           1           1           1
 AtmWgt=   1.0078250   1.0078250   1.0078250   1.0078250   1.0078250   1.0078250   1.0078250   1.0078250   1.0078250   1.0078250
 NucSpn=           1           1           1           1           1           1           1           1           1           1
 AtZEff=  -0.0000000  -0.0000000  -0.0000000  -0.0000000  -0.0000000  -0.0000000  -0.0000000  -0.0000000  -0.0000000  -0.0000000
 NQMom=    0.0000000   0.0000000   0.0000000   0.0000000   0.0000000   0.0000000   0.0000000   0.0000000   0.0000000   0.0000000
 NMagM=    2.7928460   2.7928460   2.7928460   2.7928460   2.7928460   2.7928460   2.7928460   2.7928460   2.7928460   2.7928460
 AtZNuc=   1.0000000   1.0000000   1.0000000   1.0000000   1.0000000   1.0000000   1.0000000   1.0000000   1.0000000   1.0000000

  Atom        61          62          63          64          65          66          67          68          69          70
 IAtWgt=           1           1           1           1           1           1           1           1           1           1
 AtmWgt=   1.0078250   1.0078250   1.0078250   1.0078250   1.0078250   1.0078250   1.0078250   1.0078250   1.0078250   1.0078250
 NucSpn=           1           1           1           1           1           1           1           1           1           1
 AtZEff=  -0.0000000  -0.0000000  -0.0000000  -0.0000000  -0.0000000  -0.0000000  -0.0000000  -0.0000000  -0.0000000  -0.0000000
 NQMom=    0.0000000   0.0000000   0.0000000   0.0000000   0.0000000   0.0000000   0.0000000   0.0000000   0.0000000   0.0000000
 NMagM=    2.7928460   2.7928460   2.7928460   2.7928460   2.7928460   2.7928460   2.7928460   2.7928460   2.7928460   2.7928460
 AtZNuc=   1.0000000   1.0000000   1.0000000   1.0000000   1.0000000   1.0000000   1.0000000   1.0000000   1.0000000   1.0000000

  Atom        71          72          73          74          75          76          77          78          79          80
 IAtWgt=           1           1           1           1           1           1           1           1           1           1
 AtmWgt=   1.0078250   1.0078250   1.0078250   1.0078250   1.0078250   1.0078250   1.0078250   1.0078250   1.0078250   1.0078250
 NucSpn=           1           1           1           1           1           1           1           1           1           1
 AtZEff=  -0.0000000  -0.0000000  -0.0000000  -0.0000000  -0.0000000  -0.0000000  -0.0000000  -0.0000000  -0.0000000  -0.0000000
 NQMom=    0.0000000   0.0000000   0.0000000   0.0000000   0.0000000   0.0000000   0.0000000   0.0000000   0.0000000   0.0000000
 NMagM=    2.7928460   2.7928460   2.7928460   2.7928460   2.7928460   2.7928460   2.7928460   2.7928460   2.7928460   2.7928460
 AtZNuc=   1.0000000   1.0000000   1.0000000   1.0000000   1.0000000   1.0000000   1.0000000   1.0000000   1.0000000   1.0000000

  Atom        81
 IAtWgt=          63
 AtmWgt=  62.9295992
 NucSpn=           3
 AtZEff=  -0.0000000
 NQMom=  -22.0000000
 NMagM=    2.2233000
 AtZNuc=  29.0000000
 Leave Link  101 at Thu Mar 27 11:51:12 2025, MaxMem= 13421772800 cpu:               4.4 elap:               0.1
 (Enter /public/software/apps/Gaussian/g16/l103.exe)

 GradGradGradGradGradGradGradGradGradGradGradGradGradGradGradGradGradGrad
 Berny optimization.
 Initialization pass.
                           ----------------------------
                           !    Initial Parameters    !
                           ! (Angstroms and Degrees)  !
 --------------------------                            --------------------------
 ! Name  Definition              Value          Derivative Info.                !
 --------------------------------------------------------------------------------
 ! R1    R(1,2)                  1.5258         estimate D2E/DX2                !
 ! R2    R(1,45)                 1.1109         estimate D2E/DX2                !
 ! R3    R(1,46)                 1.1109         estimate D2E/DX2                !
 ! R4    R(1,47)                 1.1104         estimate D2E/DX2                !
 ! R5    R(2,3)                  1.5339         estimate D2E/DX2                !
 ! R6    R(2,48)                 1.1117         estimate D2E/DX2                !
 ! R7    R(2,49)                 1.1117         estimate D2E/DX2                !
 ! R8    R(3,4)                  1.5338         estimate D2E/DX2                !
 ! R9    R(3,50)                 1.1106         estimate D2E/DX2                !
 ! R10   R(3,51)                 1.1118         estimate D2E/DX2                !
 ! R11   R(4,5)                  1.4289         estimate D2E/DX2                !
 ! R12   R(4,52)                 1.1108         estimate D2E/DX2                !
 ! R13   R(4,53)                 1.1104         estimate D2E/DX2                !
 ! R14   R(5,6)                  1.4046         estimate D2E/DX2                !
 ! R15   R(6,7)                  1.3988         estimate D2E/DX2                !
 ! R16   R(6,44)                 1.4093         estimate D2E/DX2                !
 ! R17   R(7,8)                  1.3957         estimate D2E/DX2                !
 ! R18   R(7,54)                 1.0827         estimate D2E/DX2                !
 ! R19   R(8,9)                  1.3959         estimate D2E/DX2                !
 ! R20   R(8,55)                 1.0823         estimate D2E/DX2                !
 ! R21   R(9,10)                 1.4057         estimate D2E/DX2                !
 ! R22   R(9,56)                 1.0828         estimate D2E/DX2                !
 ! R23   R(10,11)                1.4851         estimate D2E/DX2                !
 ! R24   R(10,44)                1.4075         estimate D2E/DX2                !
 ! R25   R(11,12)                1.4037         estimate D2E/DX2                !
 ! R26   R(11,43)                1.4045         estimate D2E/DX2                !
 ! R27   R(12,13)                1.3959         estimate D2E/DX2                !
 ! R28   R(12,57)                1.083          estimate D2E/DX2                !
 ! R29   R(13,14)                1.4092         estimate D2E/DX2                !
 ! R30   R(13,58)                1.0819         estimate D2E/DX2                !
 ! R31   R(14,15)                1.4204         estimate D2E/DX2                !
 ! R32   R(14,42)                1.4185         estimate D2E/DX2                !
 ! R33   R(15,16)                1.4884         estimate D2E/DX2                !
 ! R34   R(15,38)                1.4073         estimate D2E/DX2                !
 ! R35   R(16,17)                1.4073         estimate D2E/DX2                !
 ! R36   R(16,37)                1.4204         estimate D2E/DX2                !
 ! R37   R(17,18)                1.3913         estimate D2E/DX2                !
 ! R38   R(17,19)                1.3954         estimate D2E/DX2                !
 ! R39   R(18,81)                1.9626         estimate D2E/DX2                !
 ! R40   R(19,20)                1.3935         estimate D2E/DX2                !
 ! R41   R(19,59)                1.0827         estimate D2E/DX2                !
 ! R42   R(20,21)                1.4016         estimate D2E/DX2                !
 ! R43   R(20,60)                1.0838         estimate D2E/DX2                !
 ! R44   R(21,22)                1.4036         estimate D2E/DX2                !
 ! R45   R(21,37)                1.4185         estimate D2E/DX2                !
 ! R46   R(22,23)                1.4046         estimate D2E/DX2                !
 ! R47   R(22,61)                1.0843         estimate D2E/DX2                !
 ! R48   R(23,24)                1.4849         estimate D2E/DX2                !
 ! R49   R(23,35)                1.4033         estimate D2E/DX2                !
 ! R50   R(24,25)                1.4057         estimate D2E/DX2                !
 ! R51   R(24,34)                1.4074         estimate D2E/DX2                !
 ! R52   R(25,26)                1.396          estimate D2E/DX2                !
 ! R53   R(25,62)                1.0828         estimate D2E/DX2                !
 ! R54   R(26,27)                1.3957         estimate D2E/DX2                !
 ! R55   R(26,63)                1.0824         estimate D2E/DX2                !
 ! R56   R(27,28)                1.3989         estimate D2E/DX2                !
 ! R57   R(27,64)                1.0827         estimate D2E/DX2                !
 ! R58   R(28,29)                1.4046         estimate D2E/DX2                !
 ! R59   R(28,34)                1.4092         estimate D2E/DX2                !
 ! R60   R(29,30)                1.4289         estimate D2E/DX2                !
 ! R61   R(30,31)                1.5339         estimate D2E/DX2                !
 ! R62   R(30,65)                1.1108         estimate D2E/DX2                !
 ! R63   R(30,66)                1.1105         estimate D2E/DX2                !
 ! R64   R(31,32)                1.534          estimate D2E/DX2                !
 ! R65   R(31,67)                1.1119         estimate D2E/DX2                !
 ! R66   R(31,68)                1.1106         estimate D2E/DX2                !
 ! R67   R(32,33)                1.5259         estimate D2E/DX2                !
 ! R68   R(32,69)                1.1119         estimate D2E/DX2                !
 ! R69   R(32,70)                1.112          estimate D2E/DX2                !
 ! R70   R(33,71)                1.1105         estimate D2E/DX2                !
 ! R71   R(33,72)                1.1111         estimate D2E/DX2                !
 ! R72   R(33,73)                1.111          estimate D2E/DX2                !
 ! R73   R(34,74)                1.0805         estimate D2E/DX2                !
 ! R74   R(35,36)                1.3958         estimate D2E/DX2                !
 ! R75   R(35,75)                1.083          estimate D2E/DX2                !
 ! R76   R(36,37)                1.4093         estimate D2E/DX2                !
 ! R77   R(36,76)                1.0818         estimate D2E/DX2                !
 ! R78   R(38,39)                1.3913         estimate D2E/DX2                !
 ! R79   R(38,40)                1.3953         estimate D2E/DX2                !
 ! R80   R(39,81)                1.9625         estimate D2E/DX2                !
 ! R81   R(40,41)                1.3934         estimate D2E/DX2                !
 ! R82   R(40,77)                1.0826         estimate D2E/DX2                !
 ! R83   R(41,42)                1.4016         estimate D2E/DX2                !
 ! R84   R(41,78)                1.0837         estimate D2E/DX2                !
 ! R85   R(42,43)                1.4035         estimate D2E/DX2                !
 ! R86   R(43,79)                1.0843         estimate D2E/DX2                !
 ! R87   R(44,80)                1.0804         estimate D2E/DX2                !
 ! A1    A(2,1,45)             110.3387         estimate D2E/DX2                !
 ! A2    A(2,1,46)             110.3131         estimate D2E/DX2                !
 ! A3    A(2,1,47)             109.5576         estimate D2E/DX2                !
 ! A4    A(45,1,46)            109.303          estimate D2E/DX2                !
 ! A5    A(45,1,47)            108.6423         estimate D2E/DX2                !
 ! A6    A(46,1,47)            108.6462         estimate D2E/DX2                !
 ! A7    A(1,2,3)              111.1398         estimate D2E/DX2                !
 ! A8    A(1,2,48)             108.7072         estimate D2E/DX2                !
 ! A9    A(1,2,49)             108.8685         estimate D2E/DX2                !
 ! A10   A(3,2,48)             109.8525         estimate D2E/DX2                !
 ! A11   A(3,2,49)             109.7325         estimate D2E/DX2                !
 ! A12   A(48,2,49)            108.4867         estimate D2E/DX2                !
 ! A13   A(2,3,4)              111.6591         estimate D2E/DX2                !
 ! A14   A(2,3,50)             109.566          estimate D2E/DX2                !
 ! A15   A(2,3,51)             109.3288         estimate D2E/DX2                !
 ! A16   A(4,3,50)             109.9453         estimate D2E/DX2                !
 ! A17   A(4,3,51)             108.4091         estimate D2E/DX2                !
 ! A18   A(50,3,51)            107.8451         estimate D2E/DX2                !
 ! A19   A(3,4,5)              111.3977         estimate D2E/DX2                !
 ! A20   A(3,4,52)             108.927          estimate D2E/DX2                !
 ! A21   A(3,4,53)             110.6518         estimate D2E/DX2                !
 ! A22   A(5,4,52)             108.3877         estimate D2E/DX2                !
 ! A23   A(5,4,53)             110.5696         estimate D2E/DX2                !
 ! A24   A(52,4,53)            106.7547         estimate D2E/DX2                !
 ! A25   A(4,5,6)              125.674          estimate D2E/DX2                !
 ! A26   A(5,6,7)              118.0101         estimate D2E/DX2                !
 ! A27   A(5,6,44)             122.8048         estimate D2E/DX2                !
 ! A28   A(7,6,44)             119.184          estimate D2E/DX2                !
 ! A29   A(6,7,8)              120.5466         estimate D2E/DX2                !
 ! A30   A(6,7,54)             119.9188         estimate D2E/DX2                !
 ! A31   A(8,7,54)             119.5339         estimate D2E/DX2                !
 ! A32   A(7,8,9)              120.184          estimate D2E/DX2                !
 ! A33   A(7,8,55)             119.9035         estimate D2E/DX2                !
 ! A34   A(9,8,55)             119.9116         estimate D2E/DX2                !
 ! A35   A(8,9,10)             120.3911         estimate D2E/DX2                !
 ! A36   A(8,9,56)             118.9178         estimate D2E/DX2                !
 ! A37   A(10,9,56)            120.683          estimate D2E/DX2                !
 ! A38   A(9,10,11)            120.4326         estimate D2E/DX2                !
 ! A39   A(9,10,44)            119.0533         estimate D2E/DX2                !
 ! A40   A(11,10,44)           120.5139         estimate D2E/DX2                !
 ! A41   A(10,11,12)           120.447          estimate D2E/DX2                !
 ! A42   A(10,11,43)           120.4968         estimate D2E/DX2                !
 ! A43   A(12,11,43)           119.0561         estimate D2E/DX2                !
 ! A44   A(11,12,13)           120.7248         estimate D2E/DX2                !
 ! A45   A(11,12,57)           120.5261         estimate D2E/DX2                !
 ! A46   A(13,12,57)           118.7408         estimate D2E/DX2                !
 ! A47   A(12,13,14)           120.6994         estimate D2E/DX2                !
 ! A48   A(12,13,58)           117.9546         estimate D2E/DX2                !
 ! A49   A(14,13,58)           121.346          estimate D2E/DX2                !
 ! A50   A(13,14,15)           121.9469         estimate D2E/DX2                !
 ! A51   A(13,14,42)           118.6778         estimate D2E/DX2                !
 ! A52   A(15,14,42)           119.3732         estimate D2E/DX2                !
 ! A53   A(14,15,16)           121.9363         estimate D2E/DX2                !
 ! A54   A(14,15,38)           119.3991         estimate D2E/DX2                !
 ! A55   A(16,15,38)           118.6623         estimate D2E/DX2                !
 ! A56   A(15,16,17)           118.6912         estimate D2E/DX2                !
 ! A57   A(15,16,37)           121.9097         estimate D2E/DX2                !
 ! A58   A(17,16,37)           119.3958         estimate D2E/DX2                !
 ! A59   A(16,17,18)           120.3282         estimate D2E/DX2                !
 ! A60   A(16,17,19)           120.4976         estimate D2E/DX2                !
 ! A61   A(18,17,19)           119.1741         estimate D2E/DX2                !
 ! A62   A(17,18,81)           109.5726         estimate D2E/DX2                !
 ! A63   A(17,19,20)           120.4168         estimate D2E/DX2                !
 ! A64   A(17,19,59)           119.9482         estimate D2E/DX2                !
 ! A65   A(20,19,59)           119.6351         estimate D2E/DX2                !
 ! A66   A(19,20,21)           120.3248         estimate D2E/DX2                !
 ! A67   A(19,20,60)           118.996          estimate D2E/DX2                !
 ! A68   A(21,20,60)           120.6756         estimate D2E/DX2                !
 ! A69   A(20,21,22)           119.9605         estimate D2E/DX2                !
 ! A70   A(20,21,37)           119.9354         estimate D2E/DX2                !
 ! A71   A(22,21,37)           120.1038         estimate D2E/DX2                !
 ! A72   A(21,22,23)           120.7086         estimate D2E/DX2                !
 ! A73   A(21,22,61)           119.5896         estimate D2E/DX2                !
 ! A74   A(23,22,61)           119.6941         estimate D2E/DX2                !
 ! A75   A(22,23,24)           120.5004         estimate D2E/DX2                !
 ! A76   A(22,23,35)           119.0638         estimate D2E/DX2                !
 ! A77   A(24,23,35)           120.4356         estimate D2E/DX2                !
 ! A78   A(23,24,25)           120.4306         estimate D2E/DX2                !
 ! A79   A(23,24,34)           120.5009         estimate D2E/DX2                !
 ! A80   A(25,24,34)           119.0683         estimate D2E/DX2                !
 ! A81   A(24,25,26)           120.3785         estimate D2E/DX2                !
 ! A82   A(24,25,62)           120.6796         estimate D2E/DX2                !
 ! A83   A(26,25,62)           118.9339         estimate D2E/DX2                !
 ! A84   A(25,26,27)           120.1796         estimate D2E/DX2                !
 ! A85   A(25,26,63)           119.9236         estimate D2E/DX2                !
 ! A86   A(27,26,63)           119.896          estimate D2E/DX2                !
 ! A87   A(26,27,28)           120.5497         estimate D2E/DX2                !
 ! A88   A(26,27,64)           119.5374         estimate D2E/DX2                !
 ! A89   A(28,27,64)           119.9125         estimate D2E/DX2                !
 ! A90   A(27,28,29)           118.0138         estimate D2E/DX2                !
 ! A91   A(27,28,34)           119.1862         estimate D2E/DX2                !
 ! A92   A(29,28,34)           122.7989         estimate D2E/DX2                !
 ! A93   A(28,29,30)           125.6645         estimate D2E/DX2                !
 ! A94   A(29,30,31)           111.4257         estimate D2E/DX2                !
 ! A95   A(29,30,65)           108.3818         estimate D2E/DX2                !
 ! A96   A(29,30,66)           110.5518         estimate D2E/DX2                !
 ! A97   A(31,30,65)           108.911          estimate D2E/DX2                !
 ! A98   A(31,30,66)           110.6349         estimate D2E/DX2                !
 ! A99   A(65,30,66)           106.7836         estimate D2E/DX2                !
 ! A100  A(30,31,32)           111.6432         estimate D2E/DX2                !
 ! A101  A(30,31,67)           108.4129         estimate D2E/DX2                !
 ! A102  A(30,31,68)           109.9577         estimate D2E/DX2                !
 ! A103  A(32,31,67)           109.3412         estimate D2E/DX2                !
 ! A104  A(32,31,68)           109.5636         estimate D2E/DX2                !
 ! A105  A(67,31,68)           107.8351         estimate D2E/DX2                !
 ! A106  A(31,32,33)           111.1307         estimate D2E/DX2                !
 ! A107  A(31,32,69)           109.8457         estimate D2E/DX2                !
 ! A108  A(31,32,70)           109.751          estimate D2E/DX2                !
 ! A109  A(33,32,69)           108.6975         estimate D2E/DX2                !
 ! A110  A(33,32,70)           108.8801         estimate D2E/DX2                !
 ! A111  A(69,32,70)           108.4821         estimate D2E/DX2                !
 ! A112  A(32,33,71)           109.5587         estimate D2E/DX2                !
 ! A113  A(32,33,72)           110.3148         estimate D2E/DX2                !
 ! A114  A(32,33,73)           110.3423         estimate D2E/DX2                !
 ! A115  A(71,33,72)           108.6432         estimate D2E/DX2                !
 ! A116  A(71,33,73)           108.6424         estimate D2E/DX2                !
 ! A117  A(72,33,73)           109.2996         estimate D2E/DX2                !
 ! A118  A(24,34,28)           120.6347         estimate D2E/DX2                !
 ! A119  A(24,34,74)           119.0329         estimate D2E/DX2                !
 ! A120  A(28,34,74)           120.3208         estimate D2E/DX2                !
 ! A121  A(23,35,36)           120.7295         estimate D2E/DX2                !
 ! A122  A(23,35,75)           120.4833         estimate D2E/DX2                !
 ! A123  A(36,35,75)           118.7778         estimate D2E/DX2                !
 ! A124  A(35,36,37)           120.7015         estimate D2E/DX2                !
 ! A125  A(35,36,76)           117.9382         estimate D2E/DX2                !
 ! A126  A(37,36,76)           121.3594         estimate D2E/DX2                !
 ! A127  A(16,37,21)           119.3852         estimate D2E/DX2                !
 ! A128  A(16,37,36)           121.937          estimate D2E/DX2                !
 ! A129  A(21,37,36)           118.6759         estimate D2E/DX2                !
 ! A130  A(15,38,39)           120.3291         estimate D2E/DX2                !
 ! A131  A(15,38,40)           120.4963         estimate D2E/DX2                !
 ! A132  A(39,38,40)           119.1745         estimate D2E/DX2                !
 ! A133  A(38,39,81)           110.1731         estimate D2E/DX2                !
 ! A134  A(38,40,41)           120.4139         estimate D2E/DX2                !
 ! A135  A(38,40,77)           119.9601         estimate D2E/DX2                !
 ! A136  A(41,40,77)           119.626          estimate D2E/DX2                !
 ! A137  A(40,41,42)           120.3297         estimate D2E/DX2                !
 ! A138  A(40,41,78)           118.9957         estimate D2E/DX2                !
 ! A139  A(42,41,78)           120.6714         estimate D2E/DX2                !
 ! A140  A(14,42,41)           119.9383         estimate D2E/DX2                !
 ! A141  A(14,42,43)           120.1086         estimate D2E/DX2                !
 ! A142  A(41,42,43)           119.9519         estimate D2E/DX2                !
 ! A143  A(11,43,42)           120.7149         estimate D2E/DX2                !
 ! A144  A(11,43,79)           119.6776         estimate D2E/DX2                !
 ! A145  A(42,43,79)           119.597          estimate D2E/DX2                !
 ! A146  A(6,44,10)            120.6381         estimate D2E/DX2                !
 ! A147  A(6,44,80)            120.3229         estimate D2E/DX2                !
 ! A148  A(10,44,80)           119.028          estimate D2E/DX2                !
 ! A149  A(18,81,39)           100.0001         estimate D2E/DX2                !
 ! D1    D(45,1,2,3)            60.4852         estimate D2E/DX2                !
 ! D2    D(45,1,2,48)         -178.4943         estimate D2E/DX2                !
 ! D3    D(45,1,2,49)          -60.4919         estimate D2E/DX2                !
 ! D4    D(46,1,2,3)           -60.3879         estimate D2E/DX2                !
 ! D5    D(46,1,2,48)           60.6327         estimate D2E/DX2                !
 ! D6    D(46,1,2,49)          178.6351         estimate D2E/DX2                !
 ! D7    D(47,1,2,3)          -179.9458         estimate D2E/DX2                !
 ! D8    D(47,1,2,48)          -58.9253         estimate D2E/DX2                !
 ! D9    D(47,1,2,49)           59.0771         estimate D2E/DX2                !
 ! D10   D(1,2,3,4)           -178.7679         estimate D2E/DX2                !
 ! D11   D(1,2,3,50)            59.1812         estimate D2E/DX2                !
 ! D12   D(1,2,3,51)           -58.8088         estimate D2E/DX2                !
 ! D13   D(48,2,3,4)            60.8868         estimate D2E/DX2                !
 ! D14   D(48,2,3,50)          -61.1641         estimate D2E/DX2                !
 ! D15   D(48,2,3,51)         -179.1541         estimate D2E/DX2                !
 ! D16   D(49,2,3,4)           -58.3            estimate D2E/DX2                !
 ! D17   D(49,2,3,50)          179.6491         estimate D2E/DX2                !
 ! D18   D(49,2,3,51)           61.6591         estimate D2E/DX2                !
 ! D19   D(2,3,4,5)            -60.7949         estimate D2E/DX2                !
 ! D20   D(2,3,4,52)            58.7121         estimate D2E/DX2                !
 ! D21   D(2,3,4,53)           175.7721         estimate D2E/DX2                !
 ! D22   D(50,3,4,5)            61.0375         estimate D2E/DX2                !
 ! D23   D(50,3,4,52)         -179.4555         estimate D2E/DX2                !
 ! D24   D(50,3,4,53)          -62.3955         estimate D2E/DX2                !
 ! D25   D(51,3,4,5)           178.7065         estimate D2E/DX2                !
 ! D26   D(51,3,4,52)          -61.7865         estimate D2E/DX2                !
 ! D27   D(51,3,4,53)           55.2735         estimate D2E/DX2                !
 ! D28   D(3,4,5,6)            -72.9656         estimate D2E/DX2                !
 ! D29   D(52,4,5,6)           167.2076         estimate D2E/DX2                !
 ! D30   D(53,4,5,6)            50.5141         estimate D2E/DX2                !
 ! D31   D(4,5,6,7)            172.8279         estimate D2E/DX2                !
 ! D32   D(4,5,6,44)            -7.54           estimate D2E/DX2                !
 ! D33   D(5,6,7,8)           -179.8635         estimate D2E/DX2                !
 ! D34   D(5,6,7,54)            -0.1717         estimate D2E/DX2                !
 ! D35   D(44,6,7,8)             0.4907         estimate D2E/DX2                !
 ! D36   D(44,6,7,54)         -179.8175         estimate D2E/DX2                !
 ! D37   D(5,6,44,10)          179.7093         estimate D2E/DX2                !
 ! D38   D(5,6,44,80)           -1.5105         estimate D2E/DX2                !
 ! D39   D(7,6,44,10)           -0.6627         estimate D2E/DX2                !
 ! D40   D(7,6,44,80)          178.1174         estimate D2E/DX2                !
 ! D41   D(6,7,8,9)             -0.0978         estimate D2E/DX2                !
 ! D42   D(6,7,8,55)           179.556          estimate D2E/DX2                !
 ! D43   D(54,7,8,9)          -179.7909         estimate D2E/DX2                !
 ! D44   D(54,7,8,55)           -0.1371         estimate D2E/DX2                !
 ! D45   D(7,8,9,10)            -0.1323         estimate D2E/DX2                !
 ! D46   D(7,8,9,56)           178.841          estimate D2E/DX2                !
 ! D47   D(55,8,9,10)         -179.7861         estimate D2E/DX2                !
 ! D48   D(55,8,9,56)           -0.8127         estimate D2E/DX2                !
 ! D49   D(8,9,10,11)          179.7865         estimate D2E/DX2                !
 ! D50   D(8,9,10,44)           -0.0374         estimate D2E/DX2                !
 ! D51   D(56,9,10,11)           0.8315         estimate D2E/DX2                !
 ! D52   D(56,9,10,44)        -178.9925         estimate D2E/DX2                !
 ! D53   D(9,10,11,12)        -138.0838         estimate D2E/DX2                !
 ! D54   D(9,10,11,43)          42.0446         estimate D2E/DX2                !
 ! D55   D(44,10,11,12)         41.7376         estimate D2E/DX2                !
 ! D56   D(44,10,11,43)       -138.1341         estimate D2E/DX2                !
 ! D57   D(9,10,44,6)            0.4375         estimate D2E/DX2                !
 ! D58   D(9,10,44,80)        -178.3583         estimate D2E/DX2                !
 ! D59   D(11,10,44,6)        -179.3863         estimate D2E/DX2                !
 ! D60   D(11,10,44,80)          1.818          estimate D2E/DX2                !
 ! D61   D(10,11,12,13)        179.6286         estimate D2E/DX2                !
 ! D62   D(10,11,12,57)          0.6872         estimate D2E/DX2                !
 ! D63   D(43,11,12,13)         -0.4979         estimate D2E/DX2                !
 ! D64   D(43,11,12,57)       -179.4393         estimate D2E/DX2                !
 ! D65   D(10,11,43,42)       -179.6777         estimate D2E/DX2                !
 ! D66   D(10,11,43,79)          1.5074         estimate D2E/DX2                !
 ! D67   D(12,11,43,42)          0.4488         estimate D2E/DX2                !
 ! D68   D(12,11,43,79)       -178.3661         estimate D2E/DX2                !
 ! D69   D(11,12,13,14)         -0.4662         estimate D2E/DX2                !
 ! D70   D(11,12,13,58)        179.5517         estimate D2E/DX2                !
 ! D71   D(57,12,13,14)        178.4938         estimate D2E/DX2                !
 ! D72   D(57,12,13,58)         -1.4883         estimate D2E/DX2                !
 ! D73   D(12,13,14,15)       -179.0805         estimate D2E/DX2                !
 ! D74   D(12,13,14,42)          1.4524         estimate D2E/DX2                !
 ! D75   D(58,13,14,15)          0.901          estimate D2E/DX2                !
 ! D76   D(58,13,14,42)       -178.5661         estimate D2E/DX2                !
 ! D77   D(13,14,15,16)          2.6071         estimate D2E/DX2                !
 ! D78   D(13,14,15,38)       -176.8413         estimate D2E/DX2                !
 ! D79   D(42,14,15,16)       -177.9294         estimate D2E/DX2                !
 ! D80   D(42,14,15,38)          2.6222         estimate D2E/DX2                !
 ! D81   D(13,14,42,41)        178.1169         estimate D2E/DX2                !
 ! D82   D(13,14,42,43)         -1.4921         estimate D2E/DX2                !
 ! D83   D(15,14,42,41)         -1.3643         estimate D2E/DX2                !
 ! D84   D(15,14,42,43)        179.0268         estimate D2E/DX2                !
 ! D85   D(14,15,16,17)       -111.3981         estimate D2E/DX2                !
 ! D86   D(14,15,16,37)         69.2718         estimate D2E/DX2                !
 ! D87   D(38,15,16,17)         68.0541         estimate D2E/DX2                !
 ! D88   D(38,15,16,37)       -111.2759         estimate D2E/DX2                !
 ! D89   D(14,15,38,39)        177.6966         estimate D2E/DX2                !
 ! D90   D(14,15,38,40)         -2.1501         estimate D2E/DX2                !
 ! D91   D(16,15,38,39)         -1.7698         estimate D2E/DX2                !
 ! D92   D(16,15,38,40)        178.3834         estimate D2E/DX2                !
 ! D93   D(15,16,17,18)         -1.6317         estimate D2E/DX2                !
 ! D94   D(15,16,17,19)        178.5182         estimate D2E/DX2                !
 ! D95   D(37,16,17,18)        177.7156         estimate D2E/DX2                !
 ! D96   D(37,16,17,19)         -2.1345         estimate D2E/DX2                !
 ! D97   D(15,16,37,21)       -178.2671         estimate D2E/DX2                !
 ! D98   D(15,16,37,36)          2.233          estimate D2E/DX2                !
 ! D99   D(17,16,37,21)          2.4074         estimate D2E/DX2                !
 ! D100  D(17,16,37,36)       -177.0925         estimate D2E/DX2                !
 ! D101  D(16,17,18,81)        -75.4349         estimate D2E/DX2                !
 ! D102  D(19,17,18,81)        104.4171         estimate D2E/DX2                !
 ! D103  D(16,17,19,20)          0.4881         estimate D2E/DX2                !
 ! D104  D(16,17,19,59)       -179.5254         estimate D2E/DX2                !
 ! D105  D(18,17,19,20)       -179.3637         estimate D2E/DX2                !
 ! D106  D(18,17,19,59)          0.6229         estimate D2E/DX2                !
 ! D107  D(17,18,81,39)         45.9092         estimate D2E/DX2                !
 ! D108  D(17,19,20,21)          0.8866         estimate D2E/DX2                !
 ! D109  D(17,19,20,60)       -179.8014         estimate D2E/DX2                !
 ! D110  D(59,19,20,21)       -179.1            estimate D2E/DX2                !
 ! D111  D(59,19,20,60)          0.212          estimate D2E/DX2                !
 ! D112  D(19,20,21,22)        179.2375         estimate D2E/DX2                !
 ! D113  D(19,20,21,37)         -0.5819         estimate D2E/DX2                !
 ! D114  D(60,20,21,22)         -0.0628         estimate D2E/DX2                !
 ! D115  D(60,20,21,37)       -179.8822         estimate D2E/DX2                !
 ! D116  D(20,21,22,23)       -179.3894         estimate D2E/DX2                !
 ! D117  D(20,21,22,61)          1.6186         estimate D2E/DX2                !
 ! D118  D(37,21,22,23)          0.4297         estimate D2E/DX2                !
 ! D119  D(37,21,22,61)       -178.5623         estimate D2E/DX2                !
 ! D120  D(20,21,37,16)         -1.069          estimate D2E/DX2                !
 ! D121  D(20,21,37,36)        178.4472         estimate D2E/DX2                !
 ! D122  D(22,21,37,16)        179.1118         estimate D2E/DX2                !
 ! D123  D(22,21,37,36)         -1.3719         estimate D2E/DX2                !
 ! D124  D(21,22,23,24)       -179.6947         estimate D2E/DX2                !
 ! D125  D(21,22,23,35)          0.445          estimate D2E/DX2                !
 ! D126  D(61,22,23,24)         -0.7037         estimate D2E/DX2                !
 ! D127  D(61,22,23,35)        179.436          estimate D2E/DX2                !
 ! D128  D(22,23,24,25)        137.7908         estimate D2E/DX2                !
 ! D129  D(22,23,24,34)        -42.0621         estimate D2E/DX2                !
 ! D130  D(35,23,24,25)        -42.3508         estimate D2E/DX2                !
 ! D131  D(35,23,24,34)        137.7963         estimate D2E/DX2                !
 ! D132  D(22,23,35,36)         -0.3598         estimate D2E/DX2                !
 ! D133  D(22,23,35,75)        178.512          estimate D2E/DX2                !
 ! D134  D(24,23,35,36)        179.7798         estimate D2E/DX2                !
 ! D135  D(24,23,35,75)         -1.3484         estimate D2E/DX2                !
 ! D136  D(23,24,25,26)       -179.7187         estimate D2E/DX2                !
 ! D137  D(23,24,25,62)         -0.7647         estimate D2E/DX2                !
 ! D138  D(34,24,25,26)          0.1363         estimate D2E/DX2                !
 ! D139  D(34,24,25,62)        179.0903         estimate D2E/DX2                !
 ! D140  D(23,24,34,28)        179.3195         estimate D2E/DX2                !
 ! D141  D(23,24,34,74)         -1.9174         estimate D2E/DX2                !
 ! D142  D(25,24,34,28)         -0.5354         estimate D2E/DX2                !
 ! D143  D(25,24,34,74)        178.2277         estimate D2E/DX2                !
 ! D144  D(24,25,26,27)          0.1106         estimate D2E/DX2                !
 ! D145  D(24,25,26,63)        179.7809         estimate D2E/DX2                !
 ! D146  D(62,25,26,27)       -178.8615         estimate D2E/DX2                !
 ! D147  D(62,25,26,63)          0.8088         estimate D2E/DX2                !
 ! D148  D(25,26,27,28)          0.0392         estimate D2E/DX2                !
 ! D149  D(25,26,27,64)        179.805          estimate D2E/DX2                !
 ! D150  D(63,26,27,28)       -179.6312         estimate D2E/DX2                !
 ! D151  D(63,26,27,64)          0.1346         estimate D2E/DX2                !
 ! D152  D(26,27,28,29)        179.9329         estimate D2E/DX2                !
 ! D153  D(26,27,28,34)         -0.4315         estimate D2E/DX2                !
 ! D154  D(64,27,28,29)          0.1681         estimate D2E/DX2                !
 ! D155  D(64,27,28,34)        179.8036         estimate D2E/DX2                !
 ! D156  D(27,28,29,30)       -172.9393         estimate D2E/DX2                !
 ! D157  D(34,28,29,30)          7.4392         estimate D2E/DX2                !
 ! D158  D(27,28,34,24)          0.6824         estimate D2E/DX2                !
 ! D159  D(27,28,34,74)       -178.0647         estimate D2E/DX2                !
 ! D160  D(29,28,34,24)       -179.7004         estimate D2E/DX2                !
 ! D161  D(29,28,34,74)          1.5525         estimate D2E/DX2                !
 ! D162  D(28,29,30,31)         72.9105         estimate D2E/DX2                !
 ! D163  D(28,29,30,65)       -167.2693         estimate D2E/DX2                !
 ! D164  D(28,29,30,66)        -50.5545         estimate D2E/DX2                !
 ! D165  D(29,30,31,32)         60.677          estimate D2E/DX2                !
 ! D166  D(29,30,31,67)       -178.8165         estimate D2E/DX2                !
 ! D167  D(29,30,31,68)        -61.1504         estimate D2E/DX2                !
 ! D168  D(65,30,31,32)        -58.8296         estimate D2E/DX2                !
 ! D169  D(65,30,31,67)         61.6769         estimate D2E/DX2                !
 ! D170  D(65,30,31,68)        179.3431         estimate D2E/DX2                !
 ! D171  D(66,30,31,32)       -175.9053         estimate D2E/DX2                !
 ! D172  D(66,30,31,67)        -55.3988         estimate D2E/DX2                !
 ! D173  D(66,30,31,68)         62.2674         estimate D2E/DX2                !
 ! D174  D(30,31,32,33)        178.7537         estimate D2E/DX2                !
 ! D175  D(30,31,32,69)        -60.9235         estimate D2E/DX2                !
 ! D176  D(30,31,32,70)         58.2649         estimate D2E/DX2                !
 ! D177  D(67,31,32,33)         58.7919         estimate D2E/DX2                !
 ! D178  D(67,31,32,69)        179.1147         estimate D2E/DX2                !
 ! D179  D(67,31,32,70)        -61.6969         estimate D2E/DX2                !
 ! D180  D(68,31,32,33)        -59.1919         estimate D2E/DX2                !
 ! D181  D(68,31,32,69)         61.1309         estimate D2E/DX2                !
 ! D182  D(68,31,32,70)       -179.6807         estimate D2E/DX2                !
 ! D183  D(31,32,33,71)        179.922          estimate D2E/DX2                !
 ! D184  D(31,32,33,72)         60.3661         estimate D2E/DX2                !
 ! D185  D(31,32,33,73)        -60.5061         estimate D2E/DX2                !
 ! D186  D(69,32,33,71)         58.922          estimate D2E/DX2                !
 ! D187  D(69,32,33,72)        -60.6339         estimate D2E/DX2                !
 ! D188  D(69,32,33,73)        178.4939         estimate D2E/DX2                !
 ! D189  D(70,32,33,71)        -59.0761         estimate D2E/DX2                !
 ! D190  D(70,32,33,72)       -178.6319         estimate D2E/DX2                !
 ! D191  D(70,32,33,73)         60.4959         estimate D2E/DX2                !
 ! D192  D(23,35,36,37)         -0.6094         estimate D2E/DX2                !
 ! D193  D(23,35,36,76)        179.0393         estimate D2E/DX2                !
 ! D194  D(75,35,36,37)       -179.5001         estimate D2E/DX2                !
 ! D195  D(75,35,36,76)          0.1486         estimate D2E/DX2                !
 ! D196  D(35,36,37,16)       -179.0315         estimate D2E/DX2                !
 ! D197  D(35,36,37,21)          1.4652         estimate D2E/DX2                !
 ! D198  D(76,36,37,16)          1.332          estimate D2E/DX2                !
 ! D199  D(76,36,37,21)       -178.1713         estimate D2E/DX2                !
 ! D200  D(15,38,39,81)        -74.7697         estimate D2E/DX2                !
 ! D201  D(40,38,39,81)        105.079          estimate D2E/DX2                !
 ! D202  D(15,38,40,41)          0.3811         estimate D2E/DX2                !
 ! D203  D(15,38,40,77)       -179.5858         estimate D2E/DX2                !
 ! D204  D(39,38,40,41)       -179.4674         estimate D2E/DX2                !
 ! D205  D(39,38,40,77)          0.5657         estimate D2E/DX2                !
 ! D206  D(38,39,81,18)         44.8306         estimate D2E/DX2                !
 ! D207  D(38,40,41,42)          0.9129         estimate D2E/DX2                !
 ! D208  D(38,40,41,78)       -179.7379         estimate D2E/DX2                !
 ! D209  D(77,40,41,42)       -179.1202         estimate D2E/DX2                !
 ! D210  D(77,40,41,78)          0.2291         estimate D2E/DX2                !
 ! D211  D(40,41,42,14)         -0.4059         estimate D2E/DX2                !
 ! D212  D(40,41,42,43)        179.2037         estimate D2E/DX2                !
 ! D213  D(78,41,42,14)       -179.7441         estimate D2E/DX2                !
 ! D214  D(78,41,42,43)         -0.1346         estimate D2E/DX2                !
 ! D215  D(14,42,43,11)          0.555          estimate D2E/DX2                !
 ! D216  D(14,42,43,79)        179.3708         estimate D2E/DX2                !
 ! D217  D(41,42,43,11)       -179.0539         estimate D2E/DX2                !
 ! D218  D(41,42,43,79)         -0.2381         estimate D2E/DX2                !
 --------------------------------------------------------------------------------
 Trust Radius=3.00D-01 FncErr=1.00D-07 GrdErr=1.00D-06 EigMax=2.50D+02 EigMin=1.00D-04
 Number of steps in this run=    464 maximum allowed number of steps=    486.
 GradGradGradGradGradGradGradGradGradGradGradGradGradGradGradGradGradGrad

 Leave Link  103 at Thu Mar 27 11:51:12 2025, MaxMem= 13421772800 cpu:               0.8 elap:               0.0
 (Enter /public/software/apps/Gaussian/g16/l202.exe)
 Symmetry turned off by external request.
 Stoichiometry    C40H36CuO4(2)
 Framework group  C1[X(C40H36CuO4)]
 Deg. of freedom   237
 Full point group                 C1      NOp   1
                          Input orientation:                          
 ---------------------------------------------------------------------
 Center     Atomic      Atomic             Coordinates (Angstroms)
 Number     Number       Type             X           Y           Z
 ---------------------------------------------------------------------
      1          6           0        5.063958    5.744743   -1.902872
      2          6           0        6.293586    4.982399   -1.418294
      3          6           0        5.982392    4.180619   -0.148136
      4          6           0        7.218937    3.433334    0.366784
      5          8           0        7.703923    2.499632   -0.600036
      6          6           0        7.093661    1.281007   -0.939922
      7          6           0        7.620946    0.560011   -2.016347
      8          6           0        7.054045   -0.655861   -2.401420
      9          6           0        5.952890   -1.166385   -1.712045
     10          6           0        5.407002   -0.463795   -0.623774
     11          6           0        4.232538   -1.003779    0.107359
     12          6           0        3.188145   -0.153281    0.502658
     13          6           0        2.077972   -0.655882    1.183326
     14          6           0        1.977185   -2.029900    1.479794
     15          6           0        0.850941   -2.572674    2.153943
     16          6           0       -0.316737   -1.733375    2.537739
     17          6           0       -0.551395   -1.486113    3.903095
     18          8           0        0.275921   -2.046896    4.870927
     19          6           0       -1.616985   -0.679141    4.303733
     20          6           0       -2.469710   -0.115127    3.356895
     21          6           0       -2.277224   -0.367535    1.991679
     22          6           0       -3.150355    0.191564    1.045538
     23          6           0       -2.979697   -0.061372   -0.325552
     24          6           0       -3.902074    0.537956   -1.323002
     25          6           0       -3.402572    1.074444   -2.522496
     26          6           0       -4.270118    1.642910   -3.456882
     27          6           0       -5.642398    1.684955   -3.205500
     28          6           0       -6.164132    1.160741   -2.018152
     29          8           0       -7.552742    1.232451   -1.819430
     30          6           0       -8.241547    0.881761   -0.617650
     31          6           0       -8.015740    1.926277    0.482803
     32          6           0       -8.530464    3.309391    0.064259
     33          6           0       -8.327960    4.332006    1.178496
     34          6           0       -5.287728    0.579825   -1.079916
     35          6           0       -1.926577   -0.891210   -0.739764
     36          6           0       -1.053144   -1.454127    0.192232
     37          6           0       -1.202345   -1.190923    1.568695
     38          6           0        0.835739   -3.941069    2.482400
     39          8           0       -0.235992   -4.483138    3.184752
     40          6           0        1.894938   -4.770120    2.111436
     41          6           0        2.986424   -4.252180    1.417161
     42          6           0        3.041096   -2.887990    1.100349
     43          6           0        4.152009   -2.371641    0.415499
     44          6           0        5.987075    0.759828   -0.239890
     45          1           0        4.722014    6.460376   -1.125058
     46          1           0        4.240197    5.037785   -2.139057
     47          1           0        5.317774    6.313916   -2.821904
     48          1           0        6.628394    4.295567   -2.225755
     49          1           0        7.109377    5.709203   -1.212936
     50          1           0        5.162970    3.460013   -0.354615
     51          1           0        5.633989    4.873656    0.648413
     52          1           0        8.023432    4.169831    0.576921
     53          1           0        6.995502    2.920871    1.326220
     54          1           0        8.472762    0.947876   -2.560623
     55          1           0        7.465951   -1.201573   -3.240379
     56          1           0        5.517589   -2.102026   -2.040060
     57          1           0        3.221415    0.903826    0.269544
     58          1           0        1.302696    0.040759    1.473246
     59          1           0       -1.784737   -0.488552    5.356254
     60          1           0       -3.288085    0.510573    3.693483
     61          1           0       -3.955141    0.838643    1.376282
     62          1           0       -2.339756    1.069244   -2.729745
     63          1           0       -3.877146    2.057061   -4.376525
     64          1           0       -6.305407    2.131098   -3.935937
     65          1           0       -9.328115    0.823256   -0.841000
     66          1           0       -7.930871   -0.126193   -0.270198
     67          1           0       -8.553655    1.594502    1.397661
     68          1           0       -6.934532    1.990506    0.728390
     69          1           0       -7.986511    3.656454   -0.841236
     70          1           0       -9.614337    3.249829   -0.176837
     71          1           0       -8.707427    5.321908    0.848040
     72          1           0       -7.248091    4.428710    1.421764
     73          1           0       -8.883700    4.024927    2.090241
     74          1           0       -5.674160    0.141469   -0.171067
     75          1           0       -1.788261   -1.120984   -1.789005
     76          1           0       -0.266742   -2.099624   -0.175519
     77          1           0        1.871140   -5.822917    2.362748
     78          1           0        3.794463   -4.917677    1.136669
     79          1           0        4.965220   -3.033115    0.138474
     80          1           0        5.584051    1.286311    0.613168
     81         29           0       -0.145833   -3.953018    5.072105
 ---------------------------------------------------------------------
 Rotational constants (GHZ):           0.0613835           0.0315457           0.0236899
 Leave Link  202 at Thu Mar 27 11:51:12 2025, MaxMem= 13421772800 cpu:               0.2 elap:               0.0
 (Enter /public/software/apps/Gaussian/g16/l301.exe)
 Standard basis: def2SVPP (5D, 7F)
 Ernie: Thresh=  0.10000D-02 Tol=  0.10000D-05 Strict=F.
   712 basis functions,  1315 primitive gaussians,   758 cartesian basis functions
   169 alpha electrons      168 beta electrons
       nuclear repulsion energy      5421.2066686250 Hartrees.
 IExCor=  402 DFT=T Ex+Corr=B3LYP ExCW=0 ScaHFX=  0.200000
 ScaDFX=  0.800000  0.720000  1.000000  0.810000 ScalE2=  1.000000  1.000000
 IRadAn=      5 IRanWt=     -1 IRanGd=            0 ICorTp=0 IEmpDi=141
 NAtoms=   81 NActive=   81 NUniq=   81 SFac= 1.00D+00 NAtFMM=   60 NAOKFM=T Big=T
 Integral buffers will be    131072 words long.
 Raffenetti 2 integral format.
 Two-electron integral symmetry is turned off.
 R6Disp:  Grimme-D3(BJ) Dispersion energy=       -0.1956484258 Hartrees.
 Nuclear repulsion after empirical dispersion term =     5421.0110201992 Hartrees.
 Leave Link  301 at Thu Mar 27 11:51:12 2025, MaxMem= 13421772800 cpu:               0.6 elap:               0.0
 (Enter /public/software/apps/Gaussian/g16/l302.exe)
 NPDir=0 NMtPBC=     1 NCelOv=     1 NCel=       1 NClECP=     1 NCelD=      1
         NCelK=      1 NCelE2=     1 NClLst=     1 CellRange=     0.0.
 One-electron integrals computed using PRISM.
   1 Symmetry operations used in ECPInt.
 ECPInt:  NShTT=   60031 NPrTT=  246070 LenC2=   42116 LenP2D=  103249.
 LDataN:  DoStor=T MaxTD1= 4 Len=   56
 NBasis=   712 RedAO= T EigKep=  1.89D-04  NBF=   712
 NBsUse=   712 1.00D-06 EigRej= -1.00D+00 NBFU=   712
 Precomputing XC quadrature grid using
 IXCGrd= 4 IRadAn=           5 IRanWt=          -1 IRanGd=           0 AccXCQ= 0.00D+00.
 Generated NRdTot=       0 NPtTot=           0 NUsed=           0 NTot=          32
 NSgBfM=   690   686   689   690   690 MxSgAt=    81 MxSgA2=    81.
 Leave Link  302 at Thu Mar 27 11:51:13 2025, MaxMem= 13421772800 cpu:              36.9 elap:               1.2
 (Enter /public/software/apps/Gaussian/g16/l303.exe)
 DipDrv:  MaxL=1.
 Leave Link  303 at Thu Mar 27 11:51:13 2025, MaxMem= 13421772800 cpu:               3.9 elap:               0.1
 (Enter /public/software/apps/Gaussian/g16/l401.exe)
 ExpMin= 3.30D-02 ExpMax= 7.64D+04 ExpMxC= 1.15D+04 IAcc=3 IRadAn=         5 AccDes= 0.00D+00
 Harris functional with IExCor=  402 and IRadAn=       5 diagonalized for initial guess.
 HarFok:  IExCor=  402 AccDes= 0.00D+00 IRadAn=         5 IDoV= 1 UseB2=F ITyADJ=14
 ICtDFT=  3500011 ScaDFX=  1.000000  1.000000  1.000000  1.000000
 FoFCou: FMM=F IPFlag=           0 FMFlag=      100000 FMFlg1=        2001
         NFxFlg=           0 DoJE=T BraDBF=F KetDBF=T FulRan=T
         wScrn=  0.000000 ICntrl=       500 IOpCl=  0 I1Cent=   200000004 NGrid=           0
         NMat0=    1 NMatS0=      1 NMatT0=    0 NMatD0=    1 NMtDS0=    0 NMtDT0=    0
 Symmetry not used in FoFCou.
 Harris En= -3486.19371699290    
 JPrj=0 DoOrth=F DoCkMO=F.
 Initial guess <Sx>= 0.0000 <Sy>= 0.0000 <Sz>= 0.5000 <S**2>= 0.7500 S= 0.5000
 Leave Link  401 at Thu Mar 27 11:51:15 2025, MaxMem= 13421772800 cpu:              61.6 elap:               2.0
 (Enter /public/software/apps/Gaussian/g16/l502.exe)
 Two-electron integral symmetry not used.
 UHF open shell SCF:
 Using DIIS extrapolation, IDIIS=  1040.
 NGot= 13421772800 LenX= 13420591086 LenY= 13420015764
 Requested convergence on RMS density matrix=1.00D-08 within 128 cycles.
 Requested convergence on MAX density matrix=1.00D-06.
 Requested convergence on             energy=1.00D-06.
 No special actions if energy rises.
 Fock matrices will be formed incrementally for  20 cycles.

 Cycle   1  Pass 1  IDiag  1:
 FoFJK:  IHMeth= 1 ICntrl=       0 DoSepK=F KAlg= 0 I1Cent=           0 FoldK=F
 IRaf= 790000000 NMat=       1 IRICut=       1 DoRegI=T DoRafI=F ISym2E= 0 IDoP0=0 IntGTp=1.
 FoFCou: FMM=T IPFlag=           0 FMFlag=      100000 FMFlg1=        2001
         NFxFlg=           0 DoJE=F BraDBF=F KetDBF=F FulRan=T
         wScrn=  0.000000 ICntrl=         0 IOpCl=  1 I1Cent=           0 NGrid=           0
         NMat0=    1 NMatS0=      1 NMatT0=    0 NMatD0=    1 NMtDS0=    0 NMtDT0=    0
 Symmetry not used in FoFCou.
 FMM levels:  10  Number of levels for PrismC:   9
 E= -3460.70872675180    
 DIIS: error= 3.48D-01 at cycle   1 NSaved=   1.
 NSaved= 1 IEnMin= 1 EnMin= -3460.70872675180     IErMin= 1 ErrMin= 3.48D-01
 ErrMax= 3.48D-01  0.00D+00 EMaxC= 1.00D-01 BMatC= 1.04D+02 BMatP= 1.04D+02
 IDIUse=3 WtCom= 0.00D+00 WtEn= 1.00D+00
 Coeff-Com:  0.100D+01
 Coeff-En:   0.100D+01
 Coeff:      0.100D+01
 Gap=    -3.925 Goal=   None    Shift=    0.000
 Gap=     1.657 Goal=   None    Shift=    0.000
 GapD=   -3.925 DampG=0.250 DampE=0.125 DampFc=0.1250 IDamp=-1.
 Damping current iteration by 1.25D-01
 RMSDP=1.55D-01 MaxDP=3.45D+01              OVMax= 9.94D-01

 Cycle   2  Pass 1  IDiag  1:
 RMSU=  1.93D-02    CP:  1.12D+00
 E= -3469.22973593733     Delta-E=       -8.521009185533 Rises=F Damp=T
 DIIS: error= 2.39D-01 at cycle   2 NSaved=   2.
 NSaved= 2 IEnMin= 2 EnMin= -3469.22973593733     IErMin= 2 ErrMin= 2.39D-01
 ErrMax= 2.39D-01  0.00D+00 EMaxC= 1.00D-01 BMatC= 3.98D+01 BMatP= 1.04D+02
 IDIUse=3 WtCom= 0.00D+00 WtEn= 1.00D+00
 Coeff-Com: -0.117D+01 0.217D+01
 Coeff-En:   0.000D+00 0.100D+01
 Coeff:      0.000D+00 0.100D+01
 Gap=    -0.220 Goal=   None    Shift=    0.000
 Gap=    -0.128 Goal=   None    Shift=    0.000
 RMSDP=2.39D-02 MaxDP=5.30D+00 DE=-8.52D+00 OVMax= 9.34D-01

 Cycle   3  Pass 1  IDiag  1:
 RMSU=  2.18D-02    CP:  9.32D-01  5.24D-01
 E= -3420.56342988013     Delta-E=       48.666306057203 Rises=F Damp=F
 DIIS: error= 1.14D-01 at cycle   3 NSaved=   3.
 NSaved= 3 IEnMin= 2 EnMin= -3469.22973593733     IErMin= 3 ErrMin= 1.14D-01
 ErrMax= 1.14D-01  0.00D+00 EMaxC= 1.00D-01 BMatC= 9.84D+01 BMatP= 3.98D+01
 IDIUse=2 WtCom= 0.00D+00 WtEn= 1.00D+00
 EnCoef did    22 forward-backward iterations
 Coeff-En:   0.450D+00 0.243D+00 0.307D+00
 Coeff:      0.450D+00 0.243D+00 0.307D+00
 Gap=    -0.141 Goal=   None    Shift=    0.000
 Gap=    -0.330 Goal=   None    Shift=    0.000
 RMSDP=2.11D-02 MaxDP=4.75D+00 DE= 4.87D+01 OVMax= 8.25D-01

 Cycle   4  Pass 1  IDiag  1:
 RMSU=  8.63D-03    CP:  9.16D-01  1.13D-01  1.95D-01
 E= -3461.87698684568     Delta-E=      -41.313556965553 Rises=F Damp=F
 DIIS: error= 2.00D-01 at cycle   4 NSaved=   4.
 NSaved= 4 IEnMin= 2 EnMin= -3469.22973593733     IErMin= 3 ErrMin= 1.14D-01
 ErrMax= 2.00D-01  0.00D+00 EMaxC= 1.00D-01 BMatC= 5.37D+01 BMatP= 3.98D+01
 IDIUse=2 WtCom= 0.00D+00 WtEn= 1.00D+00
 EnCoef did   100 forward-backward iterations
 Coeff-En:   0.468D+00 0.210D-01 0.185D+00 0.326D+00
 Coeff:      0.468D+00 0.210D-01 0.185D+00 0.326D+00
 Gap=     0.087 Goal=   None    Shift=    0.000
 Gap=     0.164 Goal=   None    Shift=    0.000
 RMSDP=1.58D-02 MaxDP=2.03D+00 DE=-4.13D+01 OVMax= 9.88D-01

 Cycle   5  Pass 1  IDiag  1:
 RMSU=  1.33D-02    CP:  8.83D-01  3.12D-03  1.16D-01  6.52D-02
 E= -3440.70351341024     Delta-E=       21.173473435447 Rises=F Damp=F
 DIIS: error= 1.76D-01 at cycle   5 NSaved=   5.
 NSaved= 5 IEnMin= 2 EnMin= -3469.22973593733     IErMin= 3 ErrMin= 1.14D-01
 ErrMax= 1.76D-01  0.00D+00 EMaxC= 1.00D-01 BMatC= 8.54D+01 BMatP= 3.98D+01
 IDIUse=2 WtCom= 0.00D+00 WtEn= 1.00D+00
 EnCoef did   100 forward-backward iterations
 Coeff-En:   0.273D+00 0.321D-02 0.000D+00 0.459D+00 0.265D+00
 Coeff:      0.273D+00 0.321D-02 0.000D+00 0.459D+00 0.265D+00
 Gap=    -0.449 Goal=   None    Shift=    0.000
 Gap=     0.521 Goal=   None    Shift=    0.000
 RMSDP=1.33D-02 MaxDP=1.47D+00 DE= 2.12D+01 OVMax= 8.90D-01

 Cycle   6  Pass 1  IDiag  1:
 RMSU=  5.33D-03    CP:  9.04D-01  4.42D-02  1.06D-01  1.46D-01  8.96D-02
 E= -3478.82465875132     Delta-E=      -38.121145341087 Rises=F Damp=F
 DIIS: error= 8.26D-02 at cycle   6 NSaved=   6.
 NSaved= 6 IEnMin= 6 EnMin= -3478.82465875132     IErMin= 6 ErrMin= 8.26D-02
 ErrMax= 8.26D-02  0.00D+00 EMaxC= 1.00D-01 BMatC= 1.51D+01 BMatP= 3.98D+01
 IDIUse=3 WtCom= 1.74D-01 WtEn= 8.26D-01
 EnCoef did   100 forward-backward iterations
 Coeff-Com: -0.420D+00 0.857D+00 0.157D-01 0.108D+00 0.100D+00 0.338D+00
 Coeff-En:   0.245D+00 0.795D-02 0.000D+00 0.180D+00 0.857D-01 0.481D+00
 Coeff:      0.129D+00 0.155D+00 0.273D-02 0.168D+00 0.883D-01 0.456D+00
 Gap=    -0.188 Goal=   None    Shift=    0.000
 Gap=     0.108 Goal=   None    Shift=    0.000
 RMSDP=7.82D-03 MaxDP=1.47D+00 DE=-3.81D+01 OVMax= 9.83D-01

 Cycle   7  Pass 1  IDiag  1:
 RMSU=  5.79D-03    CP:  8.91D-01  5.73D-03  4.27D-02  1.94D-01  1.83D-01
                    CP:  9.25D-02
 E= -3470.78129491369     Delta-E=        8.043363837638 Rises=F Damp=F
 DIIS: error= 1.10D-01 at cycle   7 NSaved=   7.
 NSaved= 7 IEnMin= 6 EnMin= -3478.82465875132     IErMin= 6 ErrMin= 8.26D-02
 ErrMax= 1.10D-01  0.00D+00 EMaxC= 1.00D-01 BMatC= 3.14D+01 BMatP= 1.51D+01
 IDIUse=2 WtCom= 0.00D+00 WtEn= 1.00D+00
 EnCoef did   100 forward-backward iterations
 Coeff-En:   0.174D+00 0.467D-02 0.000D+00 0.885D-01 0.000D+00 0.505D+00
 Coeff-En:   0.228D+00
 Coeff:      0.174D+00 0.467D-02 0.000D+00 0.885D-01 0.000D+00 0.505D+00
 Coeff:      0.228D+00
 Gap=    -0.254 Goal=   None    Shift=    0.000
 Gap=     0.234 Goal=   None    Shift=    0.000
 RMSDP=5.57D-03 MaxDP=6.96D-01 DE= 8.04D+00 OVMax= 6.47D-01

 Cycle   8  Pass 1  IDiag  1:
 RMSU=  3.43D-03    CP:  8.90D-01 -6.29D-03  3.00D-02  2.38D-01  5.83D-02
                    CP:  2.19D-01  3.14D-01
 E= -3483.68657397723     Delta-E=      -12.905279063543 Rises=F Damp=F
 DIIS: error= 5.86D-02 at cycle   8 NSaved=   8.
 NSaved= 8 IEnMin= 8 EnMin= -3483.68657397723     IErMin= 8 ErrMin= 5.86D-02
 ErrMax= 5.86D-02  0.00D+00 EMaxC= 1.00D-01 BMatC= 7.29D+00 BMatP= 1.51D+01
 IDIUse=3 WtCom= 4.14D-01 WtEn= 5.86D-01
 EnCoef did     4 forward-backward iterations
 Coeff-Com: -0.145D+00 0.345D+00 0.203D-01-0.284D-01-0.149D-01 0.299D+00
 Coeff-Com:  0.180D+00 0.344D+00
 Coeff-En:   0.110D+00 0.000D+00 0.000D+00 0.000D+00 0.000D+00 0.238D+00
 Coeff-En:   0.870D-01 0.566D+00
 Coeff:      0.446D-02 0.143D+00 0.838D-02-0.117D-01-0.616D-02 0.263D+00
 Coeff:      0.125D+00 0.474D+00
 Gap=     0.227 Goal=   None    Shift=    0.000
 Gap=    -0.038 Goal=   None    Shift=    0.000
 RMSDP=5.40D-03 MaxDP=3.41D-01 DE=-1.29D+01 OVMax= 7.72D-01

 Cycle   9  Pass 1  IDiag  1:
 RMSU=  4.25D-03    CP:  9.02D-01 -3.03D-04  3.36D-02  9.25D-02  6.40D-02
                    CP:  3.27D-01  2.75D-01  1.24D-01
 E= -3478.05640908915     Delta-E=        5.630164888080 Rises=F Damp=F
 DIIS: error= 8.10D-02 at cycle   9 NSaved=   9.
 NSaved= 9 IEnMin= 8 EnMin= -3483.68657397723     IErMin= 8 ErrMin= 5.86D-02
 ErrMax= 8.10D-02  0.00D+00 EMaxC= 1.00D-01 BMatC= 2.01D+01 BMatP= 7.29D+00
 IDIUse=2 WtCom= 0.00D+00 WtEn= 1.00D+00
 EnCoef did     4 forward-backward iterations
 Coeff-En:   0.429D-02 0.000D+00 0.000D+00 0.000D+00 0.000D+00 0.709D-01
 Coeff-En:   0.000D+00 0.649D+00 0.276D+00
 Coeff:      0.429D-02 0.000D+00 0.000D+00 0.000D+00 0.000D+00 0.709D-01
 Coeff:      0.000D+00 0.649D+00 0.276D+00
 Gap=    -0.080 Goal=   None    Shift=    0.000
 Gap=     0.010 Goal=   None    Shift=    0.000
 RMSDP=4.16D-03 MaxDP=3.16D-01 DE= 5.63D+00 OVMax= 6.86D-01

 Cycle  10  Pass 1  IDiag  1:
 RMSU=  2.31D-03    CP:  8.94D-01 -7.87D-04  3.27D-02  7.95D-02  7.13D-02
                    CP:  4.58D-01  1.71D-01  4.59D-01  2.65D-01
 E= -3484.59946155071     Delta-E=       -6.543052461559 Rises=F Damp=F
 DIIS: error= 1.37D-01 at cycle  10 NSaved=  10.
 NSaved=10 IEnMin=10 EnMin= -3484.59946155071     IErMin= 8 ErrMin= 5.86D-02
 ErrMax= 1.37D-01  0.00D+00 EMaxC= 1.00D-01 BMatC= 6.81D+00 BMatP= 7.29D+00
 IDIUse=3 WtCom= 4.14D-01 WtEn= 5.86D-01
 EnCoef did     4 forward-backward iterations
 Coeff-Com: -0.427D-01 0.635D-01 0.953D-02 0.301D-01 0.114D-01 0.801D-01
 Coeff-Com:  0.570D-01 0.335D+00 0.126D+00 0.330D+00
 Coeff-En:   0.000D+00 0.000D+00 0.000D+00 0.000D+00 0.000D+00 0.000D+00
 Coeff-En:   0.000D+00 0.427D+00 0.747D-01 0.498D+00
 Coeff:     -0.177D-01 0.262D-01 0.394D-02 0.125D-01 0.471D-02 0.331D-01
 Coeff:      0.236D-01 0.389D+00 0.961D-01 0.428D+00
 Gap=     0.341 Goal=   None    Shift=    0.000
 Gap=    -0.012 Goal=   None    Shift=    0.000
 RMSDP=2.52D-03 MaxDP=4.54D-01 DE=-6.54D+00 OVMax= 4.40D-01

 Cycle  11  Pass 1  IDiag  1:
 RMSU=  1.82D-03    CP:  8.92D-01 -5.58D-03  4.68D-02  1.89D-01  6.66D-02
                    CP:  3.78D-01  2.43D-01  5.72D-01  2.49D-01  4.63D-01
 E= -3485.61332406659     Delta-E=       -1.013862515883 Rises=F Damp=F
 DIIS: error= 6.87D-02 at cycle  11 NSaved=  11.
 NSaved=11 IEnMin=11 EnMin= -3485.61332406659     IErMin= 8 ErrMin= 5.86D-02
 ErrMax= 6.87D-02  0.00D+00 EMaxC= 1.00D-01 BMatC= 1.68D+00 BMatP= 6.81D+00
 IDIUse=3 WtCom= 4.14D-01 WtEn= 5.86D-01
 EnCoef did     4 forward-backward iterations
 Coeff-Com: -0.339D-01 0.507D-01 0.235D-03-0.911D-02-0.390D-02-0.417D-01
 Coeff-Com:  0.614D-02 0.153D+00-0.145D-02 0.310D+00 0.569D+00
 Coeff-En:   0.000D+00 0.000D+00 0.000D+00 0.000D+00 0.000D+00 0.000D+00
 Coeff-En:   0.000D+00 0.418D-01 0.000D+00 0.240D+00 0.718D+00
 Coeff:     -0.140D-01 0.210D-01 0.970D-04-0.377D-02-0.161D-02-0.173D-01
 Coeff:      0.254D-02 0.879D-01-0.601D-03 0.269D+00 0.657D+00
 Gap=     0.140 Goal=   None    Shift=    0.000
 Gap=     0.030 Goal=   None    Shift=    0.000
 RMSDP=1.74D-03 MaxDP=3.57D-01 DE=-1.01D+00 OVMax= 6.68D-01

 Cycle  12  Pass 1  IDiag  1:
 RMSU=  8.74D-04    CP:  8.90D-01 -6.25D-03  3.32D-02  1.63D-01  6.14D-02
                    CP:  3.16D-01  2.57D-01  6.92D-01  1.76D-01  6.28D-01
                    CP:  3.07D-01
 E= -3485.71208648802     Delta-E=       -0.098762421432 Rises=F Damp=F
 DIIS: error= 5.96D-02 at cycle  12 NSaved=  12.
 NSaved=12 IEnMin=12 EnMin= -3485.71208648802     IErMin= 8 ErrMin= 5.86D-02
 ErrMax= 5.96D-02  0.00D+00 EMaxC= 1.00D-01 BMatC= 1.23D+00 BMatP= 1.68D+00
 IDIUse=3 WtCom= 4.14D-01 WtEn= 5.86D-01
 Coeff-Com: -0.165D-02-0.471D-02-0.182D-02-0.572D-02 0.220D-03 0.207D-01
 Coeff-Com:  0.131D-02 0.173D-01-0.369D-02 0.530D-01 0.452D+00 0.473D+00
 Coeff-En:   0.000D+00 0.000D+00 0.000D+00 0.000D+00 0.000D+00 0.000D+00
 Coeff-En:   0.000D+00 0.000D+00 0.000D+00 0.000D+00 0.438D+00 0.562D+00
 Coeff:     -0.682D-03-0.195D-02-0.752D-03-0.236D-02 0.910D-04 0.858D-02
 Coeff:      0.542D-03 0.717D-02-0.152D-02 0.219D-01 0.444D+00 0.525D+00
 Gap=     0.103 Goal=   None    Shift=    0.000
 Gap=     0.018 Goal=   None    Shift=    0.000
 RMSDP=9.49D-04 MaxDP=2.00D-01 DE=-9.88D-02 OVMax= 2.76D-01

 Cycle  13  Pass 1  IDiag  1:
 RMSU=  4.73D-04    CP:  8.88D-01 -1.20D-02  3.95D-02  1.57D-01  6.89D-02
                    CP:  3.72D-01  2.47D-01  6.14D-01  2.20D-01  6.14D-01
                    CP:  5.56D-01  4.56D-01
 E= -3485.91865527025     Delta-E=       -0.206568782225 Rises=F Damp=F
 DIIS: error= 7.35D-03 at cycle  13 NSaved=  13.
 NSaved=13 IEnMin=13 EnMin= -3485.91865527025     IErMin=13 ErrMin= 7.35D-03
 ErrMax= 7.35D-03  0.00D+00 EMaxC= 1.00D-01 BMatC= 9.70D-02 BMatP= 1.23D+00
 IDIUse=3 WtCom= 9.27D-01 WtEn= 7.35D-02
 Coeff-Com: -0.571D-02 0.783D-02 0.263D-03-0.311D-02-0.223D-02-0.308D-02
 Coeff-Com: -0.368D-02-0.186D-01 0.500D-02-0.471D-01 0.178D+00 0.322D+00
 Coeff-Com:  0.570D+00
 Coeff-En:   0.000D+00 0.000D+00 0.000D+00 0.000D+00 0.000D+00 0.000D+00
 Coeff-En:   0.000D+00 0.000D+00 0.000D+00 0.000D+00 0.000D+00 0.745D-01
 Coeff-En:   0.926D+00
 Coeff:     -0.529D-02 0.726D-02 0.243D-03-0.288D-02-0.207D-02-0.286D-02
 Coeff:     -0.341D-02-0.172D-01 0.463D-02-0.436D-01 0.165D+00 0.304D+00
 Coeff:      0.596D+00
 Gap=     0.102 Goal=   None    Shift=    0.000
 Gap=     0.035 Goal=   None    Shift=    0.000
 RMSDP=4.15D-04 MaxDP=4.04D-02 DE=-2.07D-01 OVMax= 1.07D-01

 Cycle  14  Pass 1  IDiag  1:
 RMSU=  2.59D-04    CP:  8.88D-01 -9.31D-03  3.84D-02  1.68D-01  6.51D-02
                    CP:  3.52D-01  2.53D-01  6.41D-01  2.12D-01  5.75D-01
                    CP:  5.93D-01  6.21D-01  6.16D-01
 E= -3485.93735859424     Delta-E=       -0.018703323989 Rises=F Damp=F
 DIIS: error= 3.01D-03 at cycle  14 NSaved=  14.
 NSaved=14 IEnMin=14 EnMin= -3485.93735859424     IErMin=14 ErrMin= 3.01D-03
 ErrMax= 3.01D-03  0.00D+00 EMaxC= 1.00D-01 BMatC= 2.57D-02 BMatP= 9.70D-02
 IDIUse=3 WtCom= 9.70D-01 WtEn= 3.01D-02
 Coeff-Com: -0.298D-02 0.484D-02 0.498D-04-0.170D-03-0.143D-02-0.416D-02
 Coeff-Com: -0.297D-02-0.905D-02 0.407D-02-0.207D-01 0.448D-01 0.134D+00
 Coeff-Com:  0.399D+00 0.454D+00
 Coeff-En:   0.000D+00 0.000D+00 0.000D+00 0.000D+00 0.000D+00 0.000D+00
 Coeff-En:   0.000D+00 0.000D+00 0.000D+00 0.000D+00 0.000D+00 0.000D+00
 Coeff-En:   0.200D+00 0.800D+00
 Coeff:     -0.289D-02 0.469D-02 0.483D-04-0.165D-03-0.139D-02-0.404D-02
 Coeff:     -0.288D-02-0.878D-02 0.395D-02-0.200D-01 0.434D-01 0.130D+00
 Coeff:      0.393D+00 0.465D+00
 Gap=     0.108 Goal=   None    Shift=    0.000
 Gap=     0.037 Goal=   None    Shift=    0.000
 RMSDP=2.20D-04 MaxDP=1.84D-02 DE=-1.87D-02 OVMax= 7.84D-02

 Cycle  15  Pass 1  IDiag  1:
[...]
 .00829612,-0.00186361,0.00055818,-0.00126754,-0.00124210,-0.00145877,-
 0.00017747,0.00002839,0.00025300,0.00003518,0.00003015,-0.00010870,-0.
 00000699,0.00006587,-0.00014011,0.00003812,0.00010330,-0.00003598,-0.0
 0016062,0.00002296,0.00005677,0.00019282,-0.00010544,0.00001068,-0.000
 21583,-0.00006908,0.00003136,0.00003063,0.00001996,-0.00000078,0.00009
 855,-0.00001481,-0.00000278,-0.00008363,0.00001213,0.00000829,0.000110
 51,0.00000997,-0.00001378,-0.00006747,-0.00000957,0.00000079,-0.000005
 73,0.00001586,-0.00001057,0.00000378,0.00000014,0.00000737,-0.00000787
 ,0.00001758,-0.00000590,-0.00000105,-0.00006033,0.00000479,0.00001783,
 0.00006020,-0.00001014,-0.00002084,-0.00001763,0.00000124,0.00002347,-
 0.00000395,0.00000045,-0.00000361,-0.00000182,0.00000365,0.00000016,-0
 .00000064,-0.00000012,0.00000138,0.00000787,-0.00000148,0.00002159,0.0
 0000109,0.00000721,-0.00001608,0.00002103,-0.00001279,-0.00000487,-0.0
 0002558,-0.00001169,0.00001442,0.00010758,0.00018554,-0.00003991,-0.00
 013793,-0.00009441,0.00011725,-0.00014899,0.00008390,0.00004135,0.0001
 3506,0.00017457,-0.00009375,-0.00020741,-0.00003762,0.00024564,0.00048
 810,0.00062846,-0.00033115,-0.10085497,0.04825547,0.10755710,-0.000004
 79,-0.00000051,0.00000611,-0.00003189,-0.00001318,-0.00000931,-0.00003
 708,0.00002234,-0.00002791,0.00002988,0.00000085,-0.00001729,-0.000022
 17,-0.00001499,-0.00001660,0.00020958,0.00058611,-0.00010997,-0.000029
 02,0.00011559,0.00002488,0.00010573,0.00030644,-0.00046909,-0.00053400
 ,-0.00144044,-0.00126608,-0.00042107,0.00061988,0.00089091,-0.00029842
 ,0.00023797,-0.00026714,0.00055415,-0.00038973,-0.00022127,-0.00207395
 ,-0.00071531,0.00003800,-0.00003567,0.00000403,-0.00005552,-0.00000412
 ,0.00000260,-0.00000505,0.00000820,-0.00000350,0.00000167,0.00000404,-
 0.00000444,-0.00000296,-0.00000050,0.00000077,-0.00000542,-0.00000047,
 -0.00000104,0.00000475,0.00000228,-0.00000096,0.00000165,0.00000494,-0
 .00000156,-0.00000094,-0.00000133,-0.00000234,-0.00000372,0.00000102,-
 0.00000150,-0.00000246,0.00000342,0.00000207,0.00000283,-0.00000051,0.
 00000160,-0.00000095,0.00000268,-0.00000147,0.00000036,0.00000085,-0.0
 0000322,0.00000074,0.00000077,0.00000150,-0.00000014,-0.00000007,0.000
 00049,-0.00000164,-0.00000590,0.00000293,-0.00000186,-0.00000238,0.000
 00001,0.00000581,-0.00000275,-0.00000423,0.00000872,-0.00000048,0.0000
 0351,-0.00000583,0.00000048,0.00000943,0.00000936,-0.00004019,0.000069
 19,-0.00006694,0.10274252,0.00004749,0.00002417,-0.00005743,-0.0000360
 3,-0.00000380,0.00012749,0.00012523,-0.00094796,-0.00005438,-0.0016910
 4,-0.00213336,0.00086138,0.00226376,-0.00087453,-0.00043892,-0.0054819
 8,0.01096285,0.01005677,-0.00352586,0.00024213,-0.00012126,-0.00057957
 ,-0.00073180,0.00052646,-0.00424215,-0.00298185,-0.00200627,0.01292336
 ,-0.00948009,-0.02149816,0.00253035,0.00030415,-0.00003672,0.00032455,
 -0.00005271,0.00012205,-0.00034957,-0.00019950,0.00042944,-0.00000476,
 0.00032892,-0.00010269,-0.00003567,-0.00030833,0.00006384,0.00010250,-
 0.00004235,-0.00021884,0.00004335,0.00006980,0.00025376,-0.00011259,0.
 00005629,-0.00024716,-0.00009375,0.00003847,0.00003116,0.00002323,-0.0
 0000162,0.00012914,-0.00003626,0.00000806,-0.00010991,0.00001960,0.000
 00840,0.00016525,0.00001548,-0.00002343,-0.00009944,-0.00000902,-0.000
 00008,-0.00000604,0.00002615,-0.00001724,0.00000164,0.00000203,0.00000
 833,-0.00000998,0.00002097,-0.00000878,0.00000227,-0.00006184,0.000002
 33,0.00002276,0.00005968,-0.00001143,-0.00001937,-0.00001748,0.0000026
 5,0.00002210,-0.00000367,0.00000054,-0.00000391,-0.00000155,0.00000432
 ,-0.00000023,0.00000047,-0.00000025,0.00000157,0.00000399,0.00000040,0
 .00002788,0.00000027,0.00000191,-0.00002277,0.00003035,-0.00001692,-0.
 00002009,-0.00000901,-0.00002524,0.00004501,-0.00004916,0.00034011,0.0
 0001738,-0.00008945,-0.00012066,0.00007539,0.00005140,0.00008315,-0.00
 006428,0.00000232,-0.00006189,0.00001242,0.00019870,0.00008209,-0.0002
 6647,-0.00029647,-0.00047631,0.00034791,0.04936602,-0.10974516,-0.1058
 6493,-0.00000697,0.00000324,0.00001198,0.00000072,-0.00000789,0.000008
 42,-0.00002467,0.00002562,-0.00002613,0.00000628,0.00000858,-0.0000164
 7,0.00004163,0.00004831,-0.00001746,0.00011204,-0.00130638,0.00049082,
 -0.00001597,-0.00015261,0.00001063,0.00005984,0.00011465,0.00001851,-0
 .00124715,-0.00138055,-0.00062133,-0.00043722,0.00037371,0.00054025,0.
 00025516,-0.00012205,0.00016132,0.00056387,-0.00046449,-0.00120196,-0.
 00065834,0.00044529,-0.00022774,0.00000118,0.00001519,-0.00001995,-0.0
 0000457,0.00000386,-0.00000568,0.00001100,-0.00000354,0.00000078,0.000
 00698,-0.00000465,-0.00000392,-0.00000158,0.00000362,-0.00000641,0.000
 00098,-0.00000146,0.00000811,0.00000268,-0.00000064,0.00000186,0.00000
 497,-0.00000165,-0.00000102,-0.00000128,-0.00000327,-0.00000377,0.0000
 0061,-0.00000173,-0.00000205,0.00000358,0.00000270,0.00000268,-0.00000
 042,0.00000172,-0.00000028,0.00000237,-0.00000190,0.00000028,0.0000012
 7,-0.00000368,0.00000061,0.00000029,0.00000195,-0.00000079,-0.00000073
 ,0.00000028,-0.00000118,-0.00000788,0.00000429,-0.00000135,0.00000103,
 0.00000298,0.00000991,-0.00000405,-0.00000151,0.00000666,-0.00000342,0
 .00000246,-0.00000266,-0.00000579,0.00001148,-0.00000467,-0.00000070,0
 .00009780,-0.00001900,-0.05011058,0.11802199,-0.00003510,0.00004442,0.
 00004820,-0.00014409,-0.00013412,-0.00024268,0.00034573,0.00050948,0.0
 0039303,-0.00016732,-0.00103361,-0.00102019,-0.00168817,0.00067040,-0.
 00091464,0.00526133,-0.00875455,-0.00733657,0.00370083,0.00058584,0.00
 193723,-0.00029012,0.00066944,0.00008867,0.00083174,-0.00232344,0.0032
 1573,0.00444988,-0.00318670,-0.00408509,-0.00106012,0.00161495,-0.0013
 3771,0.00065581,-0.00058056,0.00046522,-0.00007674,0.00061168,-0.00012
 733,0.00000480,-0.00017094,-0.00007530,-0.00002376,0.00028039,-0.00003
 209,-0.00008583,0.00005203,0.00016726,-0.00001076,-0.00008221,-0.00015
 756,0.00007685,-0.00001693,0.00015716,0.00006589,-0.00001850,-0.000023
 59,-0.00001289,-0.00000121,-0.00009326,0.00001951,-0.00000239,0.000080
 65,-0.00001027,-0.00000660,-0.00011797,-0.00001767,0.00002113,0.000065
 70,0.00000190,0.00000074,-0.00000065,-0.00001696,0.00001181,0.00000341
 ,-0.00000254,-0.00000249,0.00000337,-0.00000925,0.00000562,-0.00000313
 ,0.00002250,0.00000131,-0.00001174,-0.00002000,0.00000527,0.00000689,0
 .00000593,-0.00000247,-0.00000791,0.00000076,-0.00000011,0.00000167,0.
 00000029,-0.00000212,0.00000032,-0.00000146,0.00000021,-0.00000086,0.0
 0000199,-0.00000148,-0.00001372,0.00000240,0.00000344,0.00000887,-0.00
 001944,0.00001670,0.00001459,0.00002124,0.00002681,-0.00004480,-0.0000
 5344,-0.00022940,0.00006884,0.00013160,0.00011406,-0.00013063,0.000015
 36,-0.00000181,-0.00000293,-0.00001817,-0.00005040,-0.00001940,0.00003
 698,0.00012742,0.00008909,0.00010480,0.00005000,0.00009587,0.10728942,
 -0.10614133,-0.22140974,-0.00000066,-0.00000217,-0.00001556,-0.0000138
 9,0.00000443,-0.00002927,0.00000857,-0.00003893,0.00002667,0.00002943,
 0.00001343,0.00004569,-0.00002686,-0.00011013,0.00013306,-0.00064952,0
 .00026743,-0.00017071,-0.00018535,-0.00020978,-0.00010889,-0.00028892,
 0.00007033,0.00018691,-0.00075984,-0.00176062,0.00050514,0.00009488,-0
 .00042405,-0.00046952,-0.00027474,0.00017081,-0.00033650,0.00054220,-0
 .00025052,0.00009347,-0.00013375,0.00072003,0.00031471,-0.00000043,-0.
 00003066,0.00008193,0.00000480,-0.00000424,0.00000166,-0.00000729,0.,-
 0.00000023,-0.00000467,0.00000090,0.00000241,0.00000133,-0.00000429,0.
 00000080,-0.00000142,-0.00000013,-0.00000507,-0.00000102,-0.00000047,-
 0.00000099,-0.00000156,0.00000060,0.00000056,0.00000030,0.00000189,0.0
 0000136,-0.00000004,0.00000081,0.00000044,-0.00000111,-0.00000145,-0.0
 0000088,-0.00000011,-0.00000076,-0.00000044,-0.00000020,0.00000109,0.0
 0000003,-0.00000085,0.00000169,-0.00000008,0.00000066,-0.00000109,0.00
 000089,0.00000076,0.00000014,0.00000011,0.00000360,-0.00000310,-0.0000
 0002,-0.00000191,-0.00000392,-0.00000647,-0.00000278,-0.00000819,-0.00
 001292,0.00000809,0.00000090,0.00000409,-0.00000402,0.00000988,0.00000
 467,-0.00003499,0.00007117,-0.00005639,-0.11757252,0.11881810,0.230086
 97,-0.00000619,0.00000055,0.00000109,-0.00000207,0.00001073,-0.0000023
 1,0.00001831,0.00000191,-0.00000829,-0.00006085,0.00010601,0.00012013,
 -0.00005519,-0.00028737,-0.00013792,0.00003584,0.00025421,0.00017538,-
 0.00003877,-0.00008374,-0.00001758,-0.00002646,-0.00001570,-0.00007122
 ,0.00001744,-0.00015306,-0.00001411,-0.00009698,-0.00004969,0.00012186
 ,-0.00015457,0.00118532,-0.00006558,0.00022407,0.00023258,-0.00014382,
 -0.00024622,0.00012935,-0.00000696,-0.00046196,-0.00047719,0.00052701,
 0.00056414,0.00233831,0.00077544,-0.00039014,0.00075360,0.00088129,-0.
 00078129,0.00301090,-0.00187907,-0.00057116,-0.01632774,0.00198700,-0.
 00065505,0.00048346,-0.00159532,-0.00068807,0.00015986,-0.00082523,0.0
 0009370,-0.00003233,0.00087240,-0.00018063,-0.00004059,-0.00123292,-0.
 00022876,0.00027135,0.00073653,0.00000595,0.00003761,-0.00007532,-0.00
 011890,0.00004976,0.00005731,-0.00003953,-0.00003142,0.00002265,-0.000
 08331,0.00002802,-0.00000248,0.00029554,0.00001179,-0.00012560,-0.0002
 9835,0.00002764,0.00013263,0.00008460,0.00002633,-0.00014742,0.0000205
 2,-0.00000356,0.00001385,0.00000408,-0.00000741,-0.00000218,0.00000477
 ,-0.00000141,-0.00000535,0.00000377,-0.00003003,-0.00013366,0.00003191
 ,-0.00016064,0.00019230,-0.00023742,0.00012719,-0.00003115,0.00029117,
 0.00015160,-0.00043430,-0.00608280,-0.00223108,0.00974623,0.00389176,0
 .00044627,-0.00738059,-0.00006957,-0.00122509,0.00004730,-0.00106841,-
 0.00132183,0.00062248,0.00062137,0.00114667,-0.00056208,-0.00072565,-0
 .00162220,0.00049755,-0.00007355,0.00010492,0.00005247,0.00000373,-0.0
 0000625,-0.00000425,-0.00000185,0.00000361,0.00000051,0.00000203,-0.00
 000299,0.00000384,0.00000337,0.00000236,-0.00001157,-0.00000120,-0.000
 00621,0.00000196,-0.00001999,0.00000576,0.00000161,0.00000723,-0.00002
 141,-0.00000540,-0.00000261,-0.00002243,-0.00000417,0.00001893,0.00000
 072,-0.00001065,-0.00000054,-0.00000965,0.00000907,-0.00001623,0.00000
 338,0.00001594,0.00003163,-0.00001082,-0.00000229,0.00001019,-0.000046
 79,0.00001718,-0.00001167,-0.00010613,0.00005150,0.00023342,0.00004190
 ,0.00011392,-0.00008888,0.00012745,-0.00009670,-0.00001857,0.00003197,
 0.00000940,0.00000975,0.00000062,0.00001513,-0.00000302,0.00000766,-0.
 00002411,-0.00000641,0.00000406,-0.00000634,-0.00002268,0.00000843,0.0
 0000549,0.00001071,-0.00000485,0.00001941,-0.00001353,0.00001013,0.000
 01830,-0.00001107,-0.00000763,-0.00001652,0.00000131,-0.00001032,0.000
 00793,-0.00000887,0.00000412,-0.00000190,-0.00000090,0.00000555,-0.000
 00024,-0.00000346,-0.00000251,-0.00000166,-0.00000267,0.00000084,0.000
 00771,0.00002578,-0.00001029,0.00000973,0.00001428,0.00000992,-0.00005
 350,0.00003164,0.00002389,-0.00012321,0.00017584,0.00010750,0.00005156
 ,-0.00004396,-0.00000882,0.00013310,-0.00002691,0.00001125,0.00000637,
 0.00001645,0.00000051,-0.00000961,0.00694163,0.00001569,0.00000133,-0.
 00000683,-0.00000042,-0.00003009,0.00001671,-0.00003264,-0.00000180,0.
 00001071,0.00008219,-0.00020353,-0.00014372,0.00011459,0.00050386,0.00
 019143,-0.00009234,-0.00046805,-0.00026286,0.00005388,0.00014583,0.000
 02902,0.00000920,0.00001285,0.00010160,0.00000250,0.00022663,-0.000011
 15,0.00005699,0.00002320,-0.00014541,-0.00007814,-0.00106993,0.0002169
 9,0.00003519,-0.00012598,0.00016190,-0.00008293,-0.00023396,-0.0001830
 6,-0.00010719,-0.00014358,-0.00042865,-0.00044078,-0.00401778,0.004119
 16,-0.00347037,-0.00039741,-0.01015691,0.02058395,-0.02705416,0.030557
 71,-0.02540212,-0.09094071,-0.01938183,-0.00582246,0.00528806,-0.00180
 060,0.00111125,-0.00012696,0.00545914,-0.00209562,0.00098835,-0.003805
 72,0.00125588,-0.00035719,0.00482551,0.00047776,-0.00084104,-0.0030770
 4,0.00040096,-0.00025482,0.00052785,0.00019230,-0.00006729,-0.00034691
 ,0.00016758,0.00000727,-0.00000346,0.00007080,-0.00003395,-0.00000796,
 -0.00038474,-0.00007912,0.00027775,0.00037610,-0.00006758,-0.00017219,
 -0.00011212,0.00001705,0.00017491,-0.00000687,-0.00000049,-0.00002167,
 -0.00001274,0.00001861,0.00000103,0.00000879,0.00000025,0.00001158,-0.
 00019626,0.00015489,0.00021431,-0.00017302,0.00000875,-0.00078991,0.00
 015367,-0.00000810,-0.00115358,0.00292780,-0.00275763,0.00225677,0.005
 10377,0.00721928,0.00014539,-0.00705216,-0.02274005,-0.03639964,-0.001
 74714,0.00117259,0.00083376,0.00100001,0.00133513,-0.00046345,-0.00053
 283,-0.00144541,0.00061764,0.00055213,0.00154569,-0.00051268,0.0001225
 8,-0.00010082,-0.00008739,-0.00000880,0.00000610,0.00001029,0.00000254
 ,-0.00000754,0.00000611,-0.00000293,0.00001422,-0.00001858,-0.00000392
 ,-0.00000496,0.00001517,0.00000510,0.00001797,-0.00000580,0.00003809,-
 0.00000538,0.00000658,-0.00001283,0.00002458,0.00000533,0.00000830,0.0
 0004098,0.00000681,-0.00003487,0.00001525,-0.00000089,0.00001186,0.000
 01520,-0.00001207,0.00003338,-0.00001121,-0.00002953,-0.00004020,0.000
 00999,0.00002567,0.00000700,0.00007211,0.00000195,-0.00000863,0.000127
 40,-0.00011495,0.00027783,-0.00024935,-0.00011183,-0.00025081,0.000064
 55,-0.00018747,0.00003784,-0.00000825,0.00001337,-0.00003119,0.0000023
 7,0.00000004,0.00000822,-0.00000501,0.00004553,0.00001143,0.00000357,0
 .00001246,0.00002678,-0.00001114,-0.00001270,-0.00000504,-0.00001204,-
 0.00002462,0.00001492,-0.00001099,-0.00001792,0.00000977,0.00001272,0.
 00002497,-0.00000066,0.00001246,-0.00000721,0.00000744,-0.00000835,-0.
 00000119,0.00000169,-0.00001549,-0.00000048,-0.00000471,0.00000530,0.0
 0000145,0.00000318,-0.00000026,-0.00001035,-0.00003152,0.00005901,0.00
 000074,-0.00004710,0.00003775,0.00003821,0.00008366,0.00008871,0.00014
 457,-0.00005678,-0.00019893,-0.00014096,0.00004442,0.00000443,-0.00003
 733,0.00003136,-0.00002873,-0.00001559,-0.00002913,-0.00003552,0.00002
 109,0.01287163,0.13487630,0.00000876,0.00000526,0.00000096,-0.00000085
 ,-0.00000592,0.00000024,0.00000037,0.00001148,0.00000549,0.00003446,-0
 .00004910,-0.00003444,-0.00000848,0.00010987,0.00005069,0.00010310,-0.
 00009365,-0.00016720,-0.00001173,0.00002025,0.00002353,0.00008276,0.00
 007785,0.00005305,-0.00017343,0.00019176,0.00011813,0.00052087,0.00026
 388,-0.00034625,0.00000345,-0.00254983,0.00028085,-0.00048062,-0.00067
 925,-0.00008508,-0.00012706,-0.00088235,0.00052257,0.00383680,0.000568
 06,-0.00226051,-0.00546793,-0.00757164,0.00077752,0.00168775,0.0031935
 2,-0.00050820,-0.00416914,0.01390074,-0.00564213,-0.00057251,-0.011154
 54,-0.00131051,0.00069321,-0.00081069,0.00096398,0.00016904,0.00003821
 ,-0.00112731,0.00056562,-0.00027307,0.00032406,-0.00034713,0.00007244,
 -0.00071339,-0.00021131,0.00027320,0.00039157,-0.00012220,-0.00000286,
 -0.00005655,0.00005711,-0.00004121,0.00003771,-0.00001528,0.00002506,-
 0.00003604,0.00006872,-0.00001866,-0.00001683,-0.00022377,0.00003894,0
 .00007841,0.00022548,-0.00003890,-0.00008000,-0.00006836,0.00000911,0.
 00008529,-0.00001758,0.00000035,-0.00000935,-0.00000683,0.00001452,-0.
 00000120,-0.00000384,-0.00000168,0.00000785,0.00003807,-0.00002496,0.0
 0004301,0.00024187,0.00011182,0.00022341,-0.00022622,-0.00019038,0.000
 23081,-0.00123531,0.00049670,-0.00093610,0.02823059,0.01344694,-0.0339
 1950,-0.01510089,-0.04233490,-0.07325472,-0.00616963,0.00034457,0.0047
 1490,0.00156163,0.00420115,-0.00170662,-0.00253663,-0.00220059,0.00159
 214,0.00198466,0.00324481,-0.00126880,-0.00007172,-0.00028192,-0.00001
 001,-0.00000104,0.00000393,0.00000144,-0.00000297,-0.00000595,-0.00000
 294,-0.00000252,0.00000162,-0.00000126,-0.00000003,-0.00000014,0.00000
 516,-0.00000475,-0.00000116,-0.00000110,0.00000521,-0.00000711,-0.0000
 0540,-0.00000074,0.00000939,0.00000223,-0.00000476,0.00000614,0.000003
 78,-0.00000377,0.00000496,0.00000326,-0.00000559,0.00000593,-0.0000049
 5,0.00001373,-0.00000306,-0.00000489,-0.00002718,0.00000549,-0.0000149
 9,-0.00004026,0.00000484,0.00004880,0.00009821,0.00003823,0.00012645,-
 0.00012730,-0.00009810,-0.00008631,0.00012361,-0.00003712,0.00008394,0
 .00000046,-0.00003376,-0.00001572,0.00000457,0.00001182,-0.00002211,-0
 .00000113,-0.00000360,0.00001739,0.00000733,-0.00000501,0.00000585,0.0
 0001929,-0.00000616,-0.00000197,-0.00000529,-0.00000964,-0.00001318,0.
 00000323,-0.00000516,-0.00001039,0.00001395,0.00000878,0.00000888,-0.0
 0000146,0.00000562,-0.00000413,0.00001090,-0.00000598,0.00000252,0.000
 00262,-0.00001207,0.00000246,0.00000393,0.00000546,-0.00000063,0.00000
 034,0.00000238,-0.00000749,-0.00002464,0.00000274,-0.00001114,0.000031
 30,0.00001409,0.00002165,-0.00007517,-0.00008613,0.00004077,0.00037547
 ,-0.00016963,-0.00010316,-0.00036547,-0.00013235,0.00008158,0.00003539
 ,0.00003628,0.00003893,0.00000865,0.00001909,0.00002012,-0.00280998,0.
 02898093,0.11276111\\0.00000524,-0.00000143,0.00000088,-0.00000865,0.0
 0000002,0.00000134,0.00000316,0.00000081,-0.00000384,-0.00000075,0.000
 00275,-0.00000191,0.00000150,-0.00000351,0.00000280,0.00000214,0.00000
 263,-0.00000041,-0.00000351,-0.00000509,-0.00000206,0.00000121,0.00000
 138,-0.00000017,0.00000002,-0.00000300,-0.00000258,0.00000400,0.000003
 52,-0.00000206,-0.00000115,-0.00000615,0.00000047,-0.00000633,0.000003
 35,0.00000275,0.00000371,0.00000580,-0.00000180,0.00000063,-0.00000608
 ,0.00000024,0.00000460,-0.00000373,-0.00000242,-0.00000441,0.00000346,
 0.00000278,0.00000167,0.00000045,-0.00000892,-0.00000241,-0.00000700,0
 .00000600,-0.00000224,0.00000079,-0.00000043,0.00000124,0.00000018,-0.
 00000115,-0.00000052,-0.00000036,0.00000246,-0.00000011,-0.00000008,-0
 .00000246,0.00000130,0.00000236,0.00000706,-0.00000558,0.00000037,-0.0
 0000392,0.00000344,0.00000157,-0.00000446,0.00000037,-0.00000038,0.000
 00016,0.00000550,-0.00000067,0.00000118,-0.00000353,0.00000063,-0.0000
 0435,0.00000120,-0.00000295,-0.00000043,-0.00000181,0.00000191,0.00000
 048,-0.00000133,0.00000236,-0.00000467,0.00000448,0.00000094,0.0000071
 6,-0.00000239,-0.00000322,-0.00000435,-0.00000045,-0.00000073,0.000003
 53,0.00000535,-0.00000513,-0.00000172,-0.00000157,0.00000008,-0.000005
 62,-0.00000148,0.00000186,0.00000412,0.00000364,0.00000895,-0.00000099
 ,-0.00000704,-0.00000494,0.00000647,0.00000269,0.00000059,0.00000004,-
 0.00000066,0.00000137,-0.00000070,-0.00000050,-0.00000244,0.00000128,0
 .00000100,0.00000237,-0.00000044,0.00000017,0.00000280,0.00000250,-0.0
 0000094,0.00000026,0.00000026,-0.00000107,-0.00000017,0.00000018,-0.00
 000030,-0.00000001,-0.00000012,0.00000224,0.00000046,-0.00000036,0.000
 00197,0.00000029,-0.00000045,-0.00000211,-0.00000120,0.00000131,-0.000
 00107,-0.00000041,0.00000078,0.00000017,0.00000057,0.00000030,-0.00000
 083,-0.00000128,-0.00000011,-0.00000010,0.00000132,0.00000058,0.000000
 67,0.00000169,0.00000030,-0.00000105,0.00000135,0.00000239,0.00000243,
 -0.00000108,-0.00000083,0.00000045,-0.00000190,0.00000060,0.00000120,-
 0.00000129,0.00000034,-0.00000027,-0.00000054,-0.00000075,-0.00000071,
 -0.00000019,-0.00000064,-0.00000114,-0.00000069,0.00000251,-0.00000172
 ,0.00000046,0.00000013,-0.00000097,0.00000009,0.00000069,-0.00000067,-
 0.00000041,0.00000025,0.00000115,-0.00000016,-0.00000003,0.00000060,-0
 .00000094,0.00000080,0.00000188,-0.00000147,0.00000150,-0.00000157,-0.
 00000030,-0.00000207,-0.00000127,-0.00000034,-0.00000191,0.00000007,-0
 .00000008,-0.00000009,0.00000061,-0.00000011,0.00000067,0.00000013,-0.
 00000008,0.00000073,0.00000113,0.00000086,0.00000146,-0.00000219,0.000
 00126,0.00000090,-0.00000104,0.00000015,0.00000195,-0.00000133,0.00000
 052,0.00000149,0.00000038,0.00000109,0.00000040,-0.00000015,0.00000035
 ,0.00000030,-0.00000113,0.00000090,-0.00000003,0.00000473,0.00000462,-
 0.00000523\\\@
 The archive entry for this job was punched.


 FESTINA LENTE!
     - IMPERATOR AUGUSTUS 
 Job cpu time:       1 days  2 hours  2 minutes 23.0 seconds.
 Elapsed time:       0 days  0 hours 49 minutes  1.4 seconds.
 File lengths (MBytes):  RWF=   9022 Int=      0 D2E=      0 Chk=     61 Scr=      1
 Normal termination of Gaussian 16 at Thu Mar 27 13:12:55 2025.
