 Entering Gaussian System, Link 0=g16
 Initial command:
 /public/software/apps/Gaussian/g16/l1.exe "/tmp/Gau-95346.inp" -scrdir="/tmp/"
 Entering Link 1 = /public/software/apps/Gaussian/g16/l1.exe PID=     95347.
  
 Copyright (c) 1988-2019, Gaussian, Inc.  All Rights Reserved.
  
 This is part of the Gaussian(R) 16 program.  It is based on
 the Gaussian(R) 09 system (copyright 2009, Gaussian, Inc.),
 the Gaussian(R) 03 system (copyright 2003, Gaussian, Inc.),
 the Gaussian(R) 98 system (copyright 1998, Gaussian, Inc.),
 the Gaussian(R) 94 system (copyright 1995, Gaussian, Inc.),
 the Gaussian 92(TM) system (copyright 1992, Gaussian, Inc.),
 the Gaussian 90(TM) system (copyright 1990, Gaussian, Inc.),
 the Gaussian 88(TM) system (copyright 1988, Gaussian, Inc.),
 the Gaussian 86(TM) system (copyright 1986, Carnegie Mellon
 University), and the Gaussian 82(TM) system (copyright 1983,
 Carnegie Mellon University). Gaussian is a federally registered
 trademark of Gaussian, Inc.
  
 This software contains proprietary and confidential information,
 including trade secrets, belonging to Gaussian, Inc.
  
 This software is provided under written license and may be
 used, copied, transmitted, or stored only in accord with that
 written license.
  
 The following legend is applicable only to US Government
 contracts under FAR:
  
                    RESTRICTED RIGHTS LEGEND
  
 Use, reproduction and disclosure by the US Government is
 subject to restrictions as set forth in subparagraphs (a)
 and (c) of the Commercial Computer Software - Restricted
 Rights clause in FAR 52.227-19.
  
 Gaussian, Inc.
 340 Quinnipiac St., Bldg. 40, Wallingford CT 06492
  
  
 ---------------------------------------------------------------
 Warning -- This program may not be used in any manner that
 competes with the business of Gaussian, Inc. or will provide
 assistance to any competitor of Gaussian, Inc.  The licensee
 of this program is prohibited from giving any competitor of
 Gaussian, Inc. access to this program.  By using this program,
 the user acknowledges that Gaussian, Inc. is engaged in the
 business of creating and licensing software in the field of
 computational chemistry and represents and warrants to the
 licensee that it is not a competitor of Gaussian, Inc. and that
 it will not use this program in any manner prohibited above.
 ---------------------------------------------------------------
  

 Cite this work as:
 Gaussian 16, Revision C.01,
 M. J. Frisch, G. W. Trucks, H. B. Schlegel, G. E. Scuseria, 
 M. A. Robb, J. R. Cheeseman, G. Scalmani, V. Barone, 
 G. A. Petersson, H. Nakatsuji, X. Li, M. Caricato, A. V. Marenich, 
 J. Bloino, B. G. Janesko, R. Gomperts, B. Mennucci, H. P. Hratchian, 
 J. V. Ortiz, A. F. Izmaylov, J. L. Sonnenberg, D. Williams-Young, 
 F. Ding, F. Lipparini, F. Egidi, J. Goings, B. Peng, A. Petrone, 
 T. Henderson, D. Ranasinghe, V. G. Zakrzewski, J. Gao, N. Rega, 
 G. Zheng, W. Liang, M. Hada, M. Ehara, K. Toyota, R. Fukuda, 
 J. Hasegawa, M. Ishida, T. Nakajima, Y. Honda, O. Kitao, H. Nakai, 
 T. Vreven, K. Throssell, J. A. Montgomery, Jr., J. E. Peralta, 
 F. Ogliaro, M. J. Bearpark, J. J. Heyd, E. N. Brothers, K. N. Kudin, 
 V. N. Staroverov, T. A. Keith, R. Kobayashi, J. Normand, 
 K. Raghavachari, A. P. Rendell, J. C. Burant, S. S. Iyengar, 
 J. Tomasi, M. Cossi, J. M. Millam, M. Klene, C. Adamo, R. Cammi, 
 J. W. Ochterski, R. L. Martin, K. Morokuma, O. Farkas, 
 J. B. Foresman, and D. J. Fox, Gaussian, Inc., Wallingford CT, 2019.
 
 ******************************************
 Gaussian 16:  ES64L-G16RevC.01  3-Jul-2019
                27-Mar-2025 
 ******************************************
 %nprocshared=32
 Will use up to   32 processors via shared memory.
 %mem=100GB
 ------------------------------------------
 #p opt freq b3lyp/def2svpp em=gd3bj nosymm
 ------------------------------------------
 1/18=20,19=15,26=3,38=1/1,3;
 2/9=110,12=2,15=1,17=6,18=5,40=1/2;
 3/5=43,7=202,11=2,25=1,30=1,71=1,74=-5,124=41/1,2,3;
 4//1;
 5/5=2,38=5/2;
 6/7=2,8=2,9=2,10=2,28=1/1;
 7/30=1/1,2,3,16;
 1/18=20,19=15,26=3/3(2);
 2/9=110,15=1/2;
 99//99;
 2/9=110,15=1/2;
 3/5=43,7=202,11=2,25=1,30=1,71=1,74=-5,124=41/1,2,3;
 4/5=5,16=3,69=1/1;
 5/5=2,38=5/2;
 7/30=1/1,2,3,16;
 1/18=20,19=15,26=3/3(-5);
 2/9=110,15=1/2;
 6/7=2,8=2,9=2,10=2,19=2,28=1/1;
 99/9=1/99;
 Leave Link    1 at Thu Mar 27 13:16:43 2025, MaxMem= 13421772800 cpu:               1.7 elap:               0.1
 (Enter /public/software/apps/Gaussian/g16/l101.exe)
 ------------------
 $$$$Title####0????
 ------------------
 Symbolic Z-matrix:
 Charge =  0 Multiplicity = 2
 O                     0.70662  -2.14725   4.3688 
 C                    -0.31527  -1.53572   3.64955 
 C                    -1.40877  -1.0069    4.33627 
 C                    -2.45405  -0.40315   3.64006 
 C                    -2.42678  -0.33642   2.24028 
 C                    -3.49356   0.25492   1.54575 
 C                    -3.49319   0.31083   0.14221 
 C                    -4.62404   0.9392   -0.58752 
 C                    -5.13509   0.35032  -1.75972 
 C                    -6.19998   0.94417  -2.44476 
 F                    -6.68787   0.366    -3.56993 
 C                    -6.76468   2.13009  -1.96915 
 C                    -6.26625   2.72463  -0.80744 
 F                    -6.8124    3.87812  -0.34972 
 C                    -5.20207   2.13411  -0.11844 
 C                    -2.41093  -0.24087  -0.5611 
 C                    -1.34341  -0.82937   0.11905 
 C                    -1.32552  -0.87576   1.52733 
 C                    -0.24711  -1.45651   2.24628 
 C                     0.95394  -2.00245   1.55793 
 C                     1.16424  -3.39377   1.56898 
 O                     0.28247  -4.23187   2.24396 
 C                     2.26034  -3.94942   0.90808 
 C                     3.16826  -3.13215   0.23758 
 C                     3.00004  -1.74065   0.23486 
 C                     3.93067  -0.92332  -0.42543 
 C                     3.7898    0.47424  -0.41981 
 C                     4.7768    1.33423  -1.12155 
 C                     5.27493   0.96609  -2.38579 
 C                     6.20359   1.77763  -3.04526 
 F                     6.67319   1.4162   -4.26475 
 C                     6.64496   2.96249  -2.4513 
 C                     6.15851   3.33877  -1.19699 
 F                     6.59132   4.48679  -0.61989 
 C                     5.22909   2.53097  -0.53398 
 C                     2.70554   1.04674   0.26349 
 C                     1.77251   0.24374   0.92166 
 C                     1.8948   -1.16004   0.90811 
 H                    -1.4485   -1.06557   5.41662 
 H                    -3.29088   0.00219   4.19662 
 H                    -4.33642   0.65372   2.0988 
 H                    -4.72252  -0.57765  -2.13546 
 H                    -7.58864   2.58845  -2.50093 
 H                    -4.81922   2.6197    0.7705 
 H                    -2.3812   -0.20301  -1.64289 
 H                    -0.53632  -1.24679  -0.4682 
 H                     2.40939  -5.02176   0.9155 
 H                     4.01     -3.58822  -0.2702 
 H                     4.77869  -1.37551  -0.92713 
 H                     4.93269   0.06034  -2.87063 
 H                     7.36404   3.5892   -2.96311 
 H                     4.87713   2.83189   0.44485 
 H                     2.56833   2.12081   0.27586 
 H                     0.95849   0.73288   1.43992 
 Cu                    0.65421  -4.09858   4.16632 
 
 ITRead=  0  0  0  0  0  0  0  0  0  0  0  0  0  0  0  0  0  0  0  0
 ITRead=  0  0  0  0  0  0  0  0  0  0  0  0  0  0  0  0  0  0  0  0
 ITRead=  0  0  0  0  0  0  0  0  0  0  0  0  0  0  0
 MicOpt= -1 -1 -1 -1 -1 -1 -1 -1 -1 -1 -1 -1 -1 -1 -1 -1 -1 -1 -1 -1
 MicOpt= -1 -1 -1 -1 -1 -1 -1 -1 -1 -1 -1 -1 -1 -1 -1 -1 -1 -1 -1 -1
 MicOpt= -1 -1 -1 -1 -1 -1 -1 -1 -1 -1 -1 -1 -1 -1 -1
 NAtoms=     55 NQM=       55 NQMF=       0 NMMI=      0 NMMIF=      0
                NMic=       0 NMicF=      0.
                    Isotopes and Nuclear Properties:
 (Nuclear quadrupole moments (NQMom) in fm**2, nuclear magnetic moments (NMagM)
  in nuclear magnetons)

  Atom         1           2           3           4           5           6           7           8           9          10
 IAtWgt=          16          12          12          12          12          12          12          12          12          12
 AtmWgt=  15.9949146  12.0000000  12.0000000  12.0000000  12.0000000  12.0000000  12.0000000  12.0000000  12.0000000  12.0000000
 NucSpn=           0           0           0           0           0           0           0           0           0           0
 AtZEff=  -0.0000000  -0.0000000  -0.0000000  -0.0000000  -0.0000000  -0.0000000  -0.0000000  -0.0000000  -0.0000000  -0.0000000
 NQMom=    0.0000000   0.0000000   0.0000000   0.0000000   0.0000000   0.0000000   0.0000000   0.0000000   0.0000000   0.0000000
 NMagM=    0.0000000   0.0000000   0.0000000   0.0000000   0.0000000   0.0000000   0.0000000   0.0000000   0.0000000   0.0000000
 AtZNuc=   8.0000000   6.0000000   6.0000000   6.0000000   6.0000000   6.0000000   6.0000000   6.0000000   6.0000000   6.0000000

  Atom        11          12          13          14          15          16          17          18          19          20
 IAtWgt=          19          12          12          19          12          12          12          12          12          12
 AtmWgt=  18.9984032  12.0000000  12.0000000  18.9984032  12.0000000  12.0000000  12.0000000  12.0000000  12.0000000  12.0000000
 NucSpn=           1           0           0           1           0           0           0           0           0           0
 AtZEff=  -0.0000000  -0.0000000  -0.0000000  -0.0000000  -0.0000000  -0.0000000  -0.0000000  -0.0000000  -0.0000000  -0.0000000
 NQMom=    0.0000000   0.0000000   0.0000000   0.0000000   0.0000000   0.0000000   0.0000000   0.0000000   0.0000000   0.0000000
 NMagM=    2.6288670   0.0000000   0.0000000   2.6288670   0.0000000   0.0000000   0.0000000   0.0000000   0.0000000   0.0000000
 AtZNuc=   9.0000000   6.0000000   6.0000000   9.0000000   6.0000000   6.0000000   6.0000000   6.0000000   6.0000000   6.0000000

  Atom        21          22          23          24          25          26          27          28          29          30
 IAtWgt=          12          16          12          12          12          12          12          12          12          12
 AtmWgt=  12.0000000  15.9949146  12.0000000  12.0000000  12.0000000  12.0000000  12.0000000  12.0000000  12.0000000  12.0000000
 NucSpn=           0           0           0           0           0           0           0           0           0           0
 AtZEff=  -0.0000000  -0.0000000  -0.0000000  -0.0000000  -0.0000000  -0.0000000  -0.0000000  -0.0000000  -0.0000000  -0.0000000
 NQMom=    0.0000000   0.0000000   0.0000000   0.0000000   0.0000000   0.0000000   0.0000000   0.0000000   0.0000000   0.0000000
 NMagM=    0.0000000   0.0000000   0.0000000   0.0000000   0.0000000   0.0000000   0.0000000   0.0000000   0.0000000   0.0000000
 AtZNuc=   6.0000000   8.0000000   6.0000000   6.0000000   6.0000000   6.0000000   6.0000000   6.0000000   6.0000000   6.0000000

  Atom        31          32          33          34          35          36          37          38          39          40
 IAtWgt=          19          12          12          19          12          12          12          12           1           1
 AtmWgt=  18.9984032  12.0000000  12.0000000  18.9984032  12.0000000  12.0000000  12.0000000  12.0000000   1.0078250   1.0078250
 NucSpn=           1           0           0           1           0           0           0           0           1           1
 AtZEff=  -0.0000000  -0.0000000  -0.0000000  -0.0000000  -0.0000000  -0.0000000  -0.0000000  -0.0000000  -0.0000000  -0.0000000
 NQMom=    0.0000000   0.0000000   0.0000000   0.0000000   0.0000000   0.0000000   0.0000000   0.0000000   0.0000000   0.0000000
 NMagM=    2.6288670   0.0000000   0.0000000   2.6288670   0.0000000   0.0000000   0.0000000   0.0000000   2.7928460   2.7928460
 AtZNuc=   9.0000000   6.0000000   6.0000000   9.0000000   6.0000000   6.0000000   6.0000000   6.0000000   1.0000000   1.0000000

  Atom        41          42          43          44          45          46          47          48          49          50
 IAtWgt=           1           1           1           1           1           1           1           1           1           1
 AtmWgt=   1.0078250   1.0078250   1.0078250   1.0078250   1.0078250   1.0078250   1.0078250   1.0078250   1.0078250   1.0078250
 NucSpn=           1           1           1           1           1           1           1           1           1           1
 AtZEff=  -0.0000000  -0.0000000  -0.0000000  -0.0000000  -0.0000000  -0.0000000  -0.0000000  -0.0000000  -0.0000000  -0.0000000
 NQMom=    0.0000000   0.0000000   0.0000000   0.0000000   0.0000000   0.0000000   0.0000000   0.0000000   0.0000000   0.0000000
 NMagM=    2.7928460   2.7928460   2.7928460   2.7928460   2.7928460   2.7928460   2.7928460   2.7928460   2.7928460   2.7928460
 AtZNuc=   1.0000000   1.0000000   1.0000000   1.0000000   1.0000000   1.0000000   1.0000000   1.0000000   1.0000000   1.0000000

  Atom        51          52          53          54          55
 IAtWgt=           1           1           1           1          63
 AtmWgt=   1.0078250   1.0078250   1.0078250   1.0078250  62.9295992
 NucSpn=           1           1           1           1           3
 AtZEff=  -0.0000000  -0.0000000  -0.0000000  -0.0000000  -0.0000000
 NQMom=    0.0000000   0.0000000   0.0000000   0.0000000 -22.0000000
 NMagM=    2.7928460   2.7928460   2.7928460   2.7928460   2.2233000
 AtZNuc=   1.0000000   1.0000000   1.0000000   1.0000000  29.0000000
 Leave Link  101 at Thu Mar 27 13:16:43 2025, MaxMem= 13421772800 cpu:               3.4 elap:               0.1
 (Enter /public/software/apps/Gaussian/g16/l103.exe)

 GradGradGradGradGradGradGradGradGradGradGradGradGradGradGradGradGradGrad
 Berny optimization.
 Initialization pass.
                           ----------------------------
                           !    Initial Parameters    !
                           ! (Angstroms and Degrees)  !
 --------------------------                            --------------------------
 ! Name  Definition              Value          Derivative Info.                !
 --------------------------------------------------------------------------------
 ! R1    R(1,2)                  1.3912         estimate D2E/DX2                !
 ! R2    R(1,55)                 1.9625         estimate D2E/DX2                !
 ! R3    R(2,3)                  1.3953         estimate D2E/DX2                !
 ! R4    R(2,19)                 1.4072         estimate D2E/DX2                !
 ! R5    R(3,4)                  1.3935         estimate D2E/DX2                !
 ! R6    R(3,39)                 1.0827         estimate D2E/DX2                !
 ! R7    R(4,5)                  1.4016         estimate D2E/DX2                !
 ! R8    R(4,40)                 1.0837         estimate D2E/DX2                !
 ! R9    R(5,6)                  1.4036         estimate D2E/DX2                !
 ! R10   R(5,18)                 1.4184         estimate D2E/DX2                !
 ! R11   R(6,7)                  1.4047         estimate D2E/DX2                !
 ! R12   R(6,41)                 1.0841         estimate D2E/DX2                !
 ! R13   R(7,8)                  1.4853         estimate D2E/DX2                !
 ! R14   R(7,16)                 1.4037         estimate D2E/DX2                !
 ! R15   R(8,9)                  1.4078         estimate D2E/DX2                !
 ! R16   R(8,15)                 1.4078         estimate D2E/DX2                !
 ! R17   R(9,10)                 1.3985         estimate D2E/DX2                !
 ! R18   R(9,42)                 1.0828         estimate D2E/DX2                !
 ! R19   R(10,11)                1.3558         estimate D2E/DX2                !
 ! R20   R(10,12)                1.397          estimate D2E/DX2                !
 ! R21   R(12,13)                1.397          estimate D2E/DX2                !
 ! R22   R(12,43)                1.0825         estimate D2E/DX2                !
 ! R23   R(13,14)                1.3558         estimate D2E/DX2                !
 ! R24   R(13,15)                1.3985         estimate D2E/DX2                !
 ! R25   R(15,44)                1.0829         estimate D2E/DX2                !
 ! R26   R(16,17)                1.3959         estimate D2E/DX2                !
 ! R27   R(16,45)                1.0829         estimate D2E/DX2                !
 ! R28   R(17,18)                1.4092         estimate D2E/DX2                !
 ! R29   R(17,46)                1.0819         estimate D2E/DX2                !
 ! R30   R(18,19)                1.4203         estimate D2E/DX2                !
 ! R31   R(19,20)                1.4881         estimate D2E/DX2                !
 ! R32   R(20,21)                1.4072         estimate D2E/DX2                !
 ! R33   R(20,38)                1.4203         estimate D2E/DX2                !
 ! R34   R(21,22)                1.3912         estimate D2E/DX2                !
 ! R35   R(21,23)                1.3953         estimate D2E/DX2                !
 ! R36   R(22,55)                1.9625         estimate D2E/DX2                !
 ! R37   R(23,24)                1.3935         estimate D2E/DX2                !
 ! R38   R(23,47)                1.0827         estimate D2E/DX2                !
 ! R39   R(24,25)                1.4016         estimate D2E/DX2                !
 ! R40   R(24,48)                1.0837         estimate D2E/DX2                !
 ! R41   R(25,26)                1.4036         estimate D2E/DX2                !
 ! R42   R(25,38)                1.4184         estimate D2E/DX2                !
 ! R43   R(26,27)                1.4047         estimate D2E/DX2                !
 ! R44   R(26,49)                1.0841         estimate D2E/DX2                !
 ! R45   R(27,28)                1.4853         estimate D2E/DX2                !
 ! R46   R(27,36)                1.4037         estimate D2E/DX2                !
 ! R47   R(28,29)                1.4078         estimate D2E/DX2                !
 ! R48   R(28,35)                1.4078         estimate D2E/DX2                !
 ! R49   R(29,30)                1.3985         estimate D2E/DX2                !
 ! R50   R(29,50)                1.0829         estimate D2E/DX2                !
 ! R51   R(30,31)                1.3558         estimate D2E/DX2                !
 ! R52   R(30,32)                1.397          estimate D2E/DX2                !
 ! R53   R(32,33)                1.397          estimate D2E/DX2                !
 ! R54   R(32,51)                1.0825         estimate D2E/DX2                !
 ! R55   R(33,34)                1.3558         estimate D2E/DX2                !
 ! R56   R(33,35)                1.3985         estimate D2E/DX2                !
 ! R57   R(35,52)                1.0828         estimate D2E/DX2                !
 ! R58   R(36,37)                1.3959         estimate D2E/DX2                !
 ! R59   R(36,53)                1.0829         estimate D2E/DX2                !
 ! R60   R(37,38)                1.4092         estimate D2E/DX2                !
 ! R61   R(37,54)                1.0819         estimate D2E/DX2                !
 ! A1    A(2,1,55)             111.3521         estimate D2E/DX2                !
 ! A2    A(1,2,3)              119.195          estimate D2E/DX2                !
 ! A3    A(1,2,19)             120.3131         estimate D2E/DX2                !
 ! A4    A(3,2,19)             120.4916         estimate D2E/DX2                !
 ! A5    A(2,3,4)              120.409          estimate D2E/DX2                !
 ! A6    A(2,3,39)             119.9548         estimate D2E/DX2                !
 ! A7    A(4,3,39)             119.6361         estimate D2E/DX2                !
 ! A8    A(3,4,5)              120.3303         estimate D2E/DX2                !
 ! A9    A(3,4,40)             118.9941         estimate D2E/DX2                !
 ! A10   A(5,4,40)             120.6718         estimate D2E/DX2                !
 ! A11   A(4,5,6)              119.9625         estimate D2E/DX2                !
 ! A12   A(4,5,18)             119.9317         estimate D2E/DX2                !
 ! A13   A(6,5,18)             120.1041         estimate D2E/DX2                !
 ! A14   A(5,6,7)              120.7301         estimate D2E/DX2                !
 ! A15   A(5,6,41)             119.568          estimate D2E/DX2                !
 ! A16   A(7,6,41)             119.689          estimate D2E/DX2                !
 ! A17   A(6,7,8)              120.5003         estimate D2E/DX2                !
 ! A18   A(6,7,16)             119.0264         estimate D2E/DX2                !
 ! A19   A(8,7,16)             120.4728         estimate D2E/DX2                !
 ! A20   A(7,8,9)              120.5624         estimate D2E/DX2                !
 ! A21   A(7,8,15)             120.5293         estimate D2E/DX2                !
 ! A22   A(9,8,15)             118.9083         estimate D2E/DX2                !
 ! A23   A(8,9,10)             120.4394         estimate D2E/DX2                !
 ! A24   A(8,9,42)             120.6025         estimate D2E/DX2                !
 ! A25   A(10,9,42)            118.9493         estimate D2E/DX2                !
 ! A26   A(9,10,11)            119.9612         estimate D2E/DX2                !
 ! A27   A(9,10,12)            120.0994         estimate D2E/DX2                !
 ! A28   A(11,10,12)           119.9391         estimate D2E/DX2                !
 ! A29   A(10,12,13)           120.0129         estimate D2E/DX2                !
 ! A30   A(10,12,43)           119.9936         estimate D2E/DX2                !
 ! A31   A(13,12,43)           119.9935         estimate D2E/DX2                !
 ! A32   A(12,13,14)           119.9399         estimate D2E/DX2                !
 ! A33   A(12,13,15)           120.0984         estimate D2E/DX2                !
 ! A34   A(14,13,15)           119.9614         estimate D2E/DX2                !
 ! A35   A(8,15,13)            120.4415         estimate D2E/DX2                !
 ! A36   A(8,15,44)            120.5954         estimate D2E/DX2                !
 ! A37   A(13,15,44)           118.9543         estimate D2E/DX2                !
 ! A38   A(7,16,17)            120.7443         estimate D2E/DX2                !
 ! A39   A(7,16,45)            120.5295         estimate D2E/DX2                !
 ! A40   A(17,16,45)           118.7186         estimate D2E/DX2                !
 ! A41   A(16,17,18)           120.699          estimate D2E/DX2                !
 ! A42   A(16,17,46)           117.9494         estimate D2E/DX2                !
 ! A43   A(18,17,46)           121.3516         estimate D2E/DX2                !
 ! A44   A(5,18,17)            118.6819         estimate D2E/DX2                !
 ! A45   A(5,18,19)            119.3779         estimate D2E/DX2                !
 ! A46   A(17,18,19)           121.9372         estimate D2E/DX2                !
 ! A47   A(2,19,18)            119.4097         estimate D2E/DX2                !
 ! A48   A(2,19,20)            118.6679         estimate D2E/DX2                !
 ! A49   A(18,19,20)           121.9183         estimate D2E/DX2                !
 ! A50   A(19,20,21)           118.6679         estimate D2E/DX2                !
 ! A51   A(19,20,38)           121.9183         estimate D2E/DX2                !
 ! A52   A(21,20,38)           119.4097         estimate D2E/DX2                !
 ! A53   A(20,21,22)           120.3131         estimate D2E/DX2                !
 ! A54   A(20,21,23)           120.4916         estimate D2E/DX2                !
 ! A55   A(22,21,23)           119.195          estimate D2E/DX2                !
 ! A56   A(21,22,55)           108.3166         estimate D2E/DX2                !
 ! A57   A(21,23,24)           120.409          estimate D2E/DX2                !
 ! A58   A(21,23,47)           119.9549         estimate D2E/DX2                !
 ! A59   A(24,23,47)           119.6361         estimate D2E/DX2                !
 ! A60   A(23,24,25)           120.3303         estimate D2E/DX2                !
 ! A61   A(23,24,48)           118.9942         estimate D2E/DX2                !
 ! A62   A(25,24,48)           120.6717         estimate D2E/DX2                !
 ! A63   A(24,25,26)           119.9626         estimate D2E/DX2                !
 ! A64   A(24,25,38)           119.9316         estimate D2E/DX2                !
 ! A65   A(26,25,38)           120.1041         estimate D2E/DX2                !
 ! A66   A(25,26,27)           120.7301         estimate D2E/DX2                !
 ! A67   A(25,26,49)           119.568          estimate D2E/DX2                !
 ! A68   A(27,26,49)           119.6891         estimate D2E/DX2                !
 ! A69   A(26,27,28)           120.5003         estimate D2E/DX2                !
 ! A70   A(26,27,36)           119.0264         estimate D2E/DX2                !
 ! A71   A(28,27,36)           120.4728         estimate D2E/DX2                !
 ! A72   A(27,28,29)           120.5293         estimate D2E/DX2                !
 ! A73   A(27,28,35)           120.5624         estimate D2E/DX2                !
 ! A74   A(29,28,35)           118.9083         estimate D2E/DX2                !
 ! A75   A(28,29,30)           120.4414         estimate D2E/DX2                !
 ! A76   A(28,29,50)           120.5954         estimate D2E/DX2                !
 ! A77   A(30,29,50)           118.9543         estimate D2E/DX2                !
 ! A78   A(29,30,31)           119.9613         estimate D2E/DX2                !
 ! A79   A(29,30,32)           120.0985         estimate D2E/DX2                !
 ! A80   A(31,30,32)           119.9399         estimate D2E/DX2                !
 ! A81   A(30,32,33)           120.0129         estimate D2E/DX2                !
 ! A82   A(30,32,51)           119.9936         estimate D2E/DX2                !
 ! A83   A(33,32,51)           119.9935         estimate D2E/DX2                !
 ! A84   A(32,33,34)           119.9391         estimate D2E/DX2                !
 ! A85   A(32,33,35)           120.0994         estimate D2E/DX2                !
 ! A86   A(34,33,35)           119.9612         estimate D2E/DX2                !
 ! A87   A(28,35,33)           120.4395         estimate D2E/DX2                !
 ! A88   A(28,35,52)           120.6024         estimate D2E/DX2                !
 ! A89   A(33,35,52)           118.9493         estimate D2E/DX2                !
 ! A90   A(27,36,37)           120.7443         estimate D2E/DX2                !
 ! A91   A(27,36,53)           120.5295         estimate D2E/DX2                !
 ! A92   A(37,36,53)           118.7186         estimate D2E/DX2                !
 ! A93   A(36,37,38)           120.6989         estimate D2E/DX2                !
 ! A94   A(36,37,54)           117.9493         estimate D2E/DX2                !
 ! A95   A(38,37,54)           121.3517         estimate D2E/DX2                !
 ! A96   A(20,38,25)           119.3779         estimate D2E/DX2                !
 ! A97   A(20,38,37)           121.9372         estimate D2E/DX2                !
 ! A98   A(25,38,37)           118.6819         estimate D2E/DX2                !
 ! A99   A(1,55,22)            100.0001         estimate D2E/DX2                !
 ! D1    D(55,1,2,3)           106.3646         estimate D2E/DX2                !
 ! D2    D(55,1,2,19)          -73.4233         estimate D2E/DX2                !
 ! D3    D(2,1,55,22)           42.252          estimate D2E/DX2                !
 ! D4    D(1,2,3,4)           -179.2313         estimate D2E/DX2                !
 ! D5    D(1,2,3,39)             0.7036         estimate D2E/DX2                !
 ! D6    D(19,2,3,4)             0.5562         estimate D2E/DX2                !
 ! D7    D(19,2,3,39)         -179.5089         estimate D2E/DX2                !
 ! D8    D(1,2,19,18)          177.5088         estimate D2E/DX2                !
 ! D9    D(1,2,19,20)           -1.7707         estimate D2E/DX2                !
 ! D10   D(3,2,19,18)           -2.2763         estimate D2E/DX2                !
 ! D11   D(3,2,19,20)          178.4441         estimate D2E/DX2                !
 ! D12   D(2,3,4,5)              0.8574         estimate D2E/DX2                !
 ! D13   D(2,3,4,40)          -179.8451         estimate D2E/DX2                !
 ! D14   D(39,3,4,5)          -179.0777         estimate D2E/DX2                !
 ! D15   D(39,3,4,40)            0.2198         estimate D2E/DX2                !
 ! D16   D(3,4,5,6)            179.0096         estimate D2E/DX2                !
 ! D17   D(3,4,5,18)            -0.517          estimate D2E/DX2                !
 ! D18   D(40,4,5,6)            -0.276          estimate D2E/DX2                !
 ! D19   D(40,4,5,18)         -179.8026         estimate D2E/DX2                !
 ! D20   D(4,5,6,7)           -178.9502         estimate D2E/DX2                !
 ! D21   D(4,5,6,41)            -0.2586         estimate D2E/DX2                !
 ! D22   D(18,5,6,7)             0.5756         estimate D2E/DX2                !
 ! D23   D(18,5,6,41)          179.2672         estimate D2E/DX2                !
 ! D24   D(4,5,18,17)          178.1719         estimate D2E/DX2                !
 ! D25   D(4,5,18,19)           -1.2069         estimate D2E/DX2                !
 ! D26   D(6,5,18,17)           -1.354          estimate D2E/DX2                !
 ! D27   D(6,5,18,19)          179.2672         estimate D2E/DX2                !
 ! D28   D(5,6,7,8)           -179.9296         estimate D2E/DX2                !
 ! D29   D(5,6,7,16)             0.3327         estimate D2E/DX2                !
 ! D30   D(41,6,7,8)             1.3803         estimate D2E/DX2                !
 ! D31   D(41,6,7,16)         -178.3574         estimate D2E/DX2                !
 ! D32   D(6,7,8,9)           -138.6721         estimate D2E/DX2                !
 ! D33   D(6,7,8,15)            41.3582         estimate D2E/DX2                !
 ! D34   D(16,7,8,9)            41.0618         estimate D2E/DX2                !
 ! D35   D(16,7,8,15)         -138.9079         estimate D2E/DX2                !
 ! D36   D(6,7,16,17)           -0.4465         estimate D2E/DX2                !
 ! D37   D(6,7,16,45)         -179.4301         estimate D2E/DX2                !
 ! D38   D(8,7,16,17)          179.8158         estimate D2E/DX2                !
 ! D39   D(8,7,16,45)            0.8322         estimate D2E/DX2                !
 ! D40   D(7,8,9,10)           179.9982         estimate D2E/DX2                !
 ! D41   D(7,8,9,42)             1.0916         estimate D2E/DX2                !
 ! D42   D(15,8,9,10)           -0.0316         estimate D2E/DX2                !
 ! D43   D(15,8,9,42)         -178.9382         estimate D2E/DX2                !
 ! D44   D(7,8,15,13)          179.9603         estimate D2E/DX2                !
 ! D45   D(7,8,15,44)            1.0507         estimate D2E/DX2                !
 ! D46   D(9,8,15,13)           -0.0099         estimate D2E/DX2                !
 ! D47   D(9,8,15,44)         -178.9194         estimate D2E/DX2                !
 ! D48   D(8,9,10,11)         -179.7507         estimate D2E/DX2                !
 ! D49   D(8,9,10,12)            0.0465         estimate D2E/DX2                !
 ! D50   D(42,9,10,11)          -0.8262         estimate D2E/DX2                !
 ! D51   D(42,9,10,12)         178.971          estimate D2E/DX2                !
 ! D52   D(9,10,12,13)          -0.0195         estimate D2E/DX2                !
 ! D53   D(9,10,12,43)         179.9784         estimate D2E/DX2                !
 ! D54   D(11,10,12,13)        179.7777         estimate D2E/DX2                !
 ! D55   D(11,10,12,43)         -0.2244         estimate D2E/DX2                !
 ! D56   D(10,12,13,14)        179.7712         estimate D2E/DX2                !
 ! D57   D(10,12,13,15)         -0.0219         estimate D2E/DX2                !
 ! D58   D(43,12,13,14)         -0.2266         estimate D2E/DX2                !
 ! D59   D(43,12,13,15)        179.9802         estimate D2E/DX2                !
 ! D60   D(12,13,15,8)           0.0367         estimate D2E/DX2                !
 ! D61   D(12,13,15,44)        178.964          estimate D2E/DX2                !
 ! D62   D(14,13,15,8)        -179.7565         estimate D2E/DX2                !
 ! D63   D(14,13,15,44)         -0.8292         estimate D2E/DX2                !
 ! D64   D(7,16,17,18)          -0.356          estimate D2E/DX2                !
 ! D65   D(7,16,17,46)         179.5755         estimate D2E/DX2                !
 ! D66   D(45,16,17,18)        178.6457         estimate D2E/DX2                !
 ! D67   D(45,16,17,46)         -1.4228         estimate D2E/DX2                !
 ! D68   D(16,17,18,5)           1.2492         estimate D2E/DX2                !
 ! D69   D(16,17,18,19)       -179.3887         estimate D2E/DX2                !
 ! D70   D(46,17,18,5)        -178.68           estimate D2E/DX2                !
 ! D71   D(46,17,18,19)          0.6821         estimate D2E/DX2                !
 ! D72   D(5,18,19,2)            2.583          estimate D2E/DX2                !
 ! D73   D(5,18,19,20)        -178.1617         estimate D2E/DX2                !
 ! D74   D(17,18,19,2)        -176.7748         estimate D2E/DX2                !
 ! D75   D(17,18,19,20)          2.4805         estimate D2E/DX2                !
 ! D76   D(2,19,20,21)          68.1602         estimate D2E/DX2                !
 ! D77   D(2,19,20,38)        -111.1003         estimate D2E/DX2                !
 ! D78   D(18,19,20,21)       -111.1004         estimate D2E/DX2                !
 ! D79   D(18,19,20,38)         69.6391         estimate D2E/DX2                !
 ! D80   D(19,20,21,22)         -1.7707         estimate D2E/DX2                !
 ! D81   D(19,20,21,23)        178.4442         estimate D2E/DX2                !
 ! D82   D(38,20,21,22)        177.5088         estimate D2E/DX2                !
 ! D83   D(38,20,21,23)         -2.2763         estimate D2E/DX2                !
 ! D84   D(19,20,38,25)       -178.1618         estimate D2E/DX2                !
 ! D85   D(19,20,38,37)          2.4804         estimate D2E/DX2                !
 ! D86   D(21,20,38,25)          2.583          estimate D2E/DX2                !
 ! D87   D(21,20,38,37)       -176.7748         estimate D2E/DX2                !
 ! D88   D(20,21,22,55)        -76.6112         estimate D2E/DX2                !
 ! D89   D(23,21,22,55)        103.1767         estimate D2E/DX2                !
 ! D90   D(20,21,23,24)          0.5563         estimate D2E/DX2                !
 ! D91   D(20,21,23,47)       -179.5089         estimate D2E/DX2                !
 ! D92   D(22,21,23,24)       -179.2312         estimate D2E/DX2                !
 ! D93   D(22,21,23,47)          0.7036         estimate D2E/DX2                !
 ! D94   D(21,22,55,1)          48.4229         estimate D2E/DX2                !
 ! D95   D(21,23,24,25)          0.8574         estimate D2E/DX2                !
 ! D96   D(21,23,24,48)       -179.8452         estimate D2E/DX2                !
 ! D97   D(47,23,24,25)       -179.0777         estimate D2E/DX2                !
 ! D98   D(47,23,24,48)          0.2198         estimate D2E/DX2                !
 ! D99   D(23,24,25,26)        179.0096         estimate D2E/DX2                !
 ! D100  D(23,24,25,38)         -0.5169         estimate D2E/DX2                !
 ! D101  D(48,24,25,26)         -0.276          estimate D2E/DX2                !
 ! D102  D(48,24,25,38)       -179.8025         estimate D2E/DX2                !
 ! D103  D(24,25,26,27)       -178.9501         estimate D2E/DX2                !
 ! D104  D(24,25,26,49)         -0.2587         estimate D2E/DX2                !
 ! D105  D(38,25,26,27)          0.5756         estimate D2E/DX2                !
 ! D106  D(38,25,26,49)        179.267          estimate D2E/DX2                !
 ! D107  D(24,25,38,20)         -1.2069         estimate D2E/DX2                !
 ! D108  D(24,25,38,37)        178.1719         estimate D2E/DX2                !
 ! D109  D(26,25,38,20)        179.2673         estimate D2E/DX2                !
 ! D110  D(26,25,38,37)         -1.3539         estimate D2E/DX2                !
 ! D111  D(25,26,27,28)       -179.9298         estimate D2E/DX2                !
 ! D112  D(25,26,27,36)          0.3325         estimate D2E/DX2                !
 ! D113  D(49,26,27,28)          1.3803         estimate D2E/DX2                !
 ! D114  D(49,26,27,36)       -178.3574         estimate D2E/DX2                !
 ! D115  D(26,27,28,29)         41.3582         estimate D2E/DX2                !
 ! D116  D(26,27,28,35)       -138.6721         estimate D2E/DX2                !
 ! D117  D(36,27,28,29)       -138.9079         estimate D2E/DX2                !
 ! D118  D(36,27,28,35)         41.0618         estimate D2E/DX2                !
 ! D119  D(26,27,36,37)         -0.4463         estimate D2E/DX2                !
 ! D120  D(26,27,36,53)       -179.43           estimate D2E/DX2                !
 ! D121  D(28,27,36,37)        179.8159         estimate D2E/DX2                !
 ! D122  D(28,27,36,53)          0.8322         estimate D2E/DX2                !
 ! D123  D(27,28,29,30)        179.9603         estimate D2E/DX2                !
 ! D124  D(27,28,29,50)          1.0508         estimate D2E/DX2                !
 ! D125  D(35,28,29,30)         -0.0099         estimate D2E/DX2                !
 ! D126  D(35,28,29,50)       -178.9194         estimate D2E/DX2                !
 ! D127  D(27,28,35,33)        179.9982         estimate D2E/DX2                !
 ! D128  D(27,28,35,52)          1.0916         estimate D2E/DX2                !
 ! D129  D(29,28,35,33)         -0.0316         estimate D2E/DX2                !
 ! D130  D(29,28,35,52)       -178.9382         estimate D2E/DX2                !
 ! D131  D(28,29,30,31)       -179.7565         estimate D2E/DX2                !
 ! D132  D(28,29,30,32)          0.0367         estimate D2E/DX2                !
 ! D133  D(50,29,30,31)         -0.8292         estimate D2E/DX2                !
 ! D134  D(50,29,30,32)        178.964          estimate D2E/DX2                !
 ! D135  D(29,30,32,33)         -0.022          estimate D2E/DX2                !
 ! D136  D(29,30,32,51)        179.9801         estimate D2E/DX2                !
 ! D137  D(31,30,32,33)        179.7712         estimate D2E/DX2                !
 ! D138  D(31,30,32,51)         -0.2267         estimate D2E/DX2                !
 ! D139  D(30,32,33,34)        179.7777         estimate D2E/DX2                !
 ! D140  D(30,32,33,35)         -0.0194         estimate D2E/DX2                !
 ! D141  D(51,32,33,34)         -0.2244         estimate D2E/DX2                !
 ! D142  D(51,32,33,35)        179.9785         estimate D2E/DX2                !
 ! D143  D(32,33,35,28)          0.0464         estimate D2E/DX2                !
 ! D144  D(32,33,35,52)        178.9709         estimate D2E/DX2                !
 ! D145  D(34,33,35,28)       -179.7507         estimate D2E/DX2                !
 ! D146  D(34,33,35,52)         -0.8262         estimate D2E/DX2                !
 ! D147  D(27,36,37,38)         -0.356          estimate D2E/DX2                !
 ! D148  D(27,36,37,54)        179.5754         estimate D2E/DX2                !
 ! D149  D(53,36,37,38)        178.6457         estimate D2E/DX2                !
 ! D150  D(53,36,37,54)         -1.4228         estimate D2E/DX2                !
 ! D151  D(36,37,38,20)       -179.3888         estimate D2E/DX2                !
 ! D152  D(36,37,38,25)          1.2491         estimate D2E/DX2                !
 ! D153  D(54,37,38,20)          0.6821         estimate D2E/DX2                !
 ! D154  D(54,37,38,25)       -178.68           estimate D2E/DX2                !
 --------------------------------------------------------------------------------
 Trust Radius=3.00D-01 FncErr=1.00D-07 GrdErr=1.00D-06 EigMax=2.50D+02 EigMin=1.00D-04
 Number of steps in this run=    324 maximum allowed number of steps=    330.
 GradGradGradGradGradGradGradGradGradGradGradGradGradGradGradGradGradGrad

 Leave Link  103 at Thu Mar 27 13:16:43 2025, MaxMem= 13421772800 cpu:               0.4 elap:               0.0
 (Enter /public/software/apps/Gaussian/g16/l202.exe)
 Symmetry turned off by external request.
 Stoichiometry    C32H16CuF4O2(2)
 Framework group  C1[X(C32H16CuF4O2)]
 Deg. of freedom   159
 Full point group                 C1      NOp   1
                          Input orientation:                          
 ---------------------------------------------------------------------
 Center     Atomic      Atomic             Coordinates (Angstroms)
 Number     Number       Type             X           Y           Z
 ---------------------------------------------------------------------
      1          8           0        0.706622   -2.147247    4.368795
      2          6           0       -0.315265   -1.535724    3.649550
      3          6           0       -1.408773   -1.006905    4.336267
      4          6           0       -2.454045   -0.403153    3.640063
      5          6           0       -2.426775   -0.336423    2.240275
      6          6           0       -3.493557    0.254916    1.545753
      7          6           0       -3.493185    0.310829    0.142212
      8          6           0       -4.624039    0.939203   -0.587520
      9          6           0       -5.135088    0.350319   -1.759718
     10          6           0       -6.199980    0.944168   -2.444763
     11          9           0       -6.687871    0.365998   -3.569934
     12          6           0       -6.764684    2.130090   -1.969154
     13          6           0       -6.266248    2.724631   -0.807441
     14          9           0       -6.812402    3.878119   -0.349723
     15          6           0       -5.202075    2.134111   -0.118442
     16          6           0       -2.410929   -0.240868   -0.561098
     17          6           0       -1.343406   -0.829369    0.119050
     18          6           0       -1.325522   -0.875757    1.527334
     19          6           0       -0.247110   -1.456508    2.246276
     20          6           0        0.953943   -2.002452    1.557932
     21          6           0        1.164237   -3.393765    1.568982
     22          8           0        0.282468   -4.231869    2.243957
     23          6           0        2.260340   -3.949419    0.908076
     24          6           0        3.168260   -3.132154    0.237578
     25          6           0        3.000040   -1.740645    0.234862
     26          6           0        3.930666   -0.923323   -0.425432
     27          6           0        3.789804    0.474239   -0.419810
     28          6           0        4.776800    1.334234   -1.121553
     29          6           0        5.274929    0.966092   -2.385794
     30          6           0        6.203586    1.777633   -3.045259
     31          9           0        6.673188    1.416196   -4.264752
     32          6           0        6.644962    2.962493   -2.451300
     33          6           0        6.158510    3.338767   -1.196992
     34          9           0        6.591319    4.486791   -0.619892
     35          6           0        5.229094    2.530974   -0.533975
     36          6           0        2.705535    1.046741    0.263485
     37          6           0        1.772509    0.243736    0.921655
     38          6           0        1.894796   -1.160044    0.908112
     39          1           0       -1.448504   -1.065568    5.416619
     40          1           0       -3.290881    0.002191    4.196620
     41          1           0       -4.336418    0.653719    2.098799
     42          1           0       -4.722518   -0.577651   -2.135457
     43          1           0       -7.588640    2.588452   -2.500934
     44          1           0       -4.819222    2.619704    0.770497
     45          1           0       -2.381201   -0.203013   -1.642894
     46          1           0       -0.536319   -1.246789   -0.468195
     47          1           0        2.409392   -5.021756    0.915497
     48          1           0        4.010000   -3.588216   -0.270197
     49          1           0        4.778689   -1.375514   -0.927127
     50          1           0        4.932689    0.060336   -2.870631
     51          1           0        7.364042    3.589201   -2.963111
     52          1           0        4.877128    2.831892    0.444846
     53          1           0        2.568331    2.120809    0.275858
     54          1           0        0.958489    0.732879    1.439917
     55         29           0        0.654210   -4.098581    4.166322
 ---------------------------------------------------------------------
 Rotational constants (GHZ):           0.0753022           0.0459647           0.0324825
 Leave Link  202 at Thu Mar 27 13:16:43 2025, MaxMem= 13421772800 cpu:               0.1 elap:               0.0
 (Enter /public/software/apps/Gaussian/g16/l301.exe)
 Standard basis: def2SVPP (5D, 7F)
 Ernie: Thresh=  0.10000D-02 Tol=  0.10000D-05 Strict=F.
   588 basis functions,  1085 primitive gaussians,   628 cartesian basis functions
   145 alpha electrons      144 beta electrons
       nuclear repulsion energy      4358.3590407414 Hartrees.
 IExCor=  402 DFT=T Ex+Corr=B3LYP ExCW=0 ScaHFX=  0.200000
 ScaDFX=  0.800000  0.720000  1.000000  0.810000 ScalE2=  1.000000  1.000000
 IRadAn=      5 IRanWt=     -1 IRanGd=            0 ICorTp=0 IEmpDi=141
 NAtoms=   55 NActive=   55 NUniq=   55 SFac= 1.00D+00 NAtFMM=   60 NAOKFM=F Big=F
 Integral buffers will be    131072 words long.
 Raffenetti 2 integral format.
 Two-electron integral symmetry is turned off.
 R6Disp:  Grimme-D3(BJ) Dispersion energy=       -0.1514382949 Hartrees.
 Nuclear repulsion after empirical dispersion term =     4358.2076024464 Hartrees.
 Leave Link  301 at Thu Mar 27 13:16:43 2025, MaxMem= 13421772800 cpu:               1.4 elap:               0.1
 (Enter /public/software/apps/Gaussian/g16/l302.exe)
 NPDir=0 NMtPBC=     1 NCelOv=     1 NCel=       1 NClECP=     1 NCelD=      1
         NCelK=      1 NCelE2=     1 NClLst=     1 CellRange=     0.0.
 One-electron integrals computed using PRISM.
   1 Symmetry operations used in ECPInt.
 ECPInt:  NShTT=   36585 NPrTT=  151008 LenC2=   27593 LenP2D=   70499.
 LDataN:  DoStor=T MaxTD1= 4 Len=   56
 NBasis=   588 RedAO= T EigKep=  1.89D-04  NBF=   588
 NBsUse=   588 1.00D-06 EigRej= -1.00D+00 NBFU=   588
 Precomputing XC quadrature grid using
 IXCGrd= 4 IRadAn=           5 IRanWt=          -1 IRanGd=           0 AccXCQ= 0.00D+00.
 Generated NRdTot=       0 NPtTot=           0 NUsed=           0 NTot=          32
 NSgBfM=   588   588   588   588   588 MxSgAt=    55 MxSgA2=    55.
 Leave Link  302 at Thu Mar 27 13:16:44 2025, MaxMem= 13421772800 cpu:              18.5 elap:               0.6
 (Enter /public/software/apps/Gaussian/g16/l303.exe)
 DipDrv:  MaxL=1.
 Leave Link  303 at Thu Mar 27 13:16:44 2025, MaxMem= 13421772800 cpu:               4.6 elap:               0.2
 (Enter /public/software/apps/Gaussian/g16/l401.exe)
 ExpMin= 3.30D-02 ExpMax= 7.64D+04 ExpMxC= 1.15D+04 IAcc=3 IRadAn=         5 AccDes= 0.00D+00
 Harris functional with IExCor=  402 and IRadAn=       5 diagonalized for initial guess.
 HarFok:  IExCor=  402 AccDes= 0.00D+00 IRadAn=         5 IDoV= 1 UseB2=F ITyADJ=14
 ICtDFT=  3500011 ScaDFX=  1.000000  1.000000  1.000000  1.000000
 FoFCou: FMM=F IPFlag=           0 FMFlag=      100000 FMFlg1=           0
         NFxFlg=           0 DoJE=T BraDBF=F KetDBF=T FulRan=T
         wScrn=  0.000000 ICntrl=       500 IOpCl=  0 I1Cent=   200000004 NGrid=           0
         NMat0=    1 NMatS0=      1 NMatT0=    0 NMatD0=    1 NMtDS0=    0 NMtDT0=    0
 Symmetry not used in FoFCou.
 Harris En= -3418.16316650068    
 JPrj=0 DoOrth=F DoCkMO=F.
 Initial guess <Sx>= 0.0000 <Sy>= 0.0000 <Sz>= 0.5000 <S**2>= 0.7500 S= 0.5000
 Leave Link  401 at Thu Mar 27 13:16:46 2025, MaxMem= 13421772800 cpu:              43.5 elap:               1.4
 (Enter /public/software/apps/Gaussian/g16/l502.exe)
 Two-electron integral symmetry not used.
 UHF open shell SCF:
 Using DIIS extrapolation, IDIIS=  1040.
 NGot= 13421772800 LenX= 13420957770 LenY= 13420562758
 Requested convergence on RMS density matrix=1.00D-08 within 128 cycles.
 Requested convergence on MAX density matrix=1.00D-06.
 Requested convergence on             energy=1.00D-06.
 No special actions if energy rises.
 Fock matrices will be formed incrementally for  20 cycles.

 Cycle   1  Pass 1  IDiag  1:
 FoFJK:  IHMeth= 1 ICntrl=       0 DoSepK=F KAlg= 0 I1Cent=           0 FoldK=F
 IRaf= 660000000 NMat=       1 IRICut=       1 DoRegI=T DoRafI=F ISym2E= 0 IDoP0=0 IntGTp=1.
 FoFCou: FMM=F IPFlag=           0 FMFlag=      100000 FMFlg1=           0
         NFxFlg=           0 DoJE=F BraDBF=F KetDBF=F FulRan=T
         wScrn=  0.000000 ICntrl=         0 IOpCl=  1 I1Cent=           0 NGrid=           0
         NMat0=    1 NMatS0=      1 NMatT0=    0 NMatD0=    1 NMtDS0=    0 NMtDT0=    0
 Symmetry not used in FoFCou.
 E= -3397.42929435650    
 DIIS: error= 3.41D-01 at cycle   1 NSaved=   1.
 NSaved= 1 IEnMin= 1 EnMin= -3397.42929435650     IErMin= 1 ErrMin= 3.41D-01
 ErrMax= 3.41D-01  0.00D+00 EMaxC= 1.00D-01 BMatC= 1.02D+02 BMatP= 1.02D+02
 IDIUse=3 WtCom= 0.00D+00 WtEn= 1.00D+00
 Coeff-Com:  0.100D+01
 Coeff-En:   0.100D+01
 Coeff:      0.100D+01
 Gap=    -1.445 Goal=   None    Shift=    0.000
 Gap=     0.704 Goal=   None    Shift=    0.000
 GapD=   -1.445 DampG=0.250 DampE=0.125 DampFc=0.1250 IDamp=-1.
 Damping current iteration by 1.25D-01
 RMSDP=1.04D-01 MaxDP=1.60D+01              OVMax= 9.91D-01

 Cycle   2  Pass 1  IDiag  1:
 RMSU=  1.29D-02    CP:  1.07D+00
 E= -3404.48279189904     Delta-E=       -7.053497542545 Rises=F Damp=T
 DIIS: error= 1.85D-01 at cycle   2 NSaved=   2.
 NSaved= 2 IEnMin= 2 EnMin= -3404.48279189904     IErMin= 2 ErrMin= 1.85D-01
 ErrMax= 1.85D-01  0.00D+00 EMaxC= 1.00D-01 BMatC= 3.75D+01 BMatP= 1.02D+02
 IDIUse=3 WtCom= 0.00D+00 WtEn= 1.00D+00
 Coeff-Com: -0.121D+01 0.221D+01
 Coeff-En:   0.000D+00 0.100D+01
 Coeff:      0.000D+00 0.100D+01
 Gap=     0.012 Goal=   None    Shift=    0.000
 Gap=    -0.270 Goal=   None    Shift=    0.000
 RMSDP=1.80D-02 MaxDP=3.98D+00 DE=-7.05D+00 OVMax= 8.65D-01

 Cycle   3  Pass 1  IDiag  1:
 RMSU=  1.77D-02    CP:  9.30D-01  8.40D-01
 E= -3365.32129935155     Delta-E=       39.161492547499 Rises=F Damp=F
 DIIS: error= 1.77D-01 at cycle   3 NSaved=   3.
 NSaved= 3 IEnMin= 2 EnMin= -3404.48279189904     IErMin= 3 ErrMin= 1.77D-01
 ErrMax= 1.77D-01  0.00D+00 EMaxC= 1.00D-01 BMatC= 9.80D+01 BMatP= 3.75D+01
 IDIUse=2 WtCom= 0.00D+00 WtEn= 1.00D+00
 EnCoef did    20 forward-backward iterations
 Coeff-En:   0.604D+00 0.625D-01 0.334D+00
 Coeff:      0.604D+00 0.625D-01 0.334D+00
 Gap=    -0.067 Goal=   None    Shift=    0.000
 Gap=    -0.174 Goal=   None    Shift=    0.000
 RMSDP=1.99D-02 MaxDP=2.30D+00 DE= 3.92D+01 OVMax= 8.07D-01

 Cycle   4  Pass 1  IDiag  1:
 RMSU=  1.27D-02    CP:  9.17D-01  2.09D-01  2.61D-01
 E= -3390.25851995007     Delta-E=      -24.937220598522 Rises=F Damp=F
 DIIS: error= 2.06D-01 at cycle   4 NSaved=   4.
 NSaved= 4 IEnMin= 2 EnMin= -3404.48279189904     IErMin= 3 ErrMin= 1.77D-01
 ErrMax= 2.06D-01  0.00D+00 EMaxC= 1.00D-01 BMatC= 6.11D+01 BMatP= 3.75D+01
 IDIUse=2 WtCom= 0.00D+00 WtEn= 1.00D+00
 EnCoef did   100 forward-backward iterations
 Coeff-En:   0.512D+00 0.281D-01 0.216D+00 0.244D+00
 Coeff:      0.512D+00 0.281D-01 0.216D+00 0.244D+00
 Gap=    -0.542 Goal=   None    Shift=    0.000
 Gap=     0.174 Goal=   None    Shift=    0.000
 RMSDP=1.89D-02 MaxDP=1.88D+00 DE=-2.49D+01 OVMax= 9.93D-01

 Cycle   5  Pass 1  IDiag  1:
 RMSU=  1.41D-02    CP:  8.96D-01  2.40D-02  1.88D-01  3.41D-02
 E= -3394.84873412709     Delta-E=       -4.590214177027 Rises=F Damp=F
 DIIS: error= 1.93D-01 at cycle   5 NSaved=   5.
 NSaved= 5 IEnMin= 2 EnMin= -3404.48279189904     IErMin= 3 ErrMin= 1.77D-01
 ErrMax= 1.93D-01  0.00D+00 EMaxC= 1.00D-01 BMatC= 4.58D+01 BMatP= 3.75D+01
 IDIUse=2 WtCom= 0.00D+00 WtEn= 1.00D+00
 EnCoef did   100 forward-backward iterations
 Coeff-En:   0.276D+00 0.137D-01 0.000D+00 0.356D+00 0.355D+00
 Coeff:      0.276D+00 0.137D-01 0.000D+00 0.356D+00 0.355D+00
 Gap=    -0.201 Goal=   None    Shift=    0.000
 Gap=     0.765 Goal=   None    Shift=    0.000
 RMSDP=1.46D-02 MaxDP=1.54D+00 DE=-4.59D+00 OVMax= 9.58D-01

 Cycle   6  Pass 1  IDiag  1:
 RMSU=  6.35D-03    CP:  9.08D-01  1.08D-01  1.80D-01  7.89D-02  7.26D-02
 E= -3408.20403314132     Delta-E=      -13.355299014227 Rises=F Damp=F
 DIIS: error= 8.78D-02 at cycle   6 NSaved=   6.
 NSaved= 6 IEnMin= 6 EnMin= -3408.20403314132     IErMin= 6 ErrMin= 8.78D-02
 ErrMax= 8.78D-02  0.00D+00 EMaxC= 1.00D-01 BMatC= 1.84D+01 BMatP= 3.75D+01
 IDIUse=3 WtCom= 1.22D-01 WtEn= 8.78D-01
 EnCoef did   100 forward-backward iterations
 Coeff-Com: -0.572D+00 0.110D+01 0.722D-02 0.429D-01 0.190D+00 0.231D+00
 Coeff-En:   0.242D+00 0.100D-01 0.000D+00 0.159D+00 0.243D+00 0.346D+00
 Coeff:      0.143D+00 0.143D+00 0.885D-03 0.145D+00 0.236D+00 0.332D+00
 Gap=     0.150 Goal=   None    Shift=    0.000
 Gap=     0.175 Goal=   None    Shift=    0.000
 RMSDP=7.45D-03 MaxDP=1.38D+00 DE=-1.34D+01 OVMax= 9.23D-01

 Cycle   7  Pass 1  IDiag  1:
 RMSU=  4.72D-03    CP:  9.01D-01 -2.16D-04  7.63D-02  1.56D-01  7.83D-02
                    CP:  1.82D-01
 E= -3416.57330096357     Delta-E=       -8.369267822248 Rises=F Damp=F
 DIIS: error= 9.46D-02 at cycle   7 NSaved=   7.
 NSaved= 7 IEnMin= 7 EnMin= -3416.57330096357     IErMin= 6 ErrMin= 8.78D-02
 ErrMax= 9.46D-02  0.00D+00 EMaxC= 1.00D-01 BMatC= 5.16D+00 BMatP= 1.84D+01
 IDIUse=3 WtCom= 1.22D-01 WtEn= 8.78D-01
 EnCoef did   100 forward-backward iterations
 Coeff-Com: -0.252D+00 0.521D+00 0.349D-03-0.903D-01 0.433D-01 0.183D+00
 Coeff-Com:  0.595D+00
 Coeff-En:   0.117D+00 0.534D-03 0.000D+00 0.000D+00 0.780D-04 0.977D-01
 Coeff-En:   0.785D+00
 Coeff:      0.714D-01 0.642D-01 0.428D-04-0.111D-01 0.537D-02 0.108D+00
 Coeff:      0.762D+00
 Gap=     0.295 Goal=   None    Shift=    0.000
 Gap=    -0.005 Goal=   None    Shift=    0.000
 RMSDP=7.16D-03 MaxDP=8.51D-01 DE=-8.37D+00 OVMax= 9.69D-01

 Cycle   8  Pass 1  IDiag  1:
 RMSU=  5.88D-03    CP:  8.94D-01 -1.85D-02  8.36D-02  3.92D-03  1.21D-01
                    CP:  4.55D-01  3.48D-01
 E= -3408.38204210401     Delta-E=        8.191258859559 Rises=F Damp=F
 DIIS: error= 9.58D-02 at cycle   8 NSaved=   8.
 NSaved= 8 IEnMin= 7 EnMin= -3416.57330096357     IErMin= 6 ErrMin= 8.78D-02
 ErrMax= 9.58D-02  0.00D+00 EMaxC= 1.00D-01 BMatC= 2.10D+01 BMatP= 5.16D+00
 IDIUse=2 WtCom= 0.00D+00 WtEn= 1.00D+00
 EnCoef did     8 forward-backward iterations
 Coeff-En:   0.657D-01 0.000D+00 0.000D+00 0.000D+00 0.000D+00 0.228D-01
 Coeff-En:   0.764D+00 0.148D+00
 Coeff:      0.657D-01 0.000D+00 0.000D+00 0.000D+00 0.000D+00 0.228D-01
 Coeff:      0.764D+00 0.148D+00
 Gap=    -0.143 Goal=   None    Shift=    0.000
 Gap=     0.195 Goal=   None    Shift=    0.000
 RMSDP=5.37D-03 MaxDP=7.14D-01 DE= 8.19D+00 OVMax= 7.30D-01

 Cycle   9  Pass 1  IDiag  1:
 RMSU=  2.85D-03    CP:  8.95D-01 -1.46D-02  7.03D-02  3.30D-02  7.73D-02
                    CP:  4.02D-01  4.65D-01  2.44D-01
 E= -3416.69857629856     Delta-E=       -8.316534194553 Rises=F Damp=F
 DIIS: error= 1.23D-01 at cycle   9 NSaved=   9.
 NSaved= 9 IEnMin= 9 EnMin= -3416.69857629856     IErMin= 6 ErrMin= 8.78D-02
 ErrMax= 1.23D-01  0.00D+00 EMaxC= 1.00D-01 BMatC= 6.36D+00 BMatP= 5.16D+00
 IDIUse=2 WtCom= 0.00D+00 WtEn= 1.00D+00
 Coeff-En:   0.000D+00 0.000D+00 0.000D+00 0.000D+00 0.000D+00 0.000D+00
 Coeff-En:   0.483D+00 0.000D+00 0.517D+00
 Coeff:      0.000D+00 0.000D+00 0.000D+00 0.000D+00 0.000D+00 0.000D+00
 Coeff:      0.483D+00 0.000D+00 0.517D+00
 Gap=     0.172 Goal=   None    Shift=    0.000
 Gap=     0.009 Goal=   None    Shift=    0.000
 RMSDP=3.56D-03 MaxDP=3.93D-01 DE=-8.32D+00 OVMax= 9.14D-01

 Cycle  10  Pass 1  IDiag  1:
 RMSU=  2.61D-03    CP:  8.94D-01 -8.69D-03  8.56D-02  7.59D-02  8.60D-02
                    CP:  3.32D-01  6.55D-01  2.62D-01  2.57D-01
 E= -3415.50576721625     Delta-E=        1.192809082316 Rises=F Damp=F
 DIIS: error= 6.90D-02 at cycle  10 NSaved=  10.
 NSaved=10 IEnMin= 9 EnMin= -3416.69857629856     IErMin=10 ErrMin= 6.90D-02
 ErrMax= 6.90D-02  0.00D+00 EMaxC= 1.00D-01 BMatC= 6.89D+00 BMatP= 5.16D+00
 IDIUse=2 WtCom= 0.00D+00 WtEn= 1.00D+00
 EnCoef did     3 forward-backward iterations
 Coeff-En:   0.000D+00 0.000D+00 0.000D+00 0.000D+00 0.000D+00 0.000D+00
 Coeff-En:   0.430D+00 0.000D+00 0.450D+00 0.119D+00
 Coeff:      0.000D+00 0.000D+00 0.000D+00 0.000D+00 0.000D+00 0.000D+00
 Coeff:      0.430D+00 0.000D+00 0.450D+00 0.119D+00
 Gap=    -0.138 Goal=   None    Shift=    0.000
 Gap=     0.089 Goal=   None    Shift=    0.000
 RMSDP=2.79D-03 MaxDP=3.04D-01 DE= 1.19D+00 OVMax= 7.97D-01

 Cycle  11  Pass 1  IDiag  1:
 RMSU=  1.17D-03    CP:  8.93D-01 -1.62D-02  7.52D-02  8.83D-02  7.58D-02
                    CP:  3.06D-01  7.38D-01  1.37D-01  5.32D-01  1.43D-01
 E= -3417.92870569601     Delta-E=       -2.422938479764 Rises=F Damp=F
 DIIS: error= 2.14D-02 at cycle  11 NSaved=  11.
 NSaved=11 IEnMin=11 EnMin= -3417.92870569601     IErMin=11 ErrMin= 2.14D-02
 ErrMax= 2.14D-02  0.00D+00 EMaxC= 1.00D-01 BMatC= 2.42D-01 BMatP= 5.16D+00
 IDIUse=3 WtCom= 7.86D-01 WtEn= 2.14D-01
 Coeff-Com: -0.208D-01 0.352D-01-0.799D-03-0.590D-02-0.392D-02-0.187D-01
 Coeff-Com:  0.133D+00-0.232D-01 0.200D+00 0.762D-01 0.629D+00
 Coeff-En:   0.000D+00 0.000D+00 0.000D+00 0.000D+00 0.000D+00 0.000D+00
 Coeff-En:   0.000D+00 0.000D+00 0.000D+00 0.000D+00 0.100D+01
 Coeff:     -0.164D-01 0.277D-01-0.628D-03-0.464D-02-0.308D-02-0.147D-01
 Coeff:      0.104D+00-0.182D-01 0.157D+00 0.599D-01 0.708D+00
 Gap=     0.160 Goal=   None    Shift=    0.000
 Gap=    -0.001 Goal=   None    Shift=    0.000
 RMSDP=1.47D-03 MaxDP=1.54D-01 DE=-2.42D+00 OVMax= 3.88D-01

 Cycle  12  Pass 1  IDiag  1:
 RMSU=  1.26D-03    CP:  8.94D-01 -1.47D-02  6.84D-02  8.70D-02  7.30D-02
                    CP:  2.85D-01  7.27D-01  1.24D-01  5.91D-01  1.36D-01
                    CP:  3.97D-01
 E= -3417.89917915810     Delta-E=        0.029526537913 Rises=F Damp=F
 DIIS: error= 2.17D-02 at cycle  12 NSaved=  12.
 NSaved=12 IEnMin=11 EnMin= -3417.92870569601     IErMin=11 ErrMin= 2.14D-02
 ErrMax= 2.17D-02  0.00D+00 EMaxC= 1.00D-01 BMatC= 3.98D-01 BMatP= 2.42D-01
 IDIUse=2 WtCom= 0.00D+00 WtEn= 1.00D+00
 Coeff-En:   0.000D+00 0.000D+00 0.000D+00 0.000D+00 0.000D+00 0.000D+00
 Coeff-En:   0.000D+00 0.000D+00 0.000D+00 0.000D+00 0.568D+00 0.432D+00
 Coeff:      0.000D+00 0.000D+00 0.000D+00 0.000D+00 0.000D+00 0.000D+00
 Coeff:      0.000D+00 0.000D+00 0.000D+00 0.000D+00 0.568D+00 0.432D+00
 Gap=     0.129 Goal=   None    Shift=    0.000
 Gap=     0.032 Goal=   None    Shift=    0.000
 RMSDP=8.75D-04 MaxDP=6.23D-02 DE= 2.95D-02 OVMax= 2.17D-01

 Cycle  13  Pass 1  IDiag  1:
 RMSU=  4.69D-04    CP:  8.92D-01 -1.78D-02  7.04D-02  8.61D-02  7.37D-02
                    CP:  2.82D-01  7.38D-01  1.25D-01  5.81D-01  9.68D-02
                    CP:  6.16D-01  4.60D-01
 E= -3417.97674096366     Delta-E=       -0.077561805561 Rises=F Damp=F
 DIIS: error= 1.37D-02 at cycle  13 NSaved=  13.
 NSaved=13 IEnMin=13 EnMin= -3417.97674096366     IErMin=13 ErrMin= 1.37D-02
 ErrMax= 1.37D-02  0.00D+00 EMaxC= 1.00D-01 BMatC= 7.87D-02 BMatP= 2.42D-01
 IDIUse=3 WtCom= 8.63D-01 WtEn= 1.37D-01
 EnCoef did     3 forward-backward iterations
 Coeff-Com:  0.278D-02-0.619D-02 0.120D-03 0.347D-03 0.126D-02 0.497D-02
 Coeff-Com: -0.714D-03 0.122D-02-0.140D-01 0.182D-02 0.355D+00 0.260D+00
 Coeff-Com:  0.393D+00
 Coeff-En:   0.000D+00 0.000D+00 0.000D+00 0.000D+00 0.000D+00 0.000D+00
 Coeff-En:   0.000D+00 0.000D+00 0.000D+00 0.000D+00 0.201D+00 0.922D-01
 Coeff-En:   0.707D+00
 Coeff:      0.240D-02-0.535D-02 0.103D-03 0.299D-03 0.108D-02 0.429D-02
 Coeff:     -0.617D-03 0.106D-02-0.121D-01 0.157D-02 0.334D+00 0.237D+00
 Coeff:      0.436D+00
 Gap=     0.108 Goal=   None    Shift=    0.000
 Gap=     0.032 Goal=   None    Shift=    0.000
 RMSDP=3.32D-04 MaxDP=3.85D-02 DE=-7.76D-02 OVMax= 7.33D-02

 Cycle  14  Pass 1  IDiag  1:
 RMSU=  2.08D-04    CP:  8.92D-01 -1.77D-02  7.23D-02  8.72D-02  7.48D-02
                    CP:  2.92D-01  7.37D-01  1.28D-01  5.61D-01  1.25D-01
                    CP:  6.36D-01  5.76D-01  6.22D-01
 E= -3417.99130454443     Delta-E=       -0.014563580773 Rises=F Damp=F
 DIIS: error= 1.34D-03 at cycle  14 NSaved=  14.
 NSaved=14 IEnMin=14 EnMin= -3417.99130454443     IErMin=14 ErrMin= 1.34D-03
 ErrMax= 1.34D-03  0.00D+00 EMaxC= 1.00D-01 BMatC= 6.82D-03 BMatP= 7.87D-02
 IDIUse=3 WtCom= 9.87D-01 WtEn= 1.34D-02
 Coeff-Com:  0.103D-02-0.212D-02 0.410D-04 0.202D-03-0.231D-03 0.216D-02
 Coeff-Com: -0.432D-02-0.141D-03-0.442D-02-0.159D-02 0.120D+00 0.113D-01
 Coeff-Com:  0.197D+00 0.681D+00
 Coeff-En:   0.000D+00 0.000D+00 0.000D+00 0.000D+00 0.000D+00 0.000D+00
 Coeff-En:   0.000D+00 0.000D+00 0.000D+00 0.000D+00 0.000D+00 0.000D+00
 Coeff-En:   0.307D-01 0.969D+00
 Coeff:      0.102D-02-0.209D-02 0.404D-04 0.199D-03-0.228D-03 0.213D-02
 Coeff:     -0.426D-02-0.139D-03-0.436D-02-0.157D-02 0.119D+00 0.112D-01
 Coeff:      0.195D+00 0.685D+00
 Gap=     0.110 Goal=   None    Shift=    0.000
 Gap=     0.038 Goal=   None    Shift=    0.000
 RMSDP=1.18D-04 MaxDP=9.46D-03 DE=-1.46D-02 OVMax= 1.67D-02

 Cycle  15  Pass 1  IDiag  1:
 RMSU=  9.02D-05    CP:  8.92D-01 -1.76D-02  7.24D-02  8.68D-02  7.48D-02
                    CP:  2.92D-01  7.36D-01  1.28D-01  5.61D-01  1.22D-01
                    CP:  6.46D-01  5.32D-01  7.25D-01  9.44D-01
 E= -3417.99289629754     Delta-E=       -0.001591753103 Rises=F Damp=F
 DIIS: error= 1.18D-03 at cycle  15 NSaved=  15.
 NSaved=15 IEnMin=15 EnMin= -3417.99289629754     IErMin=15 ErrMin= 1.18D-03
 ErrMax= 1.18D-03  0.00D+00 EMaxC= 1.00D-01 BMatC= 1.67D-03 BMatP= 6.82D-03
 IDIUse=3 WtCom= 9.88D-01 WtEn= 1.18D-02
 Coeff-Com: -0.128D-02 0.205D-02-0.131D-03 0.446D-03-0.753D-03 0.147D-02
 Coeff-Com: -0.213D-02-0.195D-03 0.135D-02-0.133D-02 0.242D-01-0.523D-01
 Coeff-Com:  0.452D-01 0.427D+00 0.557D+00
 Coeff-En:   0.000D+00 0.000D+00 0.000D+00 0.000D+00 0.000D+00 0.000D+00
 Coeff-En:   0.000D+00 0.000D+00 0.000D+00 0.000D+00 0.000D+00 0.000D+00
 Coeff-En:   0.000D+00 0.000D+00 0.100D+01
 Coeff:     -0.127D-02 0.202D-02-0.129D-03 0.441D-03-0.744D-03 0.145D-02
 Coeff:     -0.211D-02-0.193D-03 0.133D-02-0.131D-02 0.239D-01-0.517D-01
 Coeff:      0.446D-01 0.422D+00 0.562D+00
 Gap=     0.110 Goal=   None    Shift=    0.000
 Gap=     0.040 Goal=   None    Shift=    0.000
 RMSDP=6.86D-05 MaxDP=8.64D-03 DE=-1.59D-03 OVMax= 2.00D-02

 Cycle  16  Pass 1  IDiag  1:
 RMSU=  4.66D-05    CP:  8.92D-01 -1.78D-02  7.27D-02  8.67D-02  7.50D-02
                    CP:  2.94D-01  7.35D-01  1.29D-01  5.58D-01  1.24D-01
                    CP:  6.43D-01  5.26D-01  7.34D-01  1.16D+00  1.06D+00
 E= -3417.99333682165     Delta-E=       -0.000440524111 Rises=F Damp=F
 DIIS: error= 1.16D-03 at cycle  16 NSaved=  16.
 NSaved=16 IEnMin=16 EnMin= -3417.99333682165     IErMin=16 ErrMin= 1.16D-03
 ErrMax= 1.16D-03  0.00D+00 EMaxC= 1.00D-01 BMatC= 7.61D-04 BMatP= 1.67D-03
 IDIUse=3 WtCom= 9.88D-01 WtEn= 1.16D-02
 Coeff-Com: -0.998D-03 0.168D-02-0.495D-04 0.299D-03-0.100D-02 0.460D-03
 Coeff-Com: -0.109D-02-0.381D-03 0.199D-02-0.690D-03 0.106D-01-0.195D-01
 Coeff-Com:  0.357D-01 0.762D-01 0.255D+00 0.642D+00
 Coeff-En:   0.000D+00 0.000D+00 0.000D+00 0.000D+00 0.000D+00 0.000D+00
 Coeff-En:   0.000D+00 0.000D+00 0.000D+00 0.000D+00 0.000D+00 0.000D+00
 Coeff-En:   0.000D+00 0.000D+00 0.000D+00 0.100D+01
 Coeff:     -0.987D-03 0.166D-02-0.490D-04 0.296D-03-0.991D-03 0.454D-03
 Coeff:     -0.108D-02-0.377D-03 0.197D-02-0.682D-03 0.105D-01-0.193D-01
 Coeff:      0.353D-01 0.753D-01 0.252D+00 0.646D+00
 Gap=     0.111 Goal=   None    Shift=    0.000
 Gap=     0.041 Goal=   None    Shift=    0.000
 RMSDP=3.75D-05 MaxDP=3.90D-03 DE=-4.41D-04 OVMax= 1.24D-02

 Cycle  17  Pass 1  IDiag  1:
 RMSU=  2.34D-05    CP:  8.92D-01 -1.78D-02  7.27D-02  8.70D-02  7.48D-02
                    CP:  2.94D-01  7.35D-01  1.28D-01  5.58D-01  1.23D-01
                    CP:  6.37D-01  5.22D-01  7.53D-01  1.21D+00  1.31D+00
                    CP:  1.17D+00
 E= -3417.99351364019     Delta-E=       -0.000176818545 Rises=F Damp=F
 DIIS: error= 7.07D-04 at cycle  17 NSaved=  17.
 NSaved=17 IEnMin=17 EnMin= -3417.99351364019     IErMin=17 ErrMin= 7.07D-04
 ErrMax= 7.07D-04  0.00D+00 EMaxC= 1.00D-01 BMatC= 3.77D-04 BMatP= 7.61D-04
 IDIUse=3 WtCom= 9.93D-01 WtEn= 7.07D-03
 Coeff-Com: -0.398D-03 0.708D-03-0.216D-04 0.976D-04-0.478D-03 0.226D-03
 Coeff-Com: -0.389D-03-0.524D-04 0.185D-03-0.366D-04-0.215D-03 0.254D-01
 Coeff-Com:  0.464D-01-0.264D+00-0.235D+00 0.251D+00 0.118D+01
 Coeff-En:   0.000D+00 0.000D+00 0.000D+00 0.000D+00 0.000D+00 0.000D+00
 Coeff-En:   0.000D+00 0.000D+00 0.000D+00 0.000D+00 0.000D+00 0.000D+00
 Coeff-En:   0.000D+00 0.000D+00 0.000D+00 0.000D+00 0.100D+01
 Coeff:     -0.396D-03 0.703D-03-0.214D-04 0.969D-04-0.475D-03 0.224D-03
 Coeff:     -0.386D-03-0.520D-04 0.184D-03-0.364D-04-0.213D-03 0.252D-01
 Coeff:      0.461D-01-0.262D+00-0.233D+00 0.249D+00 0.117D+01
 Gap=     0.112 Goal=   None    Shift=    0.000
 Gap=     0.041 Goal=   None    Shift=    0.000
 RMSDP=6.29D-05 MaxDP=6.49D-03 DE=-1.77D-04 OVMax= 3.01D-02

 Cycle  18  Pass 1  IDiag  1:
 RMSU=  2.11D-05    CP:  8.92D-01 -1.79D-02  7.26D-02  8.69D-02  7.45D-02
                    CP:  2.94D-01  7.34D-01  1.28D-01  5.57D-01  1.22D-01
                    CP:  6.20D-01  5.21D-01  7.93D-01  1.29D+00  1.67D+00
                    CP:  1.90D+00  1.67D+00
 E= -3417.99368576949     Delta-E=       -0.000172129297 Rises=F Damp=F
 DIIS: error= 2.05D-04 at cycle  18 NSaved=  18.
 NSaved=18 IEnMin=18 EnMin= -3417.99368576949     IErMin=18 ErrMin= 2.05D-04
 ErrMax= 2.05D-04  0.00D+00 EMaxC= 1.00D-01 BMatC= 7.96D-05 BMatP= 3.77D-04
 IDIUse=3 WtCom= 9.98D-01 WtEn= 2.05D-03
 Coeff-Com:  0.225D-03-0.375D-03-0.190D-04 0.387D-04-0.682D-04 0.346D-04
 Coeff-Com: -0.105D-03-0.912D-05 0.441D-03-0.161D-03 0.211D-02 0.158D-01
 Coeff-Com:  0.227D-01-0.145D+00-0.165D+00-0.141D+00 0.723D+00 0.688D+00
 Coeff-En:   0.000D+00 0.000D+00 0.000D+00 0.000D+00 0.000D+00 0.000D+00
 Coeff-En:   0.000D+00 0.000D+00 0.000D+00 0.000D+00 0.000D+00 0.000D+00
 Coeff-En:   0.000D+00 0.000D+00 0.000D+00 0.000D+00 0.000D+00 0.100D+01
 Coeff:      0.224D-03-0.374D-03-0.190D-04 0.386D-04-0.681D-04 0.345D-04
 Coeff:     -0.105D-03-0.910D-05 0.440D-03-0.160D-03 0.211D-02 0.158D-01
 Coeff:      0.226D-01-0.145D+00-0.165D+00-0.141D+00 0.722D+00 0.689D+00
 Gap=     0.113 Goal=   None    Shift=    0.000
 Gap=     0.042 Goal=   None    Shift=    0.000
 RMSDP=2.77D-05 MaxDP=2.00D-03 DE=-1.72D-04 OVMax= 1.14D-02

 Cycle  19  Pass 1  IDiag  1:
 RMSU=  1.12D-05    CP:  8.92D-01 -1.79D-02  7.25D-02  8.70D-02  7.44D-02
                    CP:  2.94D-01  7.34D-01  1.28D-01  5.58D-01  1.21D-01
                    CP:  6.14D-01  5.20D-01  7.99D-01  1.32D+00  1.86D+00
                    CP:  2.15D+00  2.16D+00  1.04D+00
 E= -3417.99372621420     Delta-E=       -0.000040444712 Rises=F Damp=F
 DIIS: error= 1.73D-04 at cycle  19 NSaved=  19.
 NSaved=19 IEnMin=19 EnMin= -3417.99372621420     IErMin=19 ErrMin= 1.73D-04
 ErrMax= 1.73D-04  0.00D+00 EMaxC= 1.00D-01 BMatC= 2.84D-05 BMatP= 7.96D-05
 IDIUse=3 WtCom= 9.98D-01 WtEn= 1.73D-03
 Coeff-Com:  0.255D-03-0.436D-03-0.154D-04 0.177D-04 0.515D-04 0.171D-04
 Coeff-Com:  0.448D-04-0.234D-04 0.433D-03-0.676D-04 0.229D-02 0.184D-02
 Coeff-Com:  0.454D-02-0.434D-01-0.491D-01-0.119D+00 0.247D+00 0.366D+00
 Coeff-Com:  0.590D+00
 Coeff-En:   0.000D+00 0.000D+00 0.000D+00 0.000D+00 0.000D+00 0.000D+00
 Coeff-En:   0.000D+00 0.000D+00 0.000D+00 0.000D+00 0.000D+00 0.000D+00
 Coeff-En:   0.000D+00 0.000D+00 0.000D+00 0.000D+00 0.000D+00 0.000D+00
 Coeff-En:   0.100D+01
 Coeff:      0.255D-03-0.435D-03-0.154D-04 0.177D-04 0.514D-04 0.171D-04
 Coeff:      0.448D-04-0.234D-04 0.433D-03-0.675D-04 0.228D-02 0.183D-02
 Coeff:      0.454D-02-0.433D-01-0.490D-01-0.119D+00 0.246D+00 0.366D+00
 Coeff:      0.590D+00
 Gap=     0.113 Goal=   None    Shift=    0.000
 Gap=     0.042 Goal=   None    Shift=    0.000
 RMSDP=1.24D-05 MaxDP=1.04D-03 DE=-4.04D-05 OVMax= 5.63D-03

 Cycle  20  Pass 1  IDiag  1:
 RMSU=  6.20D-06    CP:  8.92D-01 -1.79D-02  7.25D-02  8.69D-02  7.45D-02
                    CP:  2.94D-01  7.34D-01  1.28D-01  5.57D-01  1.21D-01
                    CP:  6.11D-01  5.19D-01  8.02D-01  1.33D+00  1.92D+00
                    CP:  2.25D+00  2.31D+00  1.27D+00  1.13D+00
 E= -3417.99373946637     Delta-E=       -0.000013252175 Rises=F Damp=F
 DIIS: error= 1.50D-04 at cycle  20 NSaved=  20.
 NSaved=20 IEnMin=20 EnMin= -3417.99373946637     IErMin=20 ErrMin= 1.50D-04
 ErrMax= 1.50D-04  0.00D+00 EMaxC= 1.00D-01 BMatC= 1.71D-05 BMatP= 2.84D-05
 IDIUse=3 WtCom= 9.98D-01 WtEn= 1.50D-03
 Coeff-Com:  0.196D-03-0.337D-03-0.170D-05 0.422D-05 0.441D-04-0.761D-04
 Coeff-Com:  0.264D-03-0.560D-04 0.291D-03-0.364D-04 0.344D-02-0.658D-02
 Coeff-Com: -0.788D-02 0.271D-01 0.299D-01 0.112D-01-0.122D+00-0.155D+00
 Coeff-Com:  0.324D+00 0.896D+00
 Coeff-En:   0.000D+00 0.000D+00 0.000D+00 0.000D+00 0.000D+00 0.000D+00
 Coeff-En:   0.000D+00 0.000D+00 0.000D+00 0.000D+00 0.000D+00 0.000D+00
 Coeff-En:   0.000D+00 0.000D+00 0.000D+00 0.000D+00 0.000D+00 0.000D+00
 Coeff-En:   0.000D+00 0.100D+01
 Coeff:      0.196D-03-0.336D-03-0.170D-05 0.421D-05 0.440D-04-0.760D-04
 Coeff:      0.264D-03-0.559D-04 0.291D-03-0.364D-04 0.343D-02-0.657D-02
 Coeff:     -0.787D-02 0.271D-01 0.299D-01 0.112D-01-0.122D+00-0.155D+00
 Coeff:      0.324D+00 0.896D+00
 Gap=     0.113 Goal=   None    Shift=    0.000
 Gap=     0.042 Goal=   None    Shift=    0.000
 RMSDP=1.45D-05 MaxDP=1.25D-03 DE=-1.33D-05 OVMax= 6.64D-03

 Cycle  21  Pass 1  IDiag  1:
 Restarting incremental Fock formation.
 E= -3417.99375095424     Delta-E=       -0.000011487863 Rises=F Damp=F
 DIIS: error= 1.33D-04 at cycle  21 NSaved=  20.
 NSaved=20 IEnMin=20 EnMin= -3417.99375095424     IErMin=20 ErrMin= 1.33D-04
 ErrMax= 1.33D-04  0.00D+00 EMaxC= 1.00D-01 BMatC= 1.02D-05 BMatP= 1.71D-05
 IDIUse=3 WtCom= 9.99D-01 WtEn= 1.33D-03
 Coeff-Com: -0.477D-04 0.844D-04 0.852D-05 0.169D-04-0.234D-04 0.305D-03
 Coeff-Com: -0.257D-04-0.119D-03-0.330D-04 0.138D-02-0.598D-02-0.832D-02
 Coeff-Com:  0.254D-01 0.258D-01 0.106D+00-0.185D+00-0.408D+00-0.180D+00
 Coeff-Com:  0.642D+00 0.987D+00
 Coeff-En:   0.000D+00 0.000D+00 0.000D+00 0.000D+00 0.000D+00 0.000D+00
 Coeff-En:   0.000D+00 0.000D+00 0.000D+00 0.000D+00 0.000D+00 0.000D+00
 Coeff-En:   0.000D+00 0.000D+00 0.000D+00 0.000D+00 0.000D+00 0.000D+00
 Coeff-En:   0.000D+00 0.100D+01
 Coeff:     -0.476D-04 0.842D-04 0.851D-05 0.169D-04-0.234D-04 0.305D-03
 Coeff:     -0.257D-04-0.119D-03-0.330D-04 0.138D-02-0.597D-02-0.831D-02
 Coeff:      0.254D-01 0.258D-01 0.106D+00-0.185D+00-0.408D+00-0.180D+00
 Coeff:      0.641D+00 0.987D+00
 Gap=     0.113 Goal=   None    Shift=    0.000
 Gap=     0.042 Goal=   None    Shift=    0.000
 RMSDP=2.01D-05 MaxDP=1.78D-03 DE=-1.15D-05 OVMax= 1.01D-02

 Cycle  22  Pass 1  IDiag  1:
 RMSU=  2.01D-05    CP:  1.00D+00
 E= -3417.99376084279     Delta-E=       -0.000009888552 Rises=F Damp=F
 DIIS: error= 2.12D-05 at cycle  22 NSaved=  20.
 NSaved=20 IEnMin=20 EnMin= -3417.99376084279     IErMin=20 ErrMin= 2.12D-05
 ErrMax= 2.12D-05  0.00D+00 EMaxC= 1.00D-01 BMatC= 2.57D-06 BMatP= 1.02D-05
 IDIUse=1 WtCom= 1.00D+00 WtEn= 0.00D+00
 Coeff-Com: -0.479D-04 0.808D-04-0.165D-04-0.107D-04 0.118D-03-0.715D-05
 Coeff-Com: -0.826D-04-0.693D-05 0.118D-02-0.207D-02-0.982D-03 0.127D-01
 Coeff-Com:  0.338D-02 0.299D-01-0.740D-01-0.179D+00-0.156D+00 0.479D-01
 Coeff-Com:  0.557D+00 0.760D+00
 Coeff:     -0.479D-04 0.808D-04-0.165D-04-0.107D-04 0.118D-03-0.715D-05
 Coeff:     -0.826D-04-0.693D-05 0.118D-02-0.207D-02-0.982D-03 0.127D-01
 Coeff:      0.338D-02 0.299D-01-0.740D-01-0.179D+00-0.156D+00 0.479D-01
 Coeff:      0.557D+00 0.760D+00
 Gap=     0.113 Goal=   None    Shift=    0.000
 Gap=     0.042 Goal=   None    Shift=    0.000
 RMSDP=1.09D-05 MaxDP=9.06D-04 DE=-9.89D-06 OVMax= 5.31D-03

 Cycle  23  Pass 1  IDiag  1:
 RMSU=  2.62D-06    CP:  1.00D+00  1.52D+00
 E= -3417.99376341648     Delta-E=       -0.000002573692 Rises=F Damp=F
 DIIS: error= 2.45D-05 at cycle  23 NSaved=  20.
 NSaved=20 IEnMin=20 EnMin= -3417.99376341648     IErMin=19 ErrMin= 2.12D-05
 ErrMax= 2.45D-05  0.00D+00 EMaxC= 1.00D-01 BMatC= 8.16D-07 BMatP= 2.57D-06
 IDIUse=1 WtCom= 1.00D+00 WtEn= 0.00D+00
 Coeff-Com: -0.187D-04 0.313D-04-0.420D-07-0.117D-04-0.957D-05-0.334D-04
 Coeff-Com:  0.112D-04 0.993D-03-0.391D-03 0.142D-02 0.589D-02-0.129D-02
 Coeff-Com: -0.111D-01-0.196D-01-0.435D-01-0.484D-01-0.854D-01 0.168D+00
 Coeff-Com:  0.431D+00 0.602D+00
 Coeff:     -0.187D-04 0.313D-04-0.420D-07-0.117D-04-0.957D-05-0.334D-04
 Coeff:      0.112D-04 0.993D-03-0.391D-03 0.142D-02 0.589D-02-0.129D-02
 Coeff:     -0.111D-01-0.196D-01-0.435D-01-0.484D-01-0.854D-01 0.168D+00
 Coeff:      0.431D+00 0.602D+00
 Gap=     0.113 Goal=   None    Shift=    0.000
 Gap=     0.042 Goal=   None    Shift=    0.000
 RMSDP=4.21D-06 MaxDP=3.30D-04 DE=-2.57D-06 OVMax= 1.91D-03

 Cycle  24  Pass 1  IDiag  1:
 RMSU=  1.25D-06    CP:  1.00D+00  1.72D+00  1.17D+00
 E= -3417.99376397492     Delta-E=       -0.000000558439 Rises=F Damp=F
 DIIS: error= 7.84D-06 at cycle  24 NSaved=  20.
 NSaved=20 IEnMin=20 EnMin= -3417.99376397492     IErMin=20 ErrMin= 7.84D-06
 ErrMax= 7.84D-06  0.00D+00 EMaxC= 1.00D-01 BMatC= 1.89D-07 BMatP= 8.16D-07
 IDIUse=1 WtCom= 1.00D+00 WtEn= 0.00D+00
 Coeff-Com: -0.170D-05 0.493D-05-0.504D-04-0.542D-05 0.478D-04-0.392D-05
 Coeff-Com:  0.373D-03 0.205D-03 0.129D-02-0.521D-04 0.184D-02-0.159D-01
 Coeff-Com:  0.161D-01 0.313D-01 0.357D-01-0.526D-01-0.107D+00-0.129D+00
 Coeff-Com:  0.270D+00 0.949D+00
 Coeff:     -0.170D-05 0.493D-05-0.504D-04-0.542D-05 0.478D-04-0.392D-05
 Coeff:      0.373D-03 0.205D-03 0.129D-02-0.521D-04 0.184D-02-0.159D-01
 Coeff:      0.161D-01 0.313D-01 0.357D-01-0.526D-01-0.107D+00-0.129D+00
 Coeff:      0.270D+00 0.949D+00
 Gap=     0.113 Goal=   None    Shift=    0.000
 Gap=     0.042 Goal=   None    Shift=    0.000
 RMSDP=2.66D-06 MaxDP=1.90D-04 DE=-5.58D-07 OVMax= 1.25D-03

 Cycle  25  Pass 1  IDiag  1:
 RMSU=  1.07D-06    CP:  1.00D+00  1.84D+00  1.40D+00  1.25D+00
 E= -3417.99376420634     Delta-E=       -0.000000231418 Rises=F Damp=F
 DIIS: error= 4.49D-06 at cycle  25 NSaved=  20.
 NSaved=20 IEnMin=20 EnMin= -3417.99376420634     IErMin=20 ErrMin= 4.49D-06
 ErrMax= 4.49D-06  0.00D+00 EMaxC= 1.00D-01 BMatC= 7.03D-08 BMatP= 1.89D-07
 IDIUse=1 WtCom= 1.00D+00 WtEn= 0.00D+00
 Coeff-Com:  0.814D-05-0.219D-04 0.967D-06 0.388D-04-0.101D-04-0.701D-04
 Coeff-Com:  0.208D-03 0.431D-03-0.288D-02 0.298D-03-0.532D-02 0.191D-01
 Coeff-Com:  0.291D-01 0.360D-01-0.724D-02-0.107D+00-0.191D+00-0.580D-01
 Coeff-Com:  0.533D+00 0.753D+00
 Coeff:      0.814D-05-0.219D-04 0.967D-06 0.388D-04-0.101D-04-0.701D-04
 Coeff:      0.208D-03 0.431D-03-0.288D-02 0.298D-03-0.532D-02 0.191D-01
 Coeff:      0.291D-01 0.360D-01-0.724D-02-0.107D+00-0.191D+00-0.580D-01
 Coeff:      0.533D+00 0.753D+00
 Gap=     0.113 Goal=   None    Shift=    0.000
 Gap=     0.042 Goal=   None    Shift=    0.000
 RMSDP=1.25D-06 MaxDP=7.58D-05 DE=-2.31D-07 OVMax= 5.46D-04

 Cycle  26  Pass 1  IDiag  1:
 RMSU=  4.97D-07    CP:  1.00D+00  1.89D+00  1.50D+00  1.59D+00  1.37D+00
 E= -3417.99376428653     Delta-E=       -0.000000080189 Rises=F Damp=F
 DIIS: error= 2.52D-06 at cycle  26 NSaved=  20.
 NSaved=20 IEnMin=20 EnMin= -3417.99376428653     IErMin=20 ErrMin= 2.52D-06
 ErrMax= 2.52D-06  0.00D+00 EMaxC= 1.00D-01 BMatC= 3.00D-08 BMatP= 7.03D-08
 IDIUse=1 WtCom= 1.00D+00 WtEn= 0.00D+00
 Coeff-Com:  0.116D-04 0.121D-05 0.986D-05-0.559D-05-0.108D-03-0.390D-04
 Coeff-Com: -0.465D-03-0.142D-02-0.625D-03 0.610D-02 0.228D-02-0.117D-02
 Coeff-Com:  0.564D-02 0.287D-01-0.160D-01-0.596D-01-0.214D+00-0.160D+00
 Coeff-Com:  0.536D+00 0.874D+00
 Coeff:      0.116D-04 0.121D-05 0.986D-05-0.559D-05-0.108D-03-0.390D-04
 Coeff:     -0.465D-03-0.142D-02-0.625D-03 0.610D-02 0.228D-02-0.117D-02
 Coeff:      0.564D-02 0.287D-01-0.160D-01-0.596D-01-0.214D+00-0.160D+00
 Coeff:      0.536D+00 0.874D+00
 Gap=     0.113 Goal=   None    Shift=    0.000
 Gap=     0.042 Goal=   None    Shift=    0.000
 RMSDP=1.20D-06 MaxDP=7.69D-05 DE=-8.02D-08 OVMax= 5.08D-04

 Cycle  27  Pass 1  IDiag  1:
 RMSU=  3.27D-07    CP:  1.00D+00  1.93D+00  1.60D+00  1.82D+00  1.89D+00
                    CP:  1.36D+00
 E= -3417.99376433057     Delta-E=       -0.000000044046 Rises=F Damp=F
 DIIS: error= 2.54D-06 at cycle  27 NSaved=  20.
 NSaved=20 IEnMin=20 EnMin= -3417.99376433057     IErMin=19 ErrMin= 2.52D-06
 ErrMax= 2.54D-06  0.00D+00 EMaxC= 1.00D-01 BMatC= 8.07D-09 BMatP= 3.00D-08
 IDIUse=1 WtCom= 1.00D+00 WtEn= 0.00D+00
 Coeff-Com:  0.124D-04-0.725D-05 0.469D-06-0.333D-04-0.983D-04-0.316D-03
 Coeff-Com: -0.933D-04-0.826D-03 0.436D-02-0.348D-02-0.813D-02-0.553D-02
 Coeff-Com:  0.173D-01 0.172D-01 0.257D-01-0.906D-01-0.218D+00 0.693D-01
 Coeff-Com:  0.442D+00 0.752D+00
 Coeff:      0.124D-04-0.725D-05 0.469D-06-0.333D-04-0.983D-04-0.316D-03
 Coeff:     -0.933D-04-0.826D-03 0.436D-02-0.348D-02-0.813D-02-0.553D-02
 Coeff:      0.173D-01 0.172D-01 0.257D-01-0.906D-01-0.218D+00 0.693D-01
 Coeff:      0.442D+00 0.752D+00
 Gap=     0.113 Goal=   None    Shift=    0.000
 Gap=     0.042 Goal=   None    Shift=    0.000
 RMSDP=4.19D-07 MaxDP=2.69D-05 DE=-4.40D-08 OVMax= 1.73D-04

 Cycle  28  Pass 1  IDiag  1:
 RMSU=  1.81D-07    CP:  1.00D+00  1.94D+00  1.64D+00  1.92D+00  2.05D+00
                    CP:  1.64D+00  1.23D+00
 E= -3417.99376433911     Delta-E=       -0.000000008533 Rises=F Damp=F
 DIIS: error= 2.23D-06 at cycle  28 NSaved=  20.
 NSaved=20 IEnMin=20 EnMin= -3417.99376433911     IErMin=20 ErrMin= 2.23D-06
 ErrMax= 2.23D-06  0.00D+00 EMaxC= 1.00D-01 BMatC= 3.61D-09 BMatP= 8.07D-09
 IDIUse=1 WtCom= 1.00D+00 WtEn= 0.00D+00
 Coeff-Com:  0.780D-05-0.519D-05 0.286D-04-0.226D-04-0.183D-04 0.297D-03
 Coeff-Com: -0.612D-03-0.250D-03-0.221D-02-0.248D-02-0.398D-02-0.180D-02
 Coeff-Com:  0.103D-01 0.402D-01 0.359D-01-0.620D-01-0.200D+00-0.105D+00
 Coeff-Com:  0.449D+00 0.843D+00
 Coeff:      0.780D-05-0.519D-05 0.286D-04-0.226D-04-0.183D-04 0.297D-03
 Coeff:     -0.612D-03-0.250D-03-0.221D-02-0.248D-02-0.398D-02-0.180D-02
 Coeff:      0.103D-01 0.402D-01 0.359D-01-0.620D-01-0.200D+00-0.105D+00
 Coeff:      0.449D+00 0.843D+00
 Gap=     0.113 Goal=   None    Shift=    0.000
 Gap=     0.042 Goal=   None    Shift=    0.000
 RMSDP=3.38D-07 MaxDP=2.50D-05 DE=-8.53D-09 OVMax= 1.44D-04

 Cycle  29  Pass 1  IDiag  1:
 RMSU=  1.08D-07    CP:  1.00D+00  1.96D+00  1.66D+00  1.98D+00  2.17D+00
                    CP:  1.83D+00  1.61D+00  1.42D+00
 E= -3417.99376434268     Delta-E=       -0.000000003576 Rises=F Damp=F
 DIIS: error= 1.06D-06 at cycle  29 NSaved=  20.
 NSaved=20 IEnMin=20 EnMin= -3417.99376434268     IErMin=20 ErrMin= 1.06D-06
 ErrMax= 1.06D-06  0.00D+00 EMaxC= 1.00D-01 BMatC= 8.10D-10 BMatP= 3.61D-09
 IDIUse=1 WtCom= 1.00D+00 WtEn= 0.00D+00
 Coeff-Com: -0.172D-05 0.270D-04-0.818D-05 0.565D-04 0.211D-03-0.525D-04
 Coeff-Com: -0.956D-03-0.513D-03 0.748D-03-0.669D-03-0.421D-02-0.115D-03
 Coeff-Com:  0.143D-01 0.366D-01 0.213D-01-0.117D+00-0.142D+00 0.368D-01
 Coeff-Com:  0.370D+00 0.785D+00
[...]
 -0.00000148,-0.00000148,-0.00000110,0.00000024,-0.00000123,-0.00000117
 ,0.00000069,-0.00000088,-0.00000117,0.00000099,-0.00000071,-0.00000060
 ,0.00000037,-0.00000110,-0.00000139,0.00000167,-0.00000219,-0.00000273
 ,-0.00000331,-0.00000225,-0.00000546,-0.00000618,0.00000568,0.00000061
 ,0.00000358,-0.00000282,0.00000724,0.00000555,-0.00004136,0.00006810,-
 0.00003175,0.00045677,-0.00008676,-0.00013133,0.00021975,-0.00034784,-
 0.00030106,-0.10905410,0.08681109,0.29220594,0.00001205,-0.00005471,0.
 00000110,-0.00006752,0.00002855,-0.00006065,0.00000987,0.00000036,0.00
 001260,-0.00000998,0.00001667,0.00001097,0.00004364,-0.00002314,-0.000
 00159,-0.00001386,0.00001084,-0.00003510,-0.00001394,0.00001492,0.0000
 1332,-0.00000819,-0.00000099,-0.00000750,0.00000797,0.00000099,0.00000
 441,-0.00001317,-0.00000244,-0.00001824,0.00000792,0.00000761,0.000016
 48,0.00000171,0.00000127,0.00000088,-0.00001487,0.00000686,-0.00000359
 ,0.00000701,-0.00000478,-0.00000068,0.00000761,0.00000120,-0.00000703,
 -0.00000025,0.00003218,-0.00000773,0.00001981,0.00001136,0.00003479,-0
 .00004339,-0.00001066,-0.00000892,0.00018737,-0.00001752,0.00014926,0.
 00048564,-0.00076660,-0.00026971,-0.00042302,0.00008658,-0.00020319,0.
 00001063,-0.00014589,0.00010803,0.00001344,-0.00000517,0.00008424,-0.0
 0009209,0.00008668,-0.00041002,-0.00062388,-0.00030494,0.00005531,-0.0
 0177623,0.00067985,0.00463007,0.00256481,0.02237475,0.00085434,-0.0004
 6057,0.00041144,-0.00167196,0.00031427,0.00002073,-0.00010123,-0.00005
 221,-0.00001717,0.00014621,0.00010980,-0.00007613,-0.00028376,0.000022
 19,-0.00002082,-0.00009538,-0.00009624,-0.00050248,-0.00011661,0.00003
 124,0.00015728,0.00001888,-0.00096127,0.00008328,0.00082743,-0.0534911
 5,0.02983734,0.01188726,0.00570111,-0.02219177,-0.00097305,0.00012404,
 -0.00170770,0.00605070,-0.00000719,-0.00000119,0.00000334,-0.00000284,
 -0.00000119,0.00000208,-0.00000523,-0.00000269,-0.00000045,-0.00000271
 ,-0.00000245,0.00000103,-0.00000069,-0.00000062,0.00000080,-0.00000682
 ,-0.00000134,0.00000471,-0.00001034,-0.00000969,-0.00000874,-0.0000049
 9,-0.00001112,0.00000580,0.00001156,-0.00000005,-0.00000804,0.00002111
 ,-0.00005887,0.00001492,0.00011638,0.00121048,0.00017225,0.00000283,0.
 00000302,-0.00013199,0.00002678,-0.00001795,-0.00003467,-0.00174982,-0
 .00094820,-0.00002028,0.05116846,0.00040195,-0.00014671,0.00053101,-0.
 00015388,-0.00007033,-0.00062502,0.00022591,-0.00003045,-0.00012147,-0
 .00010823,0.00006851,-0.00029049,0.00006644,-0.00004002,0.00024177,-0.
 00007458,0.00003437,-0.00031284,-0.00006809,0.00005442,0.00016967,0.00
 004473,-0.00002826,0.00002982,-0.00004214,0.00003310,-0.00001482,0.000
 04061,0.00003600,0.00007475,-0.00002762,-0.00002580,-0.00006744,-0.000
 02906,0.00001679,-0.00002354,0.00003672,-0.00008863,-0.00001199,-0.000
 03599,0.00006705,0.00002024,-0.00003016,0.00002375,-0.00005072,0.00003
 388,-0.00000726,0.00003608,-0.00004019,0.00005478,0.00001724,0.0000902
 1,0.00003874,-0.00002725,-0.00019674,0.00000719,0.00054689,0.00018746,
 0.00000188,-0.00022428,-0.00033513,-0.00070317,0.00010882,0.00029801,0
 .00036038,-0.00025165,0.00018687,-0.00005505,-0.00003539,-0.00002500,-
 0.00026456,0.00003059,0.00004496,0.00085428,0.00011510,0.00173723,0.00
 046727,-0.00132501,-0.00066753,-0.00844728,0.00021712,-0.00090789,-0.0
 0055319,0.00066442,0.00015688,0.00019921,-0.00028762,-0.00010421,-0.00
 019752,-0.00010843,-0.00001532,0.00006646,0.00014565,-0.00001246,-0.00
 001168,0.00013766,0.00017490,0.00049129,0.00016753,-0.00007177,-0.0000
 8366,-0.00008236,-0.00143524,-0.00016585,-0.00014379,0.02957668,-0.333
 34785,-0.02008810,0.00324975,-0.01440442,-0.00239198,-0.00256324,0.000
 29843,0.00186942,0.00001155,-0.00001103,0.00000777,-0.00002417,-0.0000
 0027,0.00000026,-0.00001383,-0.00000025,0.00000658,0.00000137,-0.00000
 377,0.00001051,-0.00000094,-0.00000079,0.00000065,0.00000450,-0.000009
 14,0.00000174,-0.00001126,-0.00000739,-0.00002509,0.00000158,-0.000003
 55,-0.00002438,0.00000790,-0.00001230,-0.00000379,-0.00000349,0.000003
 76,-0.00001044,-0.00012538,-0.00044240,-0.00001805,-0.00000197,0.00000
 066,0.00006016,0.00000533,0.00000786,0.00004396,-0.00088659,0.00017153
 ,0.00069583,-0.02847190,0.35475057,-0.00006420,-0.00000244,-0.00008143
 ,0.00003777,0.00003433,0.00004116,-0.00005772,0.00000421,0.00001089,0.
 00002141,-0.00001494,0.00005224,0.00002473,-0.00001698,-0.00003665,0.0
 0001900,-0.00001514,0.00002408,-0.00000282,0.00000101,-0.00001575,0.00
 000123,-0.00000072,0.00000105,0.00000259,0.00000045,-0.00000532,-0.000
 00328,0.00000113,0.00000045,0.00000144,-0.00000070,-0.00000205,0.00000
 106,-0.00000059,-0.00000297,-0.00000651,0.00001121,0.00000635,0.000005
 86,-0.00001085,-0.00000605,0.00000453,0.00000117,0.00000420,0.00000307
 ,0.00001654,-0.00000430,-0.00000460,0.00001053,0.00003996,-0.00003872,
 -0.00007736,-0.00001824,0.00007859,0.00001688,0.00021039,-0.00031409,0
 .00020484,0.00032494,-0.00039134,0.00036083,-0.00038092,0.00003343,0.0
 0007025,-0.00005181,0.00026391,0.00002811,-0.00011638,-0.00040469,-0.0
 0026762,-0.00031700,0.00012367,0.00041395,-0.00073719,0.00480517,-0.00
 074220,0.00115602,0.00182976,-0.01654835,0.00161083,-0.00226918,-0.001
 16834,-0.00080670,0.00036246,0.00014757,-0.00050554,-0.00013602,-0.000
 49016,-0.00001075,-0.00002501,0.00007296,0.00007768,-0.00007145,0.0002
 7116,0.00030544,0.00033911,0.00044882,-0.00046128,-0.00005251,-0.00016
 359,-0.00006280,-0.00035590,0.00021801,0.00036662,0.01138922,-0.018921
 75,-0.04625212,-0.00106698,0.01528210,0.00542609,0.00597195,0.00141461
 ,0.00446462,-0.00000003,0.00000469,-0.00000466,0.00000751,0.00000234,-
 0.00000104,0.00000547,0.00000093,-0.00000076,-0.00000245,-0.00000293,0
 .00000086,-0.00000116,-0.00000068,0.00000069,-0.00000037,0.00000003,0.
 00000143,-0.00000917,-0.00000484,-0.00000657,-0.00001172,-0.00002068,-
 0.00001305,0.00000176,-0.00000284,0.00000778,0.00001323,0.00004965,0.0
 0004301,0.00023768,-0.00093887,0.00019616,-0.00002814,0.00001038,0.000
 03177,0.00004595,-0.00001807,0.00003867,0.00026108,-0.00015081,0.00043
 356,-0.01756815,0.02060093,0.03812296,-0.00026107,0.00026093,-0.000215
 12,0.00016705,-0.00032701,0.00015262,0.00002303,0.00011490,-0.00003726
 ,0.00007376,0.00000725,0.00012753,0.00020064,-0.00018584,-0.00018105,-
 0.00004704,0.00008187,-0.00019760,-0.00003559,0.00001312,0.00009268,-0
 .00003227,0.00002828,-0.00002704,0.00001000,-0.00000140,0.00002042,-0.
 00001222,0.00000979,-0.00000787,0.00000449,0.00000037,0.00000560,0.000
 00516,-0.00000461,0.00000292,-0.00001866,0.00001287,-0.00000385,0.0000
 0797,-0.00001428,-0.00000384,0.00001857,-0.00001604,-0.00000171,0.0000
 5053,0.00005429,0.00009172,-0.00024053,-0.00016843,0.00027013,-0.00219
 900,-0.00163671,-0.00023629,-0.00052924,-0.00129055,0.00067643,-0.0011
 8041,-0.00019046,-0.00094880,-0.00039553,-0.00003130,-0.00000997,0.000
 22531,0.00018251,-0.00017567,0.00021851,-0.00002420,-0.00022975,-0.000
 05533,-0.00029647,0.00020833,0.00232539,0.00017407,0.00155950,0.000121
 54,-0.00082877,-0.00053885,0.00167060,-0.00272727,0.00454755,-0.000294
 75,0.00061557,0.00038532,-0.00022667,-0.00015464,-0.00001466,0.0000359
 0,-0.00001483,0.00000410,-0.00003033,-0.00001121,0.00006525,-0.0000163
 3,-0.00001790,0.00000205,0.00003714,0.00007251,0.00006297,-0.00003113,
 -0.00009497,-0.00004358,-0.00003811,-0.00004081,0.00002678,-0.00979766
 ,0.00978704,0.01120152,-0.20465288,0.08803653,0.12147981,0.00215498,-0
 .00002012,0.00124949,0.00000088,-0.00000279,-0.00001784,0.00000360,-0.
 00000358,-0.00000680,0.00000649,-0.00000322,-0.00000051,-0.00000303,-0
 .00000231,-0.00000341,0.00000088,0.00000028,0.00000003,0.00000021,0.00
 000506,-0.00000154,-0.00000485,-0.00001279,0.00000382,0.00001745,0.000
 05136,-0.00002144,0.00000356,0.00001741,0.00001513,0.00003151,0.000001
 54,0.00003530,-0.00036301,0.00003671,-0.00035509,-0.00001093,0.0000047
 4,-0.00002169,-0.00000508,0.00000111,-0.00000337,-0.00003990,-0.000008
 43,0.00002189,-0.00108778,-0.00005506,-0.00302079,0.21416675,0.0010057
 5,-0.00043413,0.00132755,-0.00047313,-0.00034003,-0.00134892,0.0006747
 8,-0.00002842,-0.00025695,-0.00027002,0.00002946,-0.00103671,0.0000597
 6,0.00002146,0.00078908,-0.00022494,0.00004393,-0.00091171,-0.00019853
 ,0.00011799,0.00052677,0.00005365,-0.00001176,0.00001769,-0.00007790,0
 .00006037,-0.00000234,0.00007263,0.00008479,0.00014219,-0.00005382,-0.
 00005928,-0.00013513,-0.00004949,0.00001826,-0.00004283,0.00006028,-0.
 00014407,-0.00001290,-0.00005872,0.00009514,0.00002764,-0.00004126,0.0
 0001915,-0.00007846,0.00010474,-0.00000942,0.00020730,-0.00016009,0.00
 014411,-0.00011286,-0.00083761,0.00008641,-0.00044766,-0.00090422,-0.0
 0049060,0.00241641,-0.00035600,0.00283054,-0.00022175,-0.00031522,-0.0
 0191758,-0.00017301,0.00099565,0.00174883,-0.00074051,0.00089062,-0.00
 023805,-0.00032342,0.00111054,-0.00117795,-0.00071668,-0.00101381,-0.0
 0436335,0.00053621,-0.00064060,-0.00185589,0.00044704,-0.00278473,-0.0
 0119178,0.00173901,-0.00038772,0.00068982,0.00033266,-0.00018270,-0.00
 032222,0.00012561,0.00012315,0.00003215,-0.00017609,-0.00010816,0.0000
 2153,0.00019462,-0.00006919,-0.00008135,0.00002398,0.00009049,0.000219
 01,0.00012082,-0.00007196,-0.00022794,-0.00009491,-0.00005001,-0.00002
 554,0.00011660,-0.01515797,0.01116483,0.01105946,0.08686941,-0.1066531
 3,-0.06367632,0.02345093,-0.00823838,-0.01675356,0.00004933,-0.0000215
 7,-0.00001406,-0.00002289,-0.00000920,-0.00001292,0.00000412,-0.000000
 26,0.00000969,-0.00000005,-0.00000657,0.00000625,0.00000199,0.00000031
 ,-0.00000112,0.00002350,-0.00000445,-0.00000874,0.00000373,-0.00001255
 ,-0.00002532,-0.00002345,-0.00002697,-0.00012307,0.00001535,-0.0000045
 5,-0.00001127,-0.00001284,-0.00047014,-0.00005609,0.00002790,0.0000529
 2,-0.00001428,0.00001717,0.00001312,-0.00001823,0.00000275,-0.00000216
 ,-0.00000013,-0.00001392,0.00002297,-0.00003011,0.00028285,0.00101952,
 -0.00012334,-0.09132064,0.10976434,-0.00048296,0.00020366,-0.00035298,
 0.00054841,0.00032912,0.00059227,-0.00008856,-0.00006255,-0.00006214,0
 .00009991,-0.00008096,0.00011473,-0.00012341,0.00018291,0.00007369,0.0
 0004273,-0.00006597,0.00000203,-0.00003094,0.00000368,-0.00005143,-0.0
 0003099,0.00001476,-0.00003321,0.00002005,-0.00000365,0.00001331,-0.00
 002542,-0.00000230,-0.00003457,0.00001492,0.00001179,0.00002931,0.0000
 0851,-0.00000227,0.00000560,-0.00003263,0.00002805,-0.00000476,0.00001
 824,-0.00002484,-0.00000736,0.00002508,-0.00001061,0.00000549,-0.00006
 694,0.00013822,-0.00008260,-0.00008878,-0.00004785,-0.00014285,0.00037
 193,0.00033068,0.00006388,0.00079920,0.00095800,-0.00024984,-0.0002837
 0,0.00029946,-0.00200397,-0.00038600,-0.00005028,-0.00008711,0.0000759
 0,-0.00003646,-0.00004198,-0.00003785,0.00000907,-0.00012488,0.0000570
 8,0.00010756,-0.00003767,0.00188794,-0.00014812,0.00330109,-0.00069680
 ,-0.00005879,-0.00003455,0.00463916,0.00252469,0.00499774,0.00028570,-
 0.00060077,0.00005238,0.00001943,0.00020024,-0.00012018,-0.00010856,-0
 .00009360,0.00003211,0.00005343,-0.00000641,-0.00005938,0.00003405,0.0
 0004252,-0.00000612,-0.00003006,-0.00005543,0.00001645,0.00002049,0.00
 006280,0.00002008,-0.00005068,0.00000891,-0.00009755,0.01077367,-0.006
 53120,-0.00301612,0.12087545,-0.06402504,-0.12568959,0.00128151,-0.000
 72745,0.00278846,0.00000137,0.00000291,-0.00000838,-0.00000521,-0.0000
 0752,-0.00001362,0.00001143,0.00000277,-0.00000447,-0.00000676,-0.0000
 0604,-0.00000246,-0.00000063,-0.00000109,0.00000120,-0.00000852,0.0000
 0373,0.00000539,-0.00000794,-0.00002004,-0.00000427,0.00005034,-0.0000
 6573,-0.00004688,0.00001458,-0.00000007,0.00003368,0.00007405,-0.00001
 334,0.00012924,-0.00041087,-0.00001369,-0.00064394,-0.00000754,-0.0000
 3153,-0.00000865,-0.00000608,0.00000308,-0.00000132,-0.00002212,-0.000
 02665,0.00006554,-0.00302628,-0.00000229,-0.00315202,-0.13608914,0.067
 45396,0.12378327,0.00315524,-0.00877964,0.00147135,-0.00502546,0.00843
 149,-0.00359599,-0.00010194,0.00006606,-0.00122413,-0.00099470,0.00038
 353,-0.00131552,0.00047504,-0.00031125,0.00112000,-0.00057836,0.000216
 11,-0.00149698,-0.00027445,0.00021259,0.00099585,0.00001168,0.00001165
 ,0.00000234,-0.00009107,0.00007324,0.00003519,0.00006540,0.00012491,0.
 00015883,-0.00006195,-0.00007335,-0.00015330,-0.00006149,0.00001765,-0
 .00005111,0.00005538,-0.00017589,-0.00003436,-0.00006986,0.00011588,0.
 00003937,-0.00003814,0.00000990,-0.00011896,0.00025369,-0.00017345,0.0
 0023993,-0.00029370,0.00005410,0.00005980,-0.00024968,0.00046418,-0.00
 047491,0.00030817,0.00090725,0.00192473,-0.00033695,0.00114118,0.00071
 685,-0.00144109,-0.00196381,0.00453138,0.00023224,-0.00013417,-0.01471
 510,-0.00054569,-0.00142550,0.00058330,-0.00075397,-0.00090173,0.00031
 088,0.00008387,0.00090034,-0.00014789,-0.00023683,-0.00115261,0.000120
 70,-0.00030222,0.00067794,0.00023805,0.00006498,0.00004731,-0.00002042
 ,-0.00004512,-0.00011463,0.00002682,0.00005305,-0.00001244,-0.00018399
 ,-0.00006469,0.00002753,0.00012898,-0.00005834,-0.00005983,0.00002617,
 0.00007638,0.00016976,0.00011096,-0.00005771,-0.00016101,-0.00007408,-
 0.00009481,-0.00000807,0.00007967,0.00014689,0.00018334,-0.00020766,-0
 .00026430,-0.00008332,0.00012952,0.00025993,-0.00030336,0.00014801,0.0
 0018644,0.00007430,0.00010488,-0.00005771,0.00011508,-0.00003275,-0.00
 002661,0.00001224,0.00000940,0.00000873,-0.00000063,0.00000167,0.00000
 525,0.00000298,-0.00000367,0.00002879,-0.00000471,-0.00001100,0.000010
 26,0.00001260,-0.00004474,-0.00000343,0.00003522,-0.00010825,0.0002287
 3,0.00011765,0.00005055,-0.00008110,-0.00006698,0.00013223,-0.00002189
 ,0.00001104,0.00002117,0.00002752,-0.00000651,-0.00001032,0.00000504,-
 0.00000297,0.00000223,0.00001032,0.00000609,0.00000012,0.00001101,-0.0
 0004633,0.00001437,0.00002740,-0.00010945,0.00005080,0.00644183,-0.017
 70823,-0.08565939,-0.03253313,0.02814259,-0.03181735,0.02137525,-0.006
 62612,0.00500984,-0.00037347,0.00166167,-0.00110858,0.00497033,-0.0026
 2166,0.00137145,-0.00287006,0.00202408,-0.00083644,0.00390461,0.000166
 87,-0.00025745,-0.00283448,0.00044829,-0.00022557,0.00029153,-0.000015
 83,-0.00008767,-0.00025494,0.00004821,-0.00018792,-0.00011094,0.000031
 93,0.00005253,0.00011708,0.00001381,0.00000671,0.00002553,0.00001941,0
 .00020458,0.00011838,0.00006314,-0.00012743,-0.00005626,-0.00012043,0.
 00010131,0.00019445,-0.00055420,-0.00007240,-0.00073120,-0.00001641,0.
 00028579,-0.00100638,0.00372192,-0.00259410,0.00101954,-0.00530622,0.0
 0066656,-0.00897054,0.00132516,-0.00143760,0.00323243,-0.00156462,0.00
 034524,0.00958750,-0.00405000,-0.00834263,-0.02518226,-0.00014324,0.00
 080128,-0.00017893,0.00039041,-0.00019614,0.00008088,0.00037147,-0.000
 36695,-0.00014231,-0.00020933,-0.00002276,0.00000956,-0.00004026,0.000
 06814,0.00005307,-0.00014799,-0.00011336,0.00006486,0.00007632,0.00009
 675,-0.00007003,-0.00010074,0.00000792,0.00022893,0.00008945,-0.000038
 42,-0.00018895,0.00005434,0.00004909,-0.00004427,-0.00010828,-0.000196
 31,-0.00005233,0.00006414,0.00016711,0.00005798,0.00008846,0.00007200,
 -0.00006053,0.00017157,0.00011135,0.00017093,-0.00016952,0.00014172,-0
 .00022109,-0.00095432,-0.00069114,0.00038081,0.00037259,-0.00018085,-0
 .00018128,-0.00033556,0.00008293,-0.00016320,0.00004944,0.00003875,0.0
 0002431,0.00000855,0.00001775,0.00000544,-0.00000606,-0.00000111,0.000
 00339,-0.00002944,-0.00000293,0.00001441,-0.00003973,0.00005020,0.0000
 1565,0.00010505,0.00011587,0.00006005,-0.00011447,-0.00011205,-0.00012
 566,0.00009021,0.00005586,-0.00003491,0.00000771,-0.00002119,-0.000027
 56,-0.00001448,-0.00000263,0.00002490,0.00000197,0.00000016,0.00000025
 ,-0.00000971,-0.00003079,0.00000157,0.00001311,0.00003480,0.00000517,-
 0.00006349,0.00006832,-0.00010004,0.00144846,0.12470716,-0.00336771,-0
 .02741455,-0.01026503,-0.00098711,0.00750444,0.00201516,-0.00026366,-0
 .00005683,0.00092086,0.00051990,0.00005003,0.00007681,0.00020976,-0.00
 001402,-0.00062490,-0.00008370,-0.00006145,0.00028676,-0.00000355,0.00
 001539,-0.00012520,-0.00015195,0.00004543,-0.00008700,0.00011061,-0.00
 006492,0.00004881,-0.00012819,-0.00007608,-0.00020910,0.00008287,0.000
 06835,0.00018400,0.00007048,-0.00004223,0.00004824,-0.00012729,0.00024
 445,0.00003537,0.00011330,-0.00019553,-0.00006158,0.00009286,-0.000063
 55,0.00010557,0.00012001,0.00020048,0.00005264,-0.00010198,-0.00023971
 ,0.00010860,-0.00090838,0.00017396,-0.00049844,0.00065833,0.00334704,-
 0.00194458,-0.00426073,-0.00971053,0.00082375,0.02282727,0.02551943,-0
 .03372789,-0.02324626,-0.03161944,-0.08476003,-0.00601051,-0.00103992,
 0.00557645,0.00115093,0.00526679,-0.00108056,-0.00219124,-0.00328971,0
 .00151057,0.00157096,0.00425949,-0.00087245,0.00044485,-0.00287850,-0.
 00042259,0.00038344,0.00033553,-0.00025170,-0.00012102,0.00019456,0.00
 011630,0.00001926,0.00011490,0.00023575,0.00006555,-0.00004982,-0.0001
 5660,0.00002008,0.00003487,0.00000214,0.00002780,-0.00012479,-0.000211
 22,0.00003418,0.00014165,0.00006455,0.00001323,-0.00025011,-0.00010808
 ,-0.00049817,-0.00080007,-0.00002382,0.00013294,-0.00100539,0.00022153
 ,0.00328511,0.00149314,-0.00291650,-0.00011967,-0.00014716,-0.00012314
 ,0.00009366,-0.00003634,0.00004339,0.00001268,-0.00002599,-0.00002339,
 -0.00001355,0.00000233,-0.00002990,0.00000122,0.00000010,0.00000047,-0
 .00002113,0.00002399,0.00000150,0.00001372,0.00000568,0.00003910,-0.00
 004247,-0.00010898,0.00008407,0.00034294,-0.00015322,-0.00023390,-0.00
 029823,-0.00019121,0.00009406,0.00005349,0.00002605,0.00003197,-0.0000
 3443,0.00001210,0.00000257,-0.00000692,0.00000312,-0.00000058,0.000008
 39,0.00000389,0.00001721,-0.00003667,0.00001608,0.00005346,0.00010566,
 0.00008085,0.00009990,0.01043906,0.03047593,0.12585664\\-0.00000391,0.
 00002075,0.00001210,0.00003010,-0.00002080,0.00001072,-0.00002421,0.00
 001604,0.00000012,0.00000368,-0.00000181,0.00000919,0.00000131,-0.0000
 0314,-0.00001248,0.00000313,0.00000031,0.00000382,-0.00000779,0.000003
 64,0.00000238,0.00000467,0.00000072,-0.00000073,-0.00000279,-0.0000004
 6,-0.00000283,0.00000391,0.00000269,0.00000032,-0.00000226,-0.00000039
 ,-0.00000218,0.00000288,0.00000054,0.00000279,-0.00000331,-0.00000319,
 -0.00000078,-0.00000051,0.00000302,0.00000010,-0.00000098,0.00000045,0
 .00000088,0.00001048,-0.00000673,-0.00000243,-0.00000420,0.00000256,-0
 .00001755,-0.00000002,-0.00000323,0.00002440,-0.00002016,0.00000973,-0
 .00002572,0.00001544,0.00002864,-0.00001125,-0.00002273,-0.00001570,0.
 00002502,-0.00000430,-0.00001348,-0.00002597,0.00002134,0.00000288,-0.
 00001805,-0.00000246,-0.00000939,0.00000125,-0.00000268,0.00001167,0.0
 0000372,-0.00000214,-0.00000425,-0.00000018,0.00000687,-0.00000242,-0.
 00000381,-0.00000375,0.00000086,-0.00000025,0.00000079,-0.00000090,-0.
 00000031,0.00000426,0.00000127,0.00000334,0.00000047,0.00000058,-0.000
 00225,-0.00000250,-0.00000331,0.00000066,-0.00000368,-0.00000040,-0.00
 000141,0.00000252,0.00000193,0.00000144,0.00000273,0.00000260,0.000001
 53,-0.00000996,0.00000106,0.00000806,0.00000205,0.00001756,-0.00000196
 ,0.00000260,-0.00002424,0.00000186,0.00000517,-0.00000308,-0.00000038,
 -0.00000087,-0.00000075,-0.00000182,0.00000045,-0.00000036,-0.00000018
 ,-0.00000062,0.00000132,0.00000135,0.00000028,0.00000016,-0.00000029,0
 .00000079,-0.00000143,-0.00000064,-0.00000205,0.00000200,0.00000179,0.
 00000141,-0.00000029,0.00000383,-0.00000515,-0.00000066,0.00000241,0.0
 0000039,0.00000183,0.00000024,-0.00000046,0.00000029,0.00000023,-0.000
 00069,0.00000067,0.00000206,0.00000015,0.00000037,0.00000099,0.0000005
 8,-0.00000180,-0.00000052,0.00000242,-0.00000162,-0.00000191,-0.000001
 06,-0.00000442,0.00000038,0.00000440,-0.00000791,0.00000892\\\@
 The archive entry for this job was punched.


 THE MORE POWERFUL THE METHOD, THE MORE CATASTROPHIC THE ERRORS.
     -- M.D. KAMEN
 Job cpu time:       0 days 12 hours 47 minutes 13.9 seconds.
 Elapsed time:       0 days  0 hours 24 minutes  4.9 seconds.
 File lengths (MBytes):  RWF=   4578 Int=      0 D2E=      0 Chk=     41 Scr=      1
 Normal termination of Gaussian 16 at Thu Mar 27 14:06:24 2025.
