 Entering Gaussian System, Link 0=g16
 Initial command:
 /public/software/apps/Gaussian/g16/l1.exe "/tmp/Gau-92086.inp" -scrdir="/tmp/"
 Entering Link 1 = /public/software/apps/Gaussian/g16/l1.exe PID=     92087.
  
 Copyright (c) 1988-2019, Gaussian, Inc.  All Rights Reserved.
  
 This is part of the Gaussian(R) 16 program.  It is based on
 the Gaussian(R) 09 system (copyright 2009, Gaussian, Inc.),
 the Gaussian(R) 03 system (copyright 2003, Gaussian, Inc.),
 the Gaussian(R) 98 system (copyright 1998, Gaussian, Inc.),
 the Gaussian(R) 94 system (copyright 1995, Gaussian, Inc.),
 the Gaussian 92(TM) system (copyright 1992, Gaussian, Inc.),
 the Gaussian 90(TM) system (copyright 1990, Gaussian, Inc.),
 the Gaussian 88(TM) system (copyright 1988, Gaussian, Inc.),
 the Gaussian 86(TM) system (copyright 1986, Carnegie Mellon
 University), and the Gaussian 82(TM) system (copyright 1983,
 Carnegie Mellon University). Gaussian is a federally registered
 trademark of Gaussian, Inc.
  
 This software contains proprietary and confidential information,
 including trade secrets, belonging to Gaussian, Inc.
  
 This software is provided under written license and may be
 used, copied, transmitted, or stored only in accord with that
 written license.
  
 The following legend is applicable only to US Government
 contracts under FAR:
  
                    RESTRICTED RIGHTS LEGEND
  
 Use, reproduction and disclosure by the US Government is
 subject to restrictions as set forth in subparagraphs (a)
 and (c) of the Commercial Computer Software - Restricted
 Rights clause in FAR 52.227-19.
  
 Gaussian, Inc.
 340 Quinnipiac St., Bldg. 40, Wallingford CT 06492
  
  
 ---------------------------------------------------------------
 Warning -- This program may not be used in any manner that
 competes with the business of Gaussian, Inc. or will provide
 assistance to any competitor of Gaussian, Inc.  The licensee
 of this program is prohibited from giving any competitor of
 Gaussian, Inc. access to this program.  By using this program,
 the user acknowledges that Gaussian, Inc. is engaged in the
 business of creating and licensing software in the field of
 computational chemistry and represents and warrants to the
 licensee that it is not a competitor of Gaussian, Inc. and that
 it will not use this program in any manner prohibited above.
 ---------------------------------------------------------------
  

 Cite this work as:
 Gaussian 16, Revision C.01,
 M. J. Frisch, G. W. Trucks, H. B. Schlegel, G. E. Scuseria, 
 M. A. Robb, J. R. Cheeseman, G. Scalmani, V. Barone, 
 G. A. Petersson, H. Nakatsuji, X. Li, M. Caricato, A. V. Marenich, 
 J. Bloino, B. G. Janesko, R. Gomperts, B. Mennucci, H. P. Hratchian, 
 J. V. Ortiz, A. F. Izmaylov, J. L. Sonnenberg, D. Williams-Young, 
 F. Ding, F. Lipparini, F. Egidi, J. Goings, B. Peng, A. Petrone, 
 T. Henderson, D. Ranasinghe, V. G. Zakrzewski, J. Gao, N. Rega, 
 G. Zheng, W. Liang, M. Hada, M. Ehara, K. Toyota, R. Fukuda, 
 J. Hasegawa, M. Ishida, T. Nakajima, Y. Honda, O. Kitao, H. Nakai, 
 T. Vreven, K. Throssell, J. A. Montgomery, Jr., J. E. Peralta, 
 F. Ogliaro, M. J. Bearpark, J. J. Heyd, E. N. Brothers, K. N. Kudin, 
 V. N. Staroverov, T. A. Keith, R. Kobayashi, J. Normand, 
 K. Raghavachari, A. P. Rendell, J. C. Burant, S. S. Iyengar, 
 J. Tomasi, M. Cossi, J. M. Millam, M. Klene, C. Adamo, R. Cammi, 
 J. W. Ochterski, R. L. Martin, K. Morokuma, O. Farkas, 
 J. B. Foresman, and D. J. Fox, Gaussian, Inc., Wallingford CT, 2019.
 
 ******************************************
 Gaussian 16:  ES64L-G16RevC.01  3-Jul-2019
                27-Mar-2025 
 ******************************************
 %nprocshared=32
 Will use up to   32 processors via shared memory.
 %mem=100GB
 ------------------------------------------
 #p opt freq b3lyp/def2svpp em=gd3bj nosymm
 ------------------------------------------
 1/18=20,19=15,26=3,38=1/1,3;
 2/9=110,12=2,15=1,17=6,18=5,40=1/2;
 3/5=43,7=202,11=2,25=1,30=1,71=1,74=-5,124=41/1,2,3;
 4//1;
 5/5=2,38=5/2;
 6/7=2,8=2,9=2,10=2,28=1/1;
 7/30=1/1,2,3,16;
 1/18=20,19=15,26=3/3(2);
 2/9=110,15=1/2;
 99//99;
 2/9=110,15=1/2;
 3/5=43,7=202,11=2,25=1,30=1,71=1,74=-5,124=41/1,2,3;
 4/5=5,16=3,69=1/1;
 5/5=2,38=5/2;
 7/30=1/1,2,3,16;
 1/18=20,19=15,26=3/3(-5);
 2/9=110,15=1/2;
 6/7=2,8=2,9=2,10=2,19=2,28=1/1;
 99/9=1/99;
 Leave Link    1 at Thu Mar 27 14:46:21 2025, MaxMem= 13421772800 cpu:               1.9 elap:               0.1
 (Enter /public/software/apps/Gaussian/g16/l101.exe)
 ------------------
 $$$$Title####0????
 ------------------
 Symbolic Z-matrix:
 Charge =  0 Multiplicity = 2
 C                    -10.53036  -4.25088   1.06407 
 C                    -10.76748  -3.96002  -0.43066 
 C                    -11.79925  -2.82937  -0.60647 
 C                    -11.30642  -5.23171  -1.10315 
 O                    -9.53385  -3.62414  -1.08402 
 C                    -8.69691  -2.54251  -0.7706 
 O                    -9.00417  -1.7296    0.14286 
 N                    -7.50061  -2.34922  -1.5365 
 C                    -6.46617  -1.41367  -1.18811 
 C                    -6.11086  -1.18172   0.15143 
 C                    -5.09569  -0.27417   0.46674 
 C                    -4.40942   0.41208  -0.55063 
 C                    -3.35293   1.39981  -0.21301 
 C                    -2.43108   1.13658   0.81247 
 C                    -1.45569   2.07534   1.15372 
 C                    -1.37383   3.30659   0.47343 
 C                    -0.40273   4.28662   0.80857 
 C                     0.61256   4.05806   1.87139 
 C                     0.50869   4.78849   3.06952 
 O                    -0.50383   5.72863   3.23251 
 C                     1.42337   4.58642   4.10363 
 C                     2.46504   3.67292   3.9548 
 C                     2.6147    2.95898   2.75772 
 C                     3.68839   2.06875   2.60275 
 C                     3.87346   1.37076   1.39817 
 C                     5.02795   0.4518    1.23103 
 C                     5.76623   0.44244   0.03443 
 C                     6.8666   -0.4066   -0.11542 
 C                     7.24074  -1.27573   0.92383 
 N                     8.3904   -2.13242   0.81109 
 C                     8.82753  -2.74659  -0.40851 
 O                     8.08037  -2.74921  -1.42391 
 O                     10.08004  -3.37835  -0.43386 
 C                     10.67309  -4.0482   -1.55653 
 C                     10.86896  -3.07074  -2.73133 
 C                     12.04886  -4.56153  -1.10391 
 C                     9.81112  -5.24986  -1.9875 
 C                     6.5155   -1.25487   2.12302 
 C                     5.41582  -0.40599   2.27468 
 C                     2.96339   1.56987   0.34824 
 C                     1.88746   2.4477    0.49339 
 C                     1.69126   3.15142   1.69827 
 C                    -0.41564   5.52765   0.14587 
 O                     0.48557   6.52419   0.50604 
 C                    -1.33669   5.77727  -0.87192 
 C                    -2.27105   4.8078   -1.23041 
 C                    -2.30703   3.57733  -0.55997 
 C                    -3.27918   2.62348  -0.89813 
 C                    -4.74826   0.15571  -1.89105 
 C                    -5.76045  -0.75588  -2.20492 
 H                    -10.23087  -3.33531   1.61343 
 H                    -9.72756  -5.00912   1.18411 
 H                    -11.45745  -4.63909   1.53888 
 H                    -11.4925  -1.91206  -0.06406 
 H                    -11.91197  -2.57753  -1.68262 
 H                    -12.79008  -3.14003  -0.21011 
 H                    -10.57442  -6.06154  -1.00038 
 H                    -12.26792  -5.54917  -0.6439 
 H                    -11.47429  -5.0528   -2.18702 
 H                    -7.42529  -2.85732  -2.4467 
 H                    -6.60396  -1.71298   0.9547 
 H                    -4.85879  -0.09717   1.50842 
 H                    -2.45924   0.19638   1.34872 
 H                    -0.77522   1.83084   1.9587 
 H                     1.32938   5.14587   5.02565 
 H                     3.16362   3.53541   4.77181 
 H                     4.39913   1.94188   3.41171 
 H                     5.51105   1.11513  -0.77482 
 H                     7.4416   -0.35554  -1.03037 
 H                     8.90444  -2.38797   1.68444 
 H                     11.44297  -3.55466  -3.55103 
 H                     9.89683  -2.74107  -3.15117 
 H                     11.42575  -2.17124  -2.39182 
 H                     11.93645  -5.26014  -0.24677 
 H                     12.56703  -5.09598  -1.92967 
 H                     12.6881  -3.71338  -0.77594 
 H                     9.61193  -5.90905  -1.11544 
 H                     8.83807  -4.92142  -2.40635 
 H                     10.3318  -5.84381  -2.76977 
 H                     6.79867  -1.90588   2.94034 
 H                     4.8621   -0.42781   3.20494 
 H                     3.07817   1.03651  -0.5872 
 H                     1.21898   2.57503  -0.34788 
 H                    -1.33213   6.73206  -1.38256 
 H                    -2.97863   5.02795  -2.02131 
 H                    -4.00047   2.84744  -1.67543 
 H                    -4.22144   0.65104  -2.69699 
 H                    -6.00544  -0.94046  -3.24362 
 Cu                    0.13682   7.31438   2.26879 
 
 ITRead=  0  0  0  0  0  0  0  0  0  0  0  0  0  0  0  0  0  0  0  0
 ITRead=  0  0  0  0  0  0  0  0  0  0  0  0  0  0  0  0  0  0  0  0
 ITRead=  0  0  0  0  0  0  0  0  0  0  0  0  0  0  0  0  0  0  0  0
 ITRead=  0  0  0  0  0  0  0  0  0  0  0  0  0  0  0  0  0  0  0  0
 ITRead=  0  0  0  0  0  0  0  0  0
 MicOpt= -1 -1 -1 -1 -1 -1 -1 -1 -1 -1 -1 -1 -1 -1 -1 -1 -1 -1 -1 -1
 MicOpt= -1 -1 -1 -1 -1 -1 -1 -1 -1 -1 -1 -1 -1 -1 -1 -1 -1 -1 -1 -1
 MicOpt= -1 -1 -1 -1 -1 -1 -1 -1 -1 -1 -1 -1 -1 -1 -1 -1 -1 -1 -1 -1
 MicOpt= -1 -1 -1 -1 -1 -1 -1 -1 -1 -1 -1 -1 -1 -1 -1 -1 -1 -1 -1 -1
 MicOpt= -1 -1 -1 -1 -1 -1 -1 -1 -1
 NAtoms=     89 NQM=       89 NQMF=       0 NMMI=      0 NMMIF=      0
                NMic=       0 NMicF=      0.
                    Isotopes and Nuclear Properties:
 (Nuclear quadrupole moments (NQMom) in fm**2, nuclear magnetic moments (NMagM)
  in nuclear magnetons)

  Atom         1           2           3           4           5           6           7           8           9          10
 IAtWgt=          12          12          12          12          16          12          16          14          12          12
 AtmWgt=  12.0000000  12.0000000  12.0000000  12.0000000  15.9949146  12.0000000  15.9949146  14.0030740  12.0000000  12.0000000
 NucSpn=           0           0           0           0           0           0           0           2           0           0
 AtZEff=  -0.0000000  -0.0000000  -0.0000000  -0.0000000  -0.0000000  -0.0000000  -0.0000000  -0.0000000  -0.0000000  -0.0000000
 NQMom=    0.0000000   0.0000000   0.0000000   0.0000000   0.0000000   0.0000000   0.0000000   2.0440000   0.0000000   0.0000000
 NMagM=    0.0000000   0.0000000   0.0000000   0.0000000   0.0000000   0.0000000   0.0000000   0.4037610   0.0000000   0.0000000
 AtZNuc=   6.0000000   6.0000000   6.0000000   6.0000000   8.0000000   6.0000000   8.0000000   7.0000000   6.0000000   6.0000000

  Atom        11          12          13          14          15          16          17          18          19          20
 IAtWgt=          12          12          12          12          12          12          12          12          12          16
 AtmWgt=  12.0000000  12.0000000  12.0000000  12.0000000  12.0000000  12.0000000  12.0000000  12.0000000  12.0000000  15.9949146
 NucSpn=           0           0           0           0           0           0           0           0           0           0
 AtZEff=  -0.0000000  -0.0000000  -0.0000000  -0.0000000  -0.0000000  -0.0000000  -0.0000000  -0.0000000  -0.0000000  -0.0000000
 NQMom=    0.0000000   0.0000000   0.0000000   0.0000000   0.0000000   0.0000000   0.0000000   0.0000000   0.0000000   0.0000000
 NMagM=    0.0000000   0.0000000   0.0000000   0.0000000   0.0000000   0.0000000   0.0000000   0.0000000   0.0000000   0.0000000
 AtZNuc=   6.0000000   6.0000000   6.0000000   6.0000000   6.0000000   6.0000000   6.0000000   6.0000000   6.0000000   8.0000000

  Atom        21          22          23          24          25          26          27          28          29          30
 IAtWgt=          12          12          12          12          12          12          12          12          12          14
 AtmWgt=  12.0000000  12.0000000  12.0000000  12.0000000  12.0000000  12.0000000  12.0000000  12.0000000  12.0000000  14.0030740
 NucSpn=           0           0           0           0           0           0           0           0           0           2
 AtZEff=  -0.0000000  -0.0000000  -0.0000000  -0.0000000  -0.0000000  -0.0000000  -0.0000000  -0.0000000  -0.0000000  -0.0000000
 NQMom=    0.0000000   0.0000000   0.0000000   0.0000000   0.0000000   0.0000000   0.0000000   0.0000000   0.0000000   2.0440000
 NMagM=    0.0000000   0.0000000   0.0000000   0.0000000   0.0000000   0.0000000   0.0000000   0.0000000   0.0000000   0.4037610
 AtZNuc=   6.0000000   6.0000000   6.0000000   6.0000000   6.0000000   6.0000000   6.0000000   6.0000000   6.0000000   7.0000000

  Atom        31          32          33          34          35          36          37          38          39          40
 IAtWgt=          12          16          16          12          12          12          12          12          12          12
 AtmWgt=  12.0000000  15.9949146  15.9949146  12.0000000  12.0000000  12.0000000  12.0000000  12.0000000  12.0000000  12.0000000
 NucSpn=           0           0           0           0           0           0           0           0           0           0
 AtZEff=  -0.0000000  -0.0000000  -0.0000000  -0.0000000  -0.0000000  -0.0000000  -0.0000000  -0.0000000  -0.0000000  -0.0000000
 NQMom=    0.0000000   0.0000000   0.0000000   0.0000000   0.0000000   0.0000000   0.0000000   0.0000000   0.0000000   0.0000000
 NMagM=    0.0000000   0.0000000   0.0000000   0.0000000   0.0000000   0.0000000   0.0000000   0.0000000   0.0000000   0.0000000
 AtZNuc=   6.0000000   8.0000000   8.0000000   6.0000000   6.0000000   6.0000000   6.0000000   6.0000000   6.0000000   6.0000000

  Atom        41          42          43          44          45          46          47          48          49          50
 IAtWgt=          12          12          12          16          12          12          12          12          12          12
 AtmWgt=  12.0000000  12.0000000  12.0000000  15.9949146  12.0000000  12.0000000  12.0000000  12.0000000  12.0000000  12.0000000
 NucSpn=           0           0           0           0           0           0           0           0           0           0
 AtZEff=  -0.0000000  -0.0000000  -0.0000000  -0.0000000  -0.0000000  -0.0000000  -0.0000000  -0.0000000  -0.0000000  -0.0000000
 NQMom=    0.0000000   0.0000000   0.0000000   0.0000000   0.0000000   0.0000000   0.0000000   0.0000000   0.0000000   0.0000000
 NMagM=    0.0000000   0.0000000   0.0000000   0.0000000   0.0000000   0.0000000   0.0000000   0.0000000   0.0000000   0.0000000
 AtZNuc=   6.0000000   6.0000000   6.0000000   8.0000000   6.0000000   6.0000000   6.0000000   6.0000000   6.0000000   6.0000000

  Atom        51          52          53          54          55          56          57          58          59          60
 IAtWgt=           1           1           1           1           1           1           1           1           1           1
 AtmWgt=   1.0078250   1.0078250   1.0078250   1.0078250   1.0078250   1.0078250   1.0078250   1.0078250   1.0078250   1.0078250
 NucSpn=           1           1           1           1           1           1           1           1           1           1
 AtZEff=  -0.0000000  -0.0000000  -0.0000000  -0.0000000  -0.0000000  -0.0000000  -0.0000000  -0.0000000  -0.0000000  -0.0000000
 NQMom=    0.0000000   0.0000000   0.0000000   0.0000000   0.0000000   0.0000000   0.0000000   0.0000000   0.0000000   0.0000000
 NMagM=    2.7928460   2.7928460   2.7928460   2.7928460   2.7928460   2.7928460   2.7928460   2.7928460   2.7928460   2.7928460
 AtZNuc=   1.0000000   1.0000000   1.0000000   1.0000000   1.0000000   1.0000000   1.0000000   1.0000000   1.0000000   1.0000000

  Atom        61          62          63          64          65          66          67          68          69          70
 IAtWgt=           1           1           1           1           1           1           1           1           1           1
 AtmWgt=   1.0078250   1.0078250   1.0078250   1.0078250   1.0078250   1.0078250   1.0078250   1.0078250   1.0078250   1.0078250
 NucSpn=           1           1           1           1           1           1           1           1           1           1
 AtZEff=  -0.0000000  -0.0000000  -0.0000000  -0.0000000  -0.0000000  -0.0000000  -0.0000000  -0.0000000  -0.0000000  -0.0000000
 NQMom=    0.0000000   0.0000000   0.0000000   0.0000000   0.0000000   0.0000000   0.0000000   0.0000000   0.0000000   0.0000000
 NMagM=    2.7928460   2.7928460   2.7928460   2.7928460   2.7928460   2.7928460   2.7928460   2.7928460   2.7928460   2.7928460
 AtZNuc=   1.0000000   1.0000000   1.0000000   1.0000000   1.0000000   1.0000000   1.0000000   1.0000000   1.0000000   1.0000000

  Atom        71          72          73          74          75          76          77          78          79          80
 IAtWgt=           1           1           1           1           1           1           1           1           1           1
 AtmWgt=   1.0078250   1.0078250   1.0078250   1.0078250   1.0078250   1.0078250   1.0078250   1.0078250   1.0078250   1.0078250
 NucSpn=           1           1           1           1           1           1           1           1           1           1
 AtZEff=  -0.0000000  -0.0000000  -0.0000000  -0.0000000  -0.0000000  -0.0000000  -0.0000000  -0.0000000  -0.0000000  -0.0000000
 NQMom=    0.0000000   0.0000000   0.0000000   0.0000000   0.0000000   0.0000000   0.0000000   0.0000000   0.0000000   0.0000000
 NMagM=    2.7928460   2.7928460   2.7928460   2.7928460   2.7928460   2.7928460   2.7928460   2.7928460   2.7928460   2.7928460
 AtZNuc=   1.0000000   1.0000000   1.0000000   1.0000000   1.0000000   1.0000000   1.0000000   1.0000000   1.0000000   1.0000000

  Atom        81          82          83          84          85          86          87          88          89
 IAtWgt=           1           1           1           1           1           1           1           1          63
 AtmWgt=   1.0078250   1.0078250   1.0078250   1.0078250   1.0078250   1.0078250   1.0078250   1.0078250  62.9295992
 NucSpn=           1           1           1           1           1           1           1           1           3
 AtZEff=  -0.0000000  -0.0000000  -0.0000000  -0.0000000  -0.0000000  -0.0000000  -0.0000000  -0.0000000  -0.0000000
 NQMom=    0.0000000   0.0000000   0.0000000   0.0000000   0.0000000   0.0000000   0.0000000   0.0000000 -22.0000000
 NMagM=    2.7928460   2.7928460   2.7928460   2.7928460   2.7928460   2.7928460   2.7928460   2.7928460   2.2233000
 AtZNuc=   1.0000000   1.0000000   1.0000000   1.0000000   1.0000000   1.0000000   1.0000000   1.0000000  29.0000000
 Leave Link  101 at Thu Mar 27 14:46:21 2025, MaxMem= 13421772800 cpu:               3.6 elap:               0.1
 (Enter /public/software/apps/Gaussian/g16/l103.exe)

 GradGradGradGradGradGradGradGradGradGradGradGradGradGradGradGradGradGrad
 Berny optimization.
 Initialization pass.
                           ----------------------------
                           !    Initial Parameters    !
                           ! (Angstroms and Degrees)  !
 --------------------------                            --------------------------
 ! Name  Definition              Value          Derivative Info.                !
 --------------------------------------------------------------------------------
 ! R1    R(1,2)                  1.5411         estimate D2E/DX2                !
 ! R2    R(1,51)                 1.1089         estimate D2E/DX2                !
 ! R3    R(1,52)                 1.1108         estimate D2E/DX2                !
 ! R4    R(1,53)                 1.1116         estimate D2E/DX2                !
 ! R5    R(2,3)                  1.5407         estimate D2E/DX2                !
 ! R6    R(2,4)                  1.5362         estimate D2E/DX2                !
 ! R7    R(2,5)                  1.4358         estimate D2E/DX2                !
 ! R8    R(3,54)                 1.1089         estimate D2E/DX2                !
 ! R9    R(3,55)                 1.111          estimate D2E/DX2                !
 ! R10   R(3,56)                 1.1115         estimate D2E/DX2                !
 ! R11   R(4,57)                 1.1113         estimate D2E/DX2                !
 ! R12   R(4,58)                 1.1118         estimate D2E/DX2                !
 ! R13   R(4,59)                 1.1113         estimate D2E/DX2                !
 ! R14   R(5,6)                  1.4031         estimate D2E/DX2                !
 ! R15   R(6,7)                  1.2608         estimate D2E/DX2                !
 ! R16   R(6,8)                  1.4336         estimate D2E/DX2                !
 ! R17   R(8,9)                  1.4376         estimate D2E/DX2                !
 ! R18   R(8,60)                 1.0451         estimate D2E/DX2                !
 ! R19   R(9,10)                 1.4051         estimate D2E/DX2                !
 ! R20   R(9,50)                 1.4016         estimate D2E/DX2                !
 ! R21   R(10,11)                1.3977         estimate D2E/DX2                !
 ! R22   R(10,61)                1.0819         estimate D2E/DX2                !
 ! R23   R(11,12)                1.406          estimate D2E/DX2                !
 ! R24   R(11,62)                1.0828         estimate D2E/DX2                !
 ! R25   R(12,13)                1.4852         estimate D2E/DX2                !
 ! R26   R(12,49)                1.4061         estimate D2E/DX2                !
 ! R27   R(13,14)                1.4038         estimate D2E/DX2                !
 ! R28   R(13,48)                1.4043         estimate D2E/DX2                !
 ! R29   R(14,15)                1.3961         estimate D2E/DX2                !
 ! R30   R(14,63)                1.0827         estimate D2E/DX2                !
 ! R31   R(15,16)                1.4091         estimate D2E/DX2                !
 ! R32   R(15,64)                1.082          estimate D2E/DX2                !
 ! R33   R(16,17)                1.4198         estimate D2E/DX2                !
 ! R34   R(16,47)                1.4185         estimate D2E/DX2                !
 ! R35   R(17,18)                1.4875         estimate D2E/DX2                !
 ! R36   R(17,43)                1.4069         estimate D2E/DX2                !
 ! R37   R(18,19)                1.4071         estimate D2E/DX2                !
 ! R38   R(18,42)                1.4197         estimate D2E/DX2                !
 ! R39   R(19,20)                1.3913         estimate D2E/DX2                !
 ! R40   R(19,21)                1.3953         estimate D2E/DX2                !
 ! R41   R(20,89)                1.9631         estimate D2E/DX2                !
 ! R42   R(21,22)                1.3935         estimate D2E/DX2                !
 ! R43   R(21,65)                1.0826         estimate D2E/DX2                !
 ! R44   R(22,23)                1.4018         estimate D2E/DX2                !
 ! R45   R(22,66)                1.0837         estimate D2E/DX2                !
 ! R46   R(23,24)                1.4033         estimate D2E/DX2                !
 ! R47   R(23,42)                1.4185         estimate D2E/DX2                !
 ! R48   R(24,25)                1.4044         estimate D2E/DX2                !
 ! R49   R(24,67)                1.0843         estimate D2E/DX2                !
 ! R50   R(25,26)                1.485          estimate D2E/DX2                !
 ! R51   R(25,40)                1.4036         estimate D2E/DX2                !
 ! R52   R(26,27)                1.4061         estimate D2E/DX2                !
 ! R53   R(26,39)                1.4055         estimate D2E/DX2                !
 ! R54   R(27,28)                1.3979         estimate D2E/DX2                !
 ! R55   R(27,68)                1.0828         estimate D2E/DX2                !
 ! R56   R(28,29)                1.4055         estimate D2E/DX2                !
 ! R57   R(28,69)                1.0818         estimate D2E/DX2                !
 ! R58   R(29,30)                1.4382         estimate D2E/DX2                !
 ! R59   R(29,38)                1.4016         estimate D2E/DX2                !
 ! R60   R(30,31)                1.4338         estimate D2E/DX2                !
 ! R61   R(30,70)                1.0451         estimate D2E/DX2                !
 ! R62   R(31,32)                1.2607         estimate D2E/DX2                !
 ! R63   R(31,33)                1.403          estimate D2E/DX2                !
 ! R64   R(33,34)                1.4355         estimate D2E/DX2                !
 ! R65   R(34,35)                1.5408         estimate D2E/DX2                !
 ! R66   R(34,36)                1.5366         estimate D2E/DX2                !
 ! R67   R(34,37)                1.5404         estimate D2E/DX2                !
 ! R68   R(35,71)                1.1116         estimate D2E/DX2                !
 ! R69   R(35,72)                1.109          estimate D2E/DX2                !
 ! R70   R(35,73)                1.111          estimate D2E/DX2                !
 ! R71   R(36,74)                1.1115         estimate D2E/DX2                !
 ! R72   R(36,75)                1.1118         estimate D2E/DX2                !
 ! R73   R(36,76)                1.1116         estimate D2E/DX2                !
 ! R74   R(37,77)                1.1112         estimate D2E/DX2                !
 ! R75   R(37,78)                1.1091         estimate D2E/DX2                !
 ! R76   R(37,79)                1.1117         estimate D2E/DX2                !
 ! R77   R(38,39)                1.3975         estimate D2E/DX2                !
 ! R78   R(38,80)                1.0826         estimate D2E/DX2                !
 ! R79   R(39,81)                1.0828         estimate D2E/DX2                !
 ! R80   R(40,41)                1.3962         estimate D2E/DX2                !
 ! R81   R(40,82)                1.0829         estimate D2E/DX2                !
 ! R82   R(41,42)                1.4091         estimate D2E/DX2                !
 ! R83   R(41,83)                1.082          estimate D2E/DX2                !
 ! R84   R(43,44)                1.391          estimate D2E/DX2                !
 ! R85   R(43,45)                1.3952         estimate D2E/DX2                !
 ! R86   R(44,89)                1.963          estimate D2E/DX2                !
 ! R87   R(45,46)                1.3934         estimate D2E/DX2                !
 ! R88   R(45,84)                1.0828         estimate D2E/DX2                !
 ! R89   R(46,47)                1.4017         estimate D2E/DX2                !
 ! R90   R(46,85)                1.0838         estimate D2E/DX2                !
 ! R91   R(47,48)                1.4033         estimate D2E/DX2                !
 ! R92   R(48,86)                1.0838         estimate D2E/DX2                !
 ! R93   R(49,50)                1.3979         estimate D2E/DX2                !
 ! R94   R(49,87)                1.0828         estimate D2E/DX2                !
 ! R95   R(50,88)                1.083          estimate D2E/DX2                !
 ! A1    A(2,1,51)             111.4821         estimate D2E/DX2                !
 ! A2    A(2,1,52)             110.1729         estimate D2E/DX2                !
 ! A3    A(2,1,53)             110.6021         estimate D2E/DX2                !
 ! A4    A(51,1,52)            108.3524         estimate D2E/DX2                !
 ! A5    A(51,1,53)            107.5764         estimate D2E/DX2                !
 ! A6    A(52,1,53)            108.5549         estimate D2E/DX2                !
 ! A7    A(1,2,3)              110.6226         estimate D2E/DX2                !
 ! A8    A(1,2,4)              108.8042         estimate D2E/DX2                !
 ! A9    A(1,2,5)              110.6896         estimate D2E/DX2                !
 ! A10   A(3,2,4)              108.8203         estimate D2E/DX2                !
 ! A11   A(3,2,5)              110.5955         estimate D2E/DX2                !
 ! A12   A(4,2,5)              107.2102         estimate D2E/DX2                !
 ! A13   A(2,3,54)             111.4677         estimate D2E/DX2                !
 ! A14   A(2,3,55)             110.1715         estimate D2E/DX2                !
 ! A15   A(2,3,56)             110.5589         estimate D2E/DX2                !
 ! A16   A(54,3,55)            108.3222         estimate D2E/DX2                !
 ! A17   A(54,3,56)            107.6602         estimate D2E/DX2                !
 ! A18   A(55,3,56)            108.5627         estimate D2E/DX2                !
 ! A19   A(2,4,57)             110.278          estimate D2E/DX2                !
 ! A20   A(2,4,58)             111.0346         estimate D2E/DX2                !
 ! A21   A(2,4,59)             110.2847         estimate D2E/DX2                !
 ! A22   A(57,4,58)            108.555          estimate D2E/DX2                !
 ! A23   A(57,4,59)            108.0538         estimate D2E/DX2                !
 ! A24   A(58,4,59)            108.5546         estimate D2E/DX2                !
 ! A25   A(2,5,6)              126.2425         estimate D2E/DX2                !
 ! A26   A(5,6,7)              120.8977         estimate D2E/DX2                !
 ! A27   A(5,6,8)              118.841          estimate D2E/DX2                !
 ! A28   A(7,6,8)              120.2324         estimate D2E/DX2                !
 ! A29   A(6,8,9)              123.9691         estimate D2E/DX2                !
 ! A30   A(6,8,60)             117.3792         estimate D2E/DX2                !
 ! A31   A(9,8,60)             118.3964         estimate D2E/DX2                !
 ! A32   A(8,9,10)             121.3586         estimate D2E/DX2                !
 ! A33   A(8,9,50)             119.4655         estimate D2E/DX2                !
 ! A34   A(10,9,50)            119.1299         estimate D2E/DX2                !
 ! A35   A(9,10,11)            120.3902         estimate D2E/DX2                !
 ! A36   A(9,10,61)            120.7622         estimate D2E/DX2                !
 ! A37   A(11,10,61)           118.839          estimate D2E/DX2                !
 ! A38   A(10,11,12)           120.5427         estimate D2E/DX2                !
 ! A39   A(10,11,62)           118.8191         estimate D2E/DX2                !
 ! A40   A(12,11,62)           120.6306         estimate D2E/DX2                !
 ! A41   A(11,12,13)           120.4849         estimate D2E/DX2                !
 ! A42   A(11,12,49)           118.891          estimate D2E/DX2                !
 ! A43   A(13,12,49)           120.6218         estimate D2E/DX2                !
 ! A44   A(12,13,14)           120.5626         estimate D2E/DX2                !
 ! A45   A(12,13,48)           120.3941         estimate D2E/DX2                !
 ! A46   A(14,13,48)           119.0308         estimate D2E/DX2                !
 ! A47   A(13,14,15)           120.7471         estimate D2E/DX2                !
 ! A48   A(13,14,63)           120.4998         estimate D2E/DX2                !
 ! A49   A(15,14,63)           118.7513         estimate D2E/DX2                !
 ! A50   A(14,15,16)           120.6732         estimate D2E/DX2                !
 ! A51   A(14,15,64)           117.9866         estimate D2E/DX2                !
 ! A52   A(16,15,64)           121.3379         estimate D2E/DX2                !
 ! A53   A(15,16,17)           121.9331         estimate D2E/DX2                !
 ! A54   A(15,16,47)           118.7043         estimate D2E/DX2                !
 ! A55   A(17,16,47)           119.3534         estimate D2E/DX2                !
 ! A56   A(16,17,18)           121.9677         estimate D2E/DX2                !
 ! A57   A(16,17,43)           119.433          estimate D2E/DX2                !
 ! A58   A(18,17,43)           118.5771         estimate D2E/DX2                !
 ! A59   A(17,18,19)           118.5719         estimate D2E/DX2                !
 ! A60   A(17,18,42)           121.9783         estimate D2E/DX2                !
 ! A61   A(19,18,42)           119.4351         estimate D2E/DX2                !
 ! A62   A(18,19,20)           120.2826         estimate D2E/DX2                !
 ! A63   A(18,19,21)           120.4986         estimate D2E/DX2                !
 ! A64   A(20,19,21)           119.2173         estimate D2E/DX2                !
 ! A65   A(19,20,89)           104.5266         estimate D2E/DX2                !
 ! A66   A(19,21,22)           120.3869         estimate D2E/DX2                !
 ! A67   A(19,21,65)           119.9651         estimate D2E/DX2                !
 ! A68   A(22,21,65)           119.6468         estimate D2E/DX2                !
 ! A69   A(21,22,23)           120.324          estimate D2E/DX2                !
 ! A70   A(21,22,66)           118.983          estimate D2E/DX2                !
 ! A71   A(23,22,66)           120.6868         estimate D2E/DX2                !
 ! A72   A(22,23,24)           119.9382         estimate D2E/DX2                !
 ! A73   A(22,23,42)           119.9466         estimate D2E/DX2                !
 ! A74   A(24,23,42)           120.1095         estimate D2E/DX2                !
 ! A75   A(23,24,25)           120.7179         estimate D2E/DX2                !
 ! A76   A(23,24,67)           119.5616         estimate D2E/DX2                !
 ! A77   A(25,24,67)           119.6945         estimate D2E/DX2                !
 ! A78   A(24,25,26)           120.4328         estimate D2E/DX2                !
 ! A79   A(24,25,40)           119.0529         estimate D2E/DX2                !
 ! A80   A(26,25,40)           120.5072         estimate D2E/DX2                !
 ! A81   A(25,26,27)           120.5383         estimate D2E/DX2                !
 ! A82   A(25,26,39)           120.5729         estimate D2E/DX2                !
 ! A83   A(27,26,39)           118.8791         estimate D2E/DX2                !
 ! A84   A(26,27,28)           120.5697         estimate D2E/DX2                !
 ! A85   A(26,27,68)           120.54           estimate D2E/DX2                !
 ! A86   A(28,27,68)           118.8625         estimate D2E/DX2                !
 ! A87   A(27,28,29)           120.3889         estimate D2E/DX2                !
 ! A88   A(27,28,69)           118.7096         estimate D2E/DX2                !
 ! A89   A(29,28,69)           120.8674         estimate D2E/DX2                !
 ! A90   A(28,29,30)           121.5469         estimate D2E/DX2                !
 ! A91   A(28,29,38)           119.0576         estimate D2E/DX2                !
 ! A92   A(30,29,38)           119.3124         estimate D2E/DX2                !
 ! A93   A(29,30,31)           124.4413         estimate D2E/DX2                !
 ! A94   A(29,30,70)           118.2504         estimate D2E/DX2                !
 ! A95   A(31,30,70)           117.137          estimate D2E/DX2                !
 ! A96   A(30,31,32)           120.3525         estimate D2E/DX2                !
 ! A97   A(30,31,33)           118.7126         estimate D2E/DX2                !
 ! A98   A(32,31,33)           120.9037         estimate D2E/DX2                !
 ! A99   A(31,33,34)           126.3722         estimate D2E/DX2                !
 ! A100  A(33,34,35)           110.6584         estimate D2E/DX2                !
 ! A101  A(33,34,36)           107.1818         estimate D2E/DX2                !
 ! A102  A(33,34,37)           110.5877         estimate D2E/DX2                !
 ! A103  A(35,34,36)           108.8272         estimate D2E/DX2                !
 ! A104  A(35,34,37)           110.6531         estimate D2E/DX2                !
 ! A105  A(36,34,37)           108.8335         estimate D2E/DX2                !
 ! A106  A(34,35,71)           110.5932         estimate D2E/DX2                !
 ! A107  A(34,35,72)           111.4563         estimate D2E/DX2                !
 ! A108  A(34,35,73)           110.1405         estimate D2E/DX2                !
 ! A109  A(71,35,72)           107.6316         estimate D2E/DX2                !
 ! A110  A(71,35,73)           108.6036         estimate D2E/DX2                !
 ! A111  A(72,35,73)           108.3189         estimate D2E/DX2                !
 ! A112  A(34,36,74)           110.2785         estimate D2E/DX2                !
 ! A113  A(34,36,75)           111.0455         estimate D2E/DX2                !
 ! A114  A(34,36,76)           110.2975         estimate D2E/DX2                !
 ! A115  A(74,36,75)           108.5284         estimate D2E/DX2                !
 ! A116  A(74,36,76)           108.0728         estimate D2E/DX2                !
 ! A117  A(75,36,76)           108.5372         estimate D2E/DX2                !
 ! A118  A(34,37,77)           110.0919         estimate D2E/DX2                !
 ! A119  A(34,37,78)           111.4435         estimate D2E/DX2                !
 ! A120  A(34,37,79)           110.5843         estimate D2E/DX2                !
 ! A121  A(77,37,78)           108.348          estimate D2E/DX2                !
 ! A122  A(77,37,79)           108.6181         estimate D2E/DX2                !
 ! A123  A(78,37,79)           107.6615         estimate D2E/DX2                !
 ! A124  A(29,38,39)           120.6024         estimate D2E/DX2                !
 ! A125  A(29,38,80)           120.1088         estimate D2E/DX2                !
 ! A126  A(39,38,80)           119.2866         estimate D2E/DX2                !
 ! A127  A(26,39,38)           120.4842         estimate D2E/DX2                !
 ! A128  A(26,39,81)           120.605          estimate D2E/DX2                !
 ! A129  A(38,39,81)           118.9078         estimate D2E/DX2                !
 ! A130  A(25,40,41)           120.7354         estimate D2E/DX2                !
 ! A131  A(25,40,82)           120.5004         estimate D2E/DX2                !
 ! A132  A(41,40,82)           118.7614         estimate D2E/DX2                !
 ! A133  A(40,41,42)           120.678          estimate D2E/DX2                !
 ! A134  A(40,41,83)           117.9855         estimate D2E/DX2                !
 ! A135  A(42,41,83)           121.3344         estimate D2E/DX2                !
 ! A136  A(18,42,23)           119.3526         estimate D2E/DX2                !
 ! A137  A(18,42,41)           121.9386         estimate D2E/DX2                !
 ! A138  A(23,42,41)           118.7014         estimate D2E/DX2                !
 ! A139  A(17,43,44)           120.2659         estimate D2E/DX2                !
 ! A140  A(17,43,45)           120.4966         estimate D2E/DX2                !
 ! A141  A(44,43,45)           119.2359         estimate D2E/DX2                !
 ! A142  A(43,44,89)           113.9406         estimate D2E/DX2                !
 ! A143  A(43,45,46)           120.3912         estimate D2E/DX2                !
 ! A144  A(43,45,84)           119.9356         estimate D2E/DX2                !
 ! A145  A(46,45,84)           119.6716         estimate D2E/DX2                !
 ! A146  A(45,46,47)           120.3265         estimate D2E/DX2                !
 ! A147  A(45,46,85)           118.9615         estimate D2E/DX2                !
 ! A148  A(47,46,85)           120.7025         estimate D2E/DX2                !
 ! A149  A(16,47,46)           119.9414         estimate D2E/DX2                !
 ! A150  A(16,47,48)           120.1043         estimate D2E/DX2                !
 ! A151  A(46,47,48)           119.947          estimate D2E/DX2                !
 ! A152  A(13,48,47)           120.7364         estimate D2E/DX2                !
 ! A153  A(13,48,86)           119.6701         estimate D2E/DX2                !
 ! A154  A(47,48,86)           119.5647         estimate D2E/DX2                !
 ! A155  A(12,49,50)           120.4925         estimate D2E/DX2                !
 ! A156  A(12,49,87)           120.589          estimate D2E/DX2                !
 ! A157  A(50,49,87)           118.9139         estimate D2E/DX2                !
 ! A158  A(9,50,49)            120.5126         estimate D2E/DX2                !
 ! A159  A(9,50,88)            120.1232         estimate D2E/DX2                !
 ! A160  A(49,50,88)           119.3588         estimate D2E/DX2                !
 ! A161  A(20,89,44)           100.0004         estimate D2E/DX2                !
 ! D1    D(51,1,2,3)           -55.1643         estimate D2E/DX2                !
 ! D2    D(51,1,2,4)          -174.6538         estimate D2E/DX2                !
 ! D3    D(51,1,2,5)            67.7843         estimate D2E/DX2                !
 ! D4    D(52,1,2,3)          -175.5            estimate D2E/DX2                !
 ! D5    D(52,1,2,4)            65.0104         estimate D2E/DX2                !
 ! D6    D(52,1,2,5)           -52.5515         estimate D2E/DX2                !
 ! D7    D(53,1,2,3)            64.4814         estimate D2E/DX2                !
 ! D8    D(53,1,2,4)           -55.0082         estimate D2E/DX2                !
 ! D9    D(53,1,2,5)          -172.57           estimate D2E/DX2                !
 ! D10   D(1,2,3,54)            55.7857         estimate D2E/DX2                !
 ! D11   D(1,2,3,55)           176.073          estimate D2E/DX2                !
 ! D12   D(1,2,3,56)           -63.9273         estimate D2E/DX2                !
 ! D13   D(4,2,3,54)           175.2656         estimate D2E/DX2                !
 ! D14   D(4,2,3,55)           -64.4471         estimate D2E/DX2                !
 ! D15   D(4,2,3,56)            55.5526         estimate D2E/DX2                !
 ! D16   D(5,2,3,54)           -67.2175         estimate D2E/DX2                !
 ! D17   D(5,2,3,55)            53.0698         estimate D2E/DX2                !
 ! D18   D(5,2,3,56)           173.0695         estimate D2E/DX2                !
 ! D19   D(1,2,4,57)           -60.0222         estimate D2E/DX2                !
 ! D20   D(1,2,4,58)            60.3453         estimate D2E/DX2                !
 ! D21   D(1,2,4,59)          -179.2833         estimate D2E/DX2                !
 ! D22   D(3,2,4,57)           179.3713         estimate D2E/DX2                !
 ! D23   D(3,2,4,58)           -60.2613         estimate D2E/DX2                !
 ! D24   D(3,2,4,59)            60.1101         estimate D2E/DX2                !
 ! D25   D(5,2,4,57)            59.7262         estimate D2E/DX2                !
 ! D26   D(5,2,4,58)          -179.9064         estimate D2E/DX2                !
 ! D27   D(5,2,4,59)           -59.535          estimate D2E/DX2                !
 ! D28   D(1,2,5,6)            -60.4756         estimate D2E/DX2                !
 ! D29   D(3,2,5,6)             62.4887         estimate D2E/DX2                !
 ! D30   D(4,2,5,6)           -179.01           estimate D2E/DX2                !
 ! D31   D(2,5,6,7)             -1.5075         estimate D2E/DX2                !
 ! D32   D(2,5,6,8)           -179.5584         estimate D2E/DX2                !
 ! D33   D(5,6,8,9)           -170.0335         estimate D2E/DX2                !
 ! D34   D(5,6,8,60)            15.8776         estimate D2E/DX2                !
 ! D35   D(7,6,8,9)             11.9023         estimate D2E/DX2                !
 ! D36   D(7,6,8,60)          -162.1866         estimate D2E/DX2                !
 ! D37   D(6,8,9,10)            36.8342         estimate D2E/DX2                !
 ! D38   D(6,8,9,50)          -145.6531         estimate D2E/DX2                !
 ! D39   D(60,8,9,10)         -149.1329         estimate D2E/DX2                !
 ! D40   D(60,8,9,50)           28.3798         estimate D2E/DX2                !
 ! D41   D(8,9,10,11)          179.5647         estimate D2E/DX2                !
 ! D42   D(8,9,10,61)            0.6433         estimate D2E/DX2                !
 ! D43   D(50,9,10,11)           2.0439         estimate D2E/DX2                !
 ! D44   D(50,9,10,61)        -176.8775         estimate D2E/DX2                !
 ! D45   D(8,9,50,49)         -179.8503         estimate D2E/DX2                !
 ! D46   D(8,9,50,88)            1.0003         estimate D2E/DX2                !
 ! D47   D(10,9,50,49)          -2.2818         estimate D2E/DX2                !
 ! D48   D(10,9,50,88)         178.5688         estimate D2E/DX2                !
 ! D49   D(9,10,11,12)          -0.4549         estimate D2E/DX2                !
 ! D50   D(9,10,11,62)         178.5451         estimate D2E/DX2                !
 ! D51   D(61,10,11,12)        178.4871         estimate D2E/DX2                !
 ! D52   D(61,10,11,62)         -2.5129         estimate D2E/DX2                !
 ! D53   D(10,11,12,13)        178.5528         estimate D2E/DX2                !
 ! D54   D(10,11,12,49)         -0.9088         estimate D2E/DX2                !
 ! D55   D(62,11,12,13)         -0.429          estimate D2E/DX2                !
 ! D56   D(62,11,12,49)       -179.8906         estimate D2E/DX2                !
 ! D57   D(11,12,13,14)         41.293          estimate D2E/DX2                !
 ! D58   D(11,12,13,48)       -137.4086         estimate D2E/DX2                !
 ! D59   D(49,12,13,14)       -139.2548         estimate D2E/DX2                !
 ! D60   D(49,12,13,48)         42.0436         estimate D2E/DX2                !
 ! D61   D(11,12,49,50)          0.6732         estimate D2E/DX2                !
 ! D62   D(11,12,49,87)       -178.5359         estimate D2E/DX2                !
 ! D63   D(13,12,49,50)       -178.7876         estimate D2E/DX2                !
 ! D64   D(13,12,49,87)          2.0033         estimate D2E/DX2                !
 ! D65   D(12,13,14,15)       -178.5142         estimate D2E/DX2                !
 ! D66   D(12,13,14,63)          1.9698         estimate D2E/DX2                !
 ! D67   D(48,13,14,15)          0.205          estimate D2E/DX2                !
 ! D68   D(48,13,14,63)       -179.311          estimate D2E/DX2                !
 ! D69   D(12,13,48,47)        178.2254         estimate D2E/DX2                !
 ! D70   D(12,13,48,86)          0.1863         estimate D2E/DX2                !
 ! D71   D(14,13,48,47)         -0.496          estimate D2E/DX2                !
 ! D72   D(14,13,48,86)       -178.5351         estimate D2E/DX2                !
 ! D73   D(13,14,15,16)         -0.1493         estimate D2E/DX2                !
 ! D74   D(13,14,15,64)        179.3066         estimate D2E/DX2                !
 ! D75   D(63,14,15,16)        179.3751         estimate D2E/DX2                !
 ! D76   D(63,14,15,64)         -1.1691         estimate D2E/DX2                !
 ! D77   D(14,15,16,17)        179.2634         estimate D2E/DX2                !
 ! D78   D(14,15,16,47)          0.3706         estimate D2E/DX2                !
 ! D79   D(64,15,16,17)         -0.174          estimate D2E/DX2                !
 ! D80   D(64,15,16,47)       -179.0668         estimate D2E/DX2                !
 ! D81   D(15,16,17,18)          1.8076         estimate D2E/DX2                !
 ! D82   D(15,16,17,43)       -176.455          estimate D2E/DX2                !
 ! D83   D(47,16,17,18)       -179.3065         estimate D2E/DX2                !
 ! D84   D(47,16,17,43)          2.4309         estimate D2E/DX2                !
 ! D85   D(15,16,47,46)        178.3609         estimate D2E/DX2                !
 ! D86   D(15,16,47,48)         -0.6561         estimate D2E/DX2                !
 ! D87   D(17,16,47,46)         -0.5611         estimate D2E/DX2                !
 ! D88   D(17,16,47,48)       -179.5781         estimate D2E/DX2                !
 ! D89   D(16,17,18,19)       -110.0657         estimate D2E/DX2                !
 ! D90   D(16,17,18,42)         71.3348         estimate D2E/DX2                !
 ! D91   D(43,17,18,19)         68.2112         estimate D2E/DX2                !
 ! D92   D(43,17,18,42)       -110.3883         estimate D2E/DX2                !
 ! D93   D(16,17,43,44)        176.8324         estimate D2E/DX2                !
 ! D94   D(16,17,43,45)         -2.7038         estimate D2E/DX2                !
 ! D95   D(18,17,43,44)         -1.4893         estimate D2E/DX2                !
 ! D96   D(18,17,43,45)        178.9746         estimate D2E/DX2                !
 ! D97   D(17,18,19,20)         -1.7412         estimate D2E/DX2                !
 ! D98   D(17,18,19,21)        178.7059         estimate D2E/DX2                !
 ! D99   D(42,18,19,20)        176.8948         estimate D2E/DX2                !
 ! D100  D(42,18,19,21)         -2.6581         estimate D2E/DX2                !
 ! D101  D(17,18,42,23)       -178.9104         estimate D2E/DX2                !
 ! D102  D(17,18,42,41)          2.0972         estimate D2E/DX2                !
 ! D103  D(19,18,42,23)          2.5019         estimate D2E/DX2                !
 ! D104  D(19,18,42,41)       -176.4905         estimate D2E/DX2                !
 ! D105  D(18,19,20,89)        -79.7139         estimate D2E/DX2                !
 ! D106  D(21,19,20,89)         99.8447         estimate D2E/DX2                !
 ! D107  D(18,19,21,22)          1.0175         estimate D2E/DX2                !
 ! D108  D(18,19,21,65)       -179.3788         estimate D2E/DX2                !
 ! D109  D(20,19,21,22)       -178.5401         estimate D2E/DX2                !
 ! D110  D(20,19,21,65)          1.0636         estimate D2E/DX2                !
 ! D111  D(19,20,89,44)         54.7596         estimate D2E/DX2                !
 ! D112  D(19,21,22,23)          0.7866         estimate D2E/DX2                !
 ! D113  D(19,21,22,66)        179.8778         estimate D2E/DX2                !
 ! D114  D(65,21,22,23)       -178.8184         estimate D2E/DX2                !
 ! D115  D(65,21,22,66)          0.2728         estimate D2E/DX2                !
 ! D116  D(21,22,23,24)        178.2159         estimate D2E/DX2                !
 ! D117  D(21,22,23,42)         -0.9102         estimate D2E/DX2                !
 ! D118  D(66,22,23,24)         -0.8596         estimate D2E/DX2                !
 ! D119  D(66,22,23,42)       -179.9858         estimate D2E/DX2                !
 ! D120  D(22,23,24,25)       -178.3655         estimate D2E/DX2                !
 ! D121  D(22,23,24,67)         -0.2251         estimate D2E/DX2                !
 ! D122  D(42,23,24,25)          0.7592         estimate D2E/DX2                !
 ! D123  D(42,23,24,67)        178.8996         estimate D2E/DX2                !
 ! D124  D(22,23,42,18)         -0.7413         estimate D2E/DX2                !
 ! D125  D(22,23,42,41)        178.2839         estimate D2E/DX2                !
 ! D126  D(24,23,42,18)       -179.866          estimate D2E/DX2                !
 ! D127  D(24,23,42,41)         -0.8408         estimate D2E/DX2                !
 ! D128  D(23,24,25,26)        178.714          estimate D2E/DX2                !
 ! D129  D(23,24,25,40)         -0.3248         estimate D2E/DX2                !
 ! D130  D(67,24,25,26)          0.5761         estimate D2E/DX2                !
 ! D131  D(67,24,25,40)       -178.4628         estimate D2E/DX2                !
 ! D132  D(24,25,26,27)       -137.2187         estimate D2E/DX2                !
 ! D133  D(24,25,26,39)         41.6352         estimate D2E/DX2                !
 ! D134  D(40,25,26,27)         41.8061         estimate D2E/DX2                !
 ! D135  D(40,25,26,39)       -139.34           estimate D2E/DX2                !
 ! D136  D(24,25,40,41)         -0.0142         estimate D2E/DX2                !
 ! D137  D(24,25,40,82)       -179.3959         estimate D2E/DX2                !
 ! D138  D(26,25,40,41)       -179.0524         estimate D2E/DX2                !
 ! D139  D(26,25,40,82)          1.566          estimate D2E/DX2                !
 ! D140  D(25,26,27,28)        178.9394         estimate D2E/DX2                !
 ! D141  D(25,26,27,68)          0.8813         estimate D2E/DX2                !
 ! D142  D(39,26,27,28)          0.0663         estimate D2E/DX2                !
 ! D143  D(39,26,27,68)       -177.9918         estimate D2E/DX2                !
 ! D144  D(25,26,39,38)       -178.9842         estimate D2E/DX2                !
 ! D145  D(25,26,39,81)          1.6587         estimate D2E/DX2                !
 ! D146  D(27,26,39,38)         -0.1115         estimate D2E/DX2                !
 ! D147  D(27,26,39,81)       -179.4687         estimate D2E/DX2                !
 ! D148  D(26,27,28,29)          0.7794         estimate D2E/DX2                !
 ! D149  D(26,27,28,69)       -177.1135         estimate D2E/DX2                !
 ! D150  D(68,27,28,29)        178.8696         estimate D2E/DX2                !
 ! D151  D(68,27,28,69)          0.9768         estimate D2E/DX2                !
 ! D152  D(27,28,29,30)       -178.2222         estimate D2E/DX2                !
 ! D153  D(27,28,29,38)         -1.5613         estimate D2E/DX2                !
 ! D154  D(69,28,29,30)         -0.3753         estimate D2E/DX2                !
 ! D155  D(69,28,29,38)        176.2856         estimate D2E/DX2                !
 ! D156  D(28,29,30,31)        -34.5576         estimate D2E/DX2                !
 ! D157  D(28,29,30,70)        150.3458         estimate D2E/DX2                !
 ! D158  D(38,29,30,31)        148.7898         estimate D2E/DX2                !
 ! D159  D(38,29,30,70)        -26.3068         estimate D2E/DX2                !
 ! D160  D(28,29,38,39)          1.5193         estimate D2E/DX2                !
 ! D161  D(28,29,38,80)       -179.0294         estimate D2E/DX2                !
 ! D162  D(30,29,38,39)        178.256          estimate D2E/DX2                !
 ! D163  D(30,29,38,80)         -2.2928         estimate D2E/DX2                !
 ! D164  D(29,30,31,32)        -12.3525         estimate D2E/DX2                !
 ! D165  D(29,30,31,33)        169.6582         estimate D2E/DX2                !
 ! D166  D(70,30,31,32)        162.7939         estimate D2E/DX2                !
 ! D167  D(70,30,31,33)        -15.1954         estimate D2E/DX2                !
 ! D168  D(30,31,33,34)        179.5919         estimate D2E/DX2                !
 ! D169  D(32,31,33,34)          1.6141         estimate D2E/DX2                !
 ! D170  D(31,33,34,35)         60.7951         estimate D2E/DX2                !
 ! D171  D(31,33,34,36)        179.3228         estimate D2E/DX2                !
 ! D172  D(31,33,34,37)        -62.1811         estimate D2E/DX2                !
 ! D173  D(33,34,35,71)        172.8473         estimate D2E/DX2                !
 ! D174  D(33,34,35,72)        -67.4603         estimate D2E/DX2                !
 ! D175  D(33,34,35,73)         52.7947         estimate D2E/DX2                !
 ! D176  D(36,34,35,71)         55.3242         estimate D2E/DX2                !
 ! D177  D(36,34,35,72)        175.0166         estimate D2E/DX2                !
 ! D178  D(36,34,35,73)        -64.7283         estimate D2E/DX2                !
 ! D179  D(37,34,35,71)        -64.2145         estimate D2E/DX2                !
 ! D180  D(37,34,35,72)         55.4779         estimate D2E/DX2                !
 ! D181  D(37,34,35,73)        175.7329         estimate D2E/DX2                !
 ! D182  D(33,34,36,74)         59.5639         estimate D2E/DX2                !
 ! D183  D(33,34,36,75)        179.9055         estimate D2E/DX2                !
 ! D184  D(33,34,36,76)        -59.7293         estimate D2E/DX2                !
 ! D185  D(35,34,36,74)        179.2717         estimate D2E/DX2                !
 ! D186  D(35,34,36,75)        -60.3868         estimate D2E/DX2                !
 ! D187  D(35,34,36,76)         59.9784         estimate D2E/DX2                !
 ! D188  D(37,34,36,74)        -60.0631         estimate D2E/DX2                !
 ! D189  D(37,34,36,75)         60.2785         estimate D2E/DX2                !
 ! D190  D(37,34,36,76)       -179.3563         estimate D2E/DX2                !
 ! D191  D(33,34,37,77)        -52.7787         estimate D2E/DX2                !
 ! D192  D(33,34,37,78)         67.4721         estimate D2E/DX2                !
 ! D193  D(33,34,37,79)       -172.8123         estimate D2E/DX2                !
 ! D194  D(35,34,37,77)       -175.758          estimate D2E/DX2                !
 ! D195  D(35,34,37,78)        -55.5072         estimate D2E/DX2                !
 ! D196  D(35,34,37,79)         64.2084         estimate D2E/DX2                !
 ! D197  D(36,34,37,77)         64.7071         estimate D2E/DX2                !
 ! D198  D(36,34,37,78)       -175.0421         estimate D2E/DX2                !
 ! D199  D(36,34,37,79)        -55.3265         estimate D2E/DX2                !
 ! D200  D(29,38,39,26)         -0.6922         estimate D2E/DX2                !
 ! D201  D(29,38,39,81)        178.6757         estimate D2E/DX2                !
 ! D202  D(80,38,39,26)        179.852          estimate D2E/DX2                !
 ! D203  D(80,38,39,81)         -0.78           estimate D2E/DX2                !
 ! D204  D(25,40,41,42)         -0.0847         estimate D2E/DX2                !
 ! D205  D(25,40,41,83)        179.3919         estimate D2E/DX2                !
 ! D206  D(82,40,41,42)        179.3075         estimate D2E/DX2                !
 ! D207  D(82,40,41,83)         -1.2159         estimate D2E/DX2                !
 ! D208  D(40,41,42,18)        179.5073         estimate D2E/DX2                !
 ! D209  D(40,41,42,23)          0.5085         estimate D2E/DX2                !
 ! D210  D(83,41,42,18)          0.0484         estimate D2E/DX2                !
 ! D211  D(83,41,42,23)       -178.9504         estimate D2E/DX2                !
 ! D212  D(17,43,44,89)        -69.938          estimate D2E/DX2                !
 ! D213  D(45,43,44,89)        109.6039         estimate D2E/DX2                !
 ! D214  D(17,43,45,46)          1.0718         estimate D2E/DX2                !
 ! D215  D(17,43,45,84)       -179.3934         estimate D2E/DX2                !
 ! D216  D(44,43,45,46)       -178.4691         estimate D2E/DX2                !
 ! D217  D(44,43,45,84)          1.0657         estimate D2E/DX2                !
 ! D218  D(43,44,89,20)         35.4228         estimate D2E/DX2                !
 ! D219  D(43,45,46,47)          0.8432         estimate D2E/DX2                !
 ! D220  D(43,45,46,85)        179.7302         estimate D2E/DX2                !
 ! D221  D(84,45,46,47)       -178.6929         estimate D2E/DX2                !
 ! D222  D(84,45,46,85)          0.1941         estimate D2E/DX2                !
 ! D223  D(45,46,47,16)         -1.0842         estimate D2E/DX2                !
 ! D224  D(45,46,47,48)        177.9344         estimate D2E/DX2                !
 ! D225  D(85,46,47,16)       -179.9516         estimate D2E/DX2                !
 ! D226  D(85,46,47,48)         -0.933          estimate D2E/DX2                !
 ! D227  D(16,47,48,13)          0.7285         estimate D2E/DX2                !
 ! D228  D(16,47,48,86)        178.7697         estimate D2E/DX2                !
 ! D229  D(46,47,48,13)       -178.2885         estimate D2E/DX2                !
 ! D230  D(46,47,48,86)         -0.2473         estimate D2E/DX2                !
 ! D231  D(12,49,50,9)           0.9318         estimate D2E/DX2                !
 ! D232  D(12,49,50,88)       -179.9123         estimate D2E/DX2                !
 ! D233  D(87,49,50,9)        -179.8459         estimate D2E/DX2                !
 ! D234  D(87,49,50,88)         -0.69           estimate D2E/DX2                !
 --------------------------------------------------------------------------------
 Trust Radius=3.00D-01 FncErr=1.00D-07 GrdErr=1.00D-06 EigMax=2.50D+02 EigMin=1.00D-04
 Number of steps in this run=    500 maximum allowed number of steps=    534.
 GradGradGradGradGradGradGradGradGradGradGradGradGradGradGradGradGradGrad

 Leave Link  103 at Thu Mar 27 14:46:21 2025, MaxMem= 13421772800 cpu:               0.4 elap:               0.0
 (Enter /public/software/apps/Gaussian/g16/l202.exe)
 Symmetry turned off by external request.
 Stoichiometry    C42H38CuN2O6(2)
 Framework group  C1[X(C42H38CuN2O6)]
 Deg. of freedom   261
 Full point group                 C1      NOp   1
                          Input orientation:                          
 ---------------------------------------------------------------------
 Center     Atomic      Atomic             Coordinates (Angstroms)
 Number     Number       Type             X           Y           Z
 ---------------------------------------------------------------------
      1          6           0      -10.530364   -4.250879    1.064065
      2          6           0      -10.767481   -3.960024   -0.430658
      3          6           0      -11.799246   -2.829365   -0.606472
      4          6           0      -11.306422   -5.231711   -1.103153
      5          8           0       -9.533851   -3.624139   -1.084017
      6          6           0       -8.696907   -2.542511   -0.770600
      7          8           0       -9.004168   -1.729602    0.142855
      8          7           0       -7.500607   -2.349223   -1.536495
      9          6           0       -6.466166   -1.413669   -1.188114
     10          6           0       -6.110863   -1.181722    0.151434
     11          6           0       -5.095693   -0.274170    0.466740
     12          6           0       -4.409421    0.412081   -0.550633
     13          6           0       -3.352928    1.399813   -0.213012
     14          6           0       -2.431076    1.136578    0.812473
     15          6           0       -1.455688    2.075340    1.153718
     16          6           0       -1.373830    3.306587    0.473431
     17          6           0       -0.402728    4.286618    0.808567
     18          6           0        0.612561    4.058062    1.871389
     19          6           0        0.508694    4.788490    3.069522
     20          8           0       -0.503833    5.728627    3.232513
     21          6           0        1.423370    4.586417    4.103628
     22          6           0        2.465045    3.672922    3.954800
     23          6           0        2.614700    2.958975    2.757721
     24          6           0        3.688389    2.068751    2.602748
     25          6           0        3.873458    1.370759    1.398170
     26          6           0        5.027953    0.451801    1.231026
     27          6           0        5.766232    0.442437    0.034433
     28          6           0        6.866596   -0.406604   -0.115417
     29          6           0        7.240742   -1.275734    0.923827
     30          7           0        8.390396   -2.132422    0.811092
     31          6           0        8.827532   -2.746592   -0.408512
     32          8           0        8.080370   -2.749210   -1.423906
     33          8           0       10.080039   -3.378348   -0.433858
     34          6           0       10.673094   -4.048196   -1.556530
     35          6           0       10.868960   -3.070739   -2.731331
     36          6           0       12.048860   -4.561531   -1.103910
     37          6           0        9.811119   -5.249860   -1.987504
     38          6           0        6.515504   -1.254866    2.123018
     39          6           0        5.415821   -0.405987    2.274678
     40          6           0        2.963387    1.569874    0.348238
     41          6           0        1.887456    2.447702    0.493388
     42          6           0        1.691256    3.151419    1.698265
     43          6           0       -0.415639    5.527647    0.145870
     44          8           0        0.485573    6.524185    0.506041
     45          6           0       -1.336688    5.777270   -0.871924
     46          6           0       -2.271054    4.807801   -1.230413
     47          6           0       -2.307028    3.577326   -0.559974
     48          6           0       -3.279181    2.623475   -0.898127
     49          6           0       -4.748261    0.155709   -1.891046
     50          6           0       -5.760446   -0.755882   -2.204921
     51          1           0      -10.230875   -3.335307    1.613425
     52          1           0       -9.727559   -5.009122    1.184112
     53          1           0      -11.457455   -4.639093    1.538877
     54          1           0      -11.492496   -1.912064   -0.064061
     55          1           0      -11.911967   -2.577533   -1.682622
     56          1           0      -12.790085   -3.140030   -0.210112
     57          1           0      -10.574424   -6.061539   -1.000383
     58          1           0      -12.267924   -5.549171   -0.643897
     59          1           0      -11.474285   -5.052800   -2.187016
     60          1           0       -7.425286   -2.857323   -2.446699
     61          1           0       -6.603957   -1.712978    0.954701
     62          1           0       -4.858790   -0.097166    1.508420
     63          1           0       -2.459238    0.196377    1.348718
     64          1           0       -0.775223    1.830844    1.958703
     65          1           0        1.329384    5.145873    5.025651
     66          1           0        3.163620    3.535407    4.771806
     67          1           0        4.399134    1.941879    3.411707
     68          1           0        5.511049    1.115129   -0.774819
     69          1           0        7.441599   -0.355542   -1.030370
     70          1           0        8.904439   -2.387969    1.684442
     71          1           0       11.442968   -3.554665   -3.551027
     72          1           0        9.896832   -2.741074   -3.151171
     73          1           0       11.425752   -2.171243   -2.391822
     74          1           0       11.936447   -5.260144   -0.246768
     75          1           0       12.567032   -5.095977   -1.929673
     76          1           0       12.688098   -3.713375   -0.775941
     77          1           0        9.611932   -5.909053   -1.115441
     78          1           0        8.838073   -4.921419   -2.406351
     79          1           0       10.331801   -5.843812   -2.769772
     80          1           0        6.798674   -1.905875    2.940338
     81          1           0        4.862104   -0.427808    3.204941
     82          1           0        3.078171    1.036508   -0.587197
     83          1           0        1.218984    2.575031   -0.347880
     84          1           0       -1.332132    6.732060   -1.382560
     85          1           0       -2.978631    5.027949   -2.021308
     86          1           0       -4.000472    2.847442   -1.675434
     87          1           0       -4.221435    0.651035   -2.696986
     88          1           0       -6.005436   -0.940457   -3.243616
     89         29           0        0.136817    7.314377    2.268788
 ---------------------------------------------------------------------
 Rotational constants (GHZ):           0.0411974           0.0164222           0.0124215
 Leave Link  202 at Thu Mar 27 14:46:21 2025, MaxMem= 13421772800 cpu:               0.1 elap:               0.0
 (Enter /public/software/apps/Gaussian/g16/l301.exe)
 Standard basis: def2SVPP (5D, 7F)
 Ernie: Thresh=  0.10000D-02 Tol=  0.10000D-05 Strict=F.
   800 basis functions,  1473 primitive gaussians,   852 cartesian basis functions
   191 alpha electrons      190 beta electrons
       nuclear repulsion energy      6200.8960981933 Hartrees.
 IExCor=  402 DFT=T Ex+Corr=B3LYP ExCW=0 ScaHFX=  0.200000
 ScaDFX=  0.800000  0.720000  1.000000  0.810000 ScalE2=  1.000000  1.000000
 IRadAn=      5 IRanWt=     -1 IRanGd=            0 ICorTp=0 IEmpDi=141
 NAtoms=   89 NActive=   89 NUniq=   89 SFac= 1.00D+00 NAtFMM=   60 NAOKFM=T Big=T
 Integral buffers will be    131072 words long.
 Raffenetti 2 integral format.
 Two-electron integral symmetry is turned off.
 R6Disp:  Grimme-D3(BJ) Dispersion energy=       -0.2136917005 Hartrees.
 Nuclear repulsion after empirical dispersion term =     6200.6824064928 Hartrees.
 Leave Link  301 at Thu Mar 27 14:46:21 2025, MaxMem= 13421772800 cpu:               1.1 elap:               0.0
 (Enter /public/software/apps/Gaussian/g16/l302.exe)
 NPDir=0 NMtPBC=     1 NCelOv=     1 NCel=       1 NClECP=     1 NCelD=      1
         NCelK=      1 NCelE2=     1 NClLst=     1 CellRange=     0.0.
 One-electron integrals computed using PRISM.
   1 Symmetry operations used in ECPInt.
 ECPInt:  NShTT=   74691 NPrTT=  305394 LenC2=   41275 LenP2D=  102452.
 LDataN:  DoStor=T MaxTD1= 4 Len=   56
 NBasis=   800 RedAO= T EigKep=  1.88D-04  NBF=   800
 NBsUse=   800 1.00D-06 EigRej= -1.00D+00 NBFU=   800
 Precomputing XC quadrature grid using
 IXCGrd= 4 IRadAn=           5 IRanWt=          -1 IRanGd=           0 AccXCQ= 0.00D+00.
 Generated NRdTot=       0 NPtTot=           0 NUsed=           0 NTot=          32
 NSgBfM=   698   697   697   698   698 MxSgAt=    89 MxSgA2=    89.
 Leave Link  302 at Thu Mar 27 14:46:23 2025, MaxMem= 13421772800 cpu:              35.8 elap:               1.1
 (Enter /public/software/apps/Gaussian/g16/l303.exe)
 DipDrv:  MaxL=1.
 Leave Link  303 at Thu Mar 27 14:46:23 2025, MaxMem= 13421772800 cpu:               3.0 elap:               0.1
 (Enter /public/software/apps/Gaussian/g16/l401.exe)
 ExpMin= 3.30D-02 ExpMax= 7.64D+04 ExpMxC= 1.15D+04 IAcc=3 IRadAn=         5 AccDes= 0.00D+00
 Harris functional with IExCor=  402 and IRadAn=       5 diagonalized for initial guess.
 HarFok:  IExCor=  402 AccDes= 0.00D+00 IRadAn=         5 IDoV= 1 UseB2=F ITyADJ=14
 ICtDFT=  3500011 ScaDFX=  1.000000  1.000000  1.000000  1.000000
 FoFCou: FMM=F IPFlag=           0 FMFlag=      100000 FMFlg1=        2001
         NFxFlg=           0 DoJE=T BraDBF=F KetDBF=T FulRan=T
         wScrn=  0.000000 ICntrl=       500 IOpCl=  0 I1Cent=   200000004 NGrid=           0
         NMat0=    1 NMatS0=      1 NMatT0=    0 NMatD0=    1 NMtDS0=    0 NMtDT0=    0
 Symmetry not used in FoFCou.
 Harris En= -3823.38477162292    
 JPrj=0 DoOrth=F DoCkMO=F.
 Initial guess <Sx>= 0.0000 <Sy>= 0.0000 <Sz>= 0.5000 <S**2>= 0.7500 S= 0.5000
 Leave Link  401 at Thu Mar 27 14:46:25 2025, MaxMem= 13421772800 cpu:              64.1 elap:               2.0
 (Enter /public/software/apps/Gaussian/g16/l502.exe)
 Two-electron integral symmetry not used.
 UHF open shell SCF:
 Using DIIS extrapolation, IDIIS=  1040.
 NGot= 13421772800 LenX= 13420284496 LenY= 13419557740
 Requested convergence on RMS density matrix=1.00D-08 within 128 cycles.
 Requested convergence on MAX density matrix=1.00D-06.
 Requested convergence on             energy=1.00D-06.
 No special actions if energy rises.
 Fock matrices will be formed incrementally for  20 cycles.

 Cycle   1  Pass 1  IDiag  1:
 FoFJK:  IHMeth= 1 ICntrl=       0 DoSepK=F KAlg= 0 I1Cent=           0 FoldK=F
 IRaf= 630000000 NMat=       1 IRICut=       1 DoRegI=T DoRafI=F ISym2E= 0 IDoP0=0 IntGTp=1.
 FoFCou: FMM=T IPFlag=           0 FMFlag=      100000 FMFlg1=        2001
         NFxFlg=           0 DoJE=F BraDBF=F KetDBF=F FulRan=T
         wScrn=  0.000000 ICntrl=         0 IOpCl=  1 I1Cent=           0 NGrid=           0
         NMat0=    1 NMatS0=      1 NMatT0=    0 NMatD0=    1 NMtDS0=    0 NMtDT0=    0
 Symmetry not used in FoFCou.
 FMM levels:  10  Number of levels for PrismC:   9
 E= -3805.39200077375    
 DIIS: error= 2.88D-01 at cycle   1 NSaved=   1.
 NSaved= 1 IEnMin= 1 EnMin= -3805.39200077375     IErMin= 1 ErrMin= 2.88D-01
 ErrMax= 2.88D-01  0.00D+00 EMaxC= 1.00D-01 BMatC= 8.35D+01 BMatP= 8.35D+01
 IDIUse=3 WtCom= 0.00D+00 WtEn= 1.00D+00
 Coeff-Com:  0.100D+01
 Coeff-En:   0.100D+01
 Coeff:      0.100D+01
 Gap=     0.431 Goal=   None    Shift=    0.000
 Gap=    -0.176 Goal=   None    Shift=    0.000
 GapD=   -0.176 DampG=0.250 DampE=0.125 DampFc=0.1250 IDamp=-1.
 Damping current iteration by 1.25D-01
 RMSDP=5.66D-02 MaxDP=1.39D+01              OVMax= 9.88D-01

 Cycle   2  Pass 1  IDiag  1:
 RMSU=  7.05D-03    CP:  1.03D+00
 E= -3811.42776035511     Delta-E=       -6.035759581355 Rises=F Damp=T
 DIIS: error= 1.62D-01 at cycle   2 NSaved=   2.
 NSaved= 2 IEnMin= 2 EnMin= -3811.42776035511     IErMin= 2 ErrMin= 1.62D-01
 ErrMax= 1.62D-01  0.00D+00 EMaxC= 1.00D-01 BMatC= 3.11D+01 BMatP= 8.35D+01
 IDIUse=3 WtCom= 0.00D+00 WtEn= 1.00D+00
 Coeff-Com: -0.123D+01 0.223D+01
 Coeff-En:   0.000D+00 0.100D+01
 Coeff:      0.000D+00 0.100D+01
 Gap=    -0.090 Goal=   None    Shift=    0.000
 Gap=     0.080 Goal=   None    Shift=    0.000
 RMSDP=1.09D-02 MaxDP=3.09D+00 DE=-6.04D+00 OVMax= 8.60D-01

 Cycle   3  Pass 1  IDiag  1:
 RMSU=  1.07D-02    CP:  9.32D-01  1.11D+00
 E= -3784.76326939847     Delta-E=       26.664490956642 Rises=F Damp=F
 DIIS: error= 2.45D-01 at cycle   3 NSaved=   3.
 NSaved= 3 IEnMin= 2 EnMin= -3811.42776035511     IErMin= 2 ErrMin= 1.62D-01
 ErrMax= 2.45D-01  0.00D+00 EMaxC= 1.00D-01 BMatC= 1.08D+02 BMatP= 3.11D+01
 IDIUse=2 WtCom= 0.00D+00 WtEn= 1.00D+00
 EnCoef did   100 forward-backward iterations
 Coeff-En:   0.598D+00 0.385D-01 0.364D+00
 Coeff:      0.598D+00 0.385D-01 0.364D+00
 Gap=     0.041 Goal=   None    Shift=    0.000
 Gap=     0.018 Goal=   None    Shift=    0.000
 RMSDP=1.19D-02 MaxDP=3.10D+00 DE= 2.67D+01 OVMax= 8.56D-01

 Cycle   4  Pass 1  IDiag  1:
 RMSU=  5.48D-03    CP:  9.06D-01  1.52D-01  2.36D-01
 E= -3812.35284887496     Delta-E=      -27.589579476495 Rises=F Damp=F
 DIIS: error= 1.44D-01 at cycle   4 NSaved=   4.
 NSaved= 4 IEnMin= 4 EnMin= -3812.35284887496     IErMin= 4 ErrMin= 1.44D-01
 ErrMax= 1.44D-01  0.00D+00 EMaxC= 1.00D-01 BMatC= 3.17D+01 BMatP= 3.11D+01
 IDIUse=3 WtCom= 0.00D+00 WtEn= 1.00D+00
 EnCoef did   100 forward-backward iterations
 Coeff-Com: -0.830D+00 0.159D+01 0.787D-01 0.158D+00
 Coeff-En:   0.417D+00 0.172D-01 0.133D+00 0.432D+00
 Coeff:      0.417D+00 0.172D-01 0.133D+00 0.432D+00
 Gap=     0.163 Goal=   None    Shift=    0.000
 Gap=     0.466 Goal=   None    Shift=    0.000
 RMSDP=1.89D-02 MaxDP=3.24D+00 DE=-2.76D+01 OVMax= 9.95D-01

 Cycle   5  Pass 1  IDiag  1:
 RMSU=  1.82D-02    CP:  9.06D-01  3.97D-02  2.29D-01  9.45D-02
 E= -3775.19769858614     Delta-E=       37.155150288818 Rises=F Damp=F
 DIIS: error= 1.03D-01 at cycle   5 NSaved=   5.
 NSaved= 5 IEnMin= 4 EnMin= -3812.35284887496     IErMin= 5 ErrMin= 1.03D-01
 ErrMax= 1.03D-01  0.00D+00 EMaxC= 1.00D-01 BMatC= 9.66D+01 BMatP= 3.11D+01
 IDIUse=2 WtCom= 0.00D+00 WtEn= 1.00D+00
 EnCoef did   100 forward-backward iterations
 Coeff-En:   0.271D+00 0.120D-01 0.000D+00 0.558D+00 0.159D+00
 Coeff:      0.271D+00 0.120D-01 0.000D+00 0.558D+00 0.159D+00
 Gap=    -0.131 Goal=   None    Shift=    0.000
 Gap=     0.298 Goal=   None    Shift=    0.000
 RMSDP=1.77D-02 MaxDP=3.07D+00 DE= 3.72D+01 OVMax= 9.29D-01

 Cycle   6  Pass 1  IDiag  1:
 RMSU=  4.04D-03    CP:  9.07D-01  5.37D-02  2.01D-01  2.08D-01  5.09D-02
 E= -3818.88528298376     Delta-E=      -43.687584397612 Rises=F Damp=F
 DIIS: error= 4.84D-02 at cycle   6 NSaved=   6.
 NSaved= 6 IEnMin= 6 EnMin= -3818.88528298376     IErMin= 6 ErrMin= 4.84D-02
 ErrMax= 4.84D-02  0.00D+00 EMaxC= 1.00D-01 BMatC= 1.19D+01 BMatP= 3.11D+01
 IDIUse=3 WtCom= 5.16D-01 WtEn= 4.84D-01
 EnCoef did   100 forward-backward iterations
 Coeff-Com: -0.483D+00 0.948D+00-0.137D-02 0.133D+00 0.314D-01 0.372D+00
 Coeff-En:   0.208D+00 0.443D-02 0.000D+00 0.256D+00 0.000D+00 0.532D+00
 Coeff:     -0.149D+00 0.491D+00-0.706D-03 0.193D+00 0.162D-01 0.449D+00
 Gap=     0.081 Goal=   None    Shift=    0.000
 Gap=     0.121 Goal=   None    Shift=    0.000
 RMSDP=5.75D-03 MaxDP=1.37D+00 DE=-4.37D+01 OVMax= 9.31D-01

 Cycle   7  Pass 1  IDiag  1:
 RMSU=  4.75D-03    CP:  9.04D-01  4.45D-02  1.09D-01  2.81D-01  4.90D-02
                    CP:  2.44D-01
 E= -3809.42862848339     Delta-E=        9.456654500365 Rises=F Damp=F
 DIIS: error= 8.90D-02 at cycle   7 NSaved=   7.
 NSaved= 7 IEnMin= 6 EnMin= -3818.88528298376     IErMin= 6 ErrMin= 4.84D-02
 ErrMax= 8.90D-02  0.00D+00 EMaxC= 1.00D-01 BMatC= 2.71D+01 BMatP= 1.19D+01
 IDIUse=2 WtCom= 0.00D+00 WtEn= 1.00D+00
 EnCoef did   100 forward-backward iterations
 Coeff-En:   0.173D+00 0.221D-02 0.000D+00 0.254D+00 0.000D+00 0.463D+00
 Coeff-En:   0.107D+00
 Coeff:      0.173D+00 0.221D-02 0.000D+00 0.254D+00 0.000D+00 0.463D+00
 Coeff:      0.107D+00
 Gap=     0.071 Goal=   None    Shift=    0.000
 Gap=    -0.035 Goal=   None    Shift=    0.000
 RMSDP=4.48D-03 MaxDP=3.68D-01 DE= 9.46D+00 OVMax= 7.05D-01

 Cycle   8  Pass 1  IDiag  1:
 RMSU=  2.51D-03    CP:  9.02D-01  2.69D-04  1.01D-01  4.02D-01  1.12D-02
                    CP:  2.70D-01  2.48D-01
 E= -3822.51370494080     Delta-E=      -13.085076457412 Rises=F Damp=F
 DIIS: error= 1.87D-02 at cycle   8 NSaved=   8.
 NSaved= 8 IEnMin= 8 EnMin= -3822.51370494080     IErMin= 8 ErrMin= 1.87D-02
 ErrMax= 1.87D-02  0.00D+00 EMaxC= 1.00D-01 BMatC= 1.82D+00 BMatP= 1.19D+01
 IDIUse=3 WtCom= 8.13D-01 WtEn= 1.87D-01
 EnCoef did   100 forward-backward iterations
 Coeff-Com: -0.381D-03 0.457D-01-0.680D-02-0.648D-01-0.148D-01 0.232D+00
 Coeff-Com:  0.455D-01 0.763D+00
 Coeff-En:   0.339D-01 0.000D+00 0.000D+00 0.000D+00 0.000D+00 0.130D+00
 Coeff-En:   0.181D-02 0.834D+00
 Coeff:      0.603D-02 0.372D-01-0.553D-02-0.526D-01-0.120D-01 0.213D+00
 Coeff:      0.374D-01 0.776D+00
 Gap=     0.235 Goal=   None    Shift=    0.000
 Gap=     0.019 Goal=   None    Shift=    0.000
 RMSDP=2.34D-03 MaxDP=3.02D-01 DE=-1.31D+01 OVMax= 5.33D-01

 Cycle   9  Pass 1  IDiag  1:
 RMSU=  1.98D-03    CP:  9.06D-01 -1.03D-02  9.59D-02  2.74D-01  1.53D-02
                    CP:  4.18D-01  2.99D-01  6.79D-01
 E= -3822.53459376481     Delta-E=       -0.020888824009 Rises=F Damp=F
 DIIS: error= 2.65D-02 at cycle   9 NSaved=   9.
 NSaved= 9 IEnMin= 9 EnMin= -3822.53459376481     IErMin= 8 ErrMin= 1.87D-02
 ErrMax= 2.65D-02  0.00D+00 EMaxC= 1.00D-01 BMatC= 1.90D+00 BMatP= 1.82D+00
 IDIUse=3 WtCom= 8.13D-01 WtEn= 1.87D-01
 Coeff-Com: -0.391D-01 0.649D-01-0.168D-02-0.307D-01 0.159D-02 0.118D+00
 Coeff-Com:  0.692D-02 0.529D+00 0.352D+00
 Coeff-En:   0.000D+00 0.000D+00 0.000D+00 0.000D+00 0.000D+00 0.000D+00
 Coeff-En:   0.000D+00 0.493D+00 0.507D+00
 Coeff:     -0.318D-01 0.527D-01-0.136D-02-0.250D-01 0.129D-02 0.959D-01
 Coeff:      0.563D-02 0.522D+00 0.381D+00
 Gap=     0.185 Goal=   None    Shift=    0.000
 Gap=     0.070 Goal=   None    Shift=    0.000
 RMSDP=1.70D-03 MaxDP=2.62D-01 DE=-2.09D-02 OVMax= 5.33D-01

 Cycle  10  Pass 1  IDiag  1:
 RMSU=  8.17D-04    CP:  8.99D-01 -2.12D-02  1.12D-01  2.98D-01  1.86D-02
                    CP:  4.38D-01  2.38D-01  8.13D-01  2.91D-01
 E= -3823.04381912806     Delta-E=       -0.509225363248 Rises=F Damp=F
 DIIS: error= 1.96D-02 at cycle  10 NSaved=  10.
 NSaved=10 IEnMin=10 EnMin= -3823.04381912806     IErMin= 8 ErrMin= 1.87D-02
 ErrMax= 1.96D-02  0.00D+00 EMaxC= 1.00D-01 BMatC= 3.57D-01 BMatP= 1.82D+00
 IDIUse=3 WtCom= 8.13D-01 WtEn= 1.87D-01
 EnCoef did     4 forward-backward iterations
 Coeff-Com: -0.475D-01 0.782D-01 0.134D-02-0.245D-01 0.142D-02 0.836D-02
 Coeff-Com: -0.399D-02 0.250D+00 0.265D+00 0.472D+00
 Coeff-En:   0.000D+00 0.000D+00 0.000D+00 0.000D+00 0.000D+00 0.000D+00
 Coeff-En:   0.000D+00 0.161D-01 0.100D+00 0.884D+00
 Coeff:     -0.386D-01 0.636D-01 0.109D-02-0.199D-01 0.115D-02 0.680D-02
 Coeff:     -0.324D-02 0.206D+00 0.234D+00 0.549D+00
[...]
 0000095,-0.00000198,0.00000157,0.00000058,0.00000145,-0.00000035,0.000
 00016,0.00000057,-0.00000032,-0.00000158,0.00000022,-0.00000271,-0.000
 00368,-0.00000133,0.00000248,0.00000196,-0.00000551,0.00000385,-0.0000
 0412,0.00000398,-0.00000496,0.00000292,-0.00000378,0.00000680,0.000009
 39,-0.00000129,0.00000691,0.00001219,0.00000370,-0.00000327,0.00000118
 ,0.00000147,-0.00000100,0.00000081,0.00006992,0.00001519,0.00000738,-0
 .00158614,0.00281059,0.00054193,0.06632383,0.00002116,0.00002283,-0.00
 000706,-0.00012574,-0.00005143,0.00003332,0.00000190,0.00001262,-0.000
 00646,0.00000298,0.00001561,-0.00000636,0.00011621,0.00017073,-0.00006
 942,0.00028183,-0.00056105,0.00040526,-0.00014924,0.00010238,-0.000317
 33,0.00300627,-0.00046327,0.00073986,0.00347500,0.00546134,0.01514835,
 -0.00380074,0.00081242,0.00232283,-0.00025567,-0.00077322,0.00030692,-
 0.00585131,0.00106527,0.00074634,-0.00027539,0.00048432,-0.00091855,-0
 .00012374,-0.00033619,-0.00004900,-0.00008281,0.00001982,-0.00006362,0
 .00000956,-0.00000755,-0.00000211,-0.00002173,0.00007003,-0.00005339,-
 0.00003126,-0.00004499,-0.00009898,-0.00002992,0.00004838,0.00009158,0
 .00007299,-0.00007723,-0.00005893,0.00003212,-0.00000011,0.00002823,-0
 .00001766,0.00003479,0.00003654,0.00001787,-0.00003273,-0.00002994,-0.
 00001973,0.00003689,0.00005022,0.00000788,-0.00002287,-0.00003474,-0.0
 0000796,0.00000794,0.00000318,0.00000066,-0.00000328,-0.00001325,-0.00
 000723,0.00001173,-0.00000701,0.00002350,-0.00002359,-0.00000393,-0.00
 003460,0.00002832,0.00002383,0.00003269,-0.00002208,-0.00003599,-0.000
 00778,0.00000171,0.00001690,-0.00002312,0.00002210,0.00000557,0.000011
 44,-0.00000835,-0.00000929,-0.00000157,0.00000090,0.00000175,-0.000000
 72,0.00000054,0.00000100,-0.00000144,0.00000119,0.00000165,-0.00001072
 ,0.00000348,0.00001294,0.00000633,-0.00000286,0.00000949,-0.00000119,-
 0.00000252,-0.00000700,-0.00000727,-0.00000149,-0.00001240,0.00000486,
 0.00001677,0.00001167,-0.00004240,-0.00008387,0.00004908,0.00005141,0.
 00007050,0.00002109,0.00003484,-0.00001954,0.00002976,-0.00004189,-0.0
 0004537,-0.00001367,0.00003554,0.00003495,0.00001203,-0.00004082,-0.00
 007430,0.00001613,-0.00572740,0.00023557,-0.02163412,-0.02365687,-0.05
 232176,-0.03726367,-0.00000145,-0.00000713,0.00000716,0.00000106,-0.00
 000956,-0.00000165,0.00000233,0.00001132,-0.00000526,-0.00000524,0.000
 00002,0.00000113,0.00000372,-0.00000302,0.00000406,0.00000618,-0.00000
 107,-0.00000488,-0.00000140,-0.00000811,-0.00000364,0.00000766,0.00000
 433,0.00000092,-0.00000060,-0.00000371,0.00000282,-0.00068607,-0.00006
 216,-0.00026082,0.00025838,0.00025528,0.00074219,0.00038692,-0.0003650
 0,-0.00011667,0.00001994,-0.00000790,0.00001163,-0.00003404,-0.0000182
 4,0.00000785,0.00000267,-0.00000246,-0.00000003,-0.00000349,0.00000165
 ,-0.00000102,-0.00000177,0.00000009,-0.00000191,0.00000159,-0.00000102
 ,-0.00000116,0.00000087,0.00000040,-0.00000040,0.00000134,-0.00000114,
 0.00000158,-0.00000128,0.00000053,0.00000076,0.00000135,0.00000004,-0.
 00000135,0.00000052,-0.00000026,-0.00000034,0.00000024,-0.00000055,-0.
 00000014,-0.00000078,0.00000077,0.00000046,0.00000044,-0.00000031,-0.0
 0000031,0.00000019,-0.00000080,-0.00000013,0.00000048,-0.00000068,-0.0
 0000169,-0.00000070,0.00000111,0.00000093,-0.00000140,0.00000185,-0.00
 000132,0.00000195,-0.00000121,0.00000142,0.00000038,0.00000306,0.00000
 195,0.00000025,0.00000487,0.00000328,-0.00000172,-0.00000425,-0.000000
 10,0.00000263,-0.00000173,0.00000715,-0.00002389,-0.00001692,-0.000013
 34,0.00285879,-0.00171062,-0.00013253,0.03036283,0.04812074,-0.0000072
 7,-0.00001607,0.00000373,0.00007899,0.00009672,-0.00003424,-0.00001766
 ,-0.00000966,0.00000519,-0.00000969,-0.00000753,-0.00000332,-0.0000062
 1,-0.00003605,0.00016620,0.00043462,0.00047027,-0.00059964,0.00003391,
 -0.00007939,0.00076140,-0.00108603,-0.00172477,0.00147482,-0.01005910,
 -0.00694017,-0.01770394,0.00266563,0.00361853,-0.00157582,0.00067245,0
 .00045916,0.00057455,-0.00098358,-0.00016066,0.00211918,0.00013703,0.0
 0037811,-0.00029288,-0.00003142,-0.00012527,-0.00000487,-0.00004221,0.
 00004188,-0.00005615,-0.00002708,-0.00007926,0.00000217,-0.00004885,0.
 00024114,-0.00017110,-0.00008363,-0.00012718,-0.00027531,-0.00008466,0
 .00012981,0.00026031,0.00019411,-0.00021364,-0.00015617,0.00009254,-0.
 00000067,0.00007715,-0.00005017,0.00010051,0.00010512,0.00005266,-0.00
 009346,-0.00008796,-0.00005917,0.00011009,0.00014705,0.00002316,-0.000
 06853,-0.00010429,-0.00002332,0.00002385,0.00000878,0.00000406,-0.0000
 1011,-0.00003703,-0.00002054,0.00003672,-0.00002041,0.00006743,-0.0000
 6951,-0.00001159,-0.00009769,0.00008519,0.00006831,0.00008890,-0.00006
 507,-0.00010266,-0.00001863,0.00000760,0.00004806,-0.00006235,0.000064
 22,0.00001545,0.00002871,-0.00002521,-0.00002672,-0.00000406,0.0000031
 4,0.00000527,-0.00000218,0.00000138,0.00000326,-0.00000401,0.00000289,
 0.00000550,-0.00003068,0.00001240,0.00003826,0.00002036,-0.00000768,0.
 00002819,-0.00000090,-0.00000411,-0.00002267,-0.00001931,-0.00000211,-
 0.00003568,0.00001294,0.00005440,0.00003015,-0.00012315,-0.00027104,0.
 00013873,0.00016844,0.00023662,0.00005413,0.00009833,-0.00002720,0.000
 06857,-0.00007031,-0.00014401,0.00002812,0.00009393,0.00015059,-0.0000
 1351,-0.00012423,-0.00023651,0.00005940,-0.00036116,0.00035624,-0.0022
 5569,-0.07594974,-0.03672875,-0.30159877,0.00000046,0.00000586,-0.0000
 0220,-0.00000110,0.00000702,-0.00000147,-0.00000365,-0.00000926,0.0000
 0453,0.00000523,0.00000123,-0.00000372,0.00000819,-0.00000139,-0.00000
 231,-0.00000892,-0.00000485,0.00000572,0.00000140,0.00001390,0.0000024
 7,-0.00000702,-0.00000858,0.00000689,0.00001512,0.00000067,0.00000081,
 0.00131292,0.00135464,-0.00013845,-0.00068708,-0.00049088,-0.00092560,
 0.00000492,-0.00009002,-0.00007428,0.00001918,-0.00000902,0.00000912,-
 0.00001805,-0.00002692,0.00000976,0.00000740,-0.00000663,0.00000044,-0
 .00000994,0.00000375,-0.00000275,-0.00000572,-0.00000075,-0.00000520,0
 .00000344,-0.00000421,-0.00000355,0.00000133,-0.00000017,-0.00000098,0
 .00000146,-0.00000516,0.00000408,-0.00000353,0.00000111,0.00000197,0.0
 0000322,-0.00000003,-0.00000378,0.00000193,-0.00000033,-0.00000040,0.0
 0000093,-0.00000102,-0.00000096,-0.00000231,0.00000191,0.00000098,0.00
 000147,-0.00000059,-0.00000025,0.00000079,-0.00000103,-0.00000145,0.00
 000066,-0.00000264,-0.00000440,-0.00000176,0.00000284,0.00000253,-0.00
 000535,0.00000471,-0.00000450,0.00000475,-0.00000469,0.00000331,-0.000
 00073,0.00000615,0.00000834,-0.00000148,0.00001020,0.00001270,0.000002
 36,-0.00000315,0.00000225,-0.00000224,0.00000310,0.00000356,-0.0000114
 1,0.00001591,-0.00001539,0.00030025,-0.00054495,0.00091521,0.08362901,
 0.04035716,0.31912854,-0.00001071,-0.00001070,0.00000762,0.00006745,0.
 00006691,-0.00002938,-0.00000960,-0.00001144,0.00000815,-0.00000533,-0
 .00000651,0.00000640,-0.00014274,-0.00013327,-0.00002841,0.00021446,0.
 00023565,-0.00018805,-0.00004255,-0.00005351,0.00011841,-0.00026915,-0
 .00027201,0.00005382,0.00017839,0.00016887,0.00005630,-0.00007505,-0.0
 0007526,-0.00010428,0.00001447,0.00011110,-0.00012795,-0.00011395,-0.0
 0014112,-0.00001724,-0.00002963,0.00056070,-0.00046109,0.00008987,0.00
 015303,0.00000494,-0.00022174,-0.00001975,-0.00007899,0.00007805,-0.00
 044820,0.00014899,-0.00004038,-0.00026740,-0.00132623,-0.00011561,0.00
 086666,-0.00096616,-0.00002236,0.00304078,-0.00189870,-0.00345532,-0.0
 1742287,0.01507108,-0.00118319,0.00143384,0.00052187,-0.00064811,0.000
 48924,0.00023991,0.00015352,-0.00045240,-0.00045954,-0.00035121,0.0005
 8351,0.00076823,-0.00003853,-0.00027063,-0.00063596,-0.00010388,0.0001
 2839,0.00004811,0.00001147,-0.00003845,-0.00016108,-0.00007249,0.00011
 504,-0.00005740,0.00017552,-0.00017917,-0.00002885,-0.00026522,0.00022
 217,0.00017521,0.00021230,-0.00012797,-0.00027759,-0.00004249,-0.00000
 578,0.00013048,-0.00014155,0.00013522,0.00003709,0.00006696,-0.0000475
 9,-0.00005776,-0.00000949,0.00000663,0.00001266,-0.00000525,0.00000296
 ,0.00000876,-0.00001061,0.00000625,0.00001185,-0.00010594,0.00002793,0
 .00011615,0.00007396,-0.00002772,0.00010977,0.00007791,-0.00013747,-0.
 00005708,-0.00021970,0.00007106,-0.00005174,0.00014017,0.00028539,0.00
 034454,-0.00039166,-0.00232131,-0.00347149,-0.00285306,0.00840484,0.02
 070196,-0.00113944,-0.00144242,-0.00012948,-0.00067391,-0.00059442,0.0
 0000839,0.00019858,0.00064621,-0.00019684,-0.00039335,-0.00090960,0.00
 042729,0.00007602,-0.00002738,0.00011283,-0.00010795,-0.00007667,0.000
 09097,0.00000211,0.00000824,-0.00000622,0.00000033,0.00000393,-0.00000
 017,-0.00000274,-0.00000802,0.00000149,0.00000842,0.00000204,-0.000006
 71,0.00000214,0.00000154,-0.00000258,-0.00000747,-0.00000309,0.0000024
 2,0.00000102,0.00000310,0.00000075,-0.00000433,-0.00000456,-0.00000097
 ,0.00000248,0.00000179,-0.00000082,0.00000622,-0.00000005,0.00001607,0
 .00000284,-0.00000935,-0.00000551,0.00001258,0.00000312,0.00000870,0.0
 0000359,-0.00004458,0.00000740,0.00000695,-0.00010010,0.00002037,0.000
 23602,-0.00003770,-0.00003782,-0.00008023,0.00015913,-0.00003130,-0.00
 001691,0.00000887,-0.00002007,0.00001275,-0.00000702,0.00000561,0.0000
 0309,0.00001059,-0.00000065,0.00000629,-0.00000750,0.00001426,-0.00000
 748,0.00000180,0.00000368,0.00000848,0.00000111,-0.00000703,0.00000215
 ,-0.00000024,-0.00000304,0.00000098,-0.00000315,-0.00000078,-0.0000042
 8,0.00000462,0.00000130,0.00000247,-0.00000128,-0.00000160,0.00000027,
 -0.00000348,-0.00000197,0.00000199,-0.00000451,-0.00000942,-0.00000264
 ,0.00000655,0.00000508,-0.00001319,0.00001453,-0.00000994,0.00002194,-
 0.00000511,0.00000817,0.00000378,0.00003689,0.00002705,0.00001092,0.00
 008170,0.00006303,0.00023029,0.00004670,-0.00001681,-0.00007713,-0.000
 12266,-0.00009998,-0.00001742,0.00000169,-0.00002074,0.00002215,0.0000
 0016,0.00000928,-0.00001337,-0.00000800,-0.00001533,0.01111700,0.00001
 221,0.00001317,-0.00000912,-0.00008828,-0.00009129,0.00003229,0.000011
 63,0.00001350,-0.00000944,0.00000596,0.00000708,-0.00000551,0.00018297
 ,0.00017197,0.00004970,-0.00025066,-0.00027022,0.00012730,0.00006420,0
 .00007608,-0.00008399,0.00024414,0.00024792,-0.00005723,-0.00016287,-0
 .00014612,-0.00004225,0.00001714,0.00001639,0.00005403,0.00003768,0.00
 005130,-0.00003713,-0.00022663,-0.00018798,-0.00002541,-0.00006054,0.0
 0078729,-0.00071576,0.00040931,0.00022140,-0.00028379,-0.00009156,0.00
 056162,0.00003938,-0.00230320,-0.00128734,-0.00081602,0.00337866,0.000
 24978,-0.00320610,-0.00496892,0.00192955,0.00554691,0.01920336,-0.0369
 1236,0.00406535,-0.02321548,-0.03706605,0.04655555,-0.00431034,0.00428
 751,-0.00205571,0.00120550,-0.00290586,-0.00284407,-0.00210210,0.00224
 992,0.00102563,0.00172110,-0.00228862,-0.00215748,-0.00009059,0.001025
 94,0.00206634,0.00051469,-0.00050075,-0.00014579,-0.00010433,0.0001305
 4,0.00030196,0.00009268,-0.00013530,0.00005203,-0.00008609,0.00010800,
 0.00000869,0.00009961,-0.00010229,-0.00005607,-0.00003967,0.00001614,0
 .00009644,-0.00000705,0.00001310,-0.00004173,0.00001523,-0.00002000,-0
 .00000944,-0.00000283,0.00000830,0.00000800,0.00000118,-0.00000257,-0.
 00000185,0.00000102,-0.00000020,-0.00000252,0.00000194,-0.00000098,-0.
 00000220,0.00011225,-0.00004178,-0.00010180,-0.00018260,0.00010284,-0.
 00021871,-0.00048612,0.00015914,0.00058515,0.00001383,0.00076097,0.000
 55820,0.00319825,-0.00263108,0.00035860,-0.01133213,-0.01904336,-0.016
 47144,0.00947733,-0.00540937,-0.02301334,0.00246053,0.00210145,0.00192
 309,-0.00043785,-0.00215167,0.00068945,0.00122214,0.00103250,0.0002277
 2,-0.00095069,-0.00137686,0.00032352,0.00002996,0.00000647,0.00003711,
 0.00003789,0.00004658,-0.00004709,-0.00000290,-0.00001097,0.00000836,-
 0.00000208,-0.00000533,0.00000030,0.00000504,0.00001039,-0.00000303,-0
 .00000999,-0.00000412,0.00000939,-0.00000458,-0.00000287,0.00000169,0.
 00000960,0.00000591,-0.00000388,-0.00000253,-0.00000372,0.00000019,0.0
 0000619,0.00000656,-0.00000039,-0.00000338,-0.00000313,0.00000096,-0.0
 0000878,-0.00000534,-0.00001439,-0.00000610,-0.00000679,-0.00000047,-0
 .00001850,-0.00002228,0.00002367,0.00002984,0.00004301,0.00000274,-0.0
 0009832,0.00009865,0.00007486,0.00029066,-0.00005307,0.00012024,-0.000
 31779,0.00015413,0.00004586,0.00003410,0.00002284,-0.00004675,0.000011
 82,0.00000534,-0.00003330,0.00000071,-0.00001141,-0.00000114,0.0000049
 6,0.00000547,-0.00000891,0.00000100,0.00000078,0.00000017,-0.00000008,
 -0.00000002,0.00000094,-0.00000065,-0.00000061,-0.00000084,-0.00000046
 ,-0.00000056,0.00000044,0.00000055,-0.00000024,0.00000090,-0.00000033,
 -0.00000013,-0.00000102,-0.00000024,-0.00000148,0.00000120,0.00000092,
 0.00000147,0.00000082,-0.00000050,-0.00000066,-0.00000031,0.00000849,0
 .00000020,0.00000196,-0.00001905,-0.00001310,0.00000583,-0.00003082,0.
 00004041,-0.00001519,0.00012501,0.00008569,-0.00008029,-0.00025112,-0.
 00002389,0.00001967,0.00024602,0.00012741,0.00004099,-0.00000830,-0.00
 000310,0.00005357,-0.00000410,-0.00001484,-0.00002048,0.00001291,0.000
 00833,0.00001829,0.00773093,0.09574665,-0.00002740,-0.00002899,0.00002
 051,0.00017410,0.00019719,-0.00006817,-0.00002473,-0.00003230,0.000018
 85,-0.00001354,-0.00001623,0.00001502,-0.00038104,-0.00037366,-0.00009
 644,0.00056273,0.00063745,-0.00040791,-0.00010686,-0.00016131,0.000250
 68,-0.00068081,-0.00071628,0.00011487,0.00049791,0.00048823,0.00016960
 ,-0.00023556,-0.00023364,-0.00033454,0.00016144,0.00044515,-0.00037570
 ,-0.00069587,-0.00072137,-0.00016536,0.00037622,0.00249742,-0.00156176
 ,0.00027660,0.00043917,-0.00042527,0.00018890,0.00094204,-0.00038767,-
 0.00259626,-0.00208373,-0.00172687,0.00439103,0.00859058,-0.00258457,0
 .00220390,-0.00632599,-0.00418339,-0.01326719,0.01747126,0.00482436,0.
 02378842,0.03903664,-0.05105372,0.00311252,-0.00224541,0.00236147,-0.0
 0142604,0.00210279,0.00198631,0.00143048,-0.00205030,-0.00135506,-0.00
 128806,0.00201665,0.00211553,0.00033235,-0.00116450,-0.00178867,-0.000
 50226,0.00056239,0.00013739,0.00012023,-0.00018644,-0.00045180,-0.0002
 1168,0.00034223,-0.00018551,0.00050629,-0.00053113,-0.00008208,-0.0007
 0187,0.00061860,0.00046209,0.00060231,-0.00042966,-0.00069334,-0.00012
 164,0.00004035,0.00031402,-0.00041387,0.00042151,0.00009492,0.00019098
 ,-0.00016134,-0.00016762,-0.00002667,0.00002176,0.00003483,-0.00001443
 ,0.00000863,0.00002227,-0.00002935,0.00001843,0.00003464,-0.00029266,0
 .00012356,0.00032927,0.00028411,-0.00014611,0.00035197,0.00005138,-0.0
 0014228,-0.00035132,0.00020174,-0.00034962,-0.00058780,-0.00121420,0.0
 0166674,-0.00044265,-0.02121498,-0.02959905,-0.01274413,0.03120646,-0.
 01568747,-0.08333846,0.00481169,0.00204476,0.00451781,-0.00189065,-0.0
 0422691,0.00126044,0.00229732,0.00326498,-0.00018073,-0.00200056,-0.00
 380843,0.00124660,0.00033662,-0.00003912,0.00044652,-0.00031517,-0.000
 26415,0.00024243,0.00000358,0.00002452,-0.00001599,0.00000446,0.000008
 46,-0.00000434,-0.00000856,-0.00002131,0.00000573,0.00001912,0.0000087
 6,-0.00001967,0.00001012,0.00000341,-0.00000214,-0.00002036,-0.0000095
 4,0.00000785,0.00000583,0.00000640,-0.00000179,-0.00001294,-0.00001200
 ,-0.00000119,0.00000710,0.00000468,0.00000002,0.00000601,0.00001216,0.
 00004978,0.00000966,-0.00000963,-0.00000805,0.00000930,0.00002039,0.00
 002365,0.00001052,-0.00001966,0.00006381,-0.00007991,-0.00009637,0.000
 09653,-0.00002433,0.00006726,-0.00029453,0.00008569,-0.00000776,-0.000
 03553,-0.00004669,0.00000273,-0.00001561,0.00001614,-0.00003010,-0.000
 00417,0.00001150,0.00000772,-0.00000376,0.00000892,-0.00003526,0.00003
 893,-0.00002227,0.00000631,0.00001304,0.00002143,0.00000097,-0.0000238
 9,0.00001103,-0.00000282,-0.00000443,0.00000620,-0.00000589,-0.0000049
 2,-0.00001406,0.00001278,0.00000559,0.00000774,-0.00000491,-0.00000299
 ,0.00000474,-0.00000710,-0.00000815,0.00000401,-0.00001552,-0.00002831
 ,-0.00000947,0.00001822,0.00001668,-0.00004341,0.00003386,-0.00003020,
 0.00004401,-0.00002381,0.00001311,-0.00000397,0.00000757,0.00006618,-0
 .00002355,0.00009283,0.00010565,-0.00015689,0.00007375,-0.00031816,0.0
 0022447,0.00008981,-0.00001134,-0.00005706,0.00000475,0.00001092,0.000
 04800,0.00000842,0.00001477,-0.00004277,-0.00001307,-0.00003819,-0.028
 42570,-0.01247411,0.14471325\\0.00000373,0.00000345,-0.00000153,-0.000
 00594,-0.00000426,0.00000308,0.00000035,-0.00000178,0.00000352,0.00000
 056,0.00000145,0.00000066,0.00000746,0.00000673,0.00000237,-0.00000707
 ,-0.00002127,0.00001510,-0.00000432,-0.00000202,-0.00000697,-0.0000056
 2,0.00000732,-0.00002581,0.00000892,0.00000352,0.00000338,-0.00000392,
 0.00000206,-0.00000727,-0.00000085,-0.00000128,0.00000595,-0.00000095,
 -0.00000008,-0.00000557,0.00000034,0.00000252,-0.00000327,-0.00000132,
 0.00000148,-0.00000138,-0.00000250,0.00000417,-0.00000210,0.00000278,-
 0.00001041,0.00000842,0.00000773,0.00000833,-0.00000367,-0.00000844,0.
 00000598,0.00000774,0.00000578,-0.00000980,0.00000531,0.00000351,0.000
 00768,-0.00001726,-0.00000420,0.00000364,-0.00000471,-0.00000165,0.000
 00034,-0.00000208,0.00000352,0.00000052,0.00001115,0.00000133,-0.00000
 342,-0.00000877,-0.00000010,0.00000104,0.00000352,0.00000028,-0.000002
 03,0.00000589,0.00000232,0.00000134,-0.00000578,0.00000283,-0.00000901
 ,0.00000818,-0.00000115,0.00000271,-0.00000195,-0.00000162,-0.00000207
 ,0.00001557,0.00000882,-0.00000634,-0.00001626,-0.00001218,0.00000933,
 0.00001152,-0.00000848,0.00000406,0.00001032,0.00000454,-0.00000007,-0
 .00000791,0.00000696,0.00000208,-0.00000103,-0.00000399,0.00000425,-0.
 00000244,0.00000189,-0.00000215,-0.00000503,-0.00000075,0.00000045,-0.
 00000514,-0.00000149,0.00000187,-0.00000390,0.00000161,-0.00000076,0.0
 0000222,0.00000223,0.00000275,0.00000351,-0.00000282,-0.00000464,-0.00
 001243,-0.00000312,-0.00000287,-0.00000970,-0.00000435,-0.00000242,0.0
 0001959,0.00000201,-0.00000046,0.00000497,0.00000190,0.00000012,0.0000
 0149,-0.00000252,0.00000541,-0.00000870,-0.00000236,-0.00000660,0.0000
 0600,0.00000067,0.00000162,0.00000432,-0.00000326,-0.00000082,0.000005
 82,0.00000047,0.00000112,-0.00000028,-0.00000076,0.00000007,0.00000031
 ,-0.00000146,0.00000120,-0.00000090,0.00000027,0.00000217,-0.00000193,
 0.00000101,0.00000056,-0.00000035,-0.00000069,0.00000020,-0.00000215,0
 .00000042,0.00000089,0.00000026,0.00000006,0.00000003,-0.00000102,-0.0
 0000031,-0.00000023,-0.00000106,0.00000045,0.00000136,0.00000223,0.000
 00589,0.00000319,0.00000172,0.00000084,-0.00000021,0.00000077,0.000000
 97,-0.00000128,0.00000127,-0.00000076,-0.00000185,-0.00000012,0.000002
 89,-0.00000064,0.00000168,0.00000083,-0.00000105,0.00000066,-0.0000004
 9,0.,0.00000257,-0.00000002,-0.00000036,-0.00000102,-0.00000027,0.0000
 0387,-0.00000306,-0.00000149,0.00000021,-0.00000128,0.00000122,-0.0000
 0089,0.00000039,0.00000176,-0.00000526,0.00000216,0.00000068,-0.000000
 82,0.00000007,-0.00000001,-0.00000064,0.00000054,0.,-0.00000014,0.0000
 0032,-0.00000113,0.00000053,-0.00000031,-0.00000086,-0.00000018,0.0000
 0029,0.00000051,-0.00000263,0.00000288,0.00000057,-0.00000218,0.000002
 34,0.00000150,0.00000031,0.00000132,-0.00000020,0.00000041,0.00000211,
 -0.00000118,-0.00000024,-0.00000177,0.00000074,-0.00000131,-0.00000064
 ,-0.00000254,0.00000064,-0.00000167,-0.00000042,-0.00000068,-0.0000012
 3,0.00000041,0.00000114,-0.00000211,0.00000217,-0.00000002,-0.00000155
 ,0.00000133,-0.00000252,-0.00000083,0.00000051,0.00000361,0.00000043\\
 \@
 The archive entry for this job was punched.


 THE TRULY SUCCESSFUL PERFORMANCE OF RESEARCHES IN
 INORGANIC CHEMISTRY IS POSSIBLE ONLY TO ONE WHO IS NOT
 ONLY A THEORETICAL CHEMIST, BUT ALSO AN ACCOMPLISHED
 ANALYST AND, MOREOVER, NOT MERELY A PRACTICALLY TRAINED,
 MECHANICAL WORKER, BUT A THINKING CREATIVE ARTIST.
   --  CLEMENS WINKLER, BER. 33, 1697(1900)
 Job cpu time:       1 days  5 hours 18 minutes 56.1 seconds.
 Elapsed time:       0 days  0 hours 55 minutes 18.5 seconds.
 File lengths (MBytes):  RWF=  12666 Int=      0 D2E=      0 Chk=     76 Scr=      1
 Normal termination of Gaussian 16 at Thu Mar 27 16:33:14 2025.
