 Entering Gaussian System, Link 0=g16
 Initial command:
 /public/software/apps/Gaussian/g16/l1.exe "/tmp/Gau-25755.inp" -scrdir="/tmp/"
 Entering Link 1 = /public/software/apps/Gaussian/g16/l1.exe PID=     25756.
  
 Copyright (c) 1988-2019, Gaussian, Inc.  All Rights Reserved.
  
 This is part of the Gaussian(R) 16 program.  It is based on
 the Gaussian(R) 09 system (copyright 2009, Gaussian, Inc.),
 the Gaussian(R) 03 system (copyright 2003, Gaussian, Inc.),
 the Gaussian(R) 98 system (copyright 1998, Gaussian, Inc.),
 the Gaussian(R) 94 system (copyright 1995, Gaussian, Inc.),
 the Gaussian 92(TM) system (copyright 1992, Gaussian, Inc.),
 the Gaussian 90(TM) system (copyright 1990, Gaussian, Inc.),
 the Gaussian 88(TM) system (copyright 1988, Gaussian, Inc.),
 the Gaussian 86(TM) system (copyright 1986, Carnegie Mellon
 University), and the Gaussian 82(TM) system (copyright 1983,
 Carnegie Mellon University). Gaussian is a federally registered
 trademark of Gaussian, Inc.
  
 This software contains proprietary and confidential information,
 including trade secrets, belonging to Gaussian, Inc.
  
 This software is provided under written license and may be
 used, copied, transmitted, or stored only in accord with that
 written license.
  
 The following legend is applicable only to US Government
 contracts under FAR:
  
                    RESTRICTED RIGHTS LEGEND
  
 Use, reproduction and disclosure by the US Government is
 subject to restrictions as set forth in subparagraphs (a)
 and (c) of the Commercial Computer Software - Restricted
 Rights clause in FAR 52.227-19.
  
 Gaussian, Inc.
 340 Quinnipiac St., Bldg. 40, Wallingford CT 06492
  
  
 ---------------------------------------------------------------
 Warning -- This program may not be used in any manner that
 competes with the business of Gaussian, Inc. or will provide
 assistance to any competitor of Gaussian, Inc.  The licensee
 of this program is prohibited from giving any competitor of
 Gaussian, Inc. access to this program.  By using this program,
 the user acknowledges that Gaussian, Inc. is engaged in the
 business of creating and licensing software in the field of
 computational chemistry and represents and warrants to the
 licensee that it is not a competitor of Gaussian, Inc. and that
 it will not use this program in any manner prohibited above.
 ---------------------------------------------------------------
  

 Cite this work as:
 Gaussian 16, Revision C.01,
 M. J. Frisch, G. W. Trucks, H. B. Schlegel, G. E. Scuseria, 
 M. A. Robb, J. R. Cheeseman, G. Scalmani, V. Barone, 
 G. A. Petersson, H. Nakatsuji, X. Li, M. Caricato, A. V. Marenich, 
 J. Bloino, B. G. Janesko, R. Gomperts, B. Mennucci, H. P. Hratchian, 
 J. V. Ortiz, A. F. Izmaylov, J. L. Sonnenberg, D. Williams-Young, 
 F. Ding, F. Lipparini, F. Egidi, J. Goings, B. Peng, A. Petrone, 
 T. Henderson, D. Ranasinghe, V. G. Zakrzewski, J. Gao, N. Rega, 
 G. Zheng, W. Liang, M. Hada, M. Ehara, K. Toyota, R. Fukuda, 
 J. Hasegawa, M. Ishida, T. Nakajima, Y. Honda, O. Kitao, H. Nakai, 
 T. Vreven, K. Throssell, J. A. Montgomery, Jr., J. E. Peralta, 
 F. Ogliaro, M. J. Bearpark, J. J. Heyd, E. N. Brothers, K. N. Kudin, 
 V. N. Staroverov, T. A. Keith, R. Kobayashi, J. Normand, 
 K. Raghavachari, A. P. Rendell, J. C. Burant, S. S. Iyengar, 
 J. Tomasi, M. Cossi, J. M. Millam, M. Klene, C. Adamo, R. Cammi, 
 J. W. Ochterski, R. L. Martin, K. Morokuma, O. Farkas, 
 J. B. Foresman, and D. J. Fox, Gaussian, Inc., Wallingford CT, 2019.
 
 ******************************************
 Gaussian 16:  ES64L-G16RevC.01  3-Jul-2019
                31-Mar-2025 
 ******************************************
 %nprocshared=32
 Will use up to   32 processors via shared memory.
 %mem=100GB
 ------------------------------------------
 #p opt freq b3lyp/def2svpp em=gd3bj nosymm
 ------------------------------------------
 1/18=20,19=15,26=3,38=1/1,3;
 2/9=110,12=2,15=1,17=6,18=5,40=1/2;
 3/5=43,7=202,11=2,25=1,30=1,71=1,74=-5,124=41/1,2,3;
 4//1;
 5/5=2,38=5/2;
 6/7=2,8=2,9=2,10=2,28=1/1;
 7/30=1/1,2,3,16;
 1/18=20,19=15,26=3/3(2);
 2/9=110,15=1/2;
 99//99;
 2/9=110,15=1/2;
 3/5=43,7=202,11=2,25=1,30=1,71=1,74=-5,124=41/1,2,3;
 4/5=5,16=3,69=1/1;
 5/5=2,38=5/2;
 7/30=1/1,2,3,16;
 1/18=20,19=15,26=3/3(-5);
 2/9=110,15=1/2;
 6/7=2,8=2,9=2,10=2,19=2,28=1/1;
 99/9=1/99;
 Leave Link    1 at Mon Mar 31 11:52:44 2025, MaxMem= 13421772800 cpu:               1.7 elap:               0.1
 (Enter /public/software/apps/Gaussian/g16/l101.exe)
 ------------------
 $$$$Title####0????
 ------------------
 Symbolic Z-matrix:
 Charge =  0 Multiplicity = 2
 C                     8.61003   4.10435   3.52958 
 C                     7.30788   3.77732   2.83993 
 O                     6.40556   4.54791   2.64884 
 O                     7.31216   2.46929   2.46614 
 C                     6.29477   1.80551   1.80241 
 C                     5.05248   2.34647   1.44945 
 C                     4.13033   1.53691   0.78216 
 C                     4.40486   0.19771   0.45481 
 C                     3.40669  -0.63958  -0.2465 
 C                     2.52382  -0.07684  -1.20679 
 C                     1.58411  -0.84572  -1.86175 
 C                     1.44132  -2.23692  -1.59979 
 C                     0.45043  -3.04353  -2.269 
 C                    -0.63849  -2.30028  -2.96984 
 C                    -0.7934   -2.21629  -4.40146 
 O                    -0.1926   -2.99131  -5.2577 
 C                    -1.64749  -1.18675  -4.94454 
 C                    -2.37455  -0.35327  -4.14827 
 C                    -2.3334   -0.47711  -2.72237 
 C                    -3.12941   0.34291  -1.8969 
 C                    -3.12407   0.22421  -0.50783 
 C                    -3.96431   1.09448   0.34468 
 C                    -4.52866   0.62132   1.54187 
 C                    -5.32742   1.42448   2.35927 
 C                    -5.57226   2.74807   1.97386 
 O                    -6.33938   3.66875   2.66668 
 C                    -6.95193   3.46512   3.86422 
 C                    -7.67818   4.72307   4.27443 
 O                    -6.91721   2.44157   4.49318 
 C                    -5.02125   3.24654   0.78662 
 C                    -4.22981   2.43058  -0.01426 
 C                    -2.29118  -0.77643   0.05977 
 C                    -1.49954  -1.58869  -0.72602 
 C                    -1.4716   -1.46172  -2.14262 
 C                     0.47623  -4.47032  -2.05934 
 O                    -0.28175  -5.3244   -2.6844 
 C                     1.37734  -5.00592  -1.06652 
 C                     2.26168  -4.21953  -0.39052 
 C                     2.3484   -2.81516  -0.65584 
 C                     3.30119  -2.00778  -0.00155 
 C                     5.66382  -0.31568   0.82336 
 C                     6.59581   0.47444   1.48725 
 H                     9.4575    3.9081    2.8501 
 H                     8.74282   3.45653   4.41338 
 H                     8.6075    5.16064   3.83355 
 H                     4.80983   3.37613   1.69672 
 H                     3.15441   1.96193   0.53377 
 H                     2.61511   0.98182  -1.46202 
 H                     0.95003  -0.3816   -2.61855 
 H                    -1.6894   -1.12905  -6.03487 
 H                    -3.02114   0.41164  -4.59016 
 H                    -3.78976   1.06975  -2.37803 
 H                    -4.36528  -0.41727   1.84058 
 H                    -5.75745   1.02912   3.27524 
 H                    -8.17752   4.55862   5.2397 
 H                    -6.96507   5.56174   4.35549 
 H                    -8.42101   4.99867   3.50592 
 H                    -5.21853   4.28604   0.51409 
 H                    -3.78637   2.84658  -0.92245 
 H                    -2.26144  -0.89682   1.1455 
 H                    -0.8836   -2.35318  -0.25022 
 H                     1.3193   -6.08482  -0.90363 
 H                     2.93877  -4.65657   0.35041 
 H                     3.95378  -2.48033   0.73781 
 H                     5.92879  -1.34312   0.56154 
 H                     7.57634   0.07999   1.76422 
 Cu                   -0.28747  -4.66966  -4.4369 
 
 ITRead=  0  0  0  0  0  0  0  0  0  0  0  0  0  0  0  0  0  0  0  0
 ITRead=  0  0  0  0  0  0  0  0  0  0  0  0  0  0  0  0  0  0  0  0
 ITRead=  0  0  0  0  0  0  0  0  0  0  0  0  0  0  0  0  0  0  0  0
 ITRead=  0  0  0  0  0  0  0
 MicOpt= -1 -1 -1 -1 -1 -1 -1 -1 -1 -1 -1 -1 -1 -1 -1 -1 -1 -1 -1 -1
 MicOpt= -1 -1 -1 -1 -1 -1 -1 -1 -1 -1 -1 -1 -1 -1 -1 -1 -1 -1 -1 -1
 MicOpt= -1 -1 -1 -1 -1 -1 -1 -1 -1 -1 -1 -1 -1 -1 -1 -1 -1 -1 -1 -1
 MicOpt= -1 -1 -1 -1 -1 -1 -1
 NAtoms=     67 NQM=       67 NQMF=       0 NMMI=      0 NMMIF=      0
                NMic=       0 NMicF=      0.
                    Isotopes and Nuclear Properties:
 (Nuclear quadrupole moments (NQMom) in fm**2, nuclear magnetic moments (NMagM)
  in nuclear magnetons)

  Atom         1           2           3           4           5           6           7           8           9          10
 IAtWgt=          12          12          16          16          12          12          12          12          12          12
 AtmWgt=  12.0000000  12.0000000  15.9949146  15.9949146  12.0000000  12.0000000  12.0000000  12.0000000  12.0000000  12.0000000
 NucSpn=           0           0           0           0           0           0           0           0           0           0
 AtZEff=  -0.0000000  -0.0000000  -0.0000000  -0.0000000  -0.0000000  -0.0000000  -0.0000000  -0.0000000  -0.0000000  -0.0000000
 NQMom=    0.0000000   0.0000000   0.0000000   0.0000000   0.0000000   0.0000000   0.0000000   0.0000000   0.0000000   0.0000000
 NMagM=    0.0000000   0.0000000   0.0000000   0.0000000   0.0000000   0.0000000   0.0000000   0.0000000   0.0000000   0.0000000
 AtZNuc=   6.0000000   6.0000000   8.0000000   8.0000000   6.0000000   6.0000000   6.0000000   6.0000000   6.0000000   6.0000000

  Atom        11          12          13          14          15          16          17          18          19          20
 IAtWgt=          12          12          12          12          12          16          12          12          12          12
 AtmWgt=  12.0000000  12.0000000  12.0000000  12.0000000  12.0000000  15.9949146  12.0000000  12.0000000  12.0000000  12.0000000
 NucSpn=           0           0           0           0           0           0           0           0           0           0
 AtZEff=  -0.0000000  -0.0000000  -0.0000000  -0.0000000  -0.0000000  -0.0000000  -0.0000000  -0.0000000  -0.0000000  -0.0000000
 NQMom=    0.0000000   0.0000000   0.0000000   0.0000000   0.0000000   0.0000000   0.0000000   0.0000000   0.0000000   0.0000000
 NMagM=    0.0000000   0.0000000   0.0000000   0.0000000   0.0000000   0.0000000   0.0000000   0.0000000   0.0000000   0.0000000
 AtZNuc=   6.0000000   6.0000000   6.0000000   6.0000000   6.0000000   8.0000000   6.0000000   6.0000000   6.0000000   6.0000000

  Atom        21          22          23          24          25          26          27          28          29          30
 IAtWgt=          12          12          12          12          12          16          12          12          16          12
 AtmWgt=  12.0000000  12.0000000  12.0000000  12.0000000  12.0000000  15.9949146  12.0000000  12.0000000  15.9949146  12.0000000
 NucSpn=           0           0           0           0           0           0           0           0           0           0
 AtZEff=  -0.0000000  -0.0000000  -0.0000000  -0.0000000  -0.0000000  -0.0000000  -0.0000000  -0.0000000  -0.0000000  -0.0000000
 NQMom=    0.0000000   0.0000000   0.0000000   0.0000000   0.0000000   0.0000000   0.0000000   0.0000000   0.0000000   0.0000000
 NMagM=    0.0000000   0.0000000   0.0000000   0.0000000   0.0000000   0.0000000   0.0000000   0.0000000   0.0000000   0.0000000
 AtZNuc=   6.0000000   6.0000000   6.0000000   6.0000000   6.0000000   8.0000000   6.0000000   6.0000000   8.0000000   6.0000000

  Atom        31          32          33          34          35          36          37          38          39          40
 IAtWgt=          12          12          12          12          12          16          12          12          12          12
 AtmWgt=  12.0000000  12.0000000  12.0000000  12.0000000  12.0000000  15.9949146  12.0000000  12.0000000  12.0000000  12.0000000
 NucSpn=           0           0           0           0           0           0           0           0           0           0
 AtZEff=  -0.0000000  -0.0000000  -0.0000000  -0.0000000  -0.0000000  -0.0000000  -0.0000000  -0.0000000  -0.0000000  -0.0000000
 NQMom=    0.0000000   0.0000000   0.0000000   0.0000000   0.0000000   0.0000000   0.0000000   0.0000000   0.0000000   0.0000000
 NMagM=    0.0000000   0.0000000   0.0000000   0.0000000   0.0000000   0.0000000   0.0000000   0.0000000   0.0000000   0.0000000
 AtZNuc=   6.0000000   6.0000000   6.0000000   6.0000000   6.0000000   8.0000000   6.0000000   6.0000000   6.0000000   6.0000000

  Atom        41          42          43          44          45          46          47          48          49          50
 IAtWgt=          12          12           1           1           1           1           1           1           1           1
 AtmWgt=  12.0000000  12.0000000   1.0078250   1.0078250   1.0078250   1.0078250   1.0078250   1.0078250   1.0078250   1.0078250
 NucSpn=           0           0           1           1           1           1           1           1           1           1
 AtZEff=  -0.0000000  -0.0000000  -0.0000000  -0.0000000  -0.0000000  -0.0000000  -0.0000000  -0.0000000  -0.0000000  -0.0000000
 NQMom=    0.0000000   0.0000000   0.0000000   0.0000000   0.0000000   0.0000000   0.0000000   0.0000000   0.0000000   0.0000000
 NMagM=    0.0000000   0.0000000   2.7928460   2.7928460   2.7928460   2.7928460   2.7928460   2.7928460   2.7928460   2.7928460
 AtZNuc=   6.0000000   6.0000000   1.0000000   1.0000000   1.0000000   1.0000000   1.0000000   1.0000000   1.0000000   1.0000000

  Atom        51          52          53          54          55          56          57          58          59          60
 IAtWgt=           1           1           1           1           1           1           1           1           1           1
 AtmWgt=   1.0078250   1.0078250   1.0078250   1.0078250   1.0078250   1.0078250   1.0078250   1.0078250   1.0078250   1.0078250
 NucSpn=           1           1           1           1           1           1           1           1           1           1
 AtZEff=  -0.0000000  -0.0000000  -0.0000000  -0.0000000  -0.0000000  -0.0000000  -0.0000000  -0.0000000  -0.0000000  -0.0000000
 NQMom=    0.0000000   0.0000000   0.0000000   0.0000000   0.0000000   0.0000000   0.0000000   0.0000000   0.0000000   0.0000000
 NMagM=    2.7928460   2.7928460   2.7928460   2.7928460   2.7928460   2.7928460   2.7928460   2.7928460   2.7928460   2.7928460
 AtZNuc=   1.0000000   1.0000000   1.0000000   1.0000000   1.0000000   1.0000000   1.0000000   1.0000000   1.0000000   1.0000000

  Atom        61          62          63          64          65          66          67
 IAtWgt=           1           1           1           1           1           1          63
 AtmWgt=   1.0078250   1.0078250   1.0078250   1.0078250   1.0078250   1.0078250  62.9295992
 NucSpn=           1           1           1           1           1           1           3
 AtZEff=  -0.0000000  -0.0000000  -0.0000000  -0.0000000  -0.0000000  -0.0000000  -0.0000000
 NQMom=    0.0000000   0.0000000   0.0000000   0.0000000   0.0000000   0.0000000 -22.0000000
 NMagM=    2.7928460   2.7928460   2.7928460   2.7928460   2.7928460   2.7928460   2.2233000
 AtZNuc=   1.0000000   1.0000000   1.0000000   1.0000000   1.0000000   1.0000000  29.0000000
 Leave Link  101 at Mon Mar 31 11:52:44 2025, MaxMem= 13421772800 cpu:               3.4 elap:               0.1
 (Enter /public/software/apps/Gaussian/g16/l103.exe)

 GradGradGradGradGradGradGradGradGradGradGradGradGradGradGradGradGradGrad
 Berny optimization.
 Initialization pass.
                           ----------------------------
                           !    Initial Parameters    !
                           ! (Angstroms and Degrees)  !
 --------------------------                            --------------------------
 ! Name  Definition              Value          Derivative Info.                !
 --------------------------------------------------------------------------------
 ! R1    R(1,2)                  1.5094         estimate D2E/DX2                !
 ! R2    R(1,43)                 1.1038         estimate D2E/DX2                !
 ! R3    R(1,44)                 1.1038         estimate D2E/DX2                !
 ! R4    R(1,45)                 1.0992         estimate D2E/DX2                !
 ! R5    R(2,3)                  1.2019         estimate D2E/DX2                !
 ! R6    R(2,4)                  1.3604         estimate D2E/DX2                !
 ! R7    R(4,5)                  1.3843         estimate D2E/DX2                !
 ! R8    R(5,6)                  1.4002         estimate D2E/DX2                !
 ! R9    R(5,42)                 1.4006         estimate D2E/DX2                !
 ! R10   R(6,7)                  1.3968         estimate D2E/DX2                !
 ! R11   R(6,46)                 1.0864         estimate D2E/DX2                !
 ! R12   R(7,8)                  1.4057         estimate D2E/DX2                !
 ! R13   R(7,47)                 1.093          estimate D2E/DX2                !
 ! R14   R(8,9)                  1.4796         estimate D2E/DX2                !
 ! R15   R(8,41)                 1.4087         estimate D2E/DX2                !
 ! R16   R(9,10)                 1.4207         estimate D2E/DX2                !
 ! R17   R(9,40)                 1.394          estimate D2E/DX2                !
 ! R18   R(10,11)                1.3796         estimate D2E/DX2                !
 ! R19   R(10,48)                1.0928         estimate D2E/DX2                !
 ! R20   R(11,12)                1.4228         estimate D2E/DX2                !
 ! R21   R(11,49)                1.091          estimate D2E/DX2                !
 ! R22   R(12,13)                1.4423         estimate D2E/DX2                !
 ! R23   R(12,39)                1.4312         estimate D2E/DX2                !
 ! R24   R(13,14)                1.4931         estimate D2E/DX2                !
 ! R25   R(13,35)                1.4423         estimate D2E/DX2                !
 ! R26   R(14,15)                1.4424         estimate D2E/DX2                !
 ! R27   R(14,34)                1.4428         estimate D2E/DX2                !
 ! R28   R(15,16)                1.3018         estimate D2E/DX2                !
 ! R29   R(15,17)                1.4437         estimate D2E/DX2                !
 ! R30   R(16,67)                1.8707         estimate D2E/DX2                !
 ! R31   R(17,18)                1.3628         estimate D2E/DX2                !
 ! R32   R(17,50)                1.0927         estimate D2E/DX2                !
 ! R33   R(18,19)                1.4319         estimate D2E/DX2                !
 ! R34   R(18,51)                1.0947         estimate D2E/DX2                !
 ! R35   R(19,20)                1.4098         estimate D2E/DX2                !
 ! R36   R(19,34)                1.4312         estimate D2E/DX2                !
 ! R37   R(20,21)                1.3941         estimate D2E/DX2                !
 ! R38   R(20,52)                1.0935         estimate D2E/DX2                !
 ! R39   R(21,22)                1.4799         estimate D2E/DX2                !
 ! R40   R(21,32)                1.4203         estimate D2E/DX2                !
 ! R41   R(22,23)                1.4056         estimate D2E/DX2                !
 ! R42   R(22,31)                1.4087         estimate D2E/DX2                !
 ! R43   R(23,24)                1.3969         estimate D2E/DX2                !
 ! R44   R(23,53)                1.093          estimate D2E/DX2                !
 ! R45   R(24,25)                1.4001         estimate D2E/DX2                !
 ! R46   R(24,54)                1.0864         estimate D2E/DX2                !
 ! R47   R(25,26)                1.3842         estimate D2E/DX2                !
 ! R48   R(25,30)                1.4006         estimate D2E/DX2                !
 ! R49   R(26,27)                1.3604         estimate D2E/DX2                !
 ! R50   R(27,28)                1.5094         estimate D2E/DX2                !
 ! R51   R(27,29)                1.2019         estimate D2E/DX2                !
 ! R52   R(28,55)                1.0992         estimate D2E/DX2                !
 ! R53   R(28,56)                1.1038         estimate D2E/DX2                !
 ! R54   R(28,57)                1.1038         estimate D2E/DX2                !
 ! R55   R(30,31)                1.3905         estimate D2E/DX2                !
 ! R56   R(30,58)                1.0926         estimate D2E/DX2                !
 ! R57   R(31,59)                1.0929         estimate D2E/DX2                !
 ! R58   R(32,33)                1.3798         estimate D2E/DX2                !
 ! R59   R(32,60)                1.0928         estimate D2E/DX2                !
 ! R60   R(33,34)                1.4226         estimate D2E/DX2                !
 ! R61   R(33,61)                1.091          estimate D2E/DX2                !
 ! R62   R(35,36)                1.3018         estimate D2E/DX2                !
 ! R63   R(35,37)                1.4438         estimate D2E/DX2                !
 ! R64   R(36,67)                1.8708         estimate D2E/DX2                !
 ! R65   R(37,38)                1.3629         estimate D2E/DX2                !
 ! R66   R(37,62)                1.0927         estimate D2E/DX2                !
 ! R67   R(38,39)                1.4318         estimate D2E/DX2                !
 ! R68   R(38,63)                1.0947         estimate D2E/DX2                !
 ! R69   R(39,40)                1.4099         estimate D2E/DX2                !
 ! R70   R(40,64)                1.0935         estimate D2E/DX2                !
 ! R71   R(41,42)                1.3906         estimate D2E/DX2                !
 ! R72   R(41,65)                1.0929         estimate D2E/DX2                !
 ! R73   R(42,66)                1.0926         estimate D2E/DX2                !
 ! A1    A(2,1,43)             110.0344         estimate D2E/DX2                !
 ! A2    A(2,1,44)             110.0272         estimate D2E/DX2                !
 ! A3    A(2,1,45)             109.4259         estimate D2E/DX2                !
 ! A4    A(43,1,44)            107.2277         estimate D2E/DX2                !
 ! A5    A(43,1,45)            110.0516         estimate D2E/DX2                !
 ! A6    A(44,1,45)            110.05           estimate D2E/DX2                !
 ! A7    A(1,2,3)              125.5511         estimate D2E/DX2                !
 ! A8    A(1,2,4)              109.3386         estimate D2E/DX2                !
 ! A9    A(3,2,4)              125.1103         estimate D2E/DX2                !
 ! A10   A(2,4,5)              126.1912         estimate D2E/DX2                !
 ! A11   A(4,5,6)              125.9937         estimate D2E/DX2                !
 ! A12   A(4,5,42)             113.9305         estimate D2E/DX2                !
 ! A13   A(6,5,42)             120.0755         estimate D2E/DX2                !
 ! A14   A(5,6,7)              118.8327         estimate D2E/DX2                !
 ! A15   A(5,6,46)             120.462          estimate D2E/DX2                !
 ! A16   A(7,6,46)             120.7042         estimate D2E/DX2                !
 ! A17   A(6,7,8)              122.3092         estimate D2E/DX2                !
 ! A18   A(6,7,47)             118.206          estimate D2E/DX2                !
 ! A19   A(8,7,47)             119.465          estimate D2E/DX2                !
 ! A20   A(7,8,9)              121.1815         estimate D2E/DX2                !
 ! A21   A(7,8,41)             117.4399         estimate D2E/DX2                !
 ! A22   A(9,8,41)             121.3784         estimate D2E/DX2                !
 ! A23   A(8,9,10)             121.0291         estimate D2E/DX2                !
 ! A24   A(8,9,40)             121.5474         estimate D2E/DX2                !
 ! A25   A(10,9,40)            117.4217         estimate D2E/DX2                !
 ! A26   A(9,10,11)            121.5642         estimate D2E/DX2                !
 ! A27   A(9,10,48)            119.32           estimate D2E/DX2                !
 ! A28   A(11,10,48)           119.0738         estimate D2E/DX2                !
 ! A29   A(10,11,12)           121.7285         estimate D2E/DX2                !
 ! A30   A(10,11,49)           119.2181         estimate D2E/DX2                !
 ! A31   A(12,11,49)           119.0355         estimate D2E/DX2                !
 ! A32   A(11,12,13)           122.0276         estimate D2E/DX2                !
 ! A33   A(11,12,39)           116.9288         estimate D2E/DX2                !
 ! A34   A(13,12,39)           121.0313         estimate D2E/DX2                !
 ! A35   A(12,13,14)           116.1315         estimate D2E/DX2                !
 ! A36   A(12,13,35)           118.2601         estimate D2E/DX2                !
 ! A37   A(14,13,35)           125.0088         estimate D2E/DX2                !
 ! A38   A(13,14,15)           124.9725         estimate D2E/DX2                !
 ! A39   A(13,14,34)           116.1884         estimate D2E/DX2                !
 ! A40   A(15,14,34)           118.2429         estimate D2E/DX2                !
 ! A41   A(14,15,16)           124.6503         estimate D2E/DX2                !
 ! A42   A(14,15,17)           118.581          estimate D2E/DX2                !
 ! A43   A(16,15,17)           116.753          estimate D2E/DX2                !
 ! A44   A(15,16,67)           102.8339         estimate D2E/DX2                !
 ! A45   A(15,17,18)           122.1371         estimate D2E/DX2                !
 ! A46   A(15,17,50)           115.8304         estimate D2E/DX2                !
 ! A47   A(18,17,50)           122.0231         estimate D2E/DX2                !
 ! A48   A(17,18,19)           120.9043         estimate D2E/DX2                !
 ! A49   A(17,18,51)           120.4365         estimate D2E/DX2                !
 ! A50   A(19,18,51)           118.6446         estimate D2E/DX2                !
 ! A51   A(18,19,20)           121.102          estimate D2E/DX2                !
 ! A52   A(18,19,34)           118.6991         estimate D2E/DX2                !
 ! A53   A(20,19,34)           120.1973         estimate D2E/DX2                !
 ! A54   A(19,20,21)           122.1217         estimate D2E/DX2                !
 ! A55   A(19,20,52)           118.0314         estimate D2E/DX2                !
 ! A56   A(21,20,52)           119.8197         estimate D2E/DX2                !
 ! A57   A(20,21,22)           121.4474         estimate D2E/DX2                !
 ! A58   A(20,21,32)           117.414          estimate D2E/DX2                !
 ! A59   A(22,21,32)           121.1347         estimate D2E/DX2                !
 ! A60   A(21,22,23)           121.3764         estimate D2E/DX2                !
 ! A61   A(21,22,31)           121.1962         estimate D2E/DX2                !
 ! A62   A(23,22,31)           117.4274         estimate D2E/DX2                !
 ! A63   A(22,23,24)           122.3071         estimate D2E/DX2                !
 ! A64   A(22,23,53)           119.5145         estimate D2E/DX2                !
 ! A65   A(24,23,53)           118.1586         estimate D2E/DX2                !
 ! A66   A(23,24,25)           118.8456         estimate D2E/DX2                !
 ! A67   A(23,24,54)           120.6956         estimate D2E/DX2                !
 ! A68   A(25,24,54)           120.4577         estimate D2E/DX2                !
 ! A69   A(24,25,26)           126.007          estimate D2E/DX2                !
 ! A70   A(24,25,30)           120.0657         estimate D2E/DX2                !
 ! A71   A(26,25,30)           113.9271         estimate D2E/DX2                !
 ! A72   A(25,26,27)           126.1957         estimate D2E/DX2                !
 ! A73   A(26,27,28)           109.3376         estimate D2E/DX2                !
 ! A74   A(26,27,29)           125.1093         estimate D2E/DX2                !
 ! A75   A(28,27,29)           125.5532         estimate D2E/DX2                !
 ! A76   A(27,28,55)           109.4253         estimate D2E/DX2                !
 ! A77   A(27,28,56)           110.0195         estimate D2E/DX2                !
 ! A78   A(27,28,57)           110.0409         estimate D2E/DX2                !
 ! A79   A(55,28,56)           110.0393         estimate D2E/DX2                !
 ! A80   A(55,28,57)           110.0629         estimate D2E/DX2                !
 ! A81   A(56,28,57)           107.2292         estimate D2E/DX2                !
 ! A82   A(25,30,31)           120.2179         estimate D2E/DX2                !
 ! A83   A(25,30,58)           118.6207         estimate D2E/DX2                !
 ! A84   A(31,30,58)           121.1582         estimate D2E/DX2                !
 ! A85   A(22,31,30)           121.1362         estimate D2E/DX2                !
 ! A86   A(22,31,59)           119.7535         estimate D2E/DX2                !
 ! A87   A(30,31,59)           119.0887         estimate D2E/DX2                !
 ! A88   A(21,32,33)           121.5744         estimate D2E/DX2                !
 ! A89   A(21,32,60)           119.3823         estimate D2E/DX2                !
 ! A90   A(33,32,60)           119.0348         estimate D2E/DX2                !
 ! A91   A(32,33,34)           121.7239         estimate D2E/DX2                !
 ! A92   A(32,33,61)           119.2128         estimate D2E/DX2                !
 ! A93   A(34,33,61)           119.062          estimate D2E/DX2                !
 ! A94   A(14,34,19)           121.0184         estimate D2E/DX2                !
 ! A95   A(14,34,33)           122.0345         estimate D2E/DX2                !
 ! A96   A(19,34,33)           116.9343         estimate D2E/DX2                !
 ! A97   A(13,35,36)           124.6659         estimate D2E/DX2                !
 ! A98   A(13,35,37)           118.5603         estimate D2E/DX2                !
 ! A99   A(36,35,37)           116.7562         estimate D2E/DX2                !
 ! A100  A(35,36,67)           102.8243         estimate D2E/DX2                !
 ! A101  A(35,37,38)           122.1413         estimate D2E/DX2                !
 ! A102  A(35,37,62)           115.8264         estimate D2E/DX2                !
 ! A103  A(38,37,62)           122.023          estimate D2E/DX2                !
 ! A104  A(37,38,39)           120.8857         estimate D2E/DX2                !
 ! A105  A(37,38,63)           120.4427         estimate D2E/DX2                !
 ! A106  A(39,38,63)           118.654          estimate D2E/DX2                !
 ! A107  A(12,39,38)           118.6929         estimate D2E/DX2                !
 ! A108  A(12,39,40)           120.2014         estimate D2E/DX2                !
 ! A109  A(38,39,40)           121.1053         estimate D2E/DX2                !
 ! A110  A(9,40,39)            122.119          estimate D2E/DX2                !
 ! A111  A(9,40,64)            119.8536         estimate D2E/DX2                !
 ! A112  A(39,40,64)           118.0083         estimate D2E/DX2                !
 ! A113  A(8,41,42)            121.1196         estimate D2E/DX2                !
 ! A114  A(8,41,65)            119.7771         estimate D2E/DX2                !
 ! A115  A(42,41,65)           119.0817         estimate D2E/DX2                !
 ! A116  A(5,42,41)            120.223          estimate D2E/DX2                !
 ! A117  A(5,42,66)            118.617          estimate D2E/DX2                !
 ! A118  A(41,42,66)           121.1567         estimate D2E/DX2                !
 ! A119  A(16,67,36)           136.4558         estimate D2E/DX2                !
 ! D1    D(43,1,2,3)          -120.9705         estimate D2E/DX2                !
 ! D2    D(43,1,2,4)            59.0466         estimate D2E/DX2                !
 ! D3    D(44,1,2,3)           121.0955         estimate D2E/DX2                !
 ! D4    D(44,1,2,4)           -58.8874         estimate D2E/DX2                !
 ! D5    D(45,1,2,3)             0.0658         estimate D2E/DX2                !
 ! D6    D(45,1,2,4)          -179.9171         estimate D2E/DX2                !
 ! D7    D(1,2,4,5)           -179.6558         estimate D2E/DX2                !
 ! D8    D(3,2,4,5)              0.3611         estimate D2E/DX2                !
 ! D9    D(2,4,5,6)             -3.0744         estimate D2E/DX2                !
 ! D10   D(2,4,5,42)           177.1428         estimate D2E/DX2                !
 ! D11   D(4,5,6,7)           -179.8075         estimate D2E/DX2                !
 ! D12   D(4,5,6,46)            -0.183          estimate D2E/DX2                !
 ! D13   D(42,5,6,7)            -0.0368         estimate D2E/DX2                !
 ! D14   D(42,5,6,46)          179.5876         estimate D2E/DX2                !
 ! D15   D(4,5,42,41)          179.7868         estimate D2E/DX2                !
 ! D16   D(4,5,42,66)           -0.858          estimate D2E/DX2                !
 ! D17   D(6,5,42,41)           -0.0101         estimate D2E/DX2                !
 ! D18   D(6,5,42,66)          179.345          estimate D2E/DX2                !
 ! D19   D(5,6,7,8)              0.1188         estimate D2E/DX2                !
 ! D20   D(5,6,7,47)           178.4921         estimate D2E/DX2                !
 ! D21   D(46,6,7,8)          -179.5047         estimate D2E/DX2                !
 ! D22   D(46,6,7,47)           -1.1314         estimate D2E/DX2                !
 ! D23   D(6,7,8,9)            179.6817         estimate D2E/DX2                !
 ! D24   D(6,7,8,41)            -0.1474         estimate D2E/DX2                !
 ! D25   D(47,7,8,9)             1.3282         estimate D2E/DX2                !
 ! D26   D(47,7,8,41)         -178.5009         estimate D2E/DX2                !
 ! D27   D(7,8,9,10)            33.939          estimate D2E/DX2                !
 ! D28   D(7,8,9,40)          -146.5748         estimate D2E/DX2                !
 ! D29   D(41,8,9,10)         -146.2386         estimate D2E/DX2                !
 ! D30   D(41,8,9,40)           33.2476         estimate D2E/DX2                !
 ! D31   D(7,8,41,42)            0.0972         estimate D2E/DX2                !
 ! D32   D(7,8,41,65)         -178.1966         estimate D2E/DX2                !
 ! D33   D(9,8,41,42)         -179.7316         estimate D2E/DX2                !
 ! D34   D(9,8,41,65)            1.9747         estimate D2E/DX2                !
 ! D35   D(8,9,10,11)         -179.6359         estimate D2E/DX2                !
 ! D36   D(8,9,10,48)            2.7446         estimate D2E/DX2                !
 ! D37   D(40,9,10,11)           0.8574         estimate D2E/DX2                !
 ! D38   D(40,9,10,48)        -176.7621         estimate D2E/DX2                !
 ! D39   D(8,9,40,39)          179.5429         estimate D2E/DX2                !
 ! D40   D(8,9,40,64)            1.1654         estimate D2E/DX2                !
 ! D41   D(10,9,40,39)          -0.9531         estimate D2E/DX2                !
 ! D42   D(10,9,40,64)        -179.3306         estimate D2E/DX2                !
 ! D43   D(9,10,11,12)           0.6647         estimate D2E/DX2                !
 ! D44   D(9,10,11,49)        -177.779          estimate D2E/DX2                !
 ! D45   D(48,10,11,12)        178.2899         estimate D2E/DX2                !
 ! D46   D(48,10,11,49)         -0.1537         estimate D2E/DX2                !
 ! D47   D(10,11,12,13)        179.2405         estimate D2E/DX2                !
 ! D48   D(10,11,12,39)         -2.0236         estimate D2E/DX2                !
 ! D49   D(49,11,12,13)         -2.3131         estimate D2E/DX2                !
 ! D50   D(49,11,12,39)        176.4228         estimate D2E/DX2                !
 ! D51   D(11,12,13,14)        -15.4782         estimate D2E/DX2                !
 ! D52   D(11,12,13,35)        172.9498         estimate D2E/DX2                !
 ! D53   D(39,12,13,14)        165.837          estimate D2E/DX2                !
 ! D54   D(39,12,13,35)         -5.735          estimate D2E/DX2                !
 ! D55   D(11,12,39,38)       -178.3537         estimate D2E/DX2                !
 ! D56   D(11,12,39,40)          1.9033         estimate D2E/DX2                !
 ! D57   D(13,12,39,38)          0.3957         estimate D2E/DX2                !
 ! D58   D(13,12,39,40)       -179.3474         estimate D2E/DX2                !
 ! D59   D(12,13,14,15)        109.8061         estimate D2E/DX2                !
 ! D60   D(12,13,14,34)        -61.1498         estimate D2E/DX2                !
 ! D61   D(35,13,14,15)        -79.2623         estimate D2E/DX2                !
 ! D62   D(35,13,14,34)        109.7818         estimate D2E/DX2                !
 ! D63   D(12,13,35,36)       -173.9287         estimate D2E/DX2                !
 ! D64   D(12,13,35,37)          7.6541         estimate D2E/DX2                !
 ! D65   D(14,13,35,36)         15.3161         estimate D2E/DX2                !
 ! D66   D(14,13,35,37)       -163.1011         estimate D2E/DX2                !
 ! D67   D(13,14,15,16)         15.3353         estimate D2E/DX2                !
 ! D68   D(13,14,15,17)       -163.1777         estimate D2E/DX2                !
 ! D69   D(34,14,15,16)       -173.8786         estimate D2E/DX2                !
 ! D70   D(34,14,15,17)          7.6084         estimate D2E/DX2                !
 ! D71   D(13,14,34,19)        165.4448         estimate D2E/DX2                !
 ! D72   D(13,14,34,33)        -15.8954         estimate D2E/DX2                !
 ! D73   D(15,14,34,19)         -6.1475         estimate D2E/DX2                !
 ! D74   D(15,14,34,33)        172.5123         estimate D2E/DX2                !
 ! D75   D(14,15,16,67)         40.6483         estimate D2E/DX2                !
 ! D76   D(17,15,16,67)       -140.8139         estimate D2E/DX2                !
 ! D77   D(14,15,17,18)         -4.3294         estimate D2E/DX2                !
 ! D78   D(14,15,17,50)        176.7637         estimate D2E/DX2                !
 ! D79   D(16,15,17,18)        177.0404         estimate D2E/DX2                !
 ! D80   D(16,15,17,50)         -1.8665         estimate D2E/DX2                !
 ! D81   D(15,16,67,36)        -32.3635         estimate D2E/DX2                !
 ! D82   D(15,17,18,19)         -0.7979         estimate D2E/DX2                !
 ! D83   D(15,17,18,51)       -179.3907         estimate D2E/DX2                !
 ! D84   D(50,17,18,19)        178.0416         estimate D2E/DX2                !
 ! D85   D(50,17,18,51)         -0.5512         estimate D2E/DX2                !
 ! D86   D(17,18,19,20)       -177.1207         estimate D2E/DX2                !
 ! D87   D(17,18,19,34)          2.4138         estimate D2E/DX2                !
 ! D88   D(51,18,19,20)          1.4968         estimate D2E/DX2                !
 ! D89   D(51,18,19,34)       -178.9686         estimate D2E/DX2                !
 ! D90   D(18,19,20,21)        178.8238         estimate D2E/DX2                !
 ! D91   D(18,19,20,52)          0.7268         estimate D2E/DX2                !
 ! D92   D(34,19,20,21)         -0.7038         estimate D2E/DX2                !
 ! D93   D(34,19,20,52)       -178.8008         estimate D2E/DX2                !
 ! D94   D(18,19,34,14)          1.1499         estimate D2E/DX2                !
 ! D95   D(18,19,34,33)       -177.5758         estimate D2E/DX2                !
 ! D96   D(20,19,34,14)       -179.3113         estimate D2E/DX2                !
 ! D97   D(20,19,34,33)          1.9631         estimate D2E/DX2                !
 ! D98   D(19,20,21,22)        179.9047         estimate D2E/DX2                !
 ! D99   D(19,20,21,32)         -0.8021         estimate D2E/DX2                !
 ! D100  D(52,20,21,22)         -2.0314         estimate D2E/DX2                !
 ! D101  D(52,20,21,32)        177.2618         estimate D2E/DX2                !
 ! D102  D(20,21,22,23)        146.0413         estimate D2E/DX2                !
 ! D103  D(20,21,22,31)        -33.9191         estimate D2E/DX2                !
 ! D104  D(32,21,22,23)        -33.2257         estimate D2E/DX2                !
 ! D105  D(32,21,22,31)        146.814          estimate D2E/DX2                !
 ! D106  D(20,21,32,33)          1.0056         estimate D2E/DX2                !
 ! D107  D(20,21,32,60)        179.933          estimate D2E/DX2                !
 ! D108  D(22,21,32,33)       -179.6989         estimate D2E/DX2                !
 ! D109  D(22,21,32,60)         -0.7714         estimate D2E/DX2                !
 ! D110  D(21,22,23,24)       -179.8232         estimate D2E/DX2                !
 ! D111  D(21,22,23,53)         -1.4753         estimate D2E/DX2                !
 ! D112  D(31,22,23,24)          0.1385         estimate D2E/DX2                !
 ! D113  D(31,22,23,53)        178.4865         estimate D2E/DX2                !
 ! D114  D(21,22,31,30)        179.8956         estimate D2E/DX2                !
 ! D115  D(21,22,31,59)         -1.8116         estimate D2E/DX2                !
 ! D116  D(23,22,31,30)         -0.0662         estimate D2E/DX2                !
 ! D117  D(23,22,31,59)        178.2266         estimate D2E/DX2                !
 ! D118  D(22,23,24,25)         -0.1313         estimate D2E/DX2                !
 ! D119  D(22,23,24,54)        179.4768         estimate D2E/DX2                !
 ! D120  D(53,23,24,25)       -178.5007         estimate D2E/DX2                !
 ! D121  D(53,23,24,54)          1.1075         estimate D2E/DX2                !
 ! D122  D(23,24,25,26)        179.8961         estimate D2E/DX2                !
 ! D123  D(23,24,25,30)          0.0494         estimate D2E/DX2                !
 ! D124  D(54,24,25,26)          0.287          estimate D2E/DX2                !
 ! D125  D(54,24,25,30)       -179.5598         estimate D2E/DX2                !
 ! D126  D(24,25,26,27)          2.4021         estimate D2E/DX2                !
 ! D127  D(30,25,26,27)       -177.743          estimate D2E/DX2                !
 ! D128  D(24,25,30,31)          0.0193         estimate D2E/DX2                !
 ! D129  D(24,25,30,58)       -179.3382         estimate D2E/DX2                !
 ! D130  D(26,25,30,31)       -179.8451         estimate D2E/DX2                !
 ! D131  D(26,25,30,58)          0.7974         estimate D2E/DX2                !
 ! D132  D(25,26,27,28)        179.6293         estimate D2E/DX2                !
 ! D133  D(25,26,27,29)         -0.3743         estimate D2E/DX2                !
 ! D134  D(26,27,28,55)        179.7406         estimate D2E/DX2                !
 ! D135  D(26,27,28,56)        -59.2483         estimate D2E/DX2                !
 ! D136  D(26,27,28,57)         58.6867         estimate D2E/DX2                !
 ! D137  D(29,27,28,55)         -0.2557         estimate D2E/DX2                !
 ! D138  D(29,27,28,56)        120.7554         estimate D2E/DX2                !
 ! D139  D(29,27,28,57)       -121.3096         estimate D2E/DX2                !
 ! D140  D(25,30,31,22)         -0.01           estimate D2E/DX2                !
 ! D141  D(25,30,31,59)       -178.314          estimate D2E/DX2                !
 ! D142  D(58,30,31,22)        179.3309         estimate D2E/DX2                !
 ! D143  D(58,30,31,59)          1.0269         estimate D2E/DX2                !
 ! D144  D(21,32,33,34)          0.318          estimate D2E/DX2                !
 ! D145  D(21,32,33,61)       -179.2595         estimate D2E/DX2                !
 ! D146  D(60,32,33,34)       -178.6131         estimate D2E/DX2                !
 ! D147  D(60,32,33,61)          1.8094         estimate D2E/DX2                !
 ! D148  D(32,33,34,14)        179.4994         estimate D2E/DX2                !
 ! D149  D(32,33,34,19)         -1.7889         estimate D2E/DX2                !
 ! D150  D(61,33,34,14)         -0.9225         estimate D2E/DX2                !
 ! D151  D(61,33,34,19)        177.7892         estimate D2E/DX2                !
 ! D152  D(13,35,36,67)         40.6262         estimate D2E/DX2                !
 ! D153  D(37,35,36,67)       -140.9307         estimate D2E/DX2                !
 ! D154  D(13,35,37,38)         -4.4883         estimate D2E/DX2                !
 ! D155  D(13,35,37,62)        176.6002         estimate D2E/DX2                !
 ! D156  D(36,35,37,38)        176.9696         estimate D2E/DX2                !
 ! D157  D(36,35,37,62)         -1.9419         estimate D2E/DX2                !
 ! D158  D(35,36,67,16)        -32.2096         estimate D2E/DX2                !
 ! D159  D(35,37,38,39)         -0.9868         estimate D2E/DX2                !
 ! D160  D(35,37,38,63)       -179.4427         estimate D2E/DX2                !
 ! D161  D(62,37,38,39)        177.8575         estimate D2E/DX2                !
 ! D162  D(62,37,38,63)         -0.5983         estimate D2E/DX2                !
 ! D163  D(37,38,39,12)          3.0548         estimate D2E/DX2                !
 ! D164  D(37,38,39,40)       -177.2046         estimate D2E/DX2                !
 ! D165  D(63,38,39,12)       -178.4622         estimate D2E/DX2                !
 ! D166  D(63,38,39,40)          1.2784         estimate D2E/DX2                !
 ! D167  D(12,39,40,9)          -0.4494         estimate D2E/DX2                !
 ! D168  D(12,39,40,64)        177.9567         estimate D2E/DX2                !
 ! D169  D(38,39,40,9)         179.8138         estimate D2E/DX2                !
 ! D170  D(38,39,40,64)         -1.78           estimate D2E/DX2                !
 ! D171  D(8,41,42,5)           -0.0215         estimate D2E/DX2                !
 ! D172  D(8,41,42,66)        -179.36           estimate D2E/DX2                !
 ! D173  D(65,41,42,5)         178.2839         estimate D2E/DX2                !
 ! D174  D(65,41,42,66)         -1.0546         estimate D2E/DX2                !
 --------------------------------------------------------------------------------
 Trust Radius=3.00D-01 FncErr=1.00D-07 GrdErr=1.00D-06 EigMax=2.50D+02 EigMin=1.00D-04
 Number of steps in this run=    376 maximum allowed number of steps=    402.
 GradGradGradGradGradGradGradGradGradGradGradGradGradGradGradGradGradGrad

 Leave Link  103 at Mon Mar 31 11:52:44 2025, MaxMem= 13421772800 cpu:               0.2 elap:               0.0
 (Enter /public/software/apps/Gaussian/g16/l202.exe)
 Symmetry turned off by external request.
 Stoichiometry    C36H24CuO6(2)
 Framework group  C1[X(C36H24CuO6)]
 Deg. of freedom   195
 Full point group                 C1      NOp   1
                          Input orientation:                          
 ---------------------------------------------------------------------
 Center     Atomic      Atomic             Coordinates (Angstroms)
 Number     Number       Type             X           Y           Z
 ---------------------------------------------------------------------
      1          6           0        8.610032    4.104352    3.529575
      2          6           0        7.307875    3.777324    2.839932
      3          8           0        6.405558    4.547906    2.648839
      4          8           0        7.312162    2.469287    2.466142
      5          6           0        6.294773    1.805511    1.802410
      6          6           0        5.052478    2.346465    1.449452
      7          6           0        4.130331    1.536907    0.782159
      8          6           0        4.404857    0.197714    0.454806
      9          6           0        3.406693   -0.639578   -0.246504
     10          6           0        2.523824   -0.076842   -1.206791
     11          6           0        1.584112   -0.845720   -1.861747
     12          6           0        1.441321   -2.236923   -1.599787
     13          6           0        0.450425   -3.043532   -2.268995
     14          6           0       -0.638487   -2.300277   -2.969838
     15          6           0       -0.793401   -2.216291   -4.401460
     16          8           0       -0.192602   -2.991310   -5.257701
     17          6           0       -1.647493   -1.186754   -4.944536
     18          6           0       -2.374547   -0.353266   -4.148274
     19          6           0       -2.333401   -0.477111   -2.722370
     20          6           0       -3.129408    0.342908   -1.896898
     21          6           0       -3.124067    0.224214   -0.507828
     22          6           0       -3.964308    1.094478    0.344677
     23          6           0       -4.528657    0.621322    1.541870
     24          6           0       -5.327422    1.424482    2.359274
     25          6           0       -5.572261    2.748069    1.973855
     26          8           0       -6.339382    3.668752    2.666681
     27          6           0       -6.951930    3.465117    3.864215
     28          6           0       -7.678175    4.723069    4.274426
     29          8           0       -6.917213    2.441568    4.493182
     30          6           0       -5.021245    3.246544    0.786616
     31          6           0       -4.229807    2.430578   -0.014257
     32          6           0       -2.291179   -0.776433    0.059770
     33          6           0       -1.499541   -1.588694   -0.726016
     34          6           0       -1.471595   -1.461722   -2.142615
     35          6           0        0.476226   -4.470322   -2.059336
     36          8           0       -0.281746   -5.324400   -2.684403
     37          6           0        1.377339   -5.005917   -1.066519
     38          6           0        2.261675   -4.219527   -0.390519
     39          6           0        2.348404   -2.815162   -0.655842
     40          6           0        3.301192   -2.007781   -0.001554
     41          6           0        5.663818   -0.315675    0.823362
     42          6           0        6.595809    0.474442    1.487254
     43          1           0        9.457501    3.908102    2.850101
     44          1           0        8.742821    3.456534    4.413384
     45          1           0        8.607498    5.160639    3.833553
     46          1           0        4.809833    3.376125    1.696718
     47          1           0        3.154412    1.961926    0.533768
     48          1           0        2.615106    0.981820   -1.462016
     49          1           0        0.950033   -0.381601   -2.618550
     50          1           0       -1.689399   -1.129050   -6.034873
     51          1           0       -3.021143    0.411644   -4.590161
     52          1           0       -3.789760    1.069748   -2.378028
     53          1           0       -4.365278   -0.417268    1.840580
     54          1           0       -5.757453    1.029118    3.275236
     55          1           0       -8.177522    4.558624    5.239702
     56          1           0       -6.965065    5.561737    4.355493
     57          1           0       -8.421014    4.998672    3.505922
     58          1           0       -5.218527    4.286044    0.514093
     59          1           0       -3.786371    2.846584   -0.922445
     60          1           0       -2.261437   -0.896817    1.145504
     61          1           0       -0.883602   -2.353180   -0.250218
     62          1           0        1.319298   -6.084820   -0.903627
     63          1           0        2.938765   -4.656574    0.350408
     64          1           0        3.953783   -2.480329    0.737811
     65          1           0        5.928793   -1.343118    0.561535
     66          1           0        7.576344    0.079989    1.764218
     67         29           0       -0.287472   -4.669663   -4.436901
 ---------------------------------------------------------------------
 Rotational constants (GHZ):           0.0501537           0.0411290           0.0246216
 Leave Link  202 at Mon Mar 31 11:52:44 2025, MaxMem= 13421772800 cpu:               0.1 elap:               0.0
 (Enter /public/software/apps/Gaussian/g16/l301.exe)
 Standard basis: def2SVPP (5D, 7F)
 Ernie: Thresh=  0.10000D-02 Tol=  0.10000D-05 Strict=F.
   660 basis functions,  1217 primitive gaussians,   704 cartesian basis functions
   159 alpha electrons      158 beta electrons
       nuclear repulsion energy      4964.8384037906 Hartrees.
 IExCor=  402 DFT=T Ex+Corr=B3LYP ExCW=0 ScaHFX=  0.200000
 ScaDFX=  0.800000  0.720000  1.000000  0.810000 ScalE2=  1.000000  1.000000
 IRadAn=      5 IRanWt=     -1 IRanGd=            0 ICorTp=0 IEmpDi=141
 NAtoms=   67 NActive=   67 NUniq=   67 SFac= 1.00D+00 NAtFMM=   60 NAOKFM=T Big=T
 Integral buffers will be    131072 words long.
 Raffenetti 2 integral format.
 Two-electron integral symmetry is turned off.
 R6Disp:  Grimme-D3(BJ) Dispersion energy=       -0.1734102681 Hartrees.
 Nuclear repulsion after empirical dispersion term =     4964.6649935225 Hartrees.
 Leave Link  301 at Mon Mar 31 11:52:44 2025, MaxMem= 13421772800 cpu:               0.6 elap:               0.0
 (Enter /public/software/apps/Gaussian/g16/l302.exe)
 NPDir=0 NMtPBC=     1 NCelOv=     1 NCel=       1 NClECP=     1 NCelD=      1
         NCelK=      1 NCelE2=     1 NClLst=     1 CellRange=     0.0.
 One-electron integrals computed using PRISM.
   1 Symmetry operations used in ECPInt.
 ECPInt:  NShTT=   48205 NPrTT=  198164 LenC2=   33563 LenP2D=   84079.
 LDataN:  DoStor=T MaxTD1= 4 Len=   56
 NBasis=   660 RedAO= T EigKep=  2.07D-04  NBF=   660
 NBsUse=   660 1.00D-06 EigRej= -1.00D+00 NBFU=   660
 Precomputing XC quadrature grid using
 IXCGrd= 4 IRadAn=           5 IRanWt=          -1 IRanGd=           0 AccXCQ= 0.00D+00.
 Generated NRdTot=       0 NPtTot=           0 NUsed=           0 NTot=          32
 NSgBfM=   632   632   632   632   632 MxSgAt=    67 MxSgA2=    67.
 Leave Link  302 at Mon Mar 31 11:52:45 2025, MaxMem= 13421772800 cpu:              25.0 elap:               0.8
 (Enter /public/software/apps/Gaussian/g16/l303.exe)
 DipDrv:  MaxL=1.
 Leave Link  303 at Mon Mar 31 11:52:45 2025, MaxMem= 13421772800 cpu:               2.2 elap:               0.1
 (Enter /public/software/apps/Gaussian/g16/l401.exe)
 ExpMin= 3.30D-02 ExpMax= 7.64D+04 ExpMxC= 1.15D+04 IAcc=3 IRadAn=         5 AccDes= 0.00D+00
 Harris functional with IExCor=  402 and IRadAn=       5 diagonalized for initial guess.
 HarFok:  IExCor=  402 AccDes= 0.00D+00 IRadAn=         5 IDoV= 1 UseB2=F ITyADJ=14
 ICtDFT=  3500011 ScaDFX=  1.000000  1.000000  1.000000  1.000000
 FoFCou: FMM=F IPFlag=           0 FMFlag=      100000 FMFlg1=        2001
         NFxFlg=           0 DoJE=T BraDBF=F KetDBF=T FulRan=T
         wScrn=  0.000000 ICntrl=       500 IOpCl=  0 I1Cent=   200000004 NGrid=           0
         NMat0=    1 NMatS0=      1 NMatT0=    0 NMatD0=    1 NMtDS0=    0 NMtDT0=    0
 Symmetry not used in FoFCou.
 Harris En= -3477.00002459810    
 JPrj=0 DoOrth=F DoCkMO=F.
 Initial guess <Sx>= 0.0000 <Sy>= 0.0000 <Sz>= 0.5000 <S**2>= 0.7500 S= 0.5000
 Leave Link  401 at Mon Mar 31 11:52:47 2025, MaxMem= 13421772800 cpu:              49.6 elap:               1.6
 (Enter /public/software/apps/Gaussian/g16/l502.exe)
 Two-electron integral symmetry not used.
 UHF open shell SCF:
 Using DIIS extrapolation, IDIIS=  1040.
 NGot= 13421772800 LenX= 13420751736 LenY= 13420255416
 Requested convergence on RMS density matrix=1.00D-08 within 128 cycles.
 Requested convergence on MAX density matrix=1.00D-06.
 Requested convergence on             energy=1.00D-06.
 No special actions if energy rises.
 Fock matrices will be formed incrementally for  20 cycles.

 Cycle   1  Pass 1  IDiag  1:
 FoFJK:  IHMeth= 1 ICntrl=       0 DoSepK=F KAlg= 0 I1Cent=           0 FoldK=F
 IRaf= 790000000 NMat=       1 IRICut=       1 DoRegI=T DoRafI=F ISym2E= 0 IDoP0=0 IntGTp=1.
 FoFCou: FMM=T IPFlag=           0 FMFlag=      100000 FMFlg1=        2001
         NFxFlg=           0 DoJE=F BraDBF=F KetDBF=F FulRan=T
         wScrn=  0.000000 ICntrl=         0 IOpCl=  1 I1Cent=           0 NGrid=           0
         NMat0=    1 NMatS0=      1 NMatT0=    0 NMatD0=    1 NMtDS0=    0 NMtDT0=    0
 Symmetry not used in FoFCou.
 FMM levels:  10  Number of levels for PrismC:   9
 E= -3457.07998301855    
 DIIS: error= 4.23D-01 at cycle   1 NSaved=   1.
 NSaved= 1 IEnMin= 1 EnMin= -3457.07998301855     IErMin= 1 ErrMin= 4.23D-01
 ErrMax= 4.23D-01  0.00D+00 EMaxC= 1.00D-01 BMatC= 1.01D+02 BMatP= 1.01D+02
 IDIUse=3 WtCom= 0.00D+00 WtEn= 1.00D+00
 Coeff-Com:  0.100D+01
 Coeff-En:   0.100D+01
 Coeff:      0.100D+01
 Gap=    -0.417 Goal=   None    Shift=    0.000
 Gap=    -1.198 Goal=   None    Shift=    0.000
 GapD=   -1.198 DampG=0.250 DampE=0.125 DampFc=0.1250 IDamp=-1.
 Damping current iteration by 1.25D-01
 RMSDP=1.33D-01 MaxDP=1.35D+01              OVMax= 9.86D-01

 Cycle   2  Pass 1  IDiag  1:
 RMSU=  1.66D-02    CP:  1.06D+00
 E= -3463.62270679541     Delta-E=       -6.542723776865 Rises=F Damp=T
 DIIS: error= 2.90D-01 at cycle   2 NSaved=   2.
 NSaved= 2 IEnMin= 2 EnMin= -3463.62270679541     IErMin= 2 ErrMin= 2.90D-01
 ErrMax= 2.90D-01  0.00D+00 EMaxC= 1.00D-01 BMatC= 3.63D+01 BMatP= 1.01D+02
 IDIUse=3 WtCom= 0.00D+00 WtEn= 1.00D+00
 Coeff-Com: -0.114D+01 0.214D+01
 Coeff-En:   0.000D+00 0.100D+01
 Coeff:      0.000D+00 0.100D+01
 Gap=     0.034 Goal=   None    Shift=    0.000
 Gap=     0.009 Goal=   None    Shift=    0.000
 RMSDP=1.85D-02 MaxDP=2.94D+00 DE=-6.54D+00 OVMax= 9.14D-01

 Cycle   3  Pass 1  IDiag  1:
 RMSU=  1.53D-02    CP:  9.26D-01  3.84D-01
 E= -3433.09936204623     Delta-E=       30.523344749183 Rises=F Damp=F
 DIIS: error= 2.33D-01 at cycle   3 NSaved=   3.
 NSaved= 3 IEnMin= 2 EnMin= -3463.62270679541     IErMin= 3 ErrMin= 2.33D-01
 ErrMax= 2.33D-01  0.00D+00 EMaxC= 1.00D-01 BMatC= 1.03D+02 BMatP= 3.63D+01
 IDIUse=2 WtCom= 0.00D+00 WtEn= 1.00D+00
 EnCoef did     7 forward-backward iterations
 Coeff-En:   0.634D+00 0.147D-02 0.365D+00
 Coeff:      0.634D+00 0.147D-02 0.365D+00
 Gap=     0.306 Goal=   None    Shift=    0.000
 Gap=    -0.359 Goal=   None    Shift=    0.000
 RMSDP=1.99D-02 MaxDP=1.96D+00 DE= 3.05D+01 OVMax= 7.71D-01

 Cycle   4  Pass 1  IDiag  1:
 RMSU=  1.60D-02    CP:  9.40D-01  2.74D-01  2.33D-01
 E= -3448.20781583012     Delta-E=      -15.108453783894 Rises=F Damp=F
 DIIS: error= 1.90D-01 at cycle   4 NSaved=   4.
 NSaved= 4 IEnMin= 2 EnMin= -3463.62270679541     IErMin= 4 ErrMin= 1.90D-01
 ErrMax= 1.90D-01  0.00D+00 EMaxC= 1.00D-01 BMatC= 6.42D+01 BMatP= 3.63D+01
 IDIUse=2 WtCom= 0.00D+00 WtEn= 1.00D+00
 EnCoef did   100 forward-backward iterations
 Coeff-En:   0.529D+00 0.118D-02 0.244D+00 0.226D+00
 Coeff:      0.529D+00 0.118D-02 0.244D+00 0.226D+00
 Gap=    -0.096 Goal=   None    Shift=    0.000
 Gap=     0.183 Goal=   None    Shift=    0.000
 RMSDP=1.77D-02 MaxDP=2.73D+00 DE=-1.51D+01 OVMax= 9.83D-01

 Cycle   5  Pass 1  IDiag  1:
 RMSU=  6.41D-03    CP:  8.84D-01 -5.80D-03  1.60D-01  1.44D-02
 E= -3461.85307468080     Delta-E=      -13.645258850673 Rises=F Damp=F
 DIIS: error= 1.69D-01 at cycle   5 NSaved=   5.
 NSaved= 5 IEnMin= 2 EnMin= -3463.62270679541     IErMin= 5 ErrMin= 1.69D-01
 ErrMax= 1.69D-01  0.00D+00 EMaxC= 1.00D-01 BMatC= 3.11D+01 BMatP= 3.63D+01
 IDIUse=3 WtCom= 0.00D+00 WtEn= 1.00D+00
 EnCoef did   100 forward-backward iterations
 Coeff-Com: -0.642D+00 0.126D+01 0.196D-01 0.539D-01 0.313D+00
 Coeff-En:   0.252D+00 0.173D-01 0.000D+00 0.306D+00 0.425D+00
 Coeff:      0.252D+00 0.173D-01 0.000D+00 0.306D+00 0.425D+00
 Gap=     0.053 Goal=   None    Shift=    0.000
 Gap=    -0.273 Goal=   None    Shift=    0.000
 RMSDP=7.57D-03 MaxDP=1.13D+00 DE=-1.36D+01 OVMax= 9.82D-01

 Cycle   6  Pass 1  IDiag  1:
 RMSU=  5.69D-03    CP:  9.05D-01  3.62D-02  1.83D-01  7.47D-02  2.49D-01
 E= -3465.90005560444     Delta-E=       -4.046980923647 Rises=F Damp=F
 DIIS: error= 7.32D-02 at cycle   6 NSaved=   6.
 NSaved= 6 IEnMin= 6 EnMin= -3465.90005560444     IErMin= 6 ErrMin= 7.32D-02
 ErrMax= 7.32D-02  0.00D+00 EMaxC= 1.00D-01 BMatC= 1.95D+01 BMatP= 3.11D+01
 IDIUse=3 WtCom= 2.68D-01 WtEn= 7.32D-01
 EnCoef did   100 forward-backward iterations
 Coeff-Com: -0.471D+00 0.950D+00-0.612D-02 0.230D-01 0.280D+00 0.223D+00
 Coeff-En:   0.224D+00 0.704D-02 0.000D+00 0.851D-01 0.324D+00 0.360D+00
 Coeff:      0.378D-01 0.260D+00-0.164D-02 0.685D-01 0.312D+00 0.323D+00
 Gap=    -0.109 Goal=   None    Shift=    0.000
 Gap=    -0.080 Goal=   None    Shift=    0.000
 RMSDP=6.52D-03 MaxDP=1.63D+00 DE=-4.05D+00 OVMax= 9.93D-01

 Cycle   7  Pass 1  IDiag  1:
 RMSU=  3.95D-03    CP:  9.01D-01  7.01D-04  7.81D-02  8.12D-02  3.63D-01
                    CP:  1.49D-01
 E= -3475.80037430973     Delta-E=       -9.900318705288 Rises=F Damp=F
 DIIS: error= 8.67D-02 at cycle   7 NSaved=   7.
 NSaved= 7 IEnMin= 7 EnMin= -3475.80037430973     IErMin= 6 ErrMin= 7.32D-02
 ErrMax= 8.67D-02  0.00D+00 EMaxC= 1.00D-01 BMatC= 4.32D+00 BMatP= 1.95D+01
 IDIUse=3 WtCom= 2.68D-01 WtEn= 7.32D-01
 Coeff-Com: -0.238D+00 0.499D+00-0.112D-02-0.107D+00 0.594D-01 0.150D+00
 Coeff-Com:  0.637D+00
 Coeff-En:   0.827D-01 0.000D+00 0.000D+00 0.000D+00 0.000D+00 0.000D+00
 Coeff-En:   0.917D+00
 Coeff:     -0.321D-02 0.134D+00-0.299D-03-0.287D-01 0.159D-01 0.403D-01
 Coeff:      0.842D+00
 Gap=     0.309 Goal=   None    Shift=    0.000
 Gap=    -0.055 Goal=   None    Shift=    0.000
 RMSDP=4.88D-03 MaxDP=2.62D-01 DE=-9.90D+00 OVMax= 6.90D-01

 Cycle   8  Pass 1  IDiag  1:
 RMSU=  3.56D-03    CP:  8.96D-01 -1.75D-02  8.58D-02 -3.87D-04  4.37D-01
                    CP:  2.89D-01  2.64D-01
 E= -3473.51421706199     Delta-E=        2.286157247747 Rises=F Damp=F
 DIIS: error= 5.98D-02 at cycle   8 NSaved=   8.
 NSaved= 8 IEnMin= 7 EnMin= -3475.80037430973     IErMin= 8 ErrMin= 5.98D-02
 ErrMax= 5.98D-02  0.00D+00 EMaxC= 1.00D-01 BMatC= 1.03D+01 BMatP= 4.32D+00
 IDIUse=2 WtCom= 0.00D+00 WtEn= 1.00D+00
 EnCoef did     4 forward-backward iterations
 Coeff-En:   0.311D-01 0.000D+00 0.000D+00 0.000D+00 0.000D+00 0.000D+00
 Coeff-En:   0.710D+00 0.259D+00
 Coeff:      0.311D-01 0.000D+00 0.000D+00 0.000D+00 0.000D+00 0.000D+00
 Coeff:      0.710D+00 0.259D+00
 Gap=    -0.014 Goal=   None    Shift=    0.000
 Gap=     0.060 Goal=   None    Shift=    0.000
 RMSDP=3.72D-03 MaxDP=5.34D-01 DE= 2.29D+00 OVMax= 6.33D-01

 Cycle   9  Pass 1  IDiag  1:
 RMSU=  2.40D-03    CP:  9.05D-01  9.17D-03  7.51D-02  3.25D-02  2.42D-01
                    CP:  2.36D-01  5.39D-01  3.91D-01
 E= -3475.19567381175     Delta-E=       -1.681456749762 Rises=F Damp=F
 DIIS: error= 1.93D-01 at cycle   9 NSaved=   9.
 NSaved= 9 IEnMin= 7 EnMin= -3475.80037430973     IErMin= 8 ErrMin= 5.98D-02
 ErrMax= 1.93D-01  0.00D+00 EMaxC= 1.00D-01 BMatC= 1.06D+01 BMatP= 4.32D+00
 IDIUse=2 WtCom= 0.00D+00 WtEn= 1.00D+00
 EnCoef did     2 forward-backward iterations
 Coeff-En:   0.000D+00 0.000D+00 0.000D+00 0.000D+00 0.000D+00 0.000D+00
 Coeff-En:   0.569D+00 0.125D+00 0.306D+00
 Coeff:      0.000D+00 0.000D+00 0.000D+00 0.000D+00 0.000D+00 0.000D+00
 Coeff:      0.569D+00 0.125D+00 0.306D+00
 Gap=     0.345 Goal=   None    Shift=    0.000
 Gap=     0.047 Goal=   None    Shift=    0.000
 RMSDP=2.58D-03 MaxDP=5.93D-01 DE=-1.68D+00 OVMax= 5.54D-01

 Cycle  10  Pass 1  IDiag  1:
 RMSU=  1.23D-03    CP:  8.93D-01 -1.69D-02  8.64D-02  3.19D-02  4.00D-01
                    CP:  2.70D-01  5.93D-01  4.21D-01  1.92D-01
 E= -3476.53126012661     Delta-E=       -1.335586314866 Rises=F Damp=F
 DIIS: error= 4.21D-02 at cycle  10 NSaved=  10.
 NSaved=10 IEnMin=10 EnMin= -3476.53126012661     IErMin=10 ErrMin= 4.21D-02
 ErrMax= 4.21D-02  0.00D+00 EMaxC= 1.00D-01 BMatC= 1.19D+00 BMatP= 4.32D+00
 IDIUse=3 WtCom= 5.79D-01 WtEn= 4.21D-01
 EnCoef did     4 forward-backward iterations
 Coeff-Com: -0.256D-01 0.328D-01-0.258D-02-0.174D-01-0.294D-01-0.177D-01
 Coeff-Com:  0.309D+00-0.456D-02 0.202D+00 0.554D+00
 Coeff-En:   0.000D+00 0.000D+00 0.000D+00 0.000D+00 0.000D+00 0.000D+00
 Coeff-En:   0.200D+00 0.000D+00 0.177D+00 0.623D+00
 Coeff:     -0.148D-01 0.190D-01-0.150D-02-0.101D-01-0.170D-01-0.103D-01
 Coeff:      0.263D+00-0.264D-02 0.192D+00 0.583D+00
 Gap=     0.156 Goal=   None    Shift=    0.000
 Gap=     0.033 Goal=   None    Shift=    0.000
 RMSDP=1.54D-03 MaxDP=1.48D-01 DE=-1.34D+00 OVMax= 1.75D-01

 Cycle  11  Pass 1  IDiag  1:
 RMSU=  8.01D-04    CP:  8.98D-01 -4.59D-03  7.81D-02  5.27D-02  3.37D-01
                    CP:  2.11D-01  7.77D-01  2.73D-01  3.26D-01  5.19D-01
 E= -3476.77308700235     Delta-E=       -0.241826875739 Rises=F Damp=F
 DIIS: error= 5.95D-03 at cycle  11 NSaved=  11.
 NSaved=11 IEnMin=11 EnMin= -3476.77308700235     IErMin=11 ErrMin= 5.95D-03
 ErrMax= 5.95D-03  0.00D+00 EMaxC= 1.00D-01 BMatC= 1.74D-01 BMatP= 1.19D+00
 IDIUse=3 WtCom= 9.40D-01 WtEn= 5.95D-02
 Coeff-Com: -0.245D-01 0.409D-01-0.312D-02-0.244D-02-0.106D-01-0.121D-01
 Coeff-Com:  0.267D-01-0.137D-01 0.563D-01 0.352D+00 0.590D+00
 Coeff-En:   0.000D+00 0.000D+00 0.000D+00 0.000D+00 0.000D+00 0.000D+00
 Coeff-En:   0.000D+00 0.000D+00 0.000D+00 0.139D+00 0.861D+00
 Coeff:     -0.230D-01 0.384D-01-0.293D-02-0.230D-02-0.993D-02-0.114D-01
 Coeff:      0.251D-01-0.129D-01 0.530D-01 0.339D+00 0.606D+00
 Gap=     0.149 Goal=   None    Shift=    0.000
 Gap=     0.075 Goal=   None    Shift=    0.000
 RMSDP=7.14D-04 MaxDP=8.24D-02 DE=-2.42D-01 OVMax= 1.49D-01

 Cycle  12  Pass 1  IDiag  1:
 RMSU=  4.09D-04    CP:  8.95D-01 -1.23D-02  7.75D-02  4.39D-02  3.63D-01
                    CP:  2.21D-01  7.20D-01  3.11D-01  3.03D-01  6.70D-01
                    CP:  4.93D-01
 E= -3476.79366283793     Delta-E=       -0.020575835573 Rises=F Damp=F
 DIIS: error= 1.25D-02 at cycle  12 NSaved=  12.
 NSaved=12 IEnMin=12 EnMin= -3476.79366283793     IErMin=11 ErrMin= 5.95D-03
 ErrMax= 1.25D-02  0.00D+00 EMaxC= 1.00D-01 BMatC= 9.35D-02 BMatP= 1.74D-01
 IDIUse=3 WtCom= 9.40D-01 WtEn= 5.95D-02
 Coeff-Com: -0.130D-01 0.232D-01-0.117D-02 0.107D-02-0.392D-02-0.330D-02
 Coeff-Com: -0.304D-01 0.572D-02 0.145D-01 0.463D-01 0.436D+00 0.525D+00
 Coeff-En:   0.000D+00 0.000D+00 0.000D+00 0.000D+00 0.000D+00 0.000D+00
 Coeff-En:   0.000D+00 0.000D+00 0.000D+00 0.000D+00 0.359D+00 0.641D+00
 Coeff:     -0.122D-01 0.218D-01-0.110D-02 0.101D-02-0.369D-02-0.310D-02
 Coeff:     -0.286D-01 0.538D-02 0.136D-01 0.436D-01 0.432D+00 0.531D+00
 Gap=     0.141 Goal=   None    Shift=    0.000
 Gap=     0.048 Goal=   None    Shift=    0.000
 RMSDP=3.46D-04 MaxDP=2.87D-02 DE=-2.06D-02 OVMax= 1.27D-01

 Cycle  13  Pass 1  IDiag  1:
 RMSU=  1.73D-04    CP:  8.96D-01 -9.81D-03  7.66D-02  4.58D-02  3.52D-01
                    CP:  2.17D-01  7.28D-01  3.13D-01  3.25D-01  6.36D-01
                    CP:  7.36D-01  5.26D-01
 E= -3476.81270514091     Delta-E=       -0.019042302985 Rises=F Damp=F
 DIIS: error= 4.27D-03 at cycle  13 NSaved=  13.
 NSaved=13 IEnMin=13 EnMin= -3476.81270514091     IErMin=13 ErrMin= 4.27D-03
 ErrMax= 4.27D-03  0.00D+00 EMaxC= 1.00D-01 BMatC= 1.05D-02 BMatP= 9.35D-02
 IDIUse=3 WtCom= 9.57D-01 WtEn= 4.27D-02
 Coeff-Com: -0.484D-02 0.848D-02 0.469D-04 0.619D-03-0.148D-02 0.526D-03
 Coeff-Com: -0.256D-01 0.399D-02 0.717D-02-0.371D-01 0.208D+00 0.335D+00
 Coeff-Com:  0.505D+00
 Coeff-En:   0.000D+00 0.000D+00 0.000D+00 0.000D+00 0.000D+00 0.000D+00
 Coeff-En:   0.000D+00 0.000D+00 0.000D+00 0.000D+00 0.000D+00 0.000D+00
 Coeff-En:   0.100D+01
 Coeff:     -0.464D-02 0.812D-02 0.449D-04 0.592D-03-0.142D-02 0.503D-03
 Coeff:     -0.245D-01 0.382D-02 0.686D-02-0.355D-01 0.200D+00 0.321D+00
 Coeff:      0.526D+00
 Gap=     0.135 Goal=   None    Shift=    0.000
 Gap=     0.051 Goal=   None    Shift=    0.000
 RMSDP=1.29D-04 MaxDP=1.48D-02 DE=-1.90D-02 OVMax= 4.02D-02

 Cycle  14  Pass 1  IDiag  1:
 RMSU=  9.26D-05    CP:  8.96D-01 -9.50D-03  7.65D-02  4.59D-02  3.50D-01
                    CP:  2.17D-01  7.30D-01  3.08D-01  3.36D-01  6.20D-01
                    CP:  7.40D-01  6.82D-01  7.27D-01
 E= -3476.81479826099     Delta-E=       -0.002093120078 Rises=F Damp=F
 DIIS: error= 4.37D-04 at cycle  14 NSaved=  14.
 NSaved=14 IEnMin=14 EnMin= -3476.81479826099     IErMin=14 ErrMin= 4.37D-04
 ErrMax= 4.37D-04  0.00D+00 EMaxC= 1.00D-01 BMatC= 1.23D-03 BMatP= 1.05D-02
 IDIUse=3 WtCom= 9.96D-01 WtEn= 4.37D-03
 Coeff-Com: -0.159D-02 0.248D-02 0.309D-03 0.937D-04-0.575D-03 0.128D-02
 Coeff-Com: -0.868D-02 0.101D-02 0.226D-02-0.227D-01 0.490D-01 0.815D-01
 Coeff-Com:  0.324D+00 0.571D+00
 Coeff-En:   0.000D+00 0.000D+00 0.000D+00 0.000D+00 0.000D+00 0.000D+00
 Coeff-En:   0.000D+00 0.000D+00 0.000D+00 0.000D+00 0.000D+00 0.000D+00
 Coeff-En:   0.787D-01 0.921D+00
 Coeff:     -0.158D-02 0.246D-02 0.308D-03 0.933D-04-0.572D-03 0.128D-02
 Coeff:     -0.864D-02 0.101D-02 0.225D-02-0.226D-01 0.488D-01 0.812D-01
 Coeff:      0.323D+00 0.573D+00
 Gap=     0.136 Goal=   None    Shift=    0.000
 Gap=     0.051 Goal=   None    Shift=    0.000
 RMSDP=5.99D-05 MaxDP=5.42D-03 DE=-2.09D-03 OVMax= 1.82D-02

 Cycle  15  Pass 1  IDiag  1:
 RMSU=  4.73D-05    CP:  8.96D-01 -9.64D-03  7.65D-02  4.59D-02  3.49D-01
                    CP:  2.18D-01  7.29D-01  3.08D-01  3.35D-01  6.26D-01
                    CP:  7.46D-01  6.49D-01  8.69D-01  7.87D-01
 E= -3476.81510366768     Delta-E=       -0.000305406691 Rises=F Damp=F
 DIIS: error= 7.08D-04 at cycle  15 NSaved=  15.
 NSaved=15 IEnMin=15 EnMin= -3476.81510366768     IErMin=14 ErrMin= 4.37D-04
 ErrMax= 7.08D-04  0.00D+00 EMaxC= 1.00D-01 BMatC= 4.58D-04 BMatP= 1.23D-03
 IDIUse=3 WtCom= 9.96D-01 WtEn= 4.37D-03
 Coeff-Com: -0.105D-02 0.164D-02 0.127D-03-0.222D-04-0.311D-03 0.908D-03
 Coeff-Com: -0.669D-03-0.183D-03-0.280D-03 0.145D-02 0.101D-01 0.263D-02
 Coeff-Com:  0.901D-01 0.349D+00 0.547D+00
 Coeff-En:   0.000D+00 0.000D+00 0.000D+00 0.000D+00 0.000D+00 0.000D+00
 Coeff-En:   0.000D+00 0.000D+00 0.000D+00 0.000D+00 0.000D+00 0.000D+00
 Coeff-En:   0.000D+00 0.991D-01 0.901D+00
 Coeff:     -0.105D-02 0.163D-02 0.126D-03-0.221D-04-0.310D-03 0.904D-03
 Coeff:     -0.666D-03-0.182D-03-0.279D-03 0.144D-02 0.100D-01 0.262D-02
 Coeff:      0.897D-01 0.348D+00 0.548D+00
 Gap=     0.136 Goal=   None    Shift=    0.000
 Gap=     0.051 Goal=   None    Shift=    0.000
 RMSDP=2.86D-05 MaxDP=1.78D-03 DE=-3.05D-04 OVMax= 3.66D-03

 Cycle  16  Pass 1  IDiag  1:
 RMSU=  2.06D-05    CP:  8.96D-01 -9.75D-03  7.66D-02  4.59D-02  3.50D-01
                    CP:  2.19D-01  7.28D-01  3.08D-01  3.32D-01  6.31D-01
                    CP:  7.41D-01  6.42D-01  8.69D-01  9.35D-01  9.08D-01
 E= -3476.81520592011     Delta-E=       -0.000102252430 Rises=F Damp=F
 DIIS: error= 3.32D-04 at cycle  16 NSaved=  16.
 NSaved=16 IEnMin=16 EnMin= -3476.81520592011     IErMin=16 ErrMin= 3.32D-04
 ErrMax= 3.32D-04  0.00D+00 EMaxC= 1.00D-01 BMatC= 1.03D-04 BMatP= 4.58D-04
 IDIUse=3 WtCom= 9.97D-01 WtEn= 3.32D-03
 Coeff-Com: -0.603D-03 0.948D-03 0.141D-04 0.429D-04-0.299D-03 0.288D-03
 Coeff-Com:  0.121D-02-0.487D-03-0.575D-03 0.864D-02 0.443D-02-0.209D-02
 Coeff-Com: -0.173D-01 0.743D-01 0.320D+00 0.611D+00
 Coeff-En:   0.000D+00 0.000D+00 0.000D+00 0.000D+00 0.000D+00 0.000D+00
 Coeff-En:   0.000D+00 0.000D+00 0.000D+00 0.000D+00 0.000D+00 0.000D+00
 Coeff-En:   0.000D+00 0.000D+00 0.000D+00 0.100D+01
 Coeff:     -0.601D-03 0.945D-03 0.141D-04 0.428D-04-0.298D-03 0.288D-03
 Coeff:      0.120D-02-0.485D-03-0.573D-03 0.861D-02 0.441D-02-0.208D-02
 Coeff:     -0.173D-01 0.740D-01 0.319D+00 0.612D+00
 Gap=     0.136 Goal=   None    Shift=    0.000
 Gap=     0.051 Goal=   None    Shift=    0.000
 RMSDP=1.67D-05 MaxDP=1.42D-03 DE=-1.02D-04 OVMax= 3.73D-03

 Cycle  17  Pass 1  IDiag  1:
 RMSU=  1.07D-05    CP:  8.96D-01 -9.85D-03  7.67D-02  4.59D-02  3.50D-01
                    CP:  2.19D-01  7.27D-01  3.08D-01  3.31D-01  6.35D-01
                    CP:  7.37D-01  6.39D-01  8.74D-01  9.71D-01  1.09D+00
                    CP:  8.10D-01
 E= -3476.81523439358     Delta-E=       -0.000028473467 Rises=F Damp=F
 DIIS: error= 8.91D-05 at cycle  17 NSaved=  17.
 NSaved=17 IEnMin=17 EnMin= -3476.81523439358     IErMin=17 ErrMin= 8.91D-05
 ErrMax= 8.91D-05  0.00D+00 EMaxC= 1.00D-01 BMatC= 3.01D-05 BMatP= 1.03D-04
 IDIUse=1 WtCom= 1.00D+00 WtEn= 0.00D+00
 Coeff-Com:  0.200D-04-0.368D-04-0.191D-04 0.479D-04-0.142D-03 0.132D-03
 Coeff-Com:  0.994D-03-0.170D-03-0.283D-03 0.208D-02-0.445D-03 0.685D-02
 Coeff-Com: -0.430D-01-0.110D+00-0.775D-01 0.390D+00 0.831D+00
 Coeff:      0.200D-04-0.368D-04-0.191D-04 0.479D-04-0.142D-03 0.132D-03
 Coeff:      0.994D-03-0.170D-03-0.283D-03 0.208D-02-0.445D-03 0.685D-02
 Coeff:     -0.430D-01-0.110D+00-0.775D-01 0.390D+00 0.831D+00
 Gap=     0.137 Goal=   None    Shift=    0.000
 Gap=     0.051 Goal=   None    Shift=    0.000
 RMSDP=1.19D-05 MaxDP=1.77D-03 DE=-2.85D-05 OVMax= 2.75D-03

 Cycle  18  Pass 1  IDiag  1:
 RMSU=  5.91D-06    CP:  8.96D-01 -9.90D-03  7.67D-02  4.59D-02  3.50D-01
                    CP:  2.20D-01  7.27D-01  3.07D-01  3.30D-01  6.36D-01
                    CP:  7.36D-01  6.42D-01  8.86D-01  1.03D+00  1.20D+00
                    CP:  1.09D+00  9.45D-01
 E= -3476.81524743402     Delta-E=       -0.000013040441 Rises=F Damp=F
 DIIS: error= 9.75D-05 at cycle  18 NSaved=  18.
 NSaved=18 IEnMin=18 EnMin= -3476.81524743402     IErMin=17 ErrMin= 8.91D-05
 ErrMax= 9.75D-05  0.00D+00 EMaxC= 1.00D-01 BMatC= 9.40D-06 BMatP= 3.01D-05
 IDIUse=1 WtCom= 1.00D+00 WtEn= 0.00D+00
 Coeff-Com:  0.689D-04-0.116D-03-0.599D-05 0.179D-04-0.557D-04 0.862D-04
 Coeff-Com:  0.439D-03-0.121D-04-0.793D-04-0.991D-03-0.109D-02 0.718D-02
 Coeff-Com: -0.190D-01-0.833D-01-0.133D+00 0.103D+00 0.517D+00 0.610D+00
 Coeff:      0.689D-04-0.116D-03-0.599D-05 0.179D-04-0.557D-04 0.862D-04
 Coeff:      0.439D-03-0.121D-04-0.793D-04-0.991D-03-0.109D-02 0.718D-02
 Coeff:     -0.190D-01-0.833D-01-0.133D+00 0.103D+00 0.517D+00 0.610D+00
 Gap=     0.137 Goal=   None    Shift=    0.000
 Gap=     0.051 Goal=   None    Shift=    0.000
 RMSDP=4.96D-06 MaxDP=4.32D-04 DE=-1.30D-05 OVMax= 9.43D-04

 Cycle  19  Pass 1  IDiag  1:
 RMSU=  2.91D-06    CP:  8.96D-01 -9.92D-03  7.67D-02  4.59D-02  3.50D-01
                    CP:  2.20D-01  7.27D-01  3.07D-01  3.30D-01  6.36D-01
                    CP:  7.35D-01  6.43D-01  8.89D-01  1.04D+00  1.25D+00
                    CP:  1.16D+00  1.14D+00  9.99D-01
 E= -3476.81525088319     Delta-E=       -0.000003449175 Rises=F Damp=F
 DIIS: error= 4.39D-05 at cycle  19 NSaved=  19.
 NSaved=19 IEnMin=19 EnMin= -3476.81525088319     IErMin=19 ErrMin= 4.39D-05
 ErrMax= 4.39D-05  0.00D+00 EMaxC= 1.00D-01 BMatC= 1.74D-06 BMatP= 9.40D-06
 IDIUse=1 WtCom= 1.00D+00 WtEn= 0.00D+00
 Coeff-Com:  0.244D-04-0.394D-04-0.119D-05 0.644D-05-0.213D-04 0.144D-04
 Coeff-Com:  0.394D-04 0.206D-04-0.402D-05-0.952D-03-0.571D-03 0.291D-02
 Coeff-Com:  0.754D-03-0.206D-01-0.644D-01-0.386D-01 0.936D-01 0.331D+00
 Coeff-Com:  0.697D+00
 Coeff:      0.244D-04-0.394D-04-0.119D-05 0.644D-05-0.213D-04 0.144D-04
 Coeff:      0.394D-04 0.206D-04-0.402D-05-0.952D-03-0.571D-03 0.291D-02
 Coeff:      0.754D-03-0.206D-01-0.644D-01-0.386D-01 0.936D-01 0.331D+00
 Coeff:      0.697D+00
 Gap=     0.137 Goal=   None    Shift=    0.000
 Gap=     0.051 Goal=   None    Shift=    0.000
 RMSDP=2.74D-06 MaxDP=2.69D-04 DE=-3.45D-06 OVMax= 5.08D-04

 Cycle  20  Pass 1  IDiag  1:
 RMSU=  1.60D-06    CP:  8.96D-01 -9.93D-03  7.67D-02  4.59D-02  3.50D-01
                    CP:  2.20D-01  7.27D-01  3.07D-01  3.29D-01  6.37D-01
                    CP:  7.34D-01  6.43D-01  8.89D-01  1.04D+00  1.26D+00
                    CP:  1.21D+00  1.21D+00  1.19D+00  1.13D+00
 E= -3476.81525178203     Delta-E=       -0.000000898832 Rises=F Damp=F
 DIIS: error= 2.72D-05 at cycle  20 NSaved=  20.
 NSaved=20 IEnMin=20 EnMin= -3476.81525178203     IErMin=20 ErrMin= 2.72D-05
 ErrMax= 2.72D-05  0.00D+00 EMaxC= 1.00D-01 BMatC= 6.91D-07 BMatP= 1.74D-06
 IDIUse=1 WtCom= 1.00D+00 WtEn= 0.00D+00
 Coeff-Com:  0.593D-05-0.837D-05 0.126D-05 0.118D-05 0.168D-05-0.155D-04
 Coeff-Com: -0.112D-03 0.323D-04 0.148D-04-0.409D-03-0.288D-03-0.654D-03
 Coeff-Com:  0.475D-02 0.114D-01-0.638D-03-0.458D-01-0.807D-01 0.341D-01
 Coeff-Com:  0.441D+00 0.638D+00
 Coeff:      0.593D-05-0.837D-05 0.126D-05 0.118D-05 0.168D-05-0.155D-04
 Coeff:     -0.112D-03 0.323D-04 0.148D-04-0.409D-03-0.288D-03-0.654D-03
 Coeff:      0.475D-02 0.114D-01-0.638D-03-0.458D-01-0.807D-01 0.341D-01
 Coeff:      0.441D+00 0.638D+00
 Gap=     0.137 Goal=   None    Shift=    0.000
 Gap=     0.051 Goal=   None    Shift=    0.000
 RMSDP=1.35D-06 MaxDP=1.27D-04 DE=-8.99D-07 OVMax= 2.74D-04

 Cycle  21  Pass 1  IDiag  1:
 Restarting incremental Fock formation.
 E= -3476.81525208479     Delta-E=       -0.000000302760 Rises=F Damp=F
 DIIS: error= 3.10D-05 at cycle  21 NSaved=  20.
 NSaved=20 IEnMin=20 EnMin= -3476.81525208479     IErMin=19 ErrMin= 2.72D-05
 ErrMax= 3.10D-05  0.00D+00 EMaxC= 1.00D-01 BMatC= 4.36D-07 BMatP= 6.91D-07
 IDIUse=1 WtCom= 1.00D+00 WtEn= 0.00D+00
 Coeff-Com:  0.116D-04-0.179D-04-0.229D-05 0.134D-04-0.154D-04-0.928D-04
 Coeff-Com:  0.165D-04 0.151D-04 0.520D-04-0.295D-03-0.216D-02 0.894D-03
 Coeff-Com:  0.150D-01 0.281D-01-0.330D-02-0.725D-01-0.101D+00-0.139D-01
 Coeff-Com:  0.327D+00 0.822D+00
 Coeff:      0.116D-04-0.179D-04-0.229D-05 0.134D-04-0.154D-04-0.928D-04
 Coeff:      0.165D-04 0.151D-04 0.520D-04-0.295D-03-0.216D-02 0.894D-03
 Coeff:      0.150D-01 0.281D-01-0.330D-02-0.725D-01-0.101D+00-0.139D-01
 Coeff:      0.327D+00 0.822D+00
 Gap=     0.137 Goal=   None    Shift=    0.000
 Gap=     0.051 Goal=   None    Shift=    0.000
 RMSDP=1.17D-06 MaxDP=6.93D-05 DE=-3.03D-07 OVMax= 2.20D-04

 Cycle  22  Pass 1  IDiag  1:
 RMSU=  1.17D-06    CP:  1.00D+00
 E= -3476.81525228079     Delta-E=       -0.000000196007 Rises=F Damp=F
 DIIS: error= 6.68D-06 at cycle  22 NSaved=  20.
 NSaved=20 IEnMin=20 EnMin= -3476.81525228079     IErMin=20 ErrMin= 6.68D-06
 ErrMax= 6.68D-06  0.00D+00 EMaxC= 1.00D-01 BMatC= 7.63D-08 BMatP= 4.36D-07
 IDIUse=1 WtCom= 1.00D+00 WtEn= 0.00D+00
 Coeff-Com:  0.965D-05-0.166D-04 0.150D-04-0.126D-04-0.265D-04-0.252D-05
 Coeff-Com:  0.639D-05 0.194D-03-0.211D-03-0.135D-02-0.125D-02 0.562D-02
 Coeff-Com:  0.192D-01 0.145D-01-0.154D-01-0.748D-01-0.176D+00-0.764D-01
 Coeff-Com:  0.481D+00 0.825D+00
 Coeff:      0.965D-05-0.166D-04 0.150D-04-0.126D-04-0.265D-04-0.252D-05
 Coeff:      0.639D-05 0.194D-03-0.211D-03-0.135D-02-0.125D-02 0.562D-02
 Coeff:      0.192D-01 0.145D-01-0.154D-01-0.748D-01-0.176D+00-0.764D-01
 Coeff:      0.481D+00 0.825D+00
 Gap=     0.137 Goal=   None    Shift=    0.000
 Gap=     0.051 Goal=   None    Shift=    0.000
 RMSDP=9.02D-07 MaxDP=4.00D-05 DE=-1.96D-07 OVMax= 1.72D-04

 Cycle  23  Pass 1  IDiag  1:
 RMSU=  5.51D-07    CP:  1.00D+00  1.61D+00
 E= -3476.81525234828     Delta-E=       -0.000000067492 Rises=F Damp=F
 DIIS: error= 1.19D-05 at cycle  23 NSaved=  20.
 NSaved=20 IEnMin=20 EnMin= -3476.81525234828     IErMin=19 ErrMin= 6.68D-06
 ErrMax= 1.19D-05  0.00D+00 EMaxC= 1.00D-01 BMatC= 6.58D-08 BMatP= 7.63D-08
 IDIUse=1 WtCom= 1.00D+00 WtEn= 0.00D+00
 Coeff-Com: -0.255D-06 0.847D-05-0.781D-05 0.114D-04-0.624D-05 0.276D-06
 Coeff-Com:  0.128D-03 0.471D-04-0.672D-04-0.142D-03-0.761D-04 0.282D-02
 Coeff-Com:  0.205D-02 0.269D-02-0.162D-01-0.837D-01-0.130D+00 0.270D-01
 Coeff-Com:  0.503D+00 0.693D+00
 Coeff:     -0.255D-06 0.847D-05-0.781D-05 0.114D-04-0.624D-05 0.276D-06
 Coeff:      0.128D-03 0.471D-04-0.672D-04-0.142D-03-0.761D-04 0.282D-02
 Coeff:      0.205D-02 0.269D-02-0.162D-01-0.837D-01-0.130D+00 0.270D-01
 Coeff:      0.503D+00 0.693D+00
 Gap=     0.137 Goal=   None    Shift=    0.000
 Gap=     0.051 Goal=   None    Shift=    0.000
[...]
 443,-0.00329513,-0.00000644,-0.00000362,-0.00000315,-0.00000037,-0.000
 00154,-0.00000134,-0.00002592,-0.00001174,-0.00001358,-0.00009941,-0.0
 0012503,0.00019746,-0.00000484,-0.00044441,-0.00013806,-0.00002946,0.0
 0002670,-0.00003569,0.00003274,0.00000735,-0.00000533,0.00000044,-0.00
 000046,-0.00000006,-0.00000094,0.00000027,-0.00000028,-0.00000136,-0.0
 0000010,-0.00000074,-0.00000027,-0.00000026,-0.00000116,-0.00000067,-0
 .00000023,-0.00000020,-0.00000027,0.00000013,-0.00000004,-0.00000023,0
 .00000037,-0.00000007,-0.00000007,-0.00000006,0.00000027,-0.00000148,0
 .00000048,-0.00000039,-0.00000074,-0.00000113,-0.00000145,-0.00000113,
 -0.00000166,0.00000204,0.00000066,-0.00000141,-0.00000055,0.00000159,-
 0.00000024,-0.00000315,0.00000189,0.00000289,0.00000333,-0.00115194,-0
 .00005137,-0.00050418,-0.07090218,0.32134392,0.00000869,-0.00006260,-0
 .00003121,-0.00012047,0.00030019,-0.00006573,0.00006666,-0.00011651,0.
 00004999,-0.00002708,-0.00100617,-0.00016865,-0.00404048,-0.00262406,0
 .00506340,-0.00027368,0.00018349,-0.00089117,-0.00321968,-0.00057625,0
 .00421320,-0.00320077,0.00677989,0.00507378,0.00193145,0.00184094,-0.0
 0200199,-0.00055227,-0.00004563,-0.00034687,0.00006157,0.00035231,0.00
 013183,0.00006319,-0.00024839,0.00010136,-0.00001178,-0.00001118,0.000
 02438,0.00003604,-0.00002570,0.00008198,-0.00000405,-0.00000360,-0.000
 09364,-0.00002711,0.00003291,0.00005043,-0.00001201,0.00002141,-0.0000
 1724,0.00000876,-0.00000834,-0.00003800,-0.00001153,0.00001434,0.00003
 961,0.00001438,-0.00000761,-0.00006713,0.00000759,-0.00001470,0.000045
 49,-0.00000190,0.00000260,0.00000063,0.00000189,-0.00000709,0.00000484
 ,0.00000119,-0.00000775,-0.00000253,-0.00001191,0.00001366,0.00001237,
 0.00002531,-0.00001421,-0.00003476,-0.00001631,-0.00000789,0.00003527,
 0.00000141,-0.00000164,-0.00000139,0.00000324,0.00000864,-0.00001423,0
 .00000556,0.00000230,-0.00000692,-0.00000202,0.00000136,-0.00000713,-0
 .00001308,0.00001530,0.00001175,0.00002384,-0.00001822,-0.00000568,-0.
 00001005,-0.00000422,-0.00001029,0.00005281,0.00001465,0.00006649,-0.0
 0003769,-0.00001609,-0.00004604,-0.00006076,0.00000537,-0.00008593,0.0
 0005946,0.00010353,0.00008499,-0.00032910,-0.00007849,-0.00045138,0.00
 045396,-0.00036291,0.00056864,0.01014256,-0.06915428,-0.05898946,0.004
 24546,-0.01427423,0.00080707,0.00000239,-0.00000071,0.00000199,-0.0000
 0188,-0.00000053,-0.00000401,-0.00001964,-0.00000658,-0.00001210,0.000
 28727,0.00020039,-0.00063895,-0.00021507,0.00038631,0.00032106,0.00001
 946,-0.00001279,-0.00003675,0.00000300,0.00000076,-0.00001430,-0.00000
 245,0.00000094,0.00000107,0.00000108,-0.00000303,-0.00000070,0.0000016
 6,-0.00000078,0.00000118,-0.00000039,0.00000113,0.00000260,0.00000060,
 -0.00000046,0.00000064,0.00000075,-0.00000043,-0.00000056,0.00000035,-
 0.00000032,0.00000027,-0.00000014,-0.00000019,-0.00000027,0.00000107,-
 0.00000119,0.00000034,-0.00000073,0.00000256,0.,0.00000275,-0.00000020
 ,-0.00000510,-0.00000172,-0.00000029,-0.00000117,0.00000353,0.00000127
 ,-0.00000104,-0.00000448,0.00002217,0.00000202,-0.00014222,0.00030952,
 0.00024500,-0.00702235,0.07640716,0.05026834,-0.00000558,0.00006223,-0
 .00004136,0.00008923,0.00008948,0.00030331,0.00014359,-0.00020770,-0.0
 0004892,0.00021999,-0.00138654,0.00123807,-0.00407612,-0.00027393,-0.0
 0404263,0.00152456,0.00177767,-0.00070331,0.00061620,-0.00052870,0.000
 38172,0.00063800,-0.00233860,-0.00356237,-0.00034575,0.00077719,-0.000
 14292,-0.00018783,-0.00023452,-0.00000915,-0.00003065,0.00002828,-0.00
 007559,0.00000261,-0.00001313,-0.00002101,-0.00000187,0.00004442,-0.00
 000439,-0.00002175,0.00001364,-0.00007029,-0.00000757,0.00001587,0.000
 09419,0.00003229,-0.00003862,-0.00006138,0.00001378,-0.00002226,0.0000
 1391,-0.00000891,0.00000826,0.00003563,0.00000955,-0.00001121,-0.00003
 350,-0.00001266,0.00000669,0.00005450,-0.00000121,0.00000601,-0.000038
 41,0.00000166,-0.00000235,-0.00000179,-0.00000273,0.00000600,-0.000005
 06,-0.00000212,0.00000875,0.00000185,0.00001696,-0.00001854,-0.0000166
 3,-0.00003297,0.00001883,0.00004375,0.00002329,0.00000554,-0.00004428,
 -0.00000211,0.00000303,0.00000178,-0.00000617,-0.00000792,0.00001735,-
 0.00000647,-0.00000284,0.00000778,0.00000143,-0.00000181,0.00000625,0.
 00000446,-0.00000909,-0.00000922,-0.00001474,0.00000951,0.00000159,0.0
 0000605,0.00000768,0.00000740,0.00000954,-0.00003103,0.00001318,-0.000
 00412,-0.00001461,-0.00000365,-0.00000390,-0.00002424,0.00000429,-0.00
 002878,0.00000791,-0.00002602,0.00003225,0.00000183,0.00001983,-0.0000
 5715,-0.00005120,-0.00003886,-0.01322069,0.00919113,-0.00378623,-0.281
 28496,0.09756249,-0.06964474,0.00001486,-0.00000202,0.00000538,0.00000
 555,0.00000736,0.00000208,0.00001974,0.00000058,0.00000305,-0.00022009
 ,-0.00010422,-0.00022849,-0.00016205,-0.00003513,0.00018803,0.00000208
 ,0.00000111,0.00002123,-0.00001377,-0.00002090,-0.00001970,0.00000150,
 -0.00000020,-0.00000215,-0.00000158,0.00000359,0.00000055,-0.00000181,
 0.00000164,-0.00000163,0.00000151,-0.00000025,-0.00000252,0.00000037,0
 .,-0.00000086,-0.00000088,0.00000043,0.00000082,-0.00000024,0.00000023
 ,-0.00000024,0.00000007,0.00000021,0.00000022,-0.00000067,0.00000156,-
 0.00000024,0.00000157,-0.00000295,0.00000072,0.00000080,0.00000070,0.0
 0000318,0.00000355,0.00000326,0.00000053,-0.00000232,-0.00000414,-0.00
 000297,0.00000458,-0.00000345,0.00000407,-0.00001721,-0.00000044,-0.00
 000324,0.00025613,-0.00072322,0.00186122,0.29608576,0.00002566,0.00010
 496,-0.00001382,0.00008615,-0.00142871,-0.00013211,-0.00062634,0.00071
 636,-0.00012865,-0.00004024,0.00257860,0.00218633,0.02798073,-0.005599
 93,0.00790487,0.00031396,-0.00485160,-0.00303556,-0.00070222,-0.000762
 51,-0.00039063,-0.00168962,-0.00108900,-0.00337595,-0.00054259,0.00060
 968,-0.00021321,-0.00016784,-0.00018719,-0.00006374,-0.00001329,0.0000
 2926,-0.00005960,0.00000426,0.00000825,0.00000670,0.00000067,-0.000011
 57,0.00000451,-0.00000096,-0.00000370,0.00000428,-0.00000055,0.0000004
 0,-0.00000341,-0.00000042,-0.00000014,0.00000327,-0.00000075,0.0000008
 6,-0.00000047,0.00000067,-0.00000047,-0.00000277,0.00000024,-0.0000003
 2,0.00000232,0.00000079,-0.00000047,-0.00000295,-0.00000056,0.00000053
 ,0.00000235,0.00000028,-0.00000034,0.00000002,0.00000039,0.00000016,0.
 00000052,0.00000058,-0.00000110,0.00000018,-0.00000315,0.00000335,0.00
 000276,0.00000508,-0.00000333,-0.00000604,-0.00000452,0.00000186,0.000
 00585,0.00000050,-0.00000097,-0.00000027,0.00000177,-0.00000070,-0.000
 00192,0.00000085,0.00000047,-0.00000075,0.00000010,0.00000041,-0.00000
 015,0.00000054,-0.00000032,-0.00000076,-0.00000011,0.00000013,0.000000
 15,0.00000129,-0.00000069,-0.00000046,-0.00000003,0.00001269,-0.000001
 48,-0.00000386,-0.00001003,-0.00000326,-0.00000065,-0.00000937,-0.0000
 0112,-0.00001113,0.00001661,-0.00001451,0.00000404,-0.00003680,0.00000
 419,0.00001813,0.00002934,-0.00002561,-0.01728274,0.01095660,-0.004622
 10,0.09509779,-0.09457418,0.02007247,-0.00003393,-0.00005441,0.0000061
 3,-0.00001356,-0.00002780,-0.00005254,0.00000097,0.00003483,0.00000627
 ,0.00136304,-0.00021236,0.00045016,-0.00007008,-0.00002233,0.00018465,
 -0.00000064,0.00000335,0.00000648,-0.00001021,-0.00001125,-0.00001269,
 -0.00000007,0.00000021,0.00000032,0.00000034,-0.00000041,-0.00000008,0
 .00000016,-0.00000027,0.00000022,-0.00000040,-0.00000034,-0.00000007,-
 0.00000051,0.00000030,0.00000011,0.00000011,0.00000003,-0.00000015,-0.
 00000009,0.00000005,-0.00000001,0.00000008,0.00000003,0.,-0.00000016,-
 0.00000023,-0.00000003,-0.00000043,0.00000020,-0.00000031,-0.00000081,
 0.00000007,0.00000031,0.00000020,-0.00000012,-0.00000078,-0.00000222,-
 0.00000141,-0.00000099,0.00000069,-0.00000408,0.00000455,-0.00001241,-
 0.00001547,0.00001455,-0.00010332,0.00049566,0.00170852,-0.10356777,0.
 09331743,-0.00006858,0.00003210,0.00011949,0.00035298,-0.00012707,-0.0
 0049926,-0.00019130,0.00009431,0.00007708,0.00172520,0.00144760,-0.002
 69774,0.00497235,-0.00336750,0.00658364,-0.00095770,-0.00228149,0.0034
 9614,0.00023651,-0.00034704,-0.00065967,-0.00363236,-0.00393935,0.0043
 7965,-0.00043280,0.00055889,0.00031499,0.00000787,-0.00016739,-0.00011
 244,0.00002302,0.00011038,-0.00004072,-0.00002282,-0.00005697,-0.00002
 225,0.00002624,0.00005875,0.00000317,-0.00002560,0.00001375,-0.0000556
 1,-0.00001047,0.00001820,0.00007512,0.00003203,-0.00003093,-0.00005093
 ,0.00001251,-0.00001845,0.00000884,-0.00000664,0.00000770,0.00002770,0
 .00000518,-0.00000473,-0.00002564,-0.00000806,0.00000529,0.00003414,-0
 .00000245,0.00000556,-0.00002440,0.00000093,-0.00000058,-0.00000114,-0
 .00000188,0.00000247,-0.00000258,-0.00000133,0.00000462,0.00000005,0.0
 0000787,-0.00000918,-0.00000704,-0.00001515,0.00001019,0.00001840,0.00
 001150,-0.00000161,-0.00001697,-0.00000124,0.00000204,0.00000070,-0.00
 000422,-0.00000067,0.00000567,-0.00000325,-0.00000125,0.00000355,0.000
 00044,-0.00000144,0.00000433,0.00000436,-0.00000721,-0.00000333,-0.000
 00820,0.00000654,0.00000341,0.00000722,-0.00000111,0.00000156,-0.00000
 074,-0.00004201,0.00001243,0.00000671,0.00000117,0.00000269,-0.0000012
 9,-0.00001234,-0.00000029,-0.00000933,-0.00000963,-0.00001048,0.000024
 45,-0.00000225,0.00002455,0.00004114,-0.00001319,-0.00010303,-0.012496
 71,0.00630927,0.00033604,-0.07033638,0.02060006,-0.05900811,-0.0000223
 3,-0.00001228,0.00000703,0.00001202,-0.00002172,-0.00001197,0.00000199
 ,0.00000733,0.00001877,0.00024506,-0.00019676,0.00027147,0.00018118,0.
 00019323,-0.00051044,-0.00000250,0.00003236,-0.00000853,-0.00002264,-0
 .00000906,0.00000717,0.00000009,-0.00000063,-0.00000203,-0.00000178,0.
 00000238,0.00000042,-0.00000179,0.00000088,-0.00000097,0.00000113,0.00
 000050,-0.00000075,0.00000085,-0.00000011,-0.00000004,-0.00000013,0.00
 000020,0.00000044,0.00000003,-0.00000008,0.00000033,-0.00000017,0.0000
 0002,-0.00000003,-0.00000064,0.00000110,0.00000022,0.00000090,-0.00000
 158,-0.00000022,0.00000104,-0.00000039,0.00000126,0.00000123,0.0000029
 1,0.00000238,-0.00000139,-0.00000157,0.00000021,-0.00000110,0.00000064
 ,0.00000448,0.00003961,0.00001960,0.00006328,0.00196372,0.00154555,-0.
 00323290,0.07834758,-0.02041387,0.05119351,0.00000930,0.00000471,0.000
 00525,0.00000078,-0.00014185,-0.00004527,-0.00001936,0.00005939,0.0000
 1269,0.00006049,0.00012790,0.00007056,-0.00004113,-0.00003914,-0.00003
 670,-0.00001053,0.00000458,-0.00000641,0.00002941,0.00005481,0.0000292
 9,-0.00011807,-0.00009497,-0.00008965,0.00001515,0.00037422,-0.0001292
 5,-0.00004812,0.00016972,0.00012051,0.00007102,0.00000755,0.00015084,-
 0.00063524,-0.00051377,-0.00061544,0.00054227,-0.00062377,0.00068054,0
 .00091285,-0.00153803,0.00141973,-0.00042177,0.00627355,-0.00047432,-0
 .00841311,-0.00824559,0.00062521,0.00058578,0.00213133,0.00077740,-0.0
 0040727,0.00020648,0.00021253,0.00007911,-0.00007071,-0.00006710,-0.00
 017766,0.00012024,0.00022751,-0.00002496,0.00007847,-0.00020993,-0.000
 03878,0.00006878,0.00005166,0.00001503,-0.00000970,-0.00004148,-0.0000
 1176,0.00000151,0.00000158,-0.00002467,0.00002619,0.00003115,0.0000537
 1,-0.00003760,-0.00007666,-0.00003830,0.00000640,0.00007837,0.00000510
 ,-0.00000775,-0.00000277,0.00000837,0.00000133,-0.00003301,-0.00000215
 ,0.00000057,-0.00000883,0.00000928,-0.00001916,-0.00000465,-0.00008321
 ,-0.00008776,-0.00012465,0.00002784,-0.00015750,0.00005451,-0.00007221
 ,0.00079890,0.00022648,-0.00296577,-0.00150826,-0.01042239,-0.00640867
 ,0.00357329,0.00495974,0.00022450,-0.00088731,-0.00173446,-0.00050952,
 -0.00032601,-0.00016466,0.00019693,0.00021846,0.00015113,-0.00027190,-
 0.00043197,-0.00016719,0.00005248,-0.00001132,0.00003488,-0.00001242,-
 0.00000082,-0.00000133,-0.00000021,-0.00000054,0.00000071,0.00000143,-
 0.00000074,-0.00000070,0.00000180,0.00000313,0.00000120,0.00000108,-0.
 00000265,-0.00000160,0.00000156,-0.00001267,-0.00000712,0.00002553,0.0
 0001036,-0.00000628,0.00008683,0.00005588,-0.00009105,0.00012695,-0.00
 006288,0.00004703,-0.00021286,-0.00006225,0.00003544,-0.00000951,-0.00
 000265,0.00000841,0.00000318,-0.00000105,0.00001473,0.00000277,0.00000
 387,0.00000545,0.00000209,-0.00000026,-0.00000118,0.00000015,-0.000001
 28,0.00000047,0.00000037,0.00000091,-0.00000073,0.00000492,-0.00000273
 ,0.00000189,0.00000592,0.00000916,0.00000446,0.00002026,0.00000213,-0.
 00000798,0.00007584,0.00006953,-0.00008030,0.00011628,-0.00004087,0.00
 005444,-0.00016312,-0.00001086,0.00006711,-0.00000190,-0.00000965,0.00
 000409,-0.00001177,0.00000622,-0.00000533,0.00000392,-0.00000185,-0.00
 000195,0.01777568,0.00001825,0.00000571,0.00001024,-0.00003745,-0.0001
 7308,-0.00006916,0.00000330,0.00006560,0.00002122,0.00011439,0.0001738
 1,0.00010208,-0.00008135,-0.00006665,-0.00005603,0.00001630,-0.0000071
 9,0.00000493,0.00001607,0.00002165,0.00002100,-0.00005114,-0.00007759,
 -0.00002719,0.00006620,-0.00025467,0.00015098,-0.00022794,-0.00008755,
 -0.00024671,0.00013843,0.00032441,-0.00009617,-0.00147291,-0.00127574,
 0.00139221,-0.00446113,0.00121248,-0.00220509,-0.00030142,-0.00650912,
 0.00707506,0.01798219,-0.04387045,-0.01969426,-0.01684904,-0.08102300,
 0.05736411,-0.00050952,0.00568500,0.00094253,0.00087652,-0.00110156,-0
 .00266242,-0.00078482,0.00100179,0.00227708,0.00091885,-0.00091172,-0.
 00228695,0.00013984,-0.00029116,0.00196786,0.00032714,-0.00036997,-0.0
 0036637,-0.00010532,0.00002575,0.00022957,0.00004878,-0.00005497,-0.00
 001067,0.00004768,-0.00003384,-0.00003342,-0.00013920,0.00006607,0.000
 17468,0.00010444,0.00002047,-0.00018975,-0.00000960,0.00001529,0.00000
 728,-0.00003692,-0.00003286,0.00007796,0.00004698,-0.00001286,-0.00004
 335,-0.00013005,0.00017092,-0.00002523,-0.00061297,0.00036647,0.000268
 48,-0.00016863,0.00013201,0.00023473,0.00309283,-0.00019693,-0.0013382
 2,0.00445303,0.00656981,-0.00333051,-0.00185977,-0.02193166,0.04616529
 ,-0.00175510,0.00004460,-0.00175126,0.00060408,0.00106056,0.00046229,-
 0.00002744,-0.00067109,0.00007837,0.00033114,0.00025240,0.00006865,0.0
 0002202,0.00003279,0.00000664,-0.00000280,0.00002536,0.00001802,0.0000
 0080,0.00000107,-0.00000006,0.00000038,0.00000079,0.00000108,0.0000021
 5,0.00000367,0.00000204,-0.00000451,-0.00000391,-0.00000379,0.00000453
 ,-0.00001470,-0.00001143,-0.00000645,0.00000630,-0.00001446,0.00001967
 ,-0.00006443,-0.00000523,0.00019206,-0.00013815,0.00019225,-0.00048145
 ,-0.00015261,0.00004123,-0.00001939,0.00003360,-0.00003428,0.00001019,
 0.00000985,-0.00003828,0.00000044,-0.00000182,-0.00000612,-0.00000267,
 0.00000207,0.00000457,-0.00000101,0.00000083,-0.00000003,0.00000021,0.
 00000194,-0.00000011,0.00000054,0.00000983,0.00000092,-0.00001025,-0.0
 0001901,-0.00000456,0.00001167,0.00005845,0.00005237,-0.00005360,-0.00
 001063,0.00000424,0.00005768,-0.00005243,0.00012741,0.00000435,-0.0000
 1297,0.00000647,0.00004224,0.00000477,0.00002397,-0.00001824,0.0000026
 8,-0.00000838,0.00001038,0.00000126,0.00000587,0.00049634,0.14201427,0
 .00001479,0.00000460,0.00000830,-0.00002548,-0.00015353,-0.00004928,-0
 .00000050,0.00006638,0.00001313,0.00007832,0.00014095,0.00007775,-0.00
 000785,-0.00004544,-0.00002379,-0.00008449,-0.00001525,-0.00005930,0.0
 0006540,0.00024968,0.00007215,-0.00040658,-0.00035510,-0.00024458,0.00
 004503,0.00193560,-0.00048774,0.00054718,0.00027399,0.00037716,0.00020
 634,0.00022360,0.00009437,-0.00306148,-0.00088963,0.00012299,0.0006425
 2,0.00637158,-0.00710327,0.00433188,-0.00182355,0.00027135,-0.00564158
 ,0.00099495,0.00910006,0.00646723,0.05218584,-0.03175480,0.00157462,-0
 .00267538,-0.00011787,-0.00047497,0.00069910,0.00129157,0.00000065,-0.
 00006637,-0.00087260,-0.00034006,0.00020148,0.00043921,-0.00006387,0.0
 0016778,-0.00040482,0.00001275,-0.00002679,-0.00004236,-0.00000593,0.0
 0000506,-0.00000514,-0.00001508,0.00004423,0.00000177,0.00007026,-0.00
 009007,-0.00005739,-0.00013909,0.00008759,0.00017295,0.00010410,-0.000
 00202,-0.00016805,-0.00001034,0.00001667,0.00000717,-0.00003516,-0.000
 01453,0.00006162,-0.00001636,-0.00001080,0.00001780,-0.00001011,0.0000
 1014,0.00002974,0.00021272,-0.00030752,-0.00011212,-0.00009186,-0.0000
 4780,0.00030840,0.00118972,0.00107147,-0.00144524,-0.02464780,-0.02207
 394,-0.03877688,0.01450125,0.04981917,-0.09300650,0.00137819,0.0014998
 6,0.00590380,-0.00129086,-0.00275567,-0.00073830,0.00107081,0.00234318
 ,0.00069427,-0.00110600,-0.00227567,-0.00071452,0.00014975,-0.00002478
 ,0.00011912,-0.00000608,-0.00003775,-0.00002985,0.00000173,-0.00000034
 ,0.00000064,0.00000042,0.00000072,0.00000053,0.00000156,0.00000330,0.0
 0000237,-0.00000688,-0.00000615,0.00000418,0.00000604,-0.00003526,-0.0
 0000267,0.00001156,0.00003665,0.00003722,0.00005872,-0.00000450,-0.000
 01966,-0.00008086,0.00014944,-0.00008281,0.00006152,0.00002609,-0.0000
 2101,-0.00004003,0.00001923,0.00001068,0.00001116,0.00000430,-0.000012
 63,0.00000638,-0.00000243,-0.00000246,-0.00000236,0.00000187,0.0000039
 1,-0.00000042,0.00000018,0.00000109,-0.00000068,0.00000105,0.00000025,
 -0.00000215,0.00000987,0.00000165,0.00000852,-0.00001539,0.00000125,0.
 00000583,-0.00001480,0.00001182,-0.00002398,-0.00001420,-0.00005792,-0
 .00020072,0.00020947,-0.00015992,0.00048377,-0.00002019,-0.00020695,0.
 00003786,-0.00004337,0.00001300,-0.00002108,-0.00000249,0.00001320,0.0
 0000868,-0.00000018,0.00000525,0.00449340,-0.08502419,0.15748869\\-0.0
 0000012,0.00000112,-0.00000063,-0.00000162,0.00000753,-0.00000087,0.00
 000147,-0.00000348,0.00000123,-0.00000248,-0.00000440,-0.00000135,0.00
 000220,0.00000130,-0.00000019,0.00000251,0.,0.00000233,-0.00000142,0.0
 0000004,0.00000031,0.00000121,0.00000116,-0.00000149,-0.00000294,0.000
 00132,-0.00000066,0.00000267,0.00000135,0.00000094,-0.00000244,0.00000
 006,-0.00000172,0.00000283,0.00000267,0.00000041,0.00000246,-0.0000037
 0,0.00000254,-0.00000105,-0.00000189,-0.00001277,-0.00000098,0.0000059
 7,0.00001399,0.00000285,-0.00000611,-0.00000230,-0.00000192,-0.0000002
 2,-0.00000169,-0.00000013,-0.00000079,-0.00000228,0.00000171,-0.000002
 05,0.00000076,-0.00000091,0.00000045,-0.00000019,0.00000120,-0.0000002
 8,0.00000135,0.00000005,-0.00000108,-0.00000046,0.00000046,-0.00000002
 ,-0.00000094,0.00000008,0.00000028,-0.00000091,-0.00000238,0.00000076,
 0.00000355,0.00000212,-0.00000084,-0.00000615,-0.00000103,-0.00000159,
 0.00000505,-0.00000189,-0.00000228,0.00000013,-0.00000144,0.00000262,0
 .00000012,0.00000159,-0.00000076,-0.00000227,-0.00000126,0.00000068,0.
 00000022,-0.00000195,0.00000123,0.00000044,0.00000178,-0.00000119,-0.0
 0000390,-0.00000155,0.00000275,0.00000657,-0.00000530,0.00000592,-0.00
 000137,0.00000113,-0.00000176,0.00000030,0.00000332,-0.00000173,0.0000
 0340,-0.00000020,-0.00000353,-0.00000060,0.00000014,0.00000192,0.00000
 054,-0.00000067,-0.00000275,-0.00000021,0.00000032,-0.00000049,0.00000
 106,-0.00000191,-0.00000055,-0.00000088,-0.00000051,0.00000017,0.00000
 052,-0.00000073,0.00000019,0.00000066,0.00000021,0.00000007,-0.0000000
 7,-0.00000030,0.00000103,-0.00000094,0.00000036,-0.00000008,0.00000059
 ,0.00000004,-0.00000067,0.00000022,0.00000055,-0.00000097,0.00000075,0
 .00000031,-0.00000052,0.00000018,0.00000039,0.00000012,0.00000072,0.00
 000022,-0.00000027,-0.00000010,-0.00000016,-0.00000015,0.00000029,0.00
 000055,-0.00000031,-0.00000012,0.,0.00000034,-0.00000059,0.00000076,0.
 00000002,0.00000041,0.00000045,-0.00000010,-0.00000051,-0.00000004,-0.
 00000018,0.00000003,0.00000002,0.00000016,0.00000002,0.00000037,-0.000
 00008,-0.00000002,-0.00000003,0.00000010,0.00000062,-0.00000035,0.0000
 0040,-0.00000005,-0.00000029,0.00000118,0.00000010,0.00000079,0.000001
 06,0.00000019,-0.00000016,-0.00000007,-0.00000017,0.00000056,0.0000005
 0,0.00000006,0.00000049,0.00000042,-0.00000418\\\@
 The archive entry for this job was punched.


 THERE'S NOTHING WRONG WITH FOLLOWING A TRAIN OF THOUGHT...
 AS LONG AS IT ULTIMATELY PULLS INTO THE STATION.
 Job cpu time:       0 days 19 hours 24 minutes 15.0 seconds.
 Elapsed time:       0 days  0 hours 36 minutes 34.7 seconds.
 File lengths (MBytes):  RWF=   6595 Int=      0 D2E=      0 Chk=     48 Scr=      1
 Normal termination of Gaussian 16 at Mon Mar 31 12:32:34 2025.
