 Entering Gaussian System, Link 0=g16
 Initial command:
 /public/software/apps/Gaussian/g16/l1.exe "/tmp/Gau-73931.inp" -scrdir="/tmp/"
 Entering Link 1 = /public/software/apps/Gaussian/g16/l1.exe PID=     73932.
  
 Copyright (c) 1988-2019, Gaussian, Inc.  All Rights Reserved.
  
 This is part of the Gaussian(R) 16 program.  It is based on
 the Gaussian(R) 09 system (copyright 2009, Gaussian, Inc.),
 the Gaussian(R) 03 system (copyright 2003, Gaussian, Inc.),
 the Gaussian(R) 98 system (copyright 1998, Gaussian, Inc.),
 the Gaussian(R) 94 system (copyright 1995, Gaussian, Inc.),
 the Gaussian 92(TM) system (copyright 1992, Gaussian, Inc.),
 the Gaussian 90(TM) system (copyright 1990, Gaussian, Inc.),
 the Gaussian 88(TM) system (copyright 1988, Gaussian, Inc.),
 the Gaussian 86(TM) system (copyright 1986, Carnegie Mellon
 University), and the Gaussian 82(TM) system (copyright 1983,
 Carnegie Mellon University). Gaussian is a federally registered
 trademark of Gaussian, Inc.
  
 This software contains proprietary and confidential information,
 including trade secrets, belonging to Gaussian, Inc.
  
 This software is provided under written license and may be
 used, copied, transmitted, or stored only in accord with that
 written license.
  
 The following legend is applicable only to US Government
 contracts under FAR:
  
                    RESTRICTED RIGHTS LEGEND
  
 Use, reproduction and disclosure by the US Government is
 subject to restrictions as set forth in subparagraphs (a)
 and (c) of the Commercial Computer Software - Restricted
 Rights clause in FAR 52.227-19.
  
 Gaussian, Inc.
 340 Quinnipiac St., Bldg. 40, Wallingford CT 06492
  
  
 ---------------------------------------------------------------
 Warning -- This program may not be used in any manner that
 competes with the business of Gaussian, Inc. or will provide
 assistance to any competitor of Gaussian, Inc.  The licensee
 of this program is prohibited from giving any competitor of
 Gaussian, Inc. access to this program.  By using this program,
 the user acknowledges that Gaussian, Inc. is engaged in the
 business of creating and licensing software in the field of
 computational chemistry and represents and warrants to the
 licensee that it is not a competitor of Gaussian, Inc. and that
 it will not use this program in any manner prohibited above.
 ---------------------------------------------------------------
  

 Cite this work as:
 Gaussian 16, Revision C.01,
 M. J. Frisch, G. W. Trucks, H. B. Schlegel, G. E. Scuseria, 
 M. A. Robb, J. R. Cheeseman, G. Scalmani, V. Barone, 
 G. A. Petersson, H. Nakatsuji, X. Li, M. Caricato, A. V. Marenich, 
 J. Bloino, B. G. Janesko, R. Gomperts, B. Mennucci, H. P. Hratchian, 
 J. V. Ortiz, A. F. Izmaylov, J. L. Sonnenberg, D. Williams-Young, 
 F. Ding, F. Lipparini, F. Egidi, J. Goings, B. Peng, A. Petrone, 
 T. Henderson, D. Ranasinghe, V. G. Zakrzewski, J. Gao, N. Rega, 
 G. Zheng, W. Liang, M. Hada, M. Ehara, K. Toyota, R. Fukuda, 
 J. Hasegawa, M. Ishida, T. Nakajima, Y. Honda, O. Kitao, H. Nakai, 
 T. Vreven, K. Throssell, J. A. Montgomery, Jr., J. E. Peralta, 
 F. Ogliaro, M. J. Bearpark, J. J. Heyd, E. N. Brothers, K. N. Kudin, 
 V. N. Staroverov, T. A. Keith, R. Kobayashi, J. Normand, 
 K. Raghavachari, A. P. Rendell, J. C. Burant, S. S. Iyengar, 
 J. Tomasi, M. Cossi, J. M. Millam, M. Klene, C. Adamo, R. Cammi, 
 J. W. Ochterski, R. L. Martin, K. Morokuma, O. Farkas, 
 J. B. Foresman, and D. J. Fox, Gaussian, Inc., Wallingford CT, 2019.
 
 ******************************************
 Gaussian 16:  ES64L-G16RevC.01  3-Jul-2019
                27-Mar-2025 
 ******************************************
 %nprocshared=32
 Will use up to   32 processors via shared memory.
 %mem=100GB
 ------------------------------------------
 #p opt freq b3lyp/def2svpp em=gd3bj nosymm
 ------------------------------------------
 1/18=20,19=15,26=3,38=1/1,3;
 2/9=110,12=2,15=1,17=6,18=5,40=1/2;
 3/5=43,7=202,11=2,25=1,30=1,71=1,74=-5,124=41/1,2,3;
 4//1;
 5/5=2,38=5/2;
 6/7=2,8=2,9=2,10=2,28=1/1;
 7/30=1/1,2,3,16;
 1/18=20,19=15,26=3/3(2);
 2/9=110,15=1/2;
 99//99;
 2/9=110,15=1/2;
 3/5=43,7=202,11=2,25=1,30=1,71=1,74=-5,124=41/1,2,3;
 4/5=5,16=3,69=1/1;
 5/5=2,38=5/2;
 7/30=1/1,2,3,16;
 1/18=20,19=15,26=3/3(-5);
 2/9=110,15=1/2;
 6/7=2,8=2,9=2,10=2,19=2,28=1/1;
 99/9=1/99;
 Leave Link    1 at Thu Mar 27 16:02:02 2025, MaxMem= 13421772800 cpu:               2.0 elap:               0.1
 (Enter /public/software/apps/Gaussian/g16/l101.exe)
 ------------------
 $$$$Title####0????
 ------------------
 Symbolic Z-matrix:
 Charge =  0 Multiplicity = 2
 O                     0.09253   5.17593  -1.4099 
 C                     1.03432   4.15602  -1.3186 
 C                     2.13753   4.16983  -2.17286 
 C                     3.10457   3.16975  -2.09229 
 C                     2.98936   2.14892  -1.13875 
 C                     3.97812   1.15654  -1.05123 
 C                     3.8871    0.13556  -0.09086 
 C                     4.93455  -0.91315  -0.0028 
 C                     6.30816  -0.57242  -0.14433 
 C                     7.30773  -1.55867  -0.06289 
 C                     6.90652  -2.87151   0.15969 
 C                     7.6374   -4.02964   0.28309 
 C                     6.68549  -5.02194   0.49286 
 O                     5.47067  -4.50235   0.49631 
 C                     5.59071  -3.21273   0.29797 
 C                     4.57474  -2.26391   0.22407 
 C                     2.79328   0.12322   0.78861 
 C                     1.80368   1.10454   0.71048 
 C                     1.87609   2.12351  -0.26015 
 C                     0.87647   3.12609  -0.37286 
 C                    -0.33395   3.13103   0.49274 
 C                    -0.46926   4.14569   1.45826 
 O                     0.49515   5.14222   1.56957 
 C                    -1.57265   4.16795   2.3121 
 C                    -2.56162   3.19133   2.21223 
 C                    -2.46771   2.18569   1.24039 
 C                    -3.47857   1.21785   1.13319 
 C                    -3.41177   0.21601   0.15093 
 C                    -4.48295  -0.80665   0.04359 
 C                    -4.95919  -1.21891  -1.23163 
 C                    -5.97287  -2.18755  -1.34408 
 C                    -6.48932  -2.72479  -0.1699 
 C                    -7.46548  -3.67097   0.03637 
 C                    -7.5428   -3.79629   1.41952 
 O                    -6.67849  -2.9864    2.00503 
 C                    -6.04117  -2.33795   1.06152 
 C                    -5.04048  -1.38188   1.2114 
 C                    -2.31983   0.19833  -0.73079 
 C                    -1.30747   1.15432  -0.63212 
 C                    -1.35589   2.15367   0.36021 
 H                     2.24596   4.96183  -2.90303 
 H                     3.95085   3.20169  -2.76843 
 H                     4.81271   1.17097  -1.74291 
 H                     6.60578   0.45676  -0.29988 
 H                     8.35425  -1.30228  -0.1666 
 H                     8.71177  -4.1454    0.22864 
 H                     6.89547  -6.0736    0.63445 
 H                     3.5405   -2.56839   0.32244 
 H                     2.71184  -0.63837   1.55413 
 H                     0.98871   1.0606    1.42068 
 H                    -1.66403   4.94819   3.05713 
 H                    -3.40735   3.22908   2.88874 
 H                    -4.33022   1.25745   1.80283 
 H                    -4.55884  -0.77896  -2.13613 
 H                    -6.34013  -2.5009   -2.31291 
 H                    -8.04405  -4.20096  -0.70861 
 H                    -8.2107   -4.4587    1.9536 
 H                    -4.69608  -1.1083    2.20062 
 H                    -2.23865  -0.56869  -1.49081 
 H                    -0.49049   1.10254  -1.33947 
 Cu                    0.01455   6.38816   0.13148 
 
 ITRead=  0  0  0  0  0  0  0  0  0  0  0  0  0  0  0  0  0  0  0  0
 ITRead=  0  0  0  0  0  0  0  0  0  0  0  0  0  0  0  0  0  0  0  0
 ITRead=  0  0  0  0  0  0  0  0  0  0  0  0  0  0  0  0  0  0  0  0
 ITRead=  0
 MicOpt= -1 -1 -1 -1 -1 -1 -1 -1 -1 -1 -1 -1 -1 -1 -1 -1 -1 -1 -1 -1
 MicOpt= -1 -1 -1 -1 -1 -1 -1 -1 -1 -1 -1 -1 -1 -1 -1 -1 -1 -1 -1 -1
 MicOpt= -1 -1 -1 -1 -1 -1 -1 -1 -1 -1 -1 -1 -1 -1 -1 -1 -1 -1 -1 -1
 MicOpt= -1
 NAtoms=     61 NQM=       61 NQMF=       0 NMMI=      0 NMMIF=      0
                NMic=       0 NMicF=      0.
                    Isotopes and Nuclear Properties:
 (Nuclear quadrupole moments (NQMom) in fm**2, nuclear magnetic moments (NMagM)
  in nuclear magnetons)

  Atom         1           2           3           4           5           6           7           8           9          10
 IAtWgt=          16          12          12          12          12          12          12          12          12          12
 AtmWgt=  15.9949146  12.0000000  12.0000000  12.0000000  12.0000000  12.0000000  12.0000000  12.0000000  12.0000000  12.0000000
 NucSpn=           0           0           0           0           0           0           0           0           0           0
 AtZEff=  -0.0000000  -0.0000000  -0.0000000  -0.0000000  -0.0000000  -0.0000000  -0.0000000  -0.0000000  -0.0000000  -0.0000000
 NQMom=    0.0000000   0.0000000   0.0000000   0.0000000   0.0000000   0.0000000   0.0000000   0.0000000   0.0000000   0.0000000
 NMagM=    0.0000000   0.0000000   0.0000000   0.0000000   0.0000000   0.0000000   0.0000000   0.0000000   0.0000000   0.0000000
 AtZNuc=   8.0000000   6.0000000   6.0000000   6.0000000   6.0000000   6.0000000   6.0000000   6.0000000   6.0000000   6.0000000

  Atom        11          12          13          14          15          16          17          18          19          20
 IAtWgt=          12          12          12          16          12          12          12          12          12          12
 AtmWgt=  12.0000000  12.0000000  12.0000000  15.9949146  12.0000000  12.0000000  12.0000000  12.0000000  12.0000000  12.0000000
 NucSpn=           0           0           0           0           0           0           0           0           0           0
 AtZEff=  -0.0000000  -0.0000000  -0.0000000  -0.0000000  -0.0000000  -0.0000000  -0.0000000  -0.0000000  -0.0000000  -0.0000000
 NQMom=    0.0000000   0.0000000   0.0000000   0.0000000   0.0000000   0.0000000   0.0000000   0.0000000   0.0000000   0.0000000
 NMagM=    0.0000000   0.0000000   0.0000000   0.0000000   0.0000000   0.0000000   0.0000000   0.0000000   0.0000000   0.0000000
 AtZNuc=   6.0000000   6.0000000   6.0000000   8.0000000   6.0000000   6.0000000   6.0000000   6.0000000   6.0000000   6.0000000

  Atom        21          22          23          24          25          26          27          28          29          30
 IAtWgt=          12          12          16          12          12          12          12          12          12          12
 AtmWgt=  12.0000000  12.0000000  15.9949146  12.0000000  12.0000000  12.0000000  12.0000000  12.0000000  12.0000000  12.0000000
 NucSpn=           0           0           0           0           0           0           0           0           0           0
 AtZEff=  -0.0000000  -0.0000000  -0.0000000  -0.0000000  -0.0000000  -0.0000000  -0.0000000  -0.0000000  -0.0000000  -0.0000000
 NQMom=    0.0000000   0.0000000   0.0000000   0.0000000   0.0000000   0.0000000   0.0000000   0.0000000   0.0000000   0.0000000
 NMagM=    0.0000000   0.0000000   0.0000000   0.0000000   0.0000000   0.0000000   0.0000000   0.0000000   0.0000000   0.0000000
 AtZNuc=   6.0000000   6.0000000   8.0000000   6.0000000   6.0000000   6.0000000   6.0000000   6.0000000   6.0000000   6.0000000

  Atom        31          32          33          34          35          36          37          38          39          40
 IAtWgt=          12          12          12          12          16          12          12          12          12          12
 AtmWgt=  12.0000000  12.0000000  12.0000000  12.0000000  15.9949146  12.0000000  12.0000000  12.0000000  12.0000000  12.0000000
 NucSpn=           0           0           0           0           0           0           0           0           0           0
 AtZEff=  -0.0000000  -0.0000000  -0.0000000  -0.0000000  -0.0000000  -0.0000000  -0.0000000  -0.0000000  -0.0000000  -0.0000000
 NQMom=    0.0000000   0.0000000   0.0000000   0.0000000   0.0000000   0.0000000   0.0000000   0.0000000   0.0000000   0.0000000
 NMagM=    0.0000000   0.0000000   0.0000000   0.0000000   0.0000000   0.0000000   0.0000000   0.0000000   0.0000000   0.0000000
 AtZNuc=   6.0000000   6.0000000   6.0000000   6.0000000   8.0000000   6.0000000   6.0000000   6.0000000   6.0000000   6.0000000

  Atom        41          42          43          44          45          46          47          48          49          50
 IAtWgt=           1           1           1           1           1           1           1           1           1           1
 AtmWgt=   1.0078250   1.0078250   1.0078250   1.0078250   1.0078250   1.0078250   1.0078250   1.0078250   1.0078250   1.0078250
 NucSpn=           1           1           1           1           1           1           1           1           1           1
 AtZEff=  -0.0000000  -0.0000000  -0.0000000  -0.0000000  -0.0000000  -0.0000000  -0.0000000  -0.0000000  -0.0000000  -0.0000000
 NQMom=    0.0000000   0.0000000   0.0000000   0.0000000   0.0000000   0.0000000   0.0000000   0.0000000   0.0000000   0.0000000
 NMagM=    2.7928460   2.7928460   2.7928460   2.7928460   2.7928460   2.7928460   2.7928460   2.7928460   2.7928460   2.7928460
 AtZNuc=   1.0000000   1.0000000   1.0000000   1.0000000   1.0000000   1.0000000   1.0000000   1.0000000   1.0000000   1.0000000

  Atom        51          52          53          54          55          56          57          58          59          60
 IAtWgt=           1           1           1           1           1           1           1           1           1           1
 AtmWgt=   1.0078250   1.0078250   1.0078250   1.0078250   1.0078250   1.0078250   1.0078250   1.0078250   1.0078250   1.0078250
 NucSpn=           1           1           1           1           1           1           1           1           1           1
 AtZEff=  -0.0000000  -0.0000000  -0.0000000  -0.0000000  -0.0000000  -0.0000000  -0.0000000  -0.0000000  -0.0000000  -0.0000000
 NQMom=    0.0000000   0.0000000   0.0000000   0.0000000   0.0000000   0.0000000   0.0000000   0.0000000   0.0000000   0.0000000
 NMagM=    2.7928460   2.7928460   2.7928460   2.7928460   2.7928460   2.7928460   2.7928460   2.7928460   2.7928460   2.7928460
 AtZNuc=   1.0000000   1.0000000   1.0000000   1.0000000   1.0000000   1.0000000   1.0000000   1.0000000   1.0000000   1.0000000

  Atom        61
 IAtWgt=          63
 AtmWgt=  62.9295992
 NucSpn=           3
 AtZEff=  -0.0000000
 NQMom=  -22.0000000
 NMagM=    2.2233000
 AtZNuc=  29.0000000
 Leave Link  101 at Thu Mar 27 16:02:02 2025, MaxMem= 13421772800 cpu:               3.2 elap:               0.1
 (Enter /public/software/apps/Gaussian/g16/l103.exe)

 GradGradGradGradGradGradGradGradGradGradGradGradGradGradGradGradGradGrad
 Berny optimization.
 Initialization pass.
                           ----------------------------
                           !    Initial Parameters    !
                           ! (Angstroms and Degrees)  !
 --------------------------                            --------------------------
 ! Name  Definition              Value          Derivative Info.                !
 --------------------------------------------------------------------------------
 ! R1    R(1,2)                  1.3912         estimate D2E/DX2                !
 ! R2    R(1,61)                 1.9625         estimate D2E/DX2                !
 ! R3    R(2,3)                  1.3954         estimate D2E/DX2                !
 ! R4    R(2,20)                 1.4072         estimate D2E/DX2                !
 ! R5    R(3,4)                  1.3935         estimate D2E/DX2                !
 ! R6    R(3,41)                 1.0827         estimate D2E/DX2                !
 ! R7    R(4,5)                  1.4016         estimate D2E/DX2                !
 ! R8    R(4,42)                 1.0837         estimate D2E/DX2                !
 ! R9    R(5,6)                  1.4036         estimate D2E/DX2                !
 ! R10   R(5,19)                 1.4184         estimate D2E/DX2                !
 ! R11   R(6,7)                  1.4046         estimate D2E/DX2                !
 ! R12   R(6,43)                 1.0841         estimate D2E/DX2                !
 ! R13   R(7,8)                  1.4848         estimate D2E/DX2                !
 ! R14   R(7,17)                 1.4036         estimate D2E/DX2                !
 ! R15   R(8,9)                  1.4223         estimate D2E/DX2                !
 ! R16   R(8,16)                 1.4161         estimate D2E/DX2                !
 ! R17   R(9,10)                 1.4066         estimate D2E/DX2                !
 ! R18   R(9,44)                 1.0826         estimate D2E/DX2                !
 ! R19   R(10,11)                1.3907         estimate D2E/DX2                !
 ! R20   R(10,45)                1.0824         estimate D2E/DX2                !
 ! R21   R(11,12)                1.375          estimate D2E/DX2                !
 ! R22   R(11,15)                1.3663         estimate D2E/DX2                !
 ! R23   R(12,13)                1.391          estimate D2E/DX2                !
 ! R24   R(12,46)                1.082          estimate D2E/DX2                !
 ! R25   R(13,14)                1.3213         estimate D2E/DX2                !
 ! R26   R(13,47)                1.0817         estimate D2E/DX2                !
 ! R27   R(14,15)                1.3103         estimate D2E/DX2                !
 ! R28   R(15,16)                1.3921         estimate D2E/DX2                !
 ! R29   R(16,48)                1.0826         estimate D2E/DX2                !
 ! R30   R(17,18)                1.3959         estimate D2E/DX2                !
 ! R31   R(17,49)                1.0829         estimate D2E/DX2                !
 ! R32   R(18,19)                1.4091         estimate D2E/DX2                !
 ! R33   R(18,50)                1.0819         estimate D2E/DX2                !
 ! R34   R(19,20)                1.4203         estimate D2E/DX2                !
 ! R35   R(20,21)                1.4881         estimate D2E/DX2                !
 ! R36   R(21,22)                1.4072         estimate D2E/DX2                !
 ! R37   R(21,40)                1.4203         estimate D2E/DX2                !
 ! R38   R(22,23)                1.3912         estimate D2E/DX2                !
 ! R39   R(22,24)                1.3953         estimate D2E/DX2                !
 ! R40   R(23,61)                1.9625         estimate D2E/DX2                !
 ! R41   R(24,25)                1.3935         estimate D2E/DX2                !
 ! R42   R(24,51)                1.0827         estimate D2E/DX2                !
 ! R43   R(25,26)                1.4016         estimate D2E/DX2                !
 ! R44   R(25,52)                1.0837         estimate D2E/DX2                !
 ! R45   R(26,27)                1.4036         estimate D2E/DX2                !
 ! R46   R(26,40)                1.4184         estimate D2E/DX2                !
 ! R47   R(27,28)                1.4046         estimate D2E/DX2                !
 ! R48   R(27,53)                1.0841         estimate D2E/DX2                !
 ! R49   R(28,29)                1.4849         estimate D2E/DX2                !
 ! R50   R(28,38)                1.4036         estimate D2E/DX2                !
 ! R51   R(29,30)                1.4223         estimate D2E/DX2                !
 ! R52   R(29,37)                1.4162         estimate D2E/DX2                !
 ! R53   R(30,31)                1.4066         estimate D2E/DX2                !
 ! R54   R(30,54)                1.0826         estimate D2E/DX2                !
 ! R55   R(31,32)                1.3907         estimate D2E/DX2                !
 ! R56   R(31,55)                1.0825         estimate D2E/DX2                !
 ! R57   R(32,33)                1.375          estimate D2E/DX2                !
 ! R58   R(32,36)                1.3663         estimate D2E/DX2                !
 ! R59   R(33,34)                1.391          estimate D2E/DX2                !
 ! R60   R(33,56)                1.082          estimate D2E/DX2                !
 ! R61   R(34,35)                1.3213         estimate D2E/DX2                !
 ! R62   R(34,57)                1.0817         estimate D2E/DX2                !
 ! R63   R(35,36)                1.3103         estimate D2E/DX2                !
 ! R64   R(36,37)                1.3921         estimate D2E/DX2                !
 ! R65   R(37,58)                1.0826         estimate D2E/DX2                !
 ! R66   R(38,39)                1.3959         estimate D2E/DX2                !
 ! R67   R(38,59)                1.0828         estimate D2E/DX2                !
 ! R68   R(39,40)                1.4092         estimate D2E/DX2                !
 ! R69   R(39,60)                1.0819         estimate D2E/DX2                !
 ! A1    A(2,1,61)             115.3527         estimate D2E/DX2                !
 ! A2    A(1,2,3)              119.1952         estimate D2E/DX2                !
 ! A3    A(1,2,20)             120.3139         estimate D2E/DX2                !
 ! A4    A(3,2,20)             120.4907         estimate D2E/DX2                !
 ! A5    A(2,3,4)              120.4095         estimate D2E/DX2                !
 ! A6    A(2,3,41)             119.9546         estimate D2E/DX2                !
 ! A7    A(4,3,41)             119.6358         estimate D2E/DX2                !
 ! A8    A(3,4,5)              120.3298         estimate D2E/DX2                !
 ! A9    A(3,4,42)             118.9941         estimate D2E/DX2                !
 ! A10   A(5,4,42)             120.6714         estimate D2E/DX2                !
 ! A11   A(4,5,6)              119.9634         estimate D2E/DX2                !
 ! A12   A(4,5,19)             119.9308         estimate D2E/DX2                !
 ! A13   A(6,5,19)             120.1054         estimate D2E/DX2                !
 ! A14   A(5,6,7)              120.7235         estimate D2E/DX2                !
 ! A15   A(5,6,43)             119.5467         estimate D2E/DX2                !
 ! A16   A(7,6,43)             119.7232         estimate D2E/DX2                !
 ! A17   A(6,7,8)              120.5449         estimate D2E/DX2                !
 ! A18   A(6,7,17)             119.0322         estimate D2E/DX2                !
 ! A19   A(8,7,17)             120.4225         estimate D2E/DX2                !
 ! A20   A(7,8,9)              120.41           estimate D2E/DX2                !
 ! A21   A(7,8,16)             120.2612         estimate D2E/DX2                !
 ! A22   A(9,8,16)             119.3287         estimate D2E/DX2                !
 ! A23   A(8,9,10)             120.8355         estimate D2E/DX2                !
 ! A24   A(8,9,44)             120.5003         estimate D2E/DX2                !
 ! A25   A(10,9,44)            118.6555         estimate D2E/DX2                !
 ! A26   A(9,10,11)            117.7857         estimate D2E/DX2                !
 ! A27   A(9,10,45)            121.0259         estimate D2E/DX2                !
 ! A28   A(11,10,45)           121.1881         estimate D2E/DX2                !
 ! A29   A(10,11,12)           131.005          estimate D2E/DX2                !
 ! A30   A(10,11,15)           121.9899         estimate D2E/DX2                !
 ! A31   A(12,11,15)           107.0051         estimate D2E/DX2                !
 ! A32   A(11,12,13)           104.5153         estimate D2E/DX2                !
 ! A33   A(11,12,46)           127.8364         estimate D2E/DX2                !
 ! A34   A(13,12,46)           127.6482         estimate D2E/DX2                !
 ! A35   A(12,13,14)           110.4297         estimate D2E/DX2                !
 ! A36   A(12,13,47)           125.4829         estimate D2E/DX2                !
 ! A37   A(14,13,47)           124.0873         estimate D2E/DX2                !
 ! A38   A(13,14,15)           107.6033         estimate D2E/DX2                !
 ! A39   A(11,15,14)           110.4465         estimate D2E/DX2                !
 ! A40   A(11,15,16)           121.819          estimate D2E/DX2                !
 ! A41   A(14,15,16)           127.7345         estimate D2E/DX2                !
 ! A42   A(8,16,15)            118.2411         estimate D2E/DX2                !
 ! A43   A(8,16,48)            121.7049         estimate D2E/DX2                !
 ! A44   A(15,16,48)           120.0458         estimate D2E/DX2                !
 ! A45   A(7,17,18)            120.7461         estimate D2E/DX2                !
 ! A46   A(7,17,49)            120.5136         estimate D2E/DX2                !
 ! A47   A(18,17,49)           118.7296         estimate D2E/DX2                !
 ! A48   A(17,18,19)           120.6969         estimate D2E/DX2                !
 ! A49   A(17,18,50)           117.9529         estimate D2E/DX2                !
 ! A50   A(19,18,50)           121.3486         estimate D2E/DX2                !
 ! A51   A(5,19,18)            118.6819         estimate D2E/DX2                !
 ! A52   A(5,19,20)            119.3803         estimate D2E/DX2                !
 ! A53   A(18,19,20)           121.9352         estimate D2E/DX2                !
 ! A54   A(2,20,19)            119.4105         estimate D2E/DX2                !
 ! A55   A(2,20,21)            118.6701         estimate D2E/DX2                !
 ! A56   A(19,20,21)           121.9161         estimate D2E/DX2                !
 ! A57   A(20,21,22)           118.6679         estimate D2E/DX2                !
 ! A58   A(20,21,40)           121.9188         estimate D2E/DX2                !
 ! A59   A(22,21,40)           119.4095         estimate D2E/DX2                !
 ! A60   A(21,22,23)           120.3136         estimate D2E/DX2                !
 ! A61   A(21,22,24)           120.4913         estimate D2E/DX2                !
 ! A62   A(23,22,24)           119.1947         estimate D2E/DX2                !
 ! A63   A(22,23,61)           103.0832         estimate D2E/DX2                !
 ! A64   A(22,24,25)           120.4092         estimate D2E/DX2                !
 ! A65   A(22,24,51)           119.9548         estimate D2E/DX2                !
 ! A66   A(25,24,51)           119.6359         estimate D2E/DX2                !
 ! A67   A(24,25,26)           120.3301         estimate D2E/DX2                !
 ! A68   A(24,25,52)           118.9944         estimate D2E/DX2                !
 ! A69   A(26,25,52)           120.6717         estimate D2E/DX2                !
 ! A70   A(25,26,27)           119.9631         estimate D2E/DX2                !
 ! A71   A(25,26,40)           119.9318         estimate D2E/DX2                !
 ! A72   A(27,26,40)           120.1034         estimate D2E/DX2                !
 ! A73   A(26,27,28)           120.729          estimate D2E/DX2                !
 ! A74   A(26,27,53)           119.5642         estimate D2E/DX2                !
 ! A75   A(28,27,53)           119.694          estimate D2E/DX2                !
 ! A76   A(27,28,29)           120.4958         estimate D2E/DX2                !
 ! A77   A(27,28,38)           119.0305         estimate D2E/DX2                !
 ! A78   A(29,28,38)           120.4733         estimate D2E/DX2                !
 ! A79   A(28,29,30)           120.3981         estimate D2E/DX2                !
 ! A80   A(28,29,37)           120.2749         estimate D2E/DX2                !
 ! A81   A(30,29,37)           119.327          estimate D2E/DX2                !
 ! A82   A(29,30,31)           120.8374         estimate D2E/DX2                !
 ! A83   A(29,30,54)           120.496          estimate D2E/DX2                !
 ! A84   A(31,30,54)           118.6582         estimate D2E/DX2                !
 ! A85   A(30,31,32)           117.7852         estimate D2E/DX2                !
 ! A86   A(30,31,55)           121.0262         estimate D2E/DX2                !
 ! A87   A(32,31,55)           121.1882         estimate D2E/DX2                !
 ! A88   A(31,32,33)           131.0048         estimate D2E/DX2                !
 ! A89   A(31,32,36)           121.9897         estimate D2E/DX2                !
 ! A90   A(33,32,36)           107.0055         estimate D2E/DX2                !
 ! A91   A(32,33,34)           104.5152         estimate D2E/DX2                !
 ! A92   A(32,33,56)           127.8364         estimate D2E/DX2                !
 ! A93   A(34,33,56)           127.6484         estimate D2E/DX2                !
 ! A94   A(33,34,35)           110.4297         estimate D2E/DX2                !
 ! A95   A(33,34,57)           125.4829         estimate D2E/DX2                !
 ! A96   A(35,34,57)           124.0873         estimate D2E/DX2                !
 ! A97   A(34,35,36)           107.6034         estimate D2E/DX2                !
 ! A98   A(32,36,35)           110.4462         estimate D2E/DX2                !
 ! A99   A(32,36,37)           121.8196         estimate D2E/DX2                !
 ! A100  A(35,36,37)           127.7342         estimate D2E/DX2                !
 ! A101  A(29,37,36)           118.2411         estimate D2E/DX2                !
 ! A102  A(29,37,58)           121.7102         estimate D2E/DX2                !
 ! A103  A(36,37,58)           120.0402         estimate D2E/DX2                !
 ! A104  A(28,38,39)           120.7422         estimate D2E/DX2                !
 ! A105  A(28,38,59)           120.5411         estimate D2E/DX2                !
 ! A106  A(39,38,59)           118.7088         estimate D2E/DX2                !
 ! A107  A(38,39,40)           120.7            estimate D2E/DX2                !
 ! A108  A(38,39,60)           117.9476         estimate D2E/DX2                !
 ! A109  A(40,39,60)           121.3524         estimate D2E/DX2                !
 ! A110  A(21,40,26)           119.378          estimate D2E/DX2                !
 ! A111  A(21,40,39)           121.9385         estimate D2E/DX2                !
 ! A112  A(26,40,39)           118.6806         estimate D2E/DX2                !
 ! A113  A(1,61,23)            100.0            estimate D2E/DX2                !
 ! D1    D(61,1,2,3)          -112.138          estimate D2E/DX2                !
 ! D2    D(61,1,2,20)           67.6745         estimate D2E/DX2                !
 ! D3    D(2,1,61,23)          -32.1317         estimate D2E/DX2                !
 ! D4    D(1,2,3,4)            179.2205         estimate D2E/DX2                !
 ! D5    D(1,2,3,41)            -0.7125         estimate D2E/DX2                !
 ! D6    D(20,2,3,4)            -0.5917         estimate D2E/DX2                !
 ! D7    D(20,2,3,41)          179.4753         estimate D2E/DX2                !
 ! D8    D(1,2,20,19)         -177.5266         estimate D2E/DX2                !
 ! D9    D(1,2,20,21)            1.8251         estimate D2E/DX2                !
 ! D10   D(3,2,20,19)            2.2835         estimate D2E/DX2                !
 ! D11   D(3,2,20,21)         -178.3648         estimate D2E/DX2                !
 ! D12   D(2,3,4,5)             -0.9155         estimate D2E/DX2                !
 ! D13   D(2,3,4,42)           179.8655         estimate D2E/DX2                !
 ! D14   D(41,3,4,5)           179.0177         estimate D2E/DX2                !
 ! D15   D(41,3,4,42)           -0.2013         estimate D2E/DX2                !
 ! D16   D(3,4,5,6)           -179.0562         estimate D2E/DX2                !
 ! D17   D(3,4,5,19)             0.6955         estimate D2E/DX2                !
 ! D18   D(42,4,5,6)             0.1496         estimate D2E/DX2                !
 ! D19   D(42,4,5,19)          179.9013         estimate D2E/DX2                !
 ! D20   D(4,5,6,7)            179.213          estimate D2E/DX2                !
 ! D21   D(4,5,6,43)            -1.7223         estimate D2E/DX2                !
 ! D22   D(19,5,6,7)            -0.5382         estimate D2E/DX2                !
 ! D23   D(19,5,6,43)          178.5265         estimate D2E/DX2                !
 ! D24   D(4,5,19,18)         -178.4257         estimate D2E/DX2                !
 ! D25   D(4,5,19,20)            1.0023         estimate D2E/DX2                !
 ! D26   D(6,5,19,18)            1.3256         estimate D2E/DX2                !
 ! D27   D(6,5,19,20)         -179.2464         estimate D2E/DX2                !
 ! D28   D(5,6,7,8)            179.9294         estimate D2E/DX2                !
 ! D29   D(5,6,7,17)            -0.2954         estimate D2E/DX2                !
 ! D30   D(43,6,7,8)             0.8663         estimate D2E/DX2                !
 ! D31   D(43,6,7,17)         -179.3585         estimate D2E/DX2                !
 ! D32   D(6,7,8,9)             40.8305         estimate D2E/DX2                !
 ! D33   D(6,7,8,16)          -139.2092         estimate D2E/DX2                !
 ! D34   D(17,7,8,9)          -138.9415         estimate D2E/DX2                !
 ! D35   D(17,7,8,16)           41.0187         estimate D2E/DX2                !
 ! D36   D(6,7,17,18)            0.3245         estimate D2E/DX2                !
 ! D37   D(6,7,17,49)         -178.4741         estimate D2E/DX2                !
 ! D38   D(8,7,17,18)         -179.9            estimate D2E/DX2                !
 ! D39   D(8,7,17,49)            1.3014         estimate D2E/DX2                !
 ! D40   D(7,8,9,10)          -179.9805         estimate D2E/DX2                !
 ! D41   D(7,8,9,44)             1.1036         estimate D2E/DX2                !
 ! D42   D(16,8,9,10)            0.0588         estimate D2E/DX2                !
 ! D43   D(16,8,9,44)         -178.857          estimate D2E/DX2                !
 ! D44   D(7,8,16,15)          179.9426         estimate D2E/DX2                !
 ! D45   D(7,8,16,48)            0.9853         estimate D2E/DX2                !
 ! D46   D(9,8,16,15)           -0.0967         estimate D2E/DX2                !
 ! D47   D(9,8,16,48)         -179.054          estimate D2E/DX2                !
 ! D48   D(8,9,10,11)            0.0035         estimate D2E/DX2                !
 ! D49   D(8,9,10,45)         -179.778          estimate D2E/DX2                !
 ! D50   D(44,9,10,11)         178.939          estimate D2E/DX2                !
 ! D51   D(44,9,10,45)          -0.8425         estimate D2E/DX2                !
 ! D52   D(9,10,11,12)         179.9221         estimate D2E/DX2                !
 ! D53   D(9,10,11,15)          -0.0274         estimate D2E/DX2                !
 ! D54   D(45,10,11,12)         -0.2967         estimate D2E/DX2                !
 ! D55   D(45,10,11,15)        179.7537         estimate D2E/DX2                !
 ! D56   D(10,11,12,13)       -179.9128         estimate D2E/DX2                !
 ! D57   D(10,11,12,46)          0.0358         estimate D2E/DX2                !
 ! D58   D(15,11,12,13)          0.0424         estimate D2E/DX2                !
 ! D59   D(15,11,12,46)        179.9911         estimate D2E/DX2                !
 ! D60   D(10,11,15,14)        179.9032         estimate D2E/DX2                !
 ! D61   D(10,11,15,16)         -0.0129         estimate D2E/DX2                !
 ! D62   D(12,11,15,14)         -0.057          estimate D2E/DX2                !
 ! D63   D(12,11,15,16)       -179.9731         estimate D2E/DX2                !
 ! D64   D(11,12,13,14)         -0.0156         estimate D2E/DX2                !
 ! D65   D(11,12,13,47)        179.9752         estimate D2E/DX2                !
 ! D66   D(46,12,13,14)       -179.9644         estimate D2E/DX2                !
 ! D67   D(46,12,13,47)          0.0265         estimate D2E/DX2                !
 ! D68   D(12,13,14,15)         -0.0189         estimate D2E/DX2                !
 ! D69   D(47,13,14,15)        179.9902         estimate D2E/DX2                !
 ! D70   D(13,14,15,11)          0.047          estimate D2E/DX2                !
 ! D71   D(13,14,15,16)        179.9569         estimate D2E/DX2                !
 ! D72   D(11,15,16,8)           0.0756         estimate D2E/DX2                !
 ! D73   D(11,15,16,48)        179.0508         estimate D2E/DX2                !
 ! D74   D(14,15,16,8)        -179.8251         estimate D2E/DX2                !
 ! D75   D(14,15,16,48)         -0.8499         estimate D2E/DX2                !
 ! D76   D(7,17,18,19)           0.4885         estimate D2E/DX2                !
 ! D77   D(7,17,18,50)        -179.0586         estimate D2E/DX2                !
 ! D78   D(49,17,18,19)        179.3082         estimate D2E/DX2                !
 ! D79   D(49,17,18,50)         -0.2389         estimate D2E/DX2                !
 ! D80   D(17,18,19,5)          -1.3049         estimate D2E/DX2                !
 ! D81   D(17,18,19,20)        179.2825         estimate D2E/DX2                !
 ! D82   D(50,18,19,5)         178.2266         estimate D2E/DX2                !
 ! D83   D(50,18,19,20)         -1.186          estimate D2E/DX2                !
 ! D84   D(5,19,20,2)           -2.4709         estimate D2E/DX2                !
 ! D85   D(5,19,20,21)         178.1992         estimate D2E/DX2                !
 ! D86   D(18,19,20,2)         176.9377         estimate D2E/DX2                !
 ! D87   D(18,19,20,21)         -2.3921         estimate D2E/DX2                !
 ! D88   D(2,20,21,22)         -68.1923         estimate D2E/DX2                !
 ! D89   D(2,20,21,40)         111.0923         estimate D2E/DX2                !
 ! D90   D(19,20,21,22)        111.1423         estimate D2E/DX2                !
 ! D91   D(19,20,21,40)        -69.5731         estimate D2E/DX2                !
 ! D92   D(20,21,22,23)          1.7875         estimate D2E/DX2                !
 ! D93   D(20,21,22,24)       -178.4221         estimate D2E/DX2                !
 ! D94   D(40,21,22,23)       -177.5154         estimate D2E/DX2                !
 ! D95   D(40,21,22,24)          2.275          estimate D2E/DX2                !
 ! D96   D(20,21,40,26)        178.1296         estimate D2E/DX2                !
 ! D97   D(20,21,40,39)         -2.5021         estimate D2E/DX2                !
 ! D98   D(22,21,40,26)         -2.591          estimate D2E/DX2                !
 ! D99   D(22,21,40,39)        176.7774         estimate D2E/DX2                !
 ! D100  D(21,22,23,61)         80.7122         estimate D2E/DX2                !
 ! D101  D(24,22,23,61)        -99.081          estimate D2E/DX2                !
 ! D102  D(21,22,24,25)         -0.5482         estimate D2E/DX2                !
 ! D103  D(21,22,24,51)        179.5091         estimate D2E/DX2                !
 ! D104  D(23,22,24,25)        179.2446         estimate D2E/DX2                !
 ! D105  D(23,22,24,51)         -0.6981         estimate D2E/DX2                !
 ! D106  D(22,23,61,1)         -57.3836         estimate D2E/DX2                !
 ! D107  D(22,24,25,26)         -0.8628         estimate D2E/DX2                !
 ! D108  D(22,24,25,52)        179.8374         estimate D2E/DX2                !
 ! D109  D(51,24,25,26)        179.0801         estimate D2E/DX2                !
 ! D110  D(51,24,25,52)         -0.2198         estimate D2E/DX2                !
 ! D111  D(24,25,26,27)       -179.0201         estimate D2E/DX2                !
 ! D112  D(24,25,26,40)          0.5129         estimate D2E/DX2                !
 ! D113  D(52,25,26,27)          0.2679         estimate D2E/DX2                !
 ! D114  D(52,25,26,40)        179.8009         estimate D2E/DX2                !
 ! D115  D(25,26,27,28)        178.9448         estimate D2E/DX2                !
 ! D116  D(25,26,27,53)          0.2482         estimate D2E/DX2                !
 ! D117  D(40,26,27,28)         -0.5874         estimate D2E/DX2                !
 ! D118  D(40,26,27,53)       -179.284          estimate D2E/DX2                !
 ! D119  D(25,26,40,21)          1.2175         estimate D2E/DX2                !
 ! D120  D(25,26,40,39)       -178.1715         estimate D2E/DX2                !
 ! D121  D(27,26,40,21)       -179.2501         estimate D2E/DX2                !
 ! D122  D(27,26,40,39)          1.3609         estimate D2E/DX2                !
 ! D123  D(26,27,28,29)        179.8998         estimate D2E/DX2                !
 ! D124  D(26,27,28,38)         -0.3145         estimate D2E/DX2                !
 ! D125  D(53,27,28,29)         -1.4054         estimate D2E/DX2                !
 ! D126  D(53,27,28,38)        178.3804         estimate D2E/DX2                !
 ! D127  D(27,28,29,30)        139.0127         estimate D2E/DX2                !
 ! D128  D(27,28,29,37)        -41.0108         estimate D2E/DX2                !
 ! D129  D(38,28,29,30)        -40.7699         estimate D2E/DX2                !
 ! D130  D(38,28,29,37)        139.2066         estimate D2E/DX2                !
 ! D131  D(27,28,38,39)          0.4265         estimate D2E/DX2                !
 ! D132  D(27,28,38,59)        179.3841         estimate D2E/DX2                !
 ! D133  D(29,28,38,39)       -179.7877         estimate D2E/DX2                !
 ! D134  D(29,28,38,59)         -0.8301         estimate D2E/DX2                !
 ! D135  D(28,29,30,31)        179.9569         estimate D2E/DX2                !
 ! D136  D(28,29,30,54)         -1.113          estimate D2E/DX2                !
 ! D137  D(37,29,30,31)         -0.0198         estimate D2E/DX2                !
 ! D138  D(37,29,30,54)        178.9103         estimate D2E/DX2                !
 ! D139  D(28,29,37,36)       -179.9171         estimate D2E/DX2                !
 ! D140  D(28,29,37,58)         -0.9745         estimate D2E/DX2                !
 ! D141  D(30,29,37,36)          0.0596         estimate D2E/DX2                !
 ! D142  D(30,29,37,58)        179.0022         estimate D2E/DX2                !
 ! D143  D(29,30,31,32)         -0.0199         estimate D2E/DX2                !
 ! D144  D(29,30,31,55)        179.7731         estimate D2E/DX2                !
 ! D145  D(54,30,31,32)       -178.9694         estimate D2E/DX2                !
 ! D146  D(54,30,31,55)          0.8236         estimate D2E/DX2                !
 ! D147  D(30,31,32,33)       -179.9115         estimate D2E/DX2                !
 ! D148  D(30,31,32,36)          0.0196         estimate D2E/DX2                !
 ! D149  D(55,31,32,33)          0.2958         estimate D2E/DX2                !
 ! D150  D(55,31,32,36)       -179.773          estimate D2E/DX2                !
 ! D151  D(31,32,33,34)        179.8971         estimate D2E/DX2                !
 ! D152  D(31,32,33,56)         -0.047          estimate D2E/DX2                !
 ! D153  D(36,32,33,34)         -0.0418         estimate D2E/DX2                !
 ! D154  D(36,32,33,56)       -179.9859         estimate D2E/DX2                !
 ! D155  D(31,32,36,35)       -179.8887         estimate D2E/DX2                !
 ! D156  D(31,32,36,37)          0.022          estimate D2E/DX2                !
 ! D157  D(33,32,36,35)          0.057          estimate D2E/DX2                !
 ! D158  D(33,32,36,37)        179.9677         estimate D2E/DX2                !
 ! D159  D(32,33,34,35)          0.0145         estimate D2E/DX2                !
 ! D160  D(32,33,34,57)       -179.9748         estimate D2E/DX2                !
 ! D161  D(56,33,34,35)        179.9588         estimate D2E/DX2                !
 ! D162  D(56,33,34,57)         -0.0305         estimate D2E/DX2                !
 ! D163  D(33,34,35,36)          0.02           estimate D2E/DX2                !
 ! D164  D(57,34,35,36)       -179.9905         estimate D2E/DX2                !
 ! D165  D(34,35,36,32)         -0.0477         estimate D2E/DX2                !
 ! D166  D(34,35,36,37)       -179.9518         estimate D2E/DX2                !
 ! D167  D(32,36,37,29)         -0.0617         estimate D2E/DX2                !
 ! D168  D(32,36,37,58)       -179.0226         estimate D2E/DX2                !
 ! D169  D(35,36,37,29)        179.8325         estimate D2E/DX2                !
 ! D170  D(35,36,37,58)          0.8717         estimate D2E/DX2                !
 ! D171  D(28,38,39,40)          0.3715         estimate D2E/DX2                !
 ! D172  D(28,38,39,60)       -179.571          estimate D2E/DX2                !
 ! D173  D(59,38,39,40)       -178.6049         estimate D2E/DX2                !
 ! D174  D(59,38,39,60)          1.4527         estimate D2E/DX2                !
 ! D175  D(38,39,40,21)        179.3695         estimate D2E/DX2                !
 ! D176  D(38,39,40,26)         -1.2579         estimate D2E/DX2                !
 ! D177  D(60,39,40,21)         -0.69           estimate D2E/DX2                !
 ! D178  D(60,39,40,26)        178.6826         estimate D2E/DX2                !
 --------------------------------------------------------------------------------
 Trust Radius=3.00D-01 FncErr=1.00D-07 GrdErr=1.00D-06 EigMax=2.50D+02 EigMin=1.00D-04
 Number of steps in this run=    366 maximum allowed number of steps=    366.
 GradGradGradGradGradGradGradGradGradGradGradGradGradGradGradGradGradGrad

 Leave Link  103 at Thu Mar 27 16:02:02 2025, MaxMem= 13421772800 cpu:               0.3 elap:               0.0
 (Enter /public/software/apps/Gaussian/g16/l202.exe)
 Symmetry turned off by external request.
 Stoichiometry    C36H20CuO4(2)
 Framework group  C1[X(C36H20CuO4)]
 Deg. of freedom   177
 Full point group                 C1      NOp   1
                          Input orientation:                          
 ---------------------------------------------------------------------
 Center     Atomic      Atomic             Coordinates (Angstroms)
 Number     Number       Type             X           Y           Z
 ---------------------------------------------------------------------
      1          8           0        0.092527    5.175930   -1.409895
      2          6           0        1.034322    4.156021   -1.318600
      3          6           0        2.137526    4.169829   -2.172858
      4          6           0        3.104573    3.169751   -2.092294
      5          6           0        2.989357    2.148921   -1.138755
      6          6           0        3.978121    1.156537   -1.051226
      7          6           0        3.887101    0.135563   -0.090861
      8          6           0        4.934546   -0.913150   -0.002801
      9          6           0        6.308164   -0.572419   -0.144333
     10          6           0        7.307726   -1.558665   -0.062890
     11          6           0        6.906515   -2.871508    0.159687
     12          6           0        7.637396   -4.029643    0.283092
     13          6           0        6.685492   -5.021943    0.492864
     14          8           0        5.470672   -4.502346    0.496309
     15          6           0        5.590708   -3.212727    0.297966
     16          6           0        4.574738   -2.263906    0.224072
     17          6           0        2.793283    0.123215    0.788606
     18          6           0        1.803681    1.104541    0.710476
     19          6           0        1.876089    2.123509   -0.260154
     20          6           0        0.876473    3.126093   -0.372864
     21          6           0       -0.333950    3.131026    0.492743
     22          6           0       -0.469262    4.145695    1.458264
     23          8           0        0.495147    5.142218    1.569565
     24          6           0       -1.572650    4.167953    2.312100
     25          6           0       -2.561616    3.191333    2.212231
     26          6           0       -2.467712    2.185693    1.240393
     27          6           0       -3.478569    1.217846    1.133191
     28          6           0       -3.411772    0.216013    0.150928
     29          6           0       -4.482954   -0.806645    0.043585
     30          6           0       -4.959194   -1.218913   -1.231628
     31          6           0       -5.972865   -2.187549   -1.344084
     32          6           0       -6.489320   -2.724785   -0.169904
     33          6           0       -7.465478   -3.670965    0.036371
     34          6           0       -7.542801   -3.796292    1.419518
     35          8           0       -6.678490   -2.986402    2.005031
     36          6           0       -6.041169   -2.337953    1.061524
     37          6           0       -5.040480   -1.381878    1.211400
     38          6           0       -2.319826    0.198326   -0.730786
     39          6           0       -1.307471    1.154324   -0.632120
     40          6           0       -1.355893    2.153673    0.360205
     41          1           0        2.245958    4.961830   -2.903034
     42          1           0        3.950845    3.201687   -2.768429
     43          1           0        4.812709    1.170968   -1.742907
     44          1           0        6.605776    0.456757   -0.299880
     45          1           0        8.354248   -1.302278   -0.166598
     46          1           0        8.711771   -4.145402    0.228639
     47          1           0        6.895469   -6.073600    0.634448
     48          1           0        3.540501   -2.568390    0.322438
     49          1           0        2.711839   -0.638369    1.554125
     50          1           0        0.988707    1.060599    1.420684
     51          1           0       -1.664025    4.948186    3.057128
     52          1           0       -3.407348    3.229076    2.888742
     53          1           0       -4.330221    1.257454    1.802831
     54          1           0       -4.558836   -0.778961   -2.136128
     55          1           0       -6.340133   -2.500901   -2.312910
     56          1           0       -8.044054   -4.200964   -0.708611
     57          1           0       -8.210699   -4.458700    1.953604
     58          1           0       -4.696083   -1.108303    2.200624
     59          1           0       -2.238649   -0.568692   -1.490809
     60          1           0       -0.490493    1.102544   -1.339471
     61         29           0        0.014545    6.388155    0.131483
 ---------------------------------------------------------------------
 Rotational constants (GHZ):           0.0692890           0.0449603           0.0292303
 Leave Link  202 at Thu Mar 27 16:02:02 2025, MaxMem= 13421772800 cpu:               0.2 elap:               0.0
 (Enter /public/software/apps/Gaussian/g16/l301.exe)
 Standard basis: def2SVPP (5D, 7F)
 Ernie: Thresh=  0.10000D-02 Tol=  0.10000D-05 Strict=F.
   624 basis functions,  1151 primitive gaussians,   666 cartesian basis functions
   149 alpha electrons      148 beta electrons
       nuclear repulsion energy      4561.8112067801 Hartrees.
 IExCor=  402 DFT=T Ex+Corr=B3LYP ExCW=0 ScaHFX=  0.200000
 ScaDFX=  0.800000  0.720000  1.000000  0.810000 ScalE2=  1.000000  1.000000
 IRadAn=      5 IRanWt=     -1 IRanGd=            0 ICorTp=0 IEmpDi=141
 NAtoms=   61 NActive=   61 NUniq=   61 SFac= 1.00D+00 NAtFMM=   60 NAOKFM=T Big=T
 Integral buffers will be    131072 words long.
 Raffenetti 2 integral format.
 Two-electron integral symmetry is turned off.
 R6Disp:  Grimme-D3(BJ) Dispersion energy=       -0.1666448279 Hartrees.
 Nuclear repulsion after empirical dispersion term =     4561.6445619522 Hartrees.
 Leave Link  301 at Thu Mar 27 16:02:02 2025, MaxMem= 13421772800 cpu:               0.7 elap:               0.0
 (Enter /public/software/apps/Gaussian/g16/l302.exe)
 NPDir=0 NMtPBC=     1 NCelOv=     1 NCel=       1 NClECP=     1 NCelD=      1
         NCelK=      1 NCelE2=     1 NClLst=     1 CellRange=     0.0.
 One-electron integrals computed using PRISM.
   1 Symmetry operations used in ECPInt.
 ECPInt:  NShTT=   42195 NPrTT=  173786 LenC2=   30996 LenP2D=   78244.
 LDataN:  DoStor=T MaxTD1= 4 Len=   56
 NBasis=   624 RedAO= T EigKep=  1.88D-04  NBF=   624
 NBsUse=   624 1.00D-06 EigRej= -1.00D+00 NBFU=   624
 Precomputing XC quadrature grid using
 IXCGrd= 4 IRadAn=           5 IRanWt=          -1 IRanGd=           0 AccXCQ= 0.00D+00.
 Generated NRdTot=       0 NPtTot=           0 NUsed=           0 NTot=          32
 NSgBfM=   633   632   632   632   633 MxSgAt=    61 MxSgA2=    61.
 Leave Link  302 at Thu Mar 27 16:02:03 2025, MaxMem= 13421772800 cpu:              20.2 elap:               0.6
 (Enter /public/software/apps/Gaussian/g16/l303.exe)
 DipDrv:  MaxL=1.
 Leave Link  303 at Thu Mar 27 16:02:03 2025, MaxMem= 13421772800 cpu:               4.9 elap:               0.2
 (Enter /public/software/apps/Gaussian/g16/l401.exe)
 ExpMin= 3.30D-02 ExpMax= 7.64D+04 ExpMxC= 1.15D+04 IAcc=3 IRadAn=         5 AccDes= 0.00D+00
 Harris functional with IExCor=  402 and IRadAn=       5 diagonalized for initial guess.
 HarFok:  IExCor=  402 AccDes= 0.00D+00 IRadAn=         5 IDoV= 1 UseB2=F ITyADJ=14
 ICtDFT=  3500011 ScaDFX=  1.000000  1.000000  1.000000  1.000000
 FoFCou: FMM=F IPFlag=           0 FMFlag=      100000 FMFlg1=        2001
         NFxFlg=           0 DoJE=T BraDBF=F KetDBF=T FulRan=T
         wScrn=  0.000000 ICntrl=       500 IOpCl=  0 I1Cent=   200000004 NGrid=           0
         NMat0=    1 NMatS0=      1 NMatT0=    0 NMatD0=    1 NMtDS0=    0 NMtDT0=    0
 Symmetry not used in FoFCou.
 Harris En= -3324.17923722915    
 JPrj=0 DoOrth=F DoCkMO=F.
 Initial guess <Sx>= 0.0000 <Sy>= 0.0000 <Sz>= 0.5000 <S**2>= 0.7500 S= 0.5000
 Leave Link  401 at Thu Mar 27 16:02:04 2025, MaxMem= 13421772800 cpu:              45.7 elap:               1.5
 (Enter /public/software/apps/Gaussian/g16/l502.exe)
 Two-electron integral symmetry not used.
 UHF open shell SCF:
 Using DIIS extrapolation, IDIIS=  1040.
 NGot= 13421772800 LenX= 13420857708 LenY= 13420413486
 Requested convergence on RMS density matrix=1.00D-08 within 128 cycles.
 Requested convergence on MAX density matrix=1.00D-06.
 Requested convergence on             energy=1.00D-06.
 No special actions if energy rises.
 Fock matrices will be formed incrementally for  20 cycles.

 Cycle   1  Pass 1  IDiag  1:
 FoFJK:  IHMeth= 1 ICntrl=       0 DoSepK=F KAlg= 0 I1Cent=           0 FoldK=F
 IRaf= 830000000 NMat=       1 IRICut=       1 DoRegI=T DoRafI=F ISym2E= 0 IDoP0=0 IntGTp=1.
 FoFCou: FMM=T IPFlag=           0 FMFlag=      100000 FMFlg1=        2001
         NFxFlg=           0 DoJE=F BraDBF=F KetDBF=F FulRan=T
         wScrn=  0.000000 ICntrl=         0 IOpCl=  1 I1Cent=           0 NGrid=           0
         NMat0=    1 NMatS0=      1 NMatT0=    0 NMatD0=    1 NMtDS0=    0 NMtDT0=    0
 Symmetry not used in FoFCou.
 FMM levels:  10  Number of levels for PrismC:   9
 E= -3297.28947285282    
 DIIS: error= 3.11D-01 at cycle   1 NSaved=   1.
 NSaved= 1 IEnMin= 1 EnMin= -3297.28947285282     IErMin= 1 ErrMin= 3.11D-01
 ErrMax= 3.11D-01  0.00D+00 EMaxC= 1.00D-01 BMatC= 1.03D+02 BMatP= 1.03D+02
 IDIUse=3 WtCom= 0.00D+00 WtEn= 1.00D+00
 Coeff-Com:  0.100D+01
 Coeff-En:   0.100D+01
 Coeff:      0.100D+01
 Gap=    -3.970 Goal=   None    Shift=    0.000
 Gap=     1.996 Goal=   None    Shift=    0.000
 GapD=   -3.970 DampG=0.250 DampE=0.125 DampFc=0.1250 IDamp=-1.
 Damping current iteration by 1.25D-01
 RMSDP=2.41D-01 MaxDP=4.83D+01              OVMax= 9.93D-01

 Cycle   2  Pass 1  IDiag  1:
 RMSU=  2.98D-02    CP:  1.20D+00
 E= -3306.32410774911     Delta-E=       -9.034634896282 Rises=F Damp=T
 DIIS: error= 1.83D-01 at cycle   2 NSaved=   2.
 NSaved= 2 IEnMin= 2 EnMin= -3306.32410774911     IErMin= 2 ErrMin= 1.83D-01
 ErrMax= 1.83D-01  0.00D+00 EMaxC= 1.00D-01 BMatC= 3.92D+01 BMatP= 1.03D+02
 IDIUse=3 WtCom= 0.00D+00 WtEn= 1.00D+00
 Coeff-Com: -0.115D+01 0.215D+01
 Coeff-En:   0.000D+00 0.100D+01
 Coeff:      0.000D+00 0.100D+01
 Gap=     0.016 Goal=   None    Shift=    0.000
 Gap=    -0.041 Goal=   None    Shift=    0.000
 RMSDP=3.24D-02 MaxDP=5.54D+00 DE=-9.03D+00 OVMax= 8.92D-01

 Cycle   3  Pass 1  IDiag  1:
 RMSU=  2.61D-02    CP:  9.29D-01  3.80D-01
 E= -3255.75298864709     Delta-E=       50.571119102015 Rises=F Damp=F
 DIIS: error= 1.01D-01 at cycle   3 NSaved=   3.
 NSaved= 3 IEnMin= 2 EnMin= -3306.32410774911     IErMin= 3 ErrMin= 1.01D-01
 ErrMax= 1.01D-01  0.00D+00 EMaxC= 1.00D-01 BMatC= 9.80D+01 BMatP= 3.92D+01
 IDIUse=2 WtCom= 0.00D+00 WtEn= 1.00D+00
 EnCoef did    23 forward-backward iterations
 Coeff-En:   0.426D+00 0.268D+00 0.306D+00
 Coeff:      0.426D+00 0.268D+00 0.306D+00
 Gap=    -0.091 Goal=   None    Shift=    0.000
 Gap=    -0.191 Goal=   None    Shift=    0.000
 RMSDP=2.99D-02 MaxDP=4.86D+00 DE= 5.06D+01 OVMax= 8.84D-01

 Cycle   4  Pass 1  IDiag  1:
 RMSU=  1.95D-02    CP:  9.29D-01  1.46D-01  1.74D-01
 E= -3289.26503890562     Delta-E=      -33.512050258531 Rises=F Damp=F
 DIIS: error= 2.03D-01 at cycle   4 NSaved=   4.
 NSaved= 4 IEnMin= 2 EnMin= -3306.32410774911     IErMin= 3 ErrMin= 1.01D-01
 ErrMax= 2.03D-01  0.00D+00 EMaxC= 1.00D-01 BMatC= 7.13D+01 BMatP= 3.92D+01
 IDIUse=2 WtCom= 0.00D+00 WtEn= 1.00D+00
 EnCoef did   100 forward-backward iterations
 Coeff-En:   0.500D+00 0.177D-01 0.221D+00 0.261D+00
 Coeff:      0.500D+00 0.177D-01 0.221D+00 0.261D+00
 Gap=    -0.206 Goal=   None    Shift=    0.000
 Gap=     0.003 Goal=   None    Shift=    0.000
 RMSDP=2.52D-02 MaxDP=3.52D+00 DE=-3.35D+01 OVMax= 9.84D-01

 Cycle   5  Pass 1  IDiag  1:
 RMSU=  1.57D-02    CP:  8.74D-01 -5.33D-03  1.02D-01  1.94D-02
 E= -3283.53889052539     Delta-E=        5.726148380237 Rises=F Damp=F
 DIIS: error= 1.89D-01 at cycle   5 NSaved=   5.
 NSaved= 5 IEnMin= 2 EnMin= -3306.32410774911     IErMin= 3 ErrMin= 1.01D-01
 ErrMax= 1.89D-01  0.00D+00 EMaxC= 1.00D-01 BMatC= 7.20D+01 BMatP= 3.92D+01
 IDIUse=2 WtCom= 0.00D+00 WtEn= 1.00D+00
 EnCoef did   100 forward-backward iterations
 Coeff-En:   0.274D+00 0.927D-02 0.000D+00 0.395D+00 0.321D+00
 Coeff:      0.274D+00 0.927D-02 0.000D+00 0.395D+00 0.321D+00
 Gap=     0.498 Goal=   None    Shift=    0.000
 Gap=     0.230 Goal=   None    Shift=    0.000
 RMSDP=1.69D-02 MaxDP=1.85D+00 DE= 5.73D+00 OVMax= 9.47D-01

 Cycle   6  Pass 1  IDiag  1:
 RMSU=  8.59D-03    CP:  8.97D-01  5.62D-02  1.20D-01  2.98D-02  8.13D-02
 E= -3297.59586191623     Delta-E=      -14.056971390840 Rises=F Damp=F
 DIIS: error= 1.13D-01 at cycle   6 NSaved=   6.
 NSaved= 6 IEnMin= 2 EnMin= -3306.32410774911     IErMin= 3 ErrMin= 1.01D-01
 ErrMax= 1.13D-01  0.00D+00 EMaxC= 1.00D-01 BMatC= 3.83D+01 BMatP= 3.92D+01
 IDIUse=3 WtCom= 0.00D+00 WtEn= 1.00D+00
 EnCoef did   100 forward-backward iterations
 Coeff-Com: -0.534D+00 0.107D+01 0.375D-01 0.893D-01 0.160D+00 0.182D+00
 Coeff-En:   0.264D+00 0.528D-02 0.000D+00 0.277D+00 0.268D+00 0.186D+00
 Coeff:      0.264D+00 0.528D-02 0.000D+00 0.277D+00 0.268D+00 0.186D+00
 Gap=     0.241 Goal=   None    Shift=    0.000
 Gap=     0.007 Goal=   None    Shift=    0.000
 RMSDP=8.43D-03 MaxDP=1.62D+00 DE=-1.41D+01 OVMax= 9.70D-01

 Cycle   7  Pass 1  IDiag  1:
 RMSU=  4.78D-03    CP:  8.84D-01 -4.03D-03  7.87D-02  8.24D-02  7.28D-02
                    CP:  2.39D-01
 E= -3319.56091779224     Delta-E=      -21.965055876014 Rises=F Damp=F
 DIIS: error= 9.79D-02 at cycle   7 NSaved=   7.
 NSaved= 7 IEnMin= 7 EnMin= -3319.56091779224     IErMin= 7 ErrMin= 9.79D-02
 ErrMax= 9.79D-02  0.00D+00 EMaxC= 1.00D-01 BMatC= 7.38D+00 BMatP= 3.83D+01
 IDIUse=3 WtCom= 2.09D-02 WtEn= 9.79D-01
 EnCoef did   100 forward-backward iterations
 Coeff-Com: -0.280D+00 0.609D+00 0.148D-01-0.663D-02 0.720D-01 0.944D-01
 Coeff-Com:  0.496D+00
 Coeff-En:   0.203D+00 0.456D-02 0.000D+00 0.000D+00 0.309D-01 0.981D-01
 Coeff-En:   0.664D+00
 Coeff:      0.193D+00 0.172D-01 0.309D-03-0.138D-03 0.317D-01 0.980D-01
 Coeff:      0.660D+00
 Gap=     0.050 Goal=   None    Shift=    0.000
 Gap=     0.500 Goal=   None    Shift=    0.000
 RMSDP=5.20D-02 MaxDP=8.67D+00 DE=-2.20D+01 OVMax= 9.77D-01

 Cycle   8  Pass 1  IDiag  1:
 RMSU=  5.16D-02    CP:  9.26D-01 -1.62D-02  3.57D-02  1.33D-02  1.24D-01
                    CP:  3.47D-01 -1.48D-01
 E= -3256.54986853626     Delta-E=       63.011049255983 Rises=F Damp=F
 DIIS: error= 1.23D-01 at cycle   8 NSaved=   8.
 NSaved= 8 IEnMin= 7 EnMin= -3319.56091779224     IErMin= 7 ErrMin= 9.79D-02
 ErrMax= 1.23D-01  0.00D+00 EMaxC= 1.00D-01 BMatC= 1.02D+02 BMatP= 7.38D+00
 IDIUse=2 WtCom= 0.00D+00 WtEn= 1.00D+00
 EnCoef did   100 forward-backward iterations
 Coeff-En:   0.148D+00 0.431D-02 0.000D+00 0.000D+00 0.000D+00 0.113D-04
 Coeff-En:   0.748D+00 0.994D-01
 Coeff:      0.148D+00 0.431D-02 0.000D+00 0.000D+00 0.000D+00 0.113D-04
 Coeff:      0.748D+00 0.994D-01
 Gap=     0.284 Goal=   None    Shift=    0.000
 Gap=     0.027 Goal=   None    Shift=    0.000
 RMSDP=5.12D-02 MaxDP=8.55D+00 DE= 6.30D+01 OVMax= 9.60D-01

 Cycle   9  Pass 1  IDiag  1:
 RMSU=  4.78D-03    CP:  8.84D-01 -1.26D-02  3.61D-02  3.90D-02  8.61D-02
                    CP:  3.37D-01  2.83D-01  1.38D-02
 E= -3317.14563516819     Delta-E=      -60.595766631934 Rises=F Damp=F
 DIIS: error= 5.12D-02 at cycle   9 NSaved=   9.
 NSaved= 9 IEnMin= 7 EnMin= -3319.56091779224     IErMin= 9 ErrMin= 5.12D-02
 ErrMax= 5.12D-02  0.00D+00 EMaxC= 1.00D-01 BMatC= 1.13D+01 BMatP= 7.38D+00
 IDIUse=2 WtCom= 0.00D+00 WtEn= 1.00D+00
 EnCoef did   100 forward-backward iterations
 Coeff-En:   0.119D+00 0.278D-02 0.000D+00 0.000D+00 0.340D-05 0.000D+00
 Coeff-En:   0.544D+00 0.000D+00 0.334D+00
 Coeff:      0.119D+00 0.278D-02 0.000D+00 0.000D+00 0.340D-05 0.000D+00
 Coeff:      0.544D+00 0.000D+00 0.334D+00
 Gap=     0.061 Goal=   None    Shift=    0.000
 Gap=     0.177 Goal=   None    Shift=    0.000
 RMSDP=5.49D-03 MaxDP=3.39D-01 DE=-6.06D+01 OVMax= 9.43D-01

 Cycle  10  Pass 1  IDiag  1:
 RMSU=  4.71D-03    CP:  8.71D-01 -8.38D-03  3.44D-02  2.14D-02  1.36D-01
                    CP:  1.95D-01  4.38D-01  9.81D-03  5.29D-01
 E= -3310.12187644937     Delta-E=        7.023758718818 Rises=F Damp=F
 DIIS: error= 6.58D-02 at cycle  10 NSaved=  10.
 NSaved=10 IEnMin= 7 EnMin= -3319.56091779224     IErMin= 9 ErrMin= 5.12D-02
 ErrMax= 6.58D-02  0.00D+00 EMaxC= 1.00D-01 BMatC= 2.25D+01 BMatP= 7.38D+00
 IDIUse=2 WtCom= 0.00D+00 WtEn= 1.00D+00
 EnCoef did     6 forward-backward iterations
 Coeff-En:   0.896D-01 0.000D+00 0.000D+00 0.000D+00 0.000D+00 0.000D+00
 Coeff-En:   0.524D+00 0.000D+00 0.285D+00 0.102D+00
 Coeff:      0.896D-01 0.000D+00 0.000D+00 0.000D+00 0.000D+00 0.000D+00
 Coeff:      0.524D+00 0.000D+00 0.285D+00 0.102D+00
 Gap=     0.045 Goal=   None    Shift=    0.000
 Gap=     0.052 Goal=   None    Shift=    0.000
 RMSDP=5.01D-03 MaxDP=4.44D-01 DE= 7.02D+00 OVMax= 7.42D-01

 Cycle  11  Pass 1  IDiag  1:
 RMSU=  2.55D-03    CP:  8.83D-01 -6.25D-03  2.84D-02  5.06D-02  6.63D-02
                    CP:  1.36D-01  5.64D-01  4.78D-03  4.86D-01  1.44D-01
 E= -3323.65295081550     Delta-E=      -13.531074366133 Rises=F Damp=F
 DIIS: error= 6.11D-02 at cycle  11 NSaved=  11.
 NSaved=11 IEnMin=11 EnMin= -3323.65295081550     IErMin= 9 ErrMin= 5.12D-02
 ErrMax= 6.11D-02  0.00D+00 EMaxC= 1.00D-01 BMatC= 1.34D+00 BMatP= 7.38D+00
 IDIUse=3 WtCom= 3.89D-01 WtEn= 6.11D-01
 Coeff-Com:  0.445D-01-0.891D-01 0.308D-02 0.755D-03 0.197D-02 0.313D-02
 Coeff-Com:  0.243D+00-0.758D-02 0.133D+00 0.363D-01 0.631D+00
 Coeff-En:   0.000D+00 0.000D+00 0.000D+00 0.000D+00 0.000D+00 0.000D+00
 Coeff-En:   0.793D-01 0.000D+00 0.000D+00 0.000D+00 0.921D+00
 Coeff:      0.173D-01-0.346D-01 0.120D-02 0.294D-03 0.768D-03 0.122D-02
 Coeff:      0.143D+00-0.295D-02 0.518D-01 0.141D-01 0.808D+00
 Gap=     0.343 Goal=   None    Shift=    0.000
 Gap=     0.153 Goal=   None    Shift=    0.000
 RMSDP=2.33D-03 MaxDP=5.37D-01 DE=-1.35D+01 OVMax= 4.14D-01

 Cycle  12  Pass 1  IDiag  1:
 RMSU=  1.88D-03    CP:  8.79D-01 -1.01D-02  4.67D-02  5.11D-02  7.29D-02
                    CP:  2.02D-01  6.03D-01  3.16D-03  4.62D-01  4.26D-02
                    CP:  6.01D-01
 E= -3323.51100307299     Delta-E=        0.141947742513 Rises=F Damp=F
 DIIS: error= 7.34D-02 at cycle  12 NSaved=  12.
 NSaved=12 IEnMin=11 EnMin= -3323.65295081550     IErMin= 9 ErrMin= 5.12D-02
 ErrMax= 7.34D-02  0.00D+00 EMaxC= 1.00D-01 BMatC= 2.09D+00 BMatP= 1.34D+00
 IDIUse=2 WtCom= 0.00D+00 WtEn= 1.00D+00
 Coeff-En:   0.000D+00 0.000D+00 0.000D+00 0.000D+00 0.000D+00 0.000D+00
 Coeff-En:   0.000D+00 0.000D+00 0.000D+00 0.000D+00 0.567D+00 0.433D+00
 Coeff:      0.000D+00 0.000D+00 0.000D+00 0.000D+00 0.000D+00 0.000D+00
 Coeff:      0.000D+00 0.000D+00 0.000D+00 0.000D+00 0.567D+00 0.433D+00
 Gap=     0.090 Goal=   None    Shift=    0.000
 Gap=     0.023 Goal=   None    Shift=    0.000
 RMSDP=1.84D-03 MaxDP=1.86D-01 DE= 1.42D-01 OVMax= 8.00D-01

 Cycle  13  Pass 1  IDiag  1:
 RMSU=  1.33D-03    CP:  8.77D-01 -1.02D-02  3.84D-02  5.50D-02  6.60D-02
                    CP:  1.70D-01  6.66D-01  2.44D-03  3.80D-01  7.77D-02
                    CP:  7.12D-01  4.35D-01
 E= -3323.68845015851     Delta-E=       -0.177447085515 Rises=F Damp=F
 DIIS: error= 3.28D-02 at cycle  13 NSaved=  13.
 NSaved=13 IEnMin=13 EnMin= -3323.68845015851     IErMin=13 ErrMin= 3.28D-02
 ErrMax= 3.28D-02  0.00D+00 EMaxC= 1.00D-01 BMatC= 7.53D-01 BMatP= 1.34D+00
 IDIUse=3 WtCom= 6.72D-01 WtEn= 3.28D-01
 EnCoef did     2 forward-backward iterations
 Coeff-Com: -0.142D-02-0.311D-02 0.107D-02-0.757D-02-0.606D-02-0.135D-02
 Coeff-Com: -0.320D-01-0.174D-02-0.593D-02 0.839D-02 0.422D+00 0.303D+00
 Coeff-Com:  0.325D+00
 Coeff-En:   0.000D+00 0.000D+00 0.000D+00 0.000D+00 0.000D+00 0.000D+00
 Coeff-En:   0.000D+00 0.000D+00 0.000D+00 0.000D+00 0.451D+00 0.269D+00
 Coeff-En:   0.281D+00
 Coeff:     -0.956D-03-0.209D-02 0.720D-03-0.508D-02-0.407D-02-0.904D-03
 Coeff:     -0.215D-01-0.117D-02-0.398D-02 0.563D-02 0.431D+00 0.292D+00
 Coeff:      0.311D+00
 Gap=     0.120 Goal=   None    Shift=    0.000
 Gap=     0.030 Goal=   None    Shift=    0.000
 RMSDP=1.44D-03 MaxDP=2.30D-01 DE=-1.77D-01 OVMax= 5.97D-01

 Cycle  14  Pass 1  IDiag  1:
 RMSU=  6.08D-04    CP:  8.79D-01 -9.62D-03  3.58D-02  4.95D-02  6.61D-02
                    CP:  1.66D-01  5.94D-01  3.12D-03  4.51D-01  1.02D-01
                    CP:  8.36D-01  5.23D-01  1.42D-01
 E= -3323.95080358087     Delta-E=       -0.262353422369 Rises=F Damp=F
 DIIS: error= 7.00D-03 at cycle  14 NSaved=  14.
 NSaved=14 IEnMin=14 EnMin= -3323.95080358087     IErMin=14 ErrMin= 7.00D-03
 ErrMax= 7.00D-03  0.00D+00 EMaxC= 1.00D-01 BMatC= 5.29D-02 BMatP= 7.53D-01
 IDIUse=3 WtCom= 9.30D-01 WtEn= 7.00D-02
 Coeff-Com: -0.521D-02 0.770D-02-0.761D-03-0.216D-04 0.119D-02-0.158D-02
 Coeff-Com: -0.170D-01 0.217D-03 0.111D-01-0.433D-04 0.543D-01 0.134D-01
 Coeff-Com:  0.237D+00 0.700D+00
 Coeff-En:   0.000D+00 0.000D+00 0.000D+00 0.000D+00 0.000D+00 0.000D+00
 Coeff-En:   0.000D+00 0.000D+00 0.000D+00 0.000D+00 0.000D+00 0.000D+00
 Coeff-En:   0.593D-01 0.941D+00
 Coeff:     -0.484D-02 0.716D-02-0.708D-03-0.201D-04 0.111D-02-0.147D-02
 Coeff:     -0.158D-01 0.202D-03 0.103D-01-0.402D-04 0.505D-01 0.125D-01
 Coeff:      0.224D+00 0.717D+00
 Gap=     0.105 Goal=   None    Shift=    0.000
 Gap=     0.024 Goal=   None    Shift=    0.000
 RMSDP=3.56D-04 MaxDP=6.18D-02 DE=-2.62D-01 OVMax= 1.30D-01

 Cycle  15  Pass 1  IDiag  1:
 RMSU=  2.97D-04    CP:  8.78D-01 -1.02D-02  3.54D-02  5.01D-02  6.71D-02
                    CP:  1.64D-01  6.03D-01  3.26D-03  4.45D-01  1.06D-01
                    CP:  8.31D-01  4.72D-01  2.59D-01  9.68D-01
 E= -3323.96279738897     Delta-E=       -0.011993808095 Rises=F Damp=F
 DIIS: error= 5.00D-03 at cycle  15 NSaved=  15.
 NSaved=15 IEnMin=15 EnMin= -3323.96279738897     IErMin=15 ErrMin= 5.00D-03
 ErrMax= 5.00D-03  0.00D+00 EMaxC= 1.00D-01 BMatC= 1.31D-02 BMatP= 5.29D-02
 IDIUse=3 WtCom= 9.50D-01 WtEn= 5.00D-02
 Coeff-Com: -0.170D-02 0.315D-02-0.237D-03 0.503D-03-0.713D-03-0.499D-03
 Coeff-Com: -0.502D-02-0.125D-03 0.492D-02-0.249D-02 0.816D-03-0.235D-01
 Coeff-Com:  0.741D-01 0.405D+00 0.546D+00
 Coeff-En:   0.000D+00 0.000D+00 0.000D+00 0.000D+00 0.000D+00 0.000D+00
 Coeff-En:   0.000D+00 0.000D+00 0.000D+00 0.000D+00 0.000D+00 0.000D+00
 Coeff-En:   0.000D+00 0.127D+00 0.873D+00
 Coeff:     -0.161D-02 0.299D-02-0.225D-03 0.478D-03-0.678D-03-0.474D-03
 Coeff:     -0.477D-02-0.119D-03 0.467D-02-0.236D-02 0.775D-03-0.223D-01
 Coeff:      0.704D-01 0.391D+00 0.562D+00
 Gap=     0.107 Goal=   None    Shift=    0.000
 Gap=     0.036 Goal=   None    Shift=    0.000
 RMSDP=1.56D-04 MaxDP=1.60D-02 DE=-1.20D-02 OVMax= 5.55D-02

 Cycle  16  Pass 1  IDiag  1:
 RMSU=  1.28D-04    CP:  8.78D-01 -9.92D-03  3.51D-02  4.98D-02  6.63D-02
                    CP:  1.64D-01  6.00D-01  3.17D-03  4.46D-01  1.06D-01
                    CP:  8.38D-01  4.69D-01  2.48D-01  1.04D+00  7.61D-01
 E= -3323.96509890145     Delta-E=       -0.002301512475 Rises=F Damp=F
 DIIS: error= 8.75D-04 at cycle  16 NSaved=  16.
 NSaved=16 IEnMin=16 EnMin= -3323.96509890145     IErMin=16 ErrMin= 8.75D-04
 ErrMax= 8.75D-04  0.00D+00 EMaxC= 1.00D-01 BMatC= 3.06D-03 BMatP= 1.31D-02
 IDIUse=3 WtCom= 9.91D-01 WtEn= 8.75D-03
 Coeff-Com: -0.246D-02 0.425D-02-0.213D-03 0.335D-03-0.948D-03 0.599D-03
 Coeff-Com:  0.117D-02-0.141D-03 0.731D-03-0.277D-02 0.216D-02-0.149D-01
 Coeff-Com:  0.145D-01 0.156D+00 0.356D+00 0.486D+00
 Coeff-En:   0.000D+00 0.000D+00 0.000D+00 0.000D+00 0.000D+00 0.000D+00
 Coeff-En:   0.000D+00 0.000D+00 0.000D+00 0.000D+00 0.000D+00 0.000D+00
 Coeff-En:   0.000D+00 0.000D+00 0.145D+00 0.855D+00
 Coeff:     -0.244D-02 0.421D-02-0.212D-03 0.332D-03-0.939D-03 0.593D-03
 Coeff:      0.116D-02-0.140D-03 0.724D-03-0.275D-02 0.214D-02-0.148D-01
 Coeff:      0.143D-01 0.155D+00 0.354D+00 0.489D+00
 Gap=     0.107 Goal=   None    Shift=    0.000
 Gap=     0.038 Goal=   None    Shift=    0.000
 RMSDP=6.91D-05 MaxDP=7.70D-03 DE=-2.30D-03 OVMax= 9.77D-03

 Cycle  17  Pass 1  IDiag  1:
 RMSU=  5.82D-05    CP:  8.78D-01 -1.00D-02  3.51D-02  4.98D-02  6.64D-02
                    CP:  1.64D-01  6.01D-01  3.19D-03  4.44D-01  1.06D-01
                    CP:  8.34D-01  4.74D-01  2.46D-01  1.04D+00  8.59D-01
                    CP:  8.68D-01
 E= -3323.96574091276     Delta-E=       -0.000642011314 Rises=F Damp=F
 DIIS: error= 1.88D-03 at cycle  17 NSaved=  17.
 NSaved=17 IEnMin=17 EnMin= -3323.96574091276     IErMin=16 ErrMin= 8.75D-04
 ErrMax= 1.88D-03  0.00D+00 EMaxC= 1.00D-01 BMatC= 1.91D-03 BMatP= 3.06D-03
 IDIUse=3 WtCom= 9.91D-01 WtEn= 8.75D-03
 Coeff-Com: -0.261D-02 0.438D-02-0.608D-04-0.119D-03-0.689D-03 0.110D-02
 Coeff-Com:  0.647D-03-0.772D-04-0.163D-03-0.208D-02 0.780D-02-0.150D-01
 Coeff-Com:  0.717D-02 0.726D-02-0.230D-02 0.133D+00 0.862D+00
 Coeff-En:   0.000D+00 0.000D+00 0.000D+00 0.000D+00 0.000D+00 0.000D+00
 Coeff-En:   0.000D+00 0.000D+00 0.000D+00 0.000D+00 0.000D+00 0.000D+00
 Coeff-En:   0.000D+00 0.000D+00 0.000D+00 0.000D+00 0.100D+01
 Coeff:     -0.259D-02 0.434D-02-0.602D-04-0.118D-03-0.683D-03 0.109D-02
 Coeff:      0.642D-03-0.765D-04-0.161D-03-0.206D-02 0.774D-02-0.149D-01
 Coeff:      0.711D-02 0.719D-02-0.228D-02 0.132D+00 0.863D+00
 Gap=     0.107 Goal=   None    Shift=    0.000
 Gap=     0.039 Goal=   None    Shift=    0.000
 RMSDP=5.92D-05 MaxDP=7.00D-03 DE=-6.42D-04 OVMax= 2.41D-02

 Cycle  18  Pass 1  IDiag  1:
 RMSU=  3.68D-05    CP:  8.78D-01 -1.00D-02  3.51D-02  4.96D-02  6.62D-02
                    CP:  1.64D-01  6.01D-01  3.14D-03  4.42D-01  1.06D-01
                    CP:  8.32D-01  4.72D-01  2.62D-01  1.05D+00  9.29D-01
                    CP:  1.09D+00  1.21D+00
 E= -3323.96606894692     Delta-E=       -0.000328034162 Rises=F Damp=F
 DIIS: error= 1.95D-03 at cycle  18 NSaved=  18.
 NSaved=18 IEnMin=18 EnMin= -3323.96606894692     IErMin=16 ErrMin= 8.75D-04
 ErrMax= 1.95D-03  0.00D+00 EMaxC= 1.00D-01 BMatC= 1.49D-03 BMatP= 1.91D-03
 IDIUse=3 WtCom= 9.91D-01 WtEn= 8.75D-03
 Coeff-Com: -0.159D-02 0.260D-02-0.120D-04-0.280D-03-0.294D-03 0.883D-03
 Coeff-Com: -0.103D-03-0.752D-04 0.305D-03-0.103D-02 0.124D-01-0.150D-01
 Coeff-Com:  0.645D-02-0.280D-01-0.228D+00-0.280D+00 0.645D+00 0.887D+00
 Coeff-En:   0.000D+00 0.000D+00 0.000D+00 0.000D+00 0.000D+00 0.000D+00
 Coeff-En:   0.000D+00 0.000D+00 0.000D+00 0.000D+00 0.000D+00 0.000D+00
 Coeff-En:   0.000D+00 0.000D+00 0.000D+00 0.000D+00 0.000D+00 0.100D+01
 Coeff:     -0.157D-02 0.258D-02-0.119D-04-0.277D-03-0.292D-03 0.875D-03
 Coeff:     -0.102D-03-0.745D-04 0.303D-03-0.102D-02 0.123D-01-0.149D-01
 Coeff:      0.640D-02-0.277D-01-0.226D+00-0.277D+00 0.639D+00 0.888D+00
 Gap=     0.108 Goal=   None    Shift=    0.000
 Gap=     0.039 Goal=   None    Shift=    0.000
 RMSDP=5.67D-05 MaxDP=7.05D-03 DE=-3.28D-04 OVMax= 2.27D-02

 Cycle  19  Pass 1  IDiag  1:
 RMSU=  2.84D-05    CP:  8.78D-01 -9.98D-03  3.50D-02  4.96D-02  6.60D-02
                    CP:  1.64D-01  6.02D-01  3.14D-03  4.41D-01  1.06D-01
                    CP:  8.32D-01  4.67D-01  2.73D-01  1.06D+00  9.89D-01
                    CP:  1.26D+00  1.77D+00  1.31D+00
 E= -3323.96635776145     Delta-E=       -0.000288814533 Rises=F Damp=F
 DIIS: error= 1.18D-03 at cycle  19 NSaved=  19.
 NSaved=19 IEnMin=19 EnMin= -3323.96635776145     IErMin=16 ErrMin= 8.75D-04
 ErrMax= 1.18D-03  0.00D+00 EMaxC= 1.00D-01 BMatC= 4.70D-04 BMatP= 1.49D-03
 IDIUse=3 WtCom= 9.91D-01 WtEn= 8.75D-03
 Coeff-Com: -0.364D-03 0.617D-03-0.425D-04-0.471D-04 0.415D-05 0.245D-03
 Coeff-Com: -0.764D-03-0.472D-04 0.509D-03-0.446D-03 0.821D-02-0.725D-02
 Coeff-Com:  0.407D-02 0.305D-01-0.959D-01-0.183D+00-0.678D-01 0.437D+00
 Coeff-Com:  0.875D+00
 Coeff-En:   0.000D+00 0.000D+00 0.000D+00 0.000D+00 0.000D+00 0.000D+00
 Coeff-En:   0.000D+00 0.000D+00 0.000D+00 0.000D+00 0.000D+00 0.000D+00
 Coeff-En:   0.000D+00 0.000D+00 0.000D+00 0.000D+00 0.000D+00 0.000D+00
 Coeff-En:   0.100D+01
 Coeff:     -0.361D-03 0.611D-03-0.421D-04-0.467D-04 0.411D-05 0.243D-03
 Coeff:     -0.757D-03-0.468D-04 0.504D-03-0.442D-03 0.814D-02-0.719D-02
 Coeff:      0.404D-02 0.302D-01-0.951D-01-0.181D+00-0.672D-01 0.433D+00
 Coeff:      0.876D+00
 Gap=     0.109 Goal=   None    Shift=    0.000
 Gap=     0.039 Goal=   None    Shift=    0.000
 RMSDP=3.41D-05 MaxDP=3.48D-03 DE=-2.89D-04 OVMax= 1.53D-02

 Cycle  20  Pass 1  IDiag  1:
 RMSU=  1.92D-05    CP:  8.78D-01 -9.92D-03  3.49D-02  4.95D-02  6.59D-02
                    CP:  1.64D-01  6.01D-01  3.13D-03  4.40D-01  1.07D-01
                    CP:  8.33D-01  4.63D-01  2.78D-01  1.07D+00  1.00D+00
                    CP:  1.36D+00  1.95D+00  1.82D+00  1.21D+00
 E= -3323.96644748502     Delta-E=       -0.000089723565 Rises=F Damp=F
 DIIS: error= 3.52D-04 at cycle  20 NSaved=  20.
 NSaved=20 IEnMin=20 EnMin= -3323.96644748502     IErMin=20 ErrMin= 3.52D-04
 ErrMax= 3.52D-04  0.00D+00 EMaxC= 1.00D-01 BMatC= 1.09D-04 BMatP= 4.70D-04
 IDIUse=3 WtCom= 9.96D-01 WtEn= 3.52D-03
 Coeff-Com: -0.256D-04 0.474D-04-0.492D-04 0.925D-04-0.427D-04-0.342D-04
 Coeff-Com:  0.564D-04 0.195D-04 0.182D-03-0.177D-03 0.444D-02-0.867D-03
 Coeff-Com: -0.160D-02 0.331D-01-0.820D-02-0.487D-01-0.204D+00 0.487D-01
 Coeff-Com:  0.626D+00 0.551D+00
 Coeff-En:   0.000D+00 0.000D+00 0.000D+00 0.000D+00 0.000D+00 0.000D+00
 Coeff-En:   0.000D+00 0.000D+00 0.000D+00 0.000D+00 0.000D+00 0.000D+00
 Coeff-En:   0.000D+00 0.000D+00 0.000D+00 0.000D+00 0.000D+00 0.000D+00
 Coeff-En:   0.000D+00 0.100D+01
 Coeff:     -0.255D-04 0.473D-04-0.490D-04 0.921D-04-0.425D-04-0.341D-04
 Coeff:      0.562D-04 0.194D-04 0.182D-03-0.177D-03 0.442D-02-0.864D-03
 Coeff:     -0.160D-02 0.330D-01-0.817D-02-0.485D-01-0.204D+00 0.485D-01
 Coeff:      0.624D+00 0.553D+00
 Gap=     0.109 Goal=   None    Shift=    0.000
 Gap=     0.040 Goal=   None    Shift=    0.000
 RMSDP=1.54D-05 MaxDP=9.79D-04 DE=-8.97D-05 OVMax= 2.59D-03

 Cycle  21  Pass 1  IDiag  1:
 Restarting incremental Fock formation.
 E= -3323.96647828542     Delta-E=       -0.000030800399 Rises=F Damp=F
 DIIS: error= 5.71D-05 at cycle  21 NSaved=  20.
 NSaved=20 IEnMin=20 EnMin= -3323.96647828542     IErMin=20 ErrMin= 5.71D-05
 ErrMax= 5.71D-05  0.00D+00 EMaxC= 1.00D-01 BMatC= 8.75D-06 BMatP= 1.09D-04
 IDIUse=1 WtCom= 1.00D+00 WtEn= 0.00D+00
 Coeff-Com: -0.404D-04 0.744D-04 0.884D-04-0.442D-04-0.797D-04-0.110D-03
 Coeff-Com:  0.975D-05 0.231D-04-0.162D-04 0.737D-03 0.509D-03-0.659D-03
 Coeff-Com:  0.142D-01 0.167D-01 0.906D-02-0.620D-01-0.611D-01 0.131D+00
 Coeff-Com:  0.236D+00 0.716D+00
 Coeff:     -0.404D-04 0.744D-04 0.884D-04-0.442D-04-0.797D-04-0.110D-03
 Coeff:      0.975D-05 0.231D-04-0.162D-04 0.737D-03 0.509D-03-0.659D-03
 Coeff:      0.142D-01 0.167D-01 0.906D-02-0.620D-01-0.611D-01 0.131D+00
 Coeff:      0.236D+00 0.716D+00
 Gap=     0.109 Goal=   None    Shift=    0.000
 Gap=     0.039 Goal=   None    Shift=    0.000
 RMSDP=8.11D-06 MaxDP=7.98D-04 DE=-3.08D-05 OVMax= 3.20D-03

 Cycle  22  Pass 1  IDiag  1:
 RMSU=  8.11D-06    CP:  1.00D+00
 E= -3323.96648305947     Delta-E=       -0.000004774055 Rises=F Damp=F
 DIIS: error= 4.83D-05 at cycle  22 NSaved=  20.
 NSaved=20 IEnMin=20 EnMin= -3323.96648305947     IErMin=20 ErrMin= 4.83D-05
 ErrMax= 4.83D-05  0.00D+00 EMaxC= 1.00D-01 BMatC= 6.54D-06 BMatP= 8.75D-06
 IDIUse=1 WtCom= 1.00D+00 WtEn= 0.00D+00
 Coeff-Com:  0.441D-05-0.932D-05 0.322D-04-0.112D-04-0.336D-04 0.305D-04
 Coeff-Com:  0.212D-04 0.552D-05-0.413D-03 0.439D-03-0.246D-03 0.192D-02
 Coeff-Com:  0.938D-02 0.674D-02 0.247D-01-0.456D-01-0.750D-01-0.579D-01
 Coeff-Com:  0.466D+00 0.670D+00
 Coeff:      0.441D-05-0.932D-05 0.322D-04-0.112D-04-0.336D-04 0.305D-04
 Coeff:      0.212D-04 0.552D-05-0.413D-03 0.439D-03-0.246D-03 0.192D-02
 Coeff:      0.938D-02 0.674D-02 0.247D-01-0.456D-01-0.750D-01-0.579D-01
 Coeff:      0.466D+00 0.670D+00
 Gap=     0.109 Goal=   None    Shift=    0.000
 Gap=     0.039 Goal=   None    Shift=    0.000
 RMSDP=6.60D-06 MaxDP=5.23D-04 DE=-4.77D-06 OVMax= 2.58D-03

 Cycle  23  Pass 1  IDiag  1:
 RMSU=  5.37D-06    CP:  1.00D+00  1.47D+00
 E= -3323.96648675475     Delta-E=       -0.000003695272 Rises=F Damp=F
 DIIS: error= 2.55D-05 at cycle  23 NSaved=  20.
 NSaved=20 IEnMin=20 EnMin= -3323.96648675475     IErMin=20 ErrMin= 2.55D-05
 ErrMax= 2.55D-05  0.00D+00 EMaxC= 1.00D-01 BMatC= 2.63D-06 BMatP= 6.54D-06
 IDIUse=1 WtCom= 1.00D+00 WtEn= 0.00D+00
 Coeff-Com:  0.300D-04-0.469D-04-0.116D-04-0.846D-05 0.114D-03 0.844D-06
 Coeff-Com: -0.408D-05-0.496D-03 0.397D-03-0.277D-03-0.158D-02 0.826D-03
 Coeff-Com: -0.650D-02 0.356D-01-0.140D-01-0.853D-01-0.144D+00 0.105D+00
 Coeff-Com:  0.405D+00 0.706D+00
 Coeff:      0.300D-04-0.469D-04-0.116D-04-0.846D-05 0.114D-03 0.844D-06
 Coeff:     -0.408D-05-0.496D-03 0.397D-03-0.277D-03-0.158D-02 0.826D-03
 Coeff:     -0.650D-02 0.356D-01-0.140D-01-0.853D-01-0.144D+00 0.105D+00
 Coeff:      0.405D+00 0.706D+00
 Gap=     0.110 Goal=   None    Shift=    0.000
 Gap=     0.039 Goal=   None    Shift=    0.000
 RMSDP=6.39D-06 MaxDP=5.49D-04 DE=-3.70D-06 OVMax= 2.89D-03

 Cycle  24  Pass 1  IDiag  1:
 RMSU=  3.02D-06    CP:  1.00D+00  2.05D+00  1.59D+00
 E= -3323.96648920819     Delta-E=       -0.000002453449 Rises=F Damp=F
 DIIS: error= 1.28D-05 at cycle  24 NSaved=  20.
 NSaved=20 IEnMin=20 EnMin= -3323.96648920819     IErMin=20 ErrMin= 1.28D-05
 ErrMax= 1.28D-05  0.00D+00 EMaxC= 1.00D-01 BMatC= 9.68D-07 BMatP= 2.63D-06
 IDIUse=1 WtCom= 1.00D+00 WtEn= 0.00D+00
 Coeff-Com:  0.238D-04-0.398D-04 0.401D-05 0.304D-04-0.454D-04 0.451D-05
 Coeff-Com: -0.179D-03 0.154D-03-0.738D-04-0.264D-03-0.397D-02-0.159D-01
 Coeff-Com:  0.112D-01 0.175D-01-0.130D-01-0.875D-01-0.141D+00-0.983D-01
 Coeff-Com:  0.360D+00 0.972D+00
 Coeff:      0.238D-04-0.398D-04 0.401D-05 0.304D-04-0.454D-04 0.451D-05
 Coeff:     -0.179D-03 0.154D-03-0.738D-04-0.264D-03-0.397D-02-0.159D-01
 Coeff:      0.112D-01 0.175D-01-0.130D-01-0.875D-01-0.141D+00-0.983D-01
 Coeff:      0.360D+00 0.972D+00
 Gap=     0.110 Goal=   None    Shift=    0.000
 Gap=     0.039 Goal=   None    Shift=    0.000
 RMSDP=7.12D-06 MaxDP=6.57D-04 DE=-2.45D-06 OVMax= 3.50D-03

 Cycle  25  Pass 1  IDiag  1:
[...]
 .00000045,-0.00000248,0.00000272,-0.00001006,-0.00001041,-0.00000037,-
 0.00001266,-0.00000586,-0.00000992,-0.00000363,0.00001248,0.00000499,-
 0.00000580,0.00001625,-0.00005311,-0.00003583,0.00013985,0.00076751,0.
 00099227,-0.00189608,-0.00042207,-0.00072283,-0.00002473,0.00002000,0.
 00000778,0.00000261,0.00000073,0.00000567,0.00000225,0.00000331,-0.000
 00646,0.00000693,0.00009296,-0.00009435,0.05093135,0.00033996,-0.00044
 374,0.00022611,-0.00013959,0.00034549,-0.00040340,0.00021725,0.0000257
 6,-0.00009870,-0.00008148,0.00023722,-0.00014352,0.00004344,-0.0001829
 7,0.00013785,-0.00005953,0.00025362,-0.00017077,-0.00002208,-0.0001308
 9,0.00013773,-0.00000629,0.00003398,-0.00000559,0.00001151,0.00001651,
 -0.00002594,0.00000646,0.00002909,0.00000119,0.00001198,-0.00002347,0.
 00000522,0.00001397,0.00003299,-0.00001476,-0.00004229,0.00002288,0.00
 000365,0.00001338,0.00001034,-0.00000915,-0.00004385,-0.00001379,0.000
 00712,-0.00001919,-0.00003082,0.00003154,-0.00000442,-0.00003167,0.000
 01263,-0.00001607,0.00001937,0.00001999,0.00007656,0.00008692,0.000051
 20,-0.00021618,-0.00018880,0.00019779,0.00034468,0.00022129,-0.0003015
 0,0.00000069,-0.00081902,-0.00029609,0.00023163,0.00025886,0.00005349,
 -0.00005535,-0.00007250,-0.00001963,0.00026070,-0.00023611,0.00018945,
 -0.00001345,-0.00016431,0.00066849,-0.00189691,0.00220688,-0.00097964,
 -0.00166974,0.00387790,0.00211308,0.00099958,-0.00067812,0.00110590,-0
 .00067302,0.00030952,-0.00058722,-0.00015024,-0.00031802,0.00037225,0.
 00005605,-0.00006247,-0.00019391,-0.00003773,-0.00001368,0.00004417,0.
 00001103,0.00000737,-0.00002867,-0.00002528,-0.00004307,0.00008079,0.0
 0002959,0.00017438,0.00005685,-0.00015869,-0.00008382,0.00012829,0.004
 73013,-0.17038388,-0.14553967,0.00200367,-0.00989751,-0.01750125,-0.00
 595888,0.00160117,-0.00212814,0.00000754,-0.00001611,-0.00000101,-0.00
 002320,0.00000069,0.00000027,-0.00001326,-0.00000159,0.00000585,0.0000
 0782,-0.00000350,-0.00000489,-0.00000726,0.00000120,0.00000204,-0.0000
 0319,0.00000161,-0.00000039,0.00000016,0.00000067,0.00000061,0.0000011
 3,-0.00000570,0.00000016,-0.00000128,0.00000886,-0.00001076,0.00001029
 ,0.00001669,0.00000094,0.00000310,0.00000221,-0.00001142,-0.00001210,0
 .00000783,-0.00004735,-0.00022487,0.00030029,0.00008503,-0.00066902,0.
 00005168,0.00040849,-0.00002833,0.00007184,-0.00000703,-0.00000073,0.0
 0000271,-0.00000235,0.00000111,-0.00000383,0.00000432,0.00001560,-0.00
 003009,0.00001724,0.00080296,0.17497196,0.00025965,-0.00037272,0.00015
 594,-0.00008323,0.00034031,-0.00034319,0.00014201,0.00002998,-0.000084
 27,-0.00005862,0.00017473,-0.00011078,0.00008730,-0.00017295,0.0000854
 6,-0.00004000,0.00022572,-0.00017108,-0.00002300,-0.00012031,0.0001288
 1,0.00000103,0.00002679,-0.00000793,0.00001191,0.00001736,-0.00002848,
 0.00000772,0.00003087,-0.00000003,0.00001615,-0.00002745,0.00000509,0.
 00001908,0.00003868,-0.00001804,-0.00006458,0.00002980,0.00000682,0.00
 003398,0.00000732,-0.00001197,-0.00004653,-0.00001207,0.00000612,-0.00
 003549,-0.00003167,0.00003822,-0.00000256,-0.00000323,0.00002806,-0.00
 002028,-0.00001800,0.00007703,0.00000948,0.00003868,-0.00005448,-0.000
 10773,-0.00041672,0.00044549,-0.00009375,0.00008547,0.00020749,-0.0005
 4441,-0.00004060,-0.00035647,0.00030529,0.00039044,0.00007366,0.000348
 77,0.00004376,-0.00010653,-0.00032711,-0.00013032,-0.00043399,0.000243
 52,0.00097881,0.00035356,0.00456595,-0.00046999,-0.00024257,-0.0001719
 3,-0.01339443,-0.01150915,-0.00234474,-0.00052227,-0.00078023,-0.00114
 069,0.00006059,-0.00005685,0.00021068,0.00042685,0.00014198,-0.0000536
 6,-0.00010871,0.00034378,0.00009376,0.00001835,0.00001367,-0.00003046,
 -0.00002909,0.00008353,-0.00002233,-0.00005583,0.00004914,-0.00022624,
 -0.00030782,-0.00030811,0.00048734,0.00058736,-0.00027671,0.01910983,-
 0.14436698,-0.20991608,0.00148170,-0.00134890,0.00170366,0.00216331,-0
 .00256382,0.00406275,0.00000860,-0.00000709,-0.00000146,-0.00001356,0.
 00000305,0.00000152,-0.00000661,-0.00000152,0.00000603,0.00000949,-0.0
 0000118,-0.00000484,-0.00000532,0.00000135,0.00000250,-0.00000252,0.00
 000114,-0.00000014,-0.00000114,0.00000056,0.00000090,-0.00000270,-0.00
 000669,-0.00000261,-0.00001456,0.00001110,-0.00002415,-0.00000725,0.00
 000974,-0.00003393,0.00000740,-0.00000974,-0.00000514,0.00000643,0.000
 00838,0.00004306,0.00002132,-0.00076029,-0.00063474,-0.00060494,-0.000
 51874,0.00062700,-0.00002033,0.00001609,-0.00001344,-0.00000203,-0.000
 00605,-0.00000375,-0.00000756,0.00001196,0.00000621,-0.00002820,-0.000
 02853,0.00005314,-0.02143912,0.16004670,0.21786551,-0.00014882,0.00025
 156,0.00006793,0.00007782,-0.00029535,-0.00022416,0.00009066,0.0001146
 6,0.00004447,0.00004725,-0.00003373,0.00004519,0.00023087,-0.00006928,
 -0.00025052,-0.00004655,0.00027857,-0.00011414,-0.00002874,-0.00009784
 ,0.00012220,-0.00004360,0.00005889,-0.00001504,0.00002745,-0.00000245,
 -0.00001856,-0.00000102,0.00002073,-0.00000143,0.00000881,-0.00001540,
 0.00000320,0.00000418,0.00001610,-0.00000768,-0.00001876,0.00000271,0.
 00000369,0.00000642,-0.00001075,-0.00000185,-0.00002108,0.00001219,-0.
 00000029,-0.00000122,-0.00003601,0.00001972,0.00002382,-0.00006319,0.0
 0009241,-0.00024697,-0.00031580,0.00010417,-0.00236526,-0.00077423,-0.
 00138229,-0.00071646,-0.00148641,-0.00036476,-0.00113151,0.00065577,-0
 .00059411,-0.00039355,-0.00006399,-0.00011721,0.00030805,0.00032909,0.
 00004286,0.00027202,0.00012037,-0.00018994,-0.00002683,-0.00037862,-0.
 00013298,0.00204209,-0.00113893,0.00095238,0.00011266,-0.00031844,-0.0
 0103051,0.00092612,-0.00520296,0.00096474,-0.00036479,0.00019453,0.000
 76112,-0.00001127,-0.00002436,0.00003456,-0.00001774,-0.00005076,0.000
 00684,0.00002349,0.00003000,-0.00002149,-0.00002204,-0.00001911,0.0000
 3796,-0.00003759,-0.00003552,-0.00001775,0.00000105,-0.00003404,0.0000
 0014,-0.00000426,-0.00005617,0.00000604,-0.00021734,-0.00005449,-0.000
 14451,-0.01132833,-0.00003290,0.01597998,-0.20900695,-0.01217731,0.148
 16727,0.00319447,-0.00075222,-0.00014910,0.00000485,0.00000996,-0.0000
 1549,0.00000220,0.00000121,-0.00000778,0.00000655,-0.00000222,-0.00000
 123,-0.00000143,-0.00000251,-0.00000114,-0.00000050,0.00000027,0.00000
 131,-0.00000016,0.00000034,0.00000049,0.00000033,0.00000010,0.00000128
 ,0.00000291,0.00000511,0.00000314,-0.00000334,-0.00000591,-0.00000244,
 0.00001264,0.00005041,0.00000422,0.00000381,0.00000365,0.00002097,0.00
 002228,-0.00003215,0.00000096,-0.00031292,0.00027312,-0.00019010,-0.00
 003763,-0.00000552,-0.00000098,-0.00001476,-0.00001358,-0.00000933,-0.
 00000386,-0.00000417,-0.00000066,-0.00000447,0.00000108,-0.00000112,-0
 .00000853,0.00002310,-0.00001182,-0.00072933,0.00206570,-0.00202926,0.
 21985832,0.00100014,-0.00124233,0.00047725,-0.00069822,0.00074379,-0.0
 0128304,0.00052300,0.00006644,-0.00009729,-0.00022156,0.00063385,-0.00
 052168,0.00011216,-0.00046538,0.00029968,-0.00014535,0.00056925,-0.000
 40661,-0.00007173,-0.00030564,0.00033950,-0.00000022,0.00005152,-0.000
 01573,0.00000857,0.00003635,-0.00005046,0.00001225,0.00003680,0.000005
 77,0.00001772,-0.00002936,0.00000689,0.00001937,0.00004288,-0.00002372
 ,-0.00005464,0.00003745,0.00000241,0.00001332,0.00003332,-0.00002308,-
 0.00006810,-0.00004601,0.00001956,-0.00003049,-0.00004458,0.00003515,0
 .00004763,-0.00021744,0.00007722,0.00000040,0.00008660,0.00011338,-0.0
 0070958,0.00032698,-0.00028789,-0.00128295,-0.00187739,0.00070550,0.00
 011591,0.00033331,0.00226265,-0.00003817,-0.00094633,-0.00093703,0.000
 76373,0.00117757,0.00050122,0.00063528,-0.00005993,-0.00023027,0.00071
 692,-0.00033270,-0.00097505,-0.00216592,-0.00038937,-0.00359837,-0.000
 10919,-0.00117777,-0.00064789,-0.00524047,0.00073909,-0.00359288,-0.00
 048048,0.00038469,0.00072922,0.00003892,-0.00005543,0.00016818,-0.0000
 2610,-0.00004698,0.00000202,0.00002300,0.00003600,-0.00003970,-0.00001
 836,-0.00003325,0.00006835,-0.00008154,-0.00008014,-0.00003162,-0.0000
 3455,-0.00002603,0.00004603,0.00003795,0.00003057,-0.00001853,-0.00004
 147,-0.00027480,-0.00017659,-0.01744794,0.00313222,0.01457985,-0.01259
 714,-0.04944496,-0.00129086,0.01583642,0.00485487,-0.01336962,0.000030
 32,-0.00001516,-0.00001289,-0.00001027,0.00000373,0.00000282,-0.000002
 88,-0.00000517,0.00000960,0.00001297,-0.00000487,-0.00000513,-0.000012
 64,0.00000286,0.00000538,-0.00000551,0.00000357,0.00000140,0.00000043,
 0.00000206,0.00000341,0.00000561,-0.00001130,0.00001909,0.00001281,0.0
 0002146,-0.00000461,-0.00005677,0.00005155,-0.00003431,-0.00000008,0.0
 0002264,-0.00002553,-0.00006791,-0.00012909,-0.00032244,0.00031155,-0.
 00033085,0.00036424,0.00003324,0.00008247,-0.00003092,-0.00001900,-0.0
 0001890,-0.00001666,-0.00000895,-0.00000635,-0.00000256,-0.00000517,-0
 .00000010,-0.00000112,0.00002333,0.00002255,0.00001570,0.00231651,-0.0
 0136684,0.00219954,0.01919314,0.04532319,0.00042201,-0.00072104,0.0003
 6660,0.00003491,0.00049779,-0.00044094,0.00043675,0.00006945,-0.000234
 76,-0.00009225,0.00047578,-0.00051581,-0.00001032,-0.00040485,0.000536
 79,-0.00010366,0.00061278,-0.00052073,-0.00011235,-0.00030638,0.000360
 31,-0.00005021,0.00012065,-0.00003917,0.00004945,0.00002053,-0.0000643
 8,0.00001229,0.00006698,0.00000106,0.00002884,-0.00005187,0.00001148,0
 .00002857,0.00006750,-0.00003322,-0.00009866,0.00004288,0.00001129,0.0
 0004044,-0.00000713,-0.00001686,-0.00008751,0.00000364,0.00000409,-0.0
 0004512,-0.00008931,0.00007206,-0.00005714,-0.00000559,0.00012430,-0.0
 0012843,0.00013816,-0.00004086,-0.00039583,0.00054314,-0.00000345,-0.0
 0008587,-0.00091517,0.00152034,-0.00022066,0.00278989,0.00057552,-0.00
 061535,-0.00092865,-0.00117849,0.00094462,0.00127102,0.00046274,0.0006
 3945,0.00007858,-0.00036993,0.00081620,-0.00025871,-0.00093838,0.00034
 936,-0.00415849,-0.00037516,-0.00108630,-0.00119197,-0.00086231,0.0011
 6889,-0.00271111,0.00406791,-0.00020291,-0.00024796,0.00024771,-0.0000
 3207,0.00005528,0.00005841,-0.00004031,-0.00007942,0.00005450,0.000053
 52,0.00005633,-0.00002870,-0.00004014,-0.00003530,0.00007916,-0.000059
 76,-0.00006150,-0.00005152,0.00000463,-0.00000181,0.00002054,-0.000064
 48,-0.00004464,-0.00008572,-0.00003394,0.00000830,-0.00011189,-0.00344
 022,-0.00151508,0.00650864,0.14677827,-0.00149862,-0.17796238,0.017800
 47,0.00108405,-0.01157258,0.00003665,-0.00000396,-0.00002056,-0.000020
 76,0.00000884,-0.00002066,0.00000978,-0.00000288,0.00000485,0.00000824
 ,-0.00000621,-0.00000803,-0.00000906,0.00000212,0.00000553,-0.00000396
 ,0.00000251,0.00000074,0.00000025,0.00000105,0.00000354,0.00000265,0.0
 0000501,0.00000428,-0.00000002,0.00000538,-0.00002804,0.00000745,0.000
 03489,-0.00016699,0.00002035,-0.00001216,0.00000837,0.00002406,-0.0002
 8378,-0.00021132,-0.00024161,0.00036956,-0.00030787,-0.00002769,-0.000
 01370,0.00000943,-0.00001034,-0.00001342,-0.00001216,-0.00000540,-0.00
 000482,-0.00000174,0.00000003,-0.00000143,0.00000024,0.00000864,0.0000
 0515,-0.00002457,-0.00176191,0.00230915,-0.00113935,-0.16048020,0.0049
 2964,0.18216603,0.00216428,-0.00848672,-0.00790124,-0.00315615,0.00653
 760,0.00261644,-0.00036872,0.00113810,-0.00075564,-0.00085490,0.001073
 39,-0.00054939,0.00035429,-0.00100708,0.00054348,-0.00039720,0.0013053
 5,-0.00087493,-0.00017437,-0.00067968,0.00080942,-0.00009121,0.0001950
 5,-0.00004187,0.00008301,0.00006389,-0.00013025,0.00001419,0.00011891,
 0.00000032,0.00004383,-0.00008769,0.00002142,0.00004509,0.00011877,-0.
 00005944,-0.00015773,0.00007411,0.00001600,0.00004869,-0.00000680,-0.0
 0002733,-0.00015799,-0.00000952,0.00002052,-0.00006671,-0.00015555,0.0
 0011965,0.00006348,-0.00028871,0.00001804,-0.00023662,-0.00000719,0.00
 011052,-0.00008898,0.00065076,-0.00008869,0.00005671,-0.00066244,0.001
 76405,0.00011718,0.00059089,0.00184414,-0.00342961,-0.00693677,0.00239
 619,0.00236506,0.00860961,-0.00706585,-0.00035388,-0.00107152,-0.00081
 125,-0.00086507,-0.00107129,-0.00060755,0.00038468,0.00098231,0.000587
 91,-0.00048973,-0.00119749,-0.00101005,-0.00017013,0.00064230,0.000842
 20,-0.00012282,-0.00017473,0.00002700,-0.00004465,0.00005269,0.0001586
 7,-0.00005760,-0.00008985,0.00006698,0.00006619,0.00006914,-0.00004297
 ,-0.00005362,-0.00004792,0.00011322,-0.00009841,-0.00010047,-0.0000777
 2,0.00000708,0.00002871,0.00003682,-0.00007335,-0.00001469,-0.00012472
 ,0.00010591,-0.00000882,-0.00015890,0.00013353,0.00022095,0.00009504,-
 0.00024182,0.00002332,0.00011591,-0.00013619,-0.00068052,-0.00012428,0
 .00020717,-0.00004398,0.00010994,-0.00006846,0.00013144,0.00006216,-0.
 00001844,0.00001064,0.00002793,0.00002148,-0.00001221,-0.00000630,-0.0
 0002434,0.00000947,0.00001217,-0.00000800,0.00000759,0.00000172,0.0000
 0086,0.00000264,0.00000676,0.00000659,-0.00000967,0.00001225,0.0000136
 2,0.00005149,-0.00002216,0.00001136,0.00011834,-0.00005339,0.00020490,
 0.00003635,0.00011398,-0.00006674,-0.00013148,0.00005715,-0.00002812,-
 0.00000286,0.00001640,0.00001472,0.00001057,-0.00000558,-0.00000967,-0
 .00002204,-0.00001759,-0.00000650,-0.00000917,-0.00000231,0.00000340,-
 0.00000470,0.00000044,0.00003169,-0.00000040,-0.00001456,0.00000947,-0
 .00004414,-0.00002926,0.00000647,-0.00010924,-0.00006231,0.00553277,-0
 .01065889,-0.01656156,-0.03924842,0.01730160,-0.02949419,-0.01062361,-
 0.00380436,0.00320461,0.00178127,0.00060062,-0.00283388,0.00176266,-0.
 00167120,0.00183594,-0.00044405,0.00109570,-0.00222368,0.00118814,0.00
 021274,0.00108835,-0.00136097,0.00036037,-0.00029764,0.00007912,-0.000
 12467,0.00001428,0.00009611,0.00001924,-0.00007071,-0.00001791,-0.0000
 3010,0.00003344,-0.00000635,0.00000340,-0.00002261,0.00001274,0.000028
 81,0.00001181,-0.00001012,-0.00001739,0.00007262,-0.00001091,0.0000551
 0,-0.00010326,0.00001286,-0.00001996,0.00017312,-0.00008980,-0.0002938
 8,0.00033196,-0.00039722,0.00007585,0.00077504,-0.00021509,0.00290263,
 -0.00211590,-0.00044501,-0.00371264,0.00159792,-0.00469328,0.00386856,
 0.00178712,0.00502665,-0.01853173,-0.03078041,0.00903987,0.01140774,-0
 .02020175,0.04214018,0.00408650,0.00334206,-0.00175792,-0.00066253,-0.
 00293975,-0.00197938,0.00180979,0.00192099,0.00058594,-0.00131093,-0.0
 0220309,-0.00152209,-0.00018174,0.00115079,0.00150785,-0.00040954,-0.0
 0038700,-0.00006743,0.00006165,0.00013774,0.00019123,-0.00007855,-0.00
 008805,0.00003686,0.00004793,0.00005569,-0.00003379,-0.00002463,-0.000
 03255,0.00003934,-0.00002417,-0.00002498,-0.00005387,0.00005475,0.0000
 5860,-0.00002497,-0.00009205,-0.00005747,-0.00000199,0.00015703,0.0000
 4770,-0.00014922,0.00041852,0.00023705,0.00054592,-0.00010353,0.000783
 15,0.00029191,-0.00307708,-0.00220521,0.00035022,0.00029172,-0.0000217
 1,-0.00002592,-0.00028329,0.00016003,-0.00004112,0.00000881,-0.0000038
 8,0.00004094,0.00001711,0.00000769,0.00002215,-0.00000697,-0.00000143,
 -0.00000082,-0.00000381,0.00000141,0.00000108,0.00000013,0.00000113,-0
 .00000197,-0.00000676,-0.00003138,0.00000796,-0.00005102,0.00002024,-0
 .00000719,0.00009852,0.00009181,0.00008428,-0.00030194,-0.00001713,0.0
 0002983,0.00029091,0.00015699,0.00005113,-0.00002057,0.00001304,-0.000
 05620,-0.00001122,-0.00000388,-0.00003380,0.00000268,-0.00000390,0.000
 00288,0.00000017,0.00000130,0.00000248,-0.00000019,0.00000164,-0.00000
 137,0.00000823,-0.00001945,0.00000802,0.00003357,0.00003654,-0.0000077
 9,-0.00010606,0.00009484,-0.00009906,0.00030100,0.09349984,-0.01769712
 ,-0.03186478,-0.07721842,0.01769772,-0.02581041,-0.00022746,-0.0047737
 8,0.00264665,0.00284222,0.00134485,-0.00325871,0.00210192,-0.00169875,
 0.00277571,-0.00111134,0.00114341,-0.00312504,0.00176970,0.00002580,0.
 00176664,-0.00174484,0.00040797,-0.00057766,0.00009817,-0.00024062,-0.
 00005189,0.00024178,-0.00001579,-0.00025751,0.00000474,-0.00012108,0.0
 0020330,-0.00004070,-0.00008474,-0.00024110,0.00010736,0.00028548,-0.0
 0010723,-0.00003779,-0.00009806,-0.00000673,0.00004898,0.00033203,-0.0
 0000229,-0.00005037,0.00007880,0.00039028,-0.00027210,0.00000456,0.000
 46774,-0.00024986,-0.00010698,0.00063823,-0.00053138,0.00205560,-0.001
 93764,-0.00085884,-0.00274458,0.00787387,-0.00383232,-0.00271452,-0.00
 757390,-0.00394505,0.01723213,0.02411355,0.00137591,-0.01692689,0.0348
 0804,-0.07390632,-0.00461663,-0.00253000,0.00262315,0.00131348,0.00303
 877,0.00210929,-0.00165289,-0.00259330,-0.00119262,0.00129719,0.002735
 46,0.00199666,-0.00000666,-0.00161019,-0.00173828,0.00044694,0.0005133
 9,-0.00002881,0.00000494,-0.00017195,-0.00031978,0.00012911,0.00018764
 ,-0.00014067,-0.00016119,-0.00016766,0.00007256,0.00010282,0.00010505,
 -0.00022287,0.00016486,0.00016954,0.00016042,-0.00001208,-0.00003826,-
 0.00009069,0.00015166,0.00005429,0.00025532,-0.00027823,-0.00002958,0.
 00033655,-0.00014475,-0.00029266,-0.00039350,-0.00010798,-0.00058056,-
 0.00055341,0.00195124,0.00186198,-0.00074254,0.00017162,-0.00001114,-0
 .00030230,-0.00016330,0.00008586,-0.00004291,0.00002861,-0.00001814,-0
 .00001829,-0.00003327,0.00002337,0.00003799,0.00003436,-0.00000755,-0.
 00001433,0.00001507,-0.00000824,0.00000144,-0.00000075,-0.00000314,-0.
 00000590,-0.00001124,0.00001369,-0.00000409,-0.00001947,-0.00001699,0.
 00005567,0.00003261,-0.00010192,0.00008728,0.00016250,0.00001843,-0.00
 029741,-0.00015302,-0.00007289,-0.00004526,0.00004914,-0.00000565,0.00
 000744,-0.00000911,-0.00002937,0.00000396,0.00001367,0.00002606,0.0000
 2692,0.00001330,0.00001001,0.00000613,-0.00000131,0.00000368,-0.000001
 06,-0.00004395,-0.00000677,0.00002243,-0.00001406,0.00000721,0.0000643
 3,0.00004063,0.00008342,0.00010207,0.00792070,-0.00151099,0.15362112\\
 0.00000630,-0.00001200,-0.00000273,-0.00000541,0.00000913,-0.00000253,
 -0.00000274,0.00000044,0.00000038,0.00000072,-0.00000021,0.00000023,0.
 00000036,-0.00000064,-0.00000058,-0.00000033,-0.00000047,0.00000231,0.
 00000054,-0.00000528,-0.00000114,-0.00000186,0.00000281,0.00000576,-0.
 00000166,-0.00000324,-0.00000169,0.00000049,0.00000394,-0.00000069,0.0
 0000001,-0.00000870,0.00000215,-0.00000369,0.00000379,-0.00000043,-0.0
 0000128,0.00000117,0.00000026,0.00000107,0.00000502,-0.00000165,0.0000
 0233,-0.00000694,0.00000173,0.00000096,0.00000490,-0.00000374,0.000002
 83,0.00000139,-0.00000209,-0.00000047,0.00000205,-0.00000232,-0.000002
 44,-0.00000105,0.00000212,-0.00000087,0.00000101,0.00000124,-0.0000001
 9,-0.00000438,-0.00000554,0.00000822,0.00001038,0.00000583,-0.00000681
 ,-0.00001176,0.00000276,-0.00000016,0.,-0.00000028,0.00000046,0.000002
 11,0.00000051,-0.00000318,-0.00000392,-0.00000092,0.00000283,0.0000047
 6,0.00000146,0.00000119,-0.00000789,-0.00000239,-0.00000358,0.00000761
 ,0.00000073,0.00000220,-0.00000242,0.00000370,0.00000028,0.00000077,-0
 .00000161,-0.00000420,-0.00000515,0.00000359,0.00000344,0.00000383,0.0
 0000113,0.00000177,0.00000130,0.00000092,0.00000176,0.00000254,-0.0000
 0360,-0.00000366,-0.00000332,0.00000495,0.00000297,-0.00000073,-0.0000
 0334,-0.00000587,0.00000057,0.00000333,0.00000109,0.00000140,0.0000020
 1,0.00000365,0.00000172,-0.00000218,0.00000080,-0.00000102,-0.00000080
 ,-0.00000032,-0.00000007,-0.00000089,0.00000083,0.00000061,-0.00000076
 ,0.00000088,0.00000078,-0.00000174,-0.00000047,0.00000069,-0.00000025,
 0.00000027,0.00000079,-0.00000025,0.00000088,0.00000019,-0.00000013,0.
 00000061,-0.00000206,0.,-0.00000199,0.00000156,0.00000098,-0.00000034,
 -0.00000128,0.00000053,-0.00000066,-0.00000048,0.00000032,0.00000016,0
 .00000004,0.00000032,0.00000062,0.00000149,-0.00000011,0.00000112,-0.0
 0000049,-0.00000129,0.00000042,0.00000065,0.00000037,0.00000018,0.0000
 0042,-0.00000005,-0.00000010,-0.00000031,-0.00000016,-0.00000089,-0.00
 000169,0.00000086,0.00000070,-0.00000013,-0.00000186,0.00000009,-0.000
 00106,-0.00000067,0.00000014,0.00000687,-0.00000203\\\@
 The archive entry for this job was punched.


 Just remember, when you're over the hill, you begin to pick up speed.
 -- Charles Schulz
 Job cpu time:       0 days 16 hours  6 minutes 24.2 seconds.
 Elapsed time:       0 days  0 hours 30 minutes 30.5 seconds.
 File lengths (MBytes):  RWF=   5406 Int=      0 D2E=      0 Chk=     46 Scr=      1
 Normal termination of Gaussian 16 at Thu Mar 27 17:01:42 2025.
