 Entering Gaussian System, Link 0=g16
 Initial command:
 /public/software/apps/Gaussian/g16/l1.exe "/tmp/Gau-75331.inp" -scrdir="/tmp/"
 Entering Link 1 = /public/software/apps/Gaussian/g16/l1.exe PID=     75332.
  
 Copyright (c) 1988-2019, Gaussian, Inc.  All Rights Reserved.
  
 This is part of the Gaussian(R) 16 program.  It is based on
 the Gaussian(R) 09 system (copyright 2009, Gaussian, Inc.),
 the Gaussian(R) 03 system (copyright 2003, Gaussian, Inc.),
 the Gaussian(R) 98 system (copyright 1998, Gaussian, Inc.),
 the Gaussian(R) 94 system (copyright 1995, Gaussian, Inc.),
 the Gaussian 92(TM) system (copyright 1992, Gaussian, Inc.),
 the Gaussian 90(TM) system (copyright 1990, Gaussian, Inc.),
 the Gaussian 88(TM) system (copyright 1988, Gaussian, Inc.),
 the Gaussian 86(TM) system (copyright 1986, Carnegie Mellon
 University), and the Gaussian 82(TM) system (copyright 1983,
 Carnegie Mellon University). Gaussian is a federally registered
 trademark of Gaussian, Inc.
  
 This software contains proprietary and confidential information,
 including trade secrets, belonging to Gaussian, Inc.
  
 This software is provided under written license and may be
 used, copied, transmitted, or stored only in accord with that
 written license.
  
 The following legend is applicable only to US Government
 contracts under FAR:
  
                    RESTRICTED RIGHTS LEGEND
  
 Use, reproduction and disclosure by the US Government is
 subject to restrictions as set forth in subparagraphs (a)
 and (c) of the Commercial Computer Software - Restricted
 Rights clause in FAR 52.227-19.
  
 Gaussian, Inc.
 340 Quinnipiac St., Bldg. 40, Wallingford CT 06492
  
  
 ---------------------------------------------------------------
 Warning -- This program may not be used in any manner that
 competes with the business of Gaussian, Inc. or will provide
 assistance to any competitor of Gaussian, Inc.  The licensee
 of this program is prohibited from giving any competitor of
 Gaussian, Inc. access to this program.  By using this program,
 the user acknowledges that Gaussian, Inc. is engaged in the
 business of creating and licensing software in the field of
 computational chemistry and represents and warrants to the
 licensee that it is not a competitor of Gaussian, Inc. and that
 it will not use this program in any manner prohibited above.
 ---------------------------------------------------------------
  

 Cite this work as:
 Gaussian 16, Revision C.01,
 M. J. Frisch, G. W. Trucks, H. B. Schlegel, G. E. Scuseria, 
 M. A. Robb, J. R. Cheeseman, G. Scalmani, V. Barone, 
 G. A. Petersson, H. Nakatsuji, X. Li, M. Caricato, A. V. Marenich, 
 J. Bloino, B. G. Janesko, R. Gomperts, B. Mennucci, H. P. Hratchian, 
 J. V. Ortiz, A. F. Izmaylov, J. L. Sonnenberg, D. Williams-Young, 
 F. Ding, F. Lipparini, F. Egidi, J. Goings, B. Peng, A. Petrone, 
 T. Henderson, D. Ranasinghe, V. G. Zakrzewski, J. Gao, N. Rega, 
 G. Zheng, W. Liang, M. Hada, M. Ehara, K. Toyota, R. Fukuda, 
 J. Hasegawa, M. Ishida, T. Nakajima, Y. Honda, O. Kitao, H. Nakai, 
 T. Vreven, K. Throssell, J. A. Montgomery, Jr., J. E. Peralta, 
 F. Ogliaro, M. J. Bearpark, J. J. Heyd, E. N. Brothers, K. N. Kudin, 
 V. N. Staroverov, T. A. Keith, R. Kobayashi, J. Normand, 
 K. Raghavachari, A. P. Rendell, J. C. Burant, S. S. Iyengar, 
 J. Tomasi, M. Cossi, J. M. Millam, M. Klene, C. Adamo, R. Cammi, 
 J. W. Ochterski, R. L. Martin, K. Morokuma, O. Farkas, 
 J. B. Foresman, and D. J. Fox, Gaussian, Inc., Wallingford CT, 2019.
 
 ******************************************
 Gaussian 16:  ES64L-G16RevC.01  3-Jul-2019
                31-Mar-2025 
 ******************************************
 %nprocshared=32
 Will use up to   32 processors via shared memory.
 %mem=100GB
 ------------------------------------------
 #p opt freq b3lyp/def2svpp em=gd3bj nosymm
 ------------------------------------------
 1/18=20,19=15,26=3,38=1/1,3;
 2/9=110,12=2,15=1,17=6,18=5,40=1/2;
 3/5=43,7=202,11=2,25=1,30=1,71=1,74=-5,124=41/1,2,3;
 4//1;
 5/5=2,38=5/2;
 6/7=2,8=2,9=2,10=2,28=1/1;
 7/30=1/1,2,3,16;
 1/18=20,19=15,26=3/3(2);
 2/9=110,15=1/2;
 99//99;
 2/9=110,15=1/2;
 3/5=43,7=202,11=2,25=1,30=1,71=1,74=-5,124=41/1,2,3;
 4/5=5,16=3,69=1/1;
 5/5=2,38=5/2;
 7/30=1/1,2,3,16;
 1/18=20,19=15,26=3/3(-5);
 2/9=110,15=1/2;
 6/7=2,8=2,9=2,10=2,19=2,28=1/1;
 99/9=1/99;
 Leave Link    1 at Mon Mar 31 12:33:05 2025, MaxMem= 13421772800 cpu:               1.2 elap:               0.0
 (Enter /public/software/apps/Gaussian/g16/l101.exe)
 ------------------
 $$$$Title####0????
 ------------------
 Symbolic Z-matrix:
 Charge =  0 Multiplicity = 2
 O                    -6.57216   0.6127   -1.47515 
 C                    -5.44383   1.20237  -1.21432 
 C                    -4.95075   2.12005  -2.21502 
 C                    -3.79836   2.82727  -2.04742 
 C                    -3.04608   2.7255   -0.83361 
 C                    -1.8587    3.46128  -0.64391 
 C                    -1.13535   3.38299   0.54054 
 C                     0.15259   4.11146   0.6811 
 C                     0.31363   5.269     1.45695 
 C                     1.55049   5.93345   1.55015 
 C                     2.67776   5.46216   0.87372 
 C                     2.55332   4.29737   0.10625 
 C                     1.30156   3.65477   0.03411 
 O                     1.37795   2.50065  -0.69886 
 C                     2.68511   2.3589   -1.09013 
 C                     3.20401   1.2577   -1.78354 
 C                     2.37096   0.12696  -2.25545 
 C                     2.88791  -1.18119  -2.27739 
 C                     2.12411  -2.24577  -2.75885 
 C                     0.83001  -2.02434  -3.23757 
 C                     0.30198  -0.72908  -3.21728 
 C                     1.05889   0.33378  -2.7222 
 C                     4.59469   1.29977  -1.99825 
 C                     5.39655   2.36594  -1.56026 
 C                     4.84452   3.45221  -0.87835 
 C                     3.4662    3.44411  -0.63633 
 C                    -1.63683   2.5703    1.58431 
 C                    -2.78091   1.81342   1.40972 
 C                    -3.50257   1.83326   0.18661 
 C                    -4.64051   0.97169  -0.0346 
 C                    -4.71465  -0.25666   0.80961 
 C                    -5.7416   -0.54846   1.77811 
 O                    -6.81928   0.16583   1.95099 
 C                    -5.57391  -1.68756   2.64704 
 C                    -4.5135   -2.53631   2.5329 
 C                    -3.50053  -2.32152   1.54555 
 C                    -2.42622  -3.23065   1.39849 
 C                    -1.41308  -3.00995   0.47533 
 C                    -0.28834  -3.95052   0.26241 
 C                    -0.46836  -5.28951  -0.1215 
 C                     0.61787  -6.12681  -0.43364 
 C                     1.93288  -5.65961  -0.37591 
 C                     2.14835  -4.33568   0.03001 
 C                     1.04032  -3.5261    0.3448 
 O                     1.43837  -2.28657   0.7676 
 C                     2.81003  -2.2678    0.7417 
 C                     3.61672  -1.19234   1.14449 
 C                     3.09627   0.04266   1.78036 
 C                     3.86328   1.22326   1.78956 
 C                     3.42938   2.3601    2.46915 
 C                     2.20673   2.3578    3.14536 
 C                     1.42562   1.20005   3.13059 
 C                     1.85992   0.05783   2.4561 
 C                     4.99714  -1.40352   0.95213 
 C                     5.52278  -2.5934    0.42596 
 C                     4.69193  -3.66315   0.08841 
 C                     3.31349  -3.49694   0.25959 
 C                    -1.48878  -1.85363  -0.34063 
 C                    -2.55744  -0.98914  -0.25771 
 C                    -3.59398  -1.16835   0.70108 
 H                    -5.56118   2.21093  -3.11673 
 H                    -3.44233   3.50391  -2.83078 
 H                    -1.50154   4.1048   -1.45325 
 H                    -0.55507   5.66363   1.99131 
 H                     1.62437   6.83729   2.1615 
 H                     3.63702   5.98053   0.95569 
 H                     3.88931  -1.37416  -1.88634 
 H                     2.53945  -3.25673  -2.74682 
 H                     0.23003  -2.8601   -3.60898 
 H                    -0.71325  -0.54457  -3.58147 
 H                     0.63296   1.33801  -2.70674 
 H                     5.06053   0.47735  -2.5461 
 H                     6.47035   2.34259  -1.76658 
 H                     5.47131   4.2786   -0.5328 
 H                    -1.09207   2.52746   2.52936 
 H                    -3.14165   1.18195   2.22398 
 H                    -6.3638   -1.84371   3.38558 
 H                    -4.42683  -3.40612   3.19202 
 H                    -2.39233  -4.11307   2.04471 
 H                    -1.48932  -5.67169  -0.20822 
 H                     0.42323  -7.15867  -0.73946 
 H                     2.77173  -6.31341  -0.62939 
 H                     4.80189   1.26925   1.23415 
 H                     4.04189   3.26459   2.4514 
 H                     1.86166   3.25782   3.66178 
 H                     0.46756   1.1749    3.65779 
 H                     1.23629  -0.83471   2.46664 
 H                     5.69327  -0.61985   1.25575 
 H                     6.60597  -2.68769   0.30822 
 H                     5.10364  -4.60135  -0.29263 
 H                    -0.70154  -1.66683  -1.07158 
 H                    -2.60075  -0.15145  -0.95235 
 Cu                   -7.39131   0.45771   0.20037 
 
 ITRead=  0  0  0  0  0  0  0  0  0  0  0  0  0  0  0  0  0  0  0  0
 ITRead=  0  0  0  0  0  0  0  0  0  0  0  0  0  0  0  0  0  0  0  0
 ITRead=  0  0  0  0  0  0  0  0  0  0  0  0  0  0  0  0  0  0  0  0
 ITRead=  0  0  0  0  0  0  0  0  0  0  0  0  0  0  0  0  0  0  0  0
 ITRead=  0  0  0  0  0  0  0  0  0  0  0  0  0
 MicOpt= -1 -1 -1 -1 -1 -1 -1 -1 -1 -1 -1 -1 -1 -1 -1 -1 -1 -1 -1 -1
 MicOpt= -1 -1 -1 -1 -1 -1 -1 -1 -1 -1 -1 -1 -1 -1 -1 -1 -1 -1 -1 -1
 MicOpt= -1 -1 -1 -1 -1 -1 -1 -1 -1 -1 -1 -1 -1 -1 -1 -1 -1 -1 -1 -1
 MicOpt= -1 -1 -1 -1 -1 -1 -1 -1 -1 -1 -1 -1 -1 -1 -1 -1 -1 -1 -1 -1
 MicOpt= -1 -1 -1 -1 -1 -1 -1 -1 -1 -1 -1 -1 -1
 NAtoms=     93 NQM=       93 NQMF=       0 NMMI=      0 NMMIF=      0
                NMic=       0 NMicF=      0.
                    Isotopes and Nuclear Properties:
 (Nuclear quadrupole moments (NQMom) in fm**2, nuclear magnetic moments (NMagM)
  in nuclear magnetons)

  Atom         1           2           3           4           5           6           7           8           9          10
 IAtWgt=          16          12          12          12          12          12          12          12          12          12
 AtmWgt=  15.9949146  12.0000000  12.0000000  12.0000000  12.0000000  12.0000000  12.0000000  12.0000000  12.0000000  12.0000000
 NucSpn=           0           0           0           0           0           0           0           0           0           0
 AtZEff=  -0.0000000  -0.0000000  -0.0000000  -0.0000000  -0.0000000  -0.0000000  -0.0000000  -0.0000000  -0.0000000  -0.0000000
 NQMom=    0.0000000   0.0000000   0.0000000   0.0000000   0.0000000   0.0000000   0.0000000   0.0000000   0.0000000   0.0000000
 NMagM=    0.0000000   0.0000000   0.0000000   0.0000000   0.0000000   0.0000000   0.0000000   0.0000000   0.0000000   0.0000000
 AtZNuc=   8.0000000   6.0000000   6.0000000   6.0000000   6.0000000   6.0000000   6.0000000   6.0000000   6.0000000   6.0000000

  Atom        11          12          13          14          15          16          17          18          19          20
 IAtWgt=          12          12          12          16          12          12          12          12          12          12
 AtmWgt=  12.0000000  12.0000000  12.0000000  15.9949146  12.0000000  12.0000000  12.0000000  12.0000000  12.0000000  12.0000000
 NucSpn=           0           0           0           0           0           0           0           0           0           0
 AtZEff=  -0.0000000  -0.0000000  -0.0000000  -0.0000000  -0.0000000  -0.0000000  -0.0000000  -0.0000000  -0.0000000  -0.0000000
 NQMom=    0.0000000   0.0000000   0.0000000   0.0000000   0.0000000   0.0000000   0.0000000   0.0000000   0.0000000   0.0000000
 NMagM=    0.0000000   0.0000000   0.0000000   0.0000000   0.0000000   0.0000000   0.0000000   0.0000000   0.0000000   0.0000000
 AtZNuc=   6.0000000   6.0000000   6.0000000   8.0000000   6.0000000   6.0000000   6.0000000   6.0000000   6.0000000   6.0000000

  Atom        21          22          23          24          25          26          27          28          29          30
 IAtWgt=          12          12          12          12          12          12          12          12          12          12
 AtmWgt=  12.0000000  12.0000000  12.0000000  12.0000000  12.0000000  12.0000000  12.0000000  12.0000000  12.0000000  12.0000000
 NucSpn=           0           0           0           0           0           0           0           0           0           0
 AtZEff=  -0.0000000  -0.0000000  -0.0000000  -0.0000000  -0.0000000  -0.0000000  -0.0000000  -0.0000000  -0.0000000  -0.0000000
 NQMom=    0.0000000   0.0000000   0.0000000   0.0000000   0.0000000   0.0000000   0.0000000   0.0000000   0.0000000   0.0000000
 NMagM=    0.0000000   0.0000000   0.0000000   0.0000000   0.0000000   0.0000000   0.0000000   0.0000000   0.0000000   0.0000000
 AtZNuc=   6.0000000   6.0000000   6.0000000   6.0000000   6.0000000   6.0000000   6.0000000   6.0000000   6.0000000   6.0000000

  Atom        31          32          33          34          35          36          37          38          39          40
 IAtWgt=          12          12          16          12          12          12          12          12          12          12
 AtmWgt=  12.0000000  12.0000000  15.9949146  12.0000000  12.0000000  12.0000000  12.0000000  12.0000000  12.0000000  12.0000000
 NucSpn=           0           0           0           0           0           0           0           0           0           0
 AtZEff=  -0.0000000  -0.0000000  -0.0000000  -0.0000000  -0.0000000  -0.0000000  -0.0000000  -0.0000000  -0.0000000  -0.0000000
 NQMom=    0.0000000   0.0000000   0.0000000   0.0000000   0.0000000   0.0000000   0.0000000   0.0000000   0.0000000   0.0000000
 NMagM=    0.0000000   0.0000000   0.0000000   0.0000000   0.0000000   0.0000000   0.0000000   0.0000000   0.0000000   0.0000000
 AtZNuc=   6.0000000   6.0000000   8.0000000   6.0000000   6.0000000   6.0000000   6.0000000   6.0000000   6.0000000   6.0000000

  Atom        41          42          43          44          45          46          47          48          49          50
 IAtWgt=          12          12          12          12          16          12          12          12          12          12
 AtmWgt=  12.0000000  12.0000000  12.0000000  12.0000000  15.9949146  12.0000000  12.0000000  12.0000000  12.0000000  12.0000000
 NucSpn=           0           0           0           0           0           0           0           0           0           0
 AtZEff=  -0.0000000  -0.0000000  -0.0000000  -0.0000000  -0.0000000  -0.0000000  -0.0000000  -0.0000000  -0.0000000  -0.0000000
 NQMom=    0.0000000   0.0000000   0.0000000   0.0000000   0.0000000   0.0000000   0.0000000   0.0000000   0.0000000   0.0000000
 NMagM=    0.0000000   0.0000000   0.0000000   0.0000000   0.0000000   0.0000000   0.0000000   0.0000000   0.0000000   0.0000000
 AtZNuc=   6.0000000   6.0000000   6.0000000   6.0000000   8.0000000   6.0000000   6.0000000   6.0000000   6.0000000   6.0000000

  Atom        51          52          53          54          55          56          57          58          59          60
 IAtWgt=          12          12          12          12          12          12          12          12          12          12
 AtmWgt=  12.0000000  12.0000000  12.0000000  12.0000000  12.0000000  12.0000000  12.0000000  12.0000000  12.0000000  12.0000000
 NucSpn=           0           0           0           0           0           0           0           0           0           0
 AtZEff=  -0.0000000  -0.0000000  -0.0000000  -0.0000000  -0.0000000  -0.0000000  -0.0000000  -0.0000000  -0.0000000  -0.0000000
 NQMom=    0.0000000   0.0000000   0.0000000   0.0000000   0.0000000   0.0000000   0.0000000   0.0000000   0.0000000   0.0000000
 NMagM=    0.0000000   0.0000000   0.0000000   0.0000000   0.0000000   0.0000000   0.0000000   0.0000000   0.0000000   0.0000000
 AtZNuc=   6.0000000   6.0000000   6.0000000   6.0000000   6.0000000   6.0000000   6.0000000   6.0000000   6.0000000   6.0000000

  Atom        61          62          63          64          65          66          67          68          69          70
 IAtWgt=           1           1           1           1           1           1           1           1           1           1
 AtmWgt=   1.0078250   1.0078250   1.0078250   1.0078250   1.0078250   1.0078250   1.0078250   1.0078250   1.0078250   1.0078250
 NucSpn=           1           1           1           1           1           1           1           1           1           1
 AtZEff=  -0.0000000  -0.0000000  -0.0000000  -0.0000000  -0.0000000  -0.0000000  -0.0000000  -0.0000000  -0.0000000  -0.0000000
 NQMom=    0.0000000   0.0000000   0.0000000   0.0000000   0.0000000   0.0000000   0.0000000   0.0000000   0.0000000   0.0000000
 NMagM=    2.7928460   2.7928460   2.7928460   2.7928460   2.7928460   2.7928460   2.7928460   2.7928460   2.7928460   2.7928460
 AtZNuc=   1.0000000   1.0000000   1.0000000   1.0000000   1.0000000   1.0000000   1.0000000   1.0000000   1.0000000   1.0000000

  Atom        71          72          73          74          75          76          77          78          79          80
 IAtWgt=           1           1           1           1           1           1           1           1           1           1
 AtmWgt=   1.0078250   1.0078250   1.0078250   1.0078250   1.0078250   1.0078250   1.0078250   1.0078250   1.0078250   1.0078250
 NucSpn=           1           1           1           1           1           1           1           1           1           1
 AtZEff=  -0.0000000  -0.0000000  -0.0000000  -0.0000000  -0.0000000  -0.0000000  -0.0000000  -0.0000000  -0.0000000  -0.0000000
 NQMom=    0.0000000   0.0000000   0.0000000   0.0000000   0.0000000   0.0000000   0.0000000   0.0000000   0.0000000   0.0000000
 NMagM=    2.7928460   2.7928460   2.7928460   2.7928460   2.7928460   2.7928460   2.7928460   2.7928460   2.7928460   2.7928460
 AtZNuc=   1.0000000   1.0000000   1.0000000   1.0000000   1.0000000   1.0000000   1.0000000   1.0000000   1.0000000   1.0000000

  Atom        81          82          83          84          85          86          87          88          89          90
 IAtWgt=           1           1           1           1           1           1           1           1           1           1
 AtmWgt=   1.0078250   1.0078250   1.0078250   1.0078250   1.0078250   1.0078250   1.0078250   1.0078250   1.0078250   1.0078250
 NucSpn=           1           1           1           1           1           1           1           1           1           1
 AtZEff=  -0.0000000  -0.0000000  -0.0000000  -0.0000000  -0.0000000  -0.0000000  -0.0000000  -0.0000000  -0.0000000  -0.0000000
 NQMom=    0.0000000   0.0000000   0.0000000   0.0000000   0.0000000   0.0000000   0.0000000   0.0000000   0.0000000   0.0000000
 NMagM=    2.7928460   2.7928460   2.7928460   2.7928460   2.7928460   2.7928460   2.7928460   2.7928460   2.7928460   2.7928460
 AtZNuc=   1.0000000   1.0000000   1.0000000   1.0000000   1.0000000   1.0000000   1.0000000   1.0000000   1.0000000   1.0000000

  Atom        91          92          93
 IAtWgt=           1           1          63
 AtmWgt=   1.0078250   1.0078250  62.9295992
 NucSpn=           1           1           3
 AtZEff=  -0.0000000  -0.0000000  -0.0000000
 NQMom=    0.0000000   0.0000000 -22.0000000
 NMagM=    2.7928460   2.7928460   2.2233000
 AtZNuc=   1.0000000   1.0000000  29.0000000
 Leave Link  101 at Mon Mar 31 12:33:05 2025, MaxMem= 13421772800 cpu:               4.5 elap:               0.2
 (Enter /public/software/apps/Gaussian/g16/l103.exe)

 GradGradGradGradGradGradGradGradGradGradGradGradGradGradGradGradGradGrad
 Berny optimization.
 Initialization pass.
                           ----------------------------
                           !    Initial Parameters    !
                           ! (Angstroms and Degrees)  !
 --------------------------                            --------------------------
 ! Name  Definition              Value          Derivative Info.                !
 --------------------------------------------------------------------------------
 ! R1    R(1,2)                  1.2996         estimate D2E/DX2                !
 ! R2    R(1,93)                 1.8715         estimate D2E/DX2                !
 ! R3    R(2,3)                  1.4445         estimate D2E/DX2                !
 ! R4    R(2,30)                 1.4458         estimate D2E/DX2                !
 ! R5    R(3,4)                  1.3624         estimate D2E/DX2                !
 ! R6    R(3,61)                 1.0927         estimate D2E/DX2                !
 ! R7    R(4,5)                  1.4317         estimate D2E/DX2                !
 ! R8    R(4,62)                 1.0947         estimate D2E/DX2                !
 ! R9    R(5,6)                  1.4097         estimate D2E/DX2                !
 ! R10   R(5,29)                 1.4302         estimate D2E/DX2                !
 ! R11   R(6,7)                  1.3901         estimate D2E/DX2                !
 ! R12   R(6,63)                 1.094          estimate D2E/DX2                !
 ! R13   R(7,8)                  1.4863         estimate D2E/DX2                !
 ! R14   R(7,27)                 1.4147         estimate D2E/DX2                !
 ! R15   R(8,9)                  1.4028         estimate D2E/DX2                !
 ! R16   R(8,13)                 1.3954         estimate D2E/DX2                !
 ! R17   R(9,10)                 1.4071         estimate D2E/DX2                !
 ! R18   R(9,64)                 1.0936         estimate D2E/DX2                !
 ! R19   R(10,11)                1.3966         estimate D2E/DX2                !
 ! R20   R(10,65)                1.0937         estimate D2E/DX2                !
 ! R21   R(11,12)                1.4004         estimate D2E/DX2                !
 ! R22   R(11,66)                1.0934         estimate D2E/DX2                !
 ! R23   R(12,13)                1.4089         estimate D2E/DX2                !
 ! R24   R(12,26)                1.4536         estimate D2E/DX2                !
 ! R25   R(13,14)                1.3693         estimate D2E/DX2                !
 ! R26   R(14,15)                1.3718         estimate D2E/DX2                !
 ! R27   R(15,16)                1.401          estimate D2E/DX2                !
 ! R28   R(15,26)                1.412          estimate D2E/DX2                !
 ! R29   R(16,17)                1.4816         estimate D2E/DX2                !
 ! R30   R(16,23)                1.4078         estimate D2E/DX2                !
 ! R31   R(17,18)                1.4068         estimate D2E/DX2                !
 ! R32   R(17,22)                1.4079         estimate D2E/DX2                !
 ! R33   R(18,19)                1.3959         estimate D2E/DX2                !
 ! R34   R(18,67)                1.0922         estimate D2E/DX2                !
 ! R35   R(19,20)                1.3975         estimate D2E/DX2                !
 ! R36   R(19,68)                1.093          estimate D2E/DX2                !
 ! R37   R(20,21)                1.3989         estimate D2E/DX2                !
 ! R38   R(20,69)                1.0938         estimate D2E/DX2                !
 ! R39   R(21,22)                1.3956         estimate D2E/DX2                !
 ! R40   R(21,70)                1.0942         estimate D2E/DX2                !
 ! R41   R(22,71)                1.0909         estimate D2E/DX2                !
 ! R42   R(23,24)                1.4041         estimate D2E/DX2                !
 ! R43   R(23,72)                1.0925         estimate D2E/DX2                !
 ! R44   R(24,25)                1.3963         estimate D2E/DX2                !
 ! R45   R(24,73)                1.0937         estimate D2E/DX2                !
 ! R46   R(25,26)                1.3994         estimate D2E/DX2                !
 ! R47   R(25,74)                1.0932         estimate D2E/DX2                !
 ! R48   R(27,28)                1.3828         estimate D2E/DX2                !
 ! R49   R(27,75)                1.0917         estimate D2E/DX2                !
 ! R50   R(28,29)                1.4203         estimate D2E/DX2                !
 ! R51   R(28,76)                1.0917         estimate D2E/DX2                !
 ! R52   R(29,30)                1.4443         estimate D2E/DX2                !
 ! R53   R(30,31)                1.4923         estimate D2E/DX2                !
 ! R54   R(31,32)                1.4414         estimate D2E/DX2                !
 ! R55   R(31,60)                1.4487         estimate D2E/DX2                !
 ! R56   R(32,33)                1.3044         estimate D2E/DX2                !
 ! R57   R(32,34)                1.4425         estimate D2E/DX2                !
 ! R58   R(33,93)                1.8647         estimate D2E/DX2                !
 ! R59   R(34,35)                1.363          estimate D2E/DX2                !
 ! R60   R(34,77)                1.0926         estimate D2E/DX2                !
 ! R61   R(35,36)                1.4308         estimate D2E/DX2                !
 ! R62   R(35,78)                1.0948         estimate D2E/DX2                !
 ! R63   R(36,37)                1.415          estimate D2E/DX2                !
 ! R64   R(36,60)                1.4324         estimate D2E/DX2                !
 ! R65   R(37,38)                1.3883         estimate D2E/DX2                !
 ! R66   R(37,79)                1.0943         estimate D2E/DX2                !
 ! R67   R(38,39)                1.4816         estimate D2E/DX2                !
 ! R68   R(38,58)                1.4173         estimate D2E/DX2                !
 ! R69   R(39,40)                1.4045         estimate D2E/DX2                !
 ! R70   R(39,44)                1.3972         estimate D2E/DX2                !
 ! R71   R(40,41)                1.4066         estimate D2E/DX2                !
 ! R72   R(40,80)                1.0936         estimate D2E/DX2                !
 ! R73   R(41,42)                1.3967         estimate D2E/DX2                !
 ! R74   R(41,81)                1.0937         estimate D2E/DX2                !
 ! R75   R(42,43)                1.4014         estimate D2E/DX2                !
 ! R76   R(42,82)                1.0933         estimate D2E/DX2                !
 ! R77   R(43,44)                1.4079         estimate D2E/DX2                !
 ! R78   R(43,57)                1.4539         estimate D2E/DX2                !
 ! R79   R(44,45)                1.3688         estimate D2E/DX2                !
 ! R80   R(45,46)                1.372          estimate D2E/DX2                !
 ! R81   R(46,47)                1.4034         estimate D2E/DX2                !
 ! R82   R(46,57)                1.413          estimate D2E/DX2                !
 ! R83   R(47,48)                1.4834         estimate D2E/DX2                !
 ! R84   R(47,54)                1.4097         estimate D2E/DX2                !
 ! R85   R(48,49)                1.4079         estimate D2E/DX2                !
 ! R86   R(48,53)                1.4091         estimate D2E/DX2                !
 ! R87   R(49,50)                1.3937         estimate D2E/DX2                !
 ! R88   R(49,83)                1.0916         estimate D2E/DX2                !
 ! R89   R(50,51)                1.3972         estimate D2E/DX2                !
 ! R90   R(50,84)                1.0925         estimate D2E/DX2                !
 ! R91   R(51,52)                1.3967         estimate D2E/DX2                !
 ! R92   R(51,85)                1.0935         estimate D2E/DX2                !
 ! R93   R(52,53)                1.3958         estimate D2E/DX2                !
 ! R94   R(52,86)                1.0938         estimate D2E/DX2                !
 ! R95   R(53,87)                1.0889         estimate D2E/DX2                !
 ! R96   R(54,55)                1.4032         estimate D2E/DX2                !
 ! R97   R(54,88)                1.0913         estimate D2E/DX2                !
 ! R98   R(55,56)                1.3959         estimate D2E/DX2                !
 ! R99   R(55,89)                1.0936         estimate D2E/DX2                !
 ! R100  R(56,57)                1.3989         estimate D2E/DX2                !
 ! R101  R(56,90)                1.0931         estimate D2E/DX2                !
 ! R102  R(58,59)                1.377          estimate D2E/DX2                !
 ! R103  R(58,91)                1.0904         estimate D2E/DX2                !
 ! R104  R(59,60)                1.4233         estimate D2E/DX2                !
 ! R105  R(59,92)                1.0891         estimate D2E/DX2                !
 ! A1    A(2,1,93)             103.7636         estimate D2E/DX2                !
 ! A2    A(1,2,3)              116.4606         estimate D2E/DX2                !
 ! A3    A(1,2,30)             125.015          estimate D2E/DX2                !
 ! A4    A(3,2,30)             118.4876         estimate D2E/DX2                !
 ! A5    A(2,3,4)              122.2257         estimate D2E/DX2                !
 ! A6    A(2,3,61)             115.7104         estimate D2E/DX2                !
 ! A7    A(4,3,61)             122.0639         estimate D2E/DX2                !
 ! A8    A(3,4,5)              120.7878         estimate D2E/DX2                !
 ! A9    A(3,4,62)             120.526          estimate D2E/DX2                !
 ! A10   A(5,4,62)             118.6701         estimate D2E/DX2                !
 ! A11   A(4,5,6)              121.3051         estimate D2E/DX2                !
 ! A12   A(4,5,29)             118.7794         estimate D2E/DX2                !
 ! A13   A(6,5,29)             119.8999         estimate D2E/DX2                !
 ! A14   A(5,6,7)              121.5728         estimate D2E/DX2                !
 ! A15   A(5,6,63)             118.8475         estimate D2E/DX2                !
 ! A16   A(7,6,63)             119.5794         estimate D2E/DX2                !
 ! A17   A(6,7,8)              120.258          estimate D2E/DX2                !
 ! A18   A(6,7,27)             118.4604         estimate D2E/DX2                !
 ! A19   A(8,7,27)             121.2606         estimate D2E/DX2                !
 ! A20   A(7,8,9)              123.7941         estimate D2E/DX2                !
 ! A21   A(7,8,13)             120.6118         estimate D2E/DX2                !
 ! A22   A(9,8,13)             115.592          estimate D2E/DX2                !
 ! A23   A(8,9,10)             121.8162         estimate D2E/DX2                !
 ! A24   A(8,9,64)             118.4789         estimate D2E/DX2                !
 ! A25   A(10,9,64)            119.7014         estimate D2E/DX2                !
 ! A26   A(9,10,11)            121.203          estimate D2E/DX2                !
 ! A27   A(9,10,65)            119.1199         estimate D2E/DX2                !
 ! A28   A(11,10,65)           119.6766         estimate D2E/DX2                !
 ! A29   A(10,11,12)           118.3197         estimate D2E/DX2                !
 ! A30   A(10,11,66)           120.7857         estimate D2E/DX2                !
 ! A31   A(12,11,66)           120.8863         estimate D2E/DX2                !
 ! A32   A(11,12,13)           119.1007         estimate D2E/DX2                !
 ! A33   A(11,12,26)           135.4311         estimate D2E/DX2                !
 ! A34   A(13,12,26)           105.3128         estimate D2E/DX2                !
 ! A35   A(8,13,12)            123.954          estimate D2E/DX2                !
 ! A36   A(8,13,14)            124.7463         estimate D2E/DX2                !
 ! A37   A(12,13,14)           111.2381         estimate D2E/DX2                !
 ! A38   A(13,14,15)           107.0332         estimate D2E/DX2                !
 ! A39   A(14,15,16)           125.1221         estimate D2E/DX2                !
 ! A40   A(14,15,26)           110.8567         estimate D2E/DX2                !
 ! A41   A(16,15,26)           123.9381         estimate D2E/DX2                !
 ! A42   A(15,16,17)           123.317          estimate D2E/DX2                !
 ! A43   A(15,16,23)           114.7011         estimate D2E/DX2                !
 ! A44   A(17,16,23)           121.9814         estimate D2E/DX2                !
 ! A45   A(16,17,18)           120.5323         estimate D2E/DX2                !
 ! A46   A(16,17,22)           121.1623         estimate D2E/DX2                !
 ! A47   A(18,17,22)           118.288          estimate D2E/DX2                !
 ! A48   A(17,18,19)           120.8964         estimate D2E/DX2                !
 ! A49   A(17,18,67)           119.7111         estimate D2E/DX2                !
 ! A50   A(19,18,67)           119.3687         estimate D2E/DX2                !
 ! A51   A(18,19,20)           120.266          estimate D2E/DX2                !
 ! A52   A(18,19,68)           119.5818         estimate D2E/DX2                !
 ! A53   A(20,19,68)           120.1471         estimate D2E/DX2                !
 ! A54   A(19,20,21)           119.4253         estimate D2E/DX2                !
 ! A55   A(19,20,69)           120.2119         estimate D2E/DX2                !
 ! A56   A(21,20,69)           120.3548         estimate D2E/DX2                !
 ! A57   A(20,21,22)           120.3704         estimate D2E/DX2                !
 ! A58   A(20,21,70)           120.0993         estimate D2E/DX2                !
 ! A59   A(22,21,70)           119.5276         estimate D2E/DX2                !
 ! A60   A(17,22,21)           120.7417         estimate D2E/DX2                !
 ! A61   A(17,22,71)           119.6289         estimate D2E/DX2                !
 ! A62   A(21,22,71)           119.6261         estimate D2E/DX2                !
 ! A63   A(16,23,24)           122.6326         estimate D2E/DX2                !
 ! A64   A(16,23,72)           118.3731         estimate D2E/DX2                !
 ! A65   A(24,23,72)           118.9819         estimate D2E/DX2                !
 ! A66   A(23,24,25)           121.1499         estimate D2E/DX2                !
 ! A67   A(23,24,73)           119.0542         estimate D2E/DX2                !
 ! A68   A(25,24,73)           119.7943         estimate D2E/DX2                !
 ! A69   A(24,25,26)           117.991          estimate D2E/DX2                !
 ! A70   A(24,25,74)           121.0477         estimate D2E/DX2                !
 ! A71   A(26,25,74)           120.957          estimate D2E/DX2                !
 ! A72   A(12,26,15)           105.5414         estimate D2E/DX2                !
 ! A73   A(12,26,25)           134.709          estimate D2E/DX2                !
 ! A74   A(15,26,25)           119.5847         estimate D2E/DX2                !
 ! A75   A(7,27,28)            120.967          estimate D2E/DX2                !
 ! A76   A(7,27,75)            118.9708         estimate D2E/DX2                !
 ! A77   A(28,27,75)           120.0447         estimate D2E/DX2                !
 ! A78   A(27,28,29)           121.4301         estimate D2E/DX2                !
 ! A79   A(27,28,76)           119.7215         estimate D2E/DX2                !
 ! A80   A(29,28,76)           118.8481         estimate D2E/DX2                !
 ! A81   A(5,29,28)            117.4429         estimate D2E/DX2                !
 ! A82   A(5,29,30)            120.9553         estimate D2E/DX2                !
 ! A83   A(28,29,30)           121.5931         estimate D2E/DX2                !
 ! A84   A(2,30,29)            117.8759         estimate D2E/DX2                !
 ! A85   A(2,30,31)            124.4249         estimate D2E/DX2                !
 ! A86   A(29,30,31)           116.3269         estimate D2E/DX2                !
 ! A87   A(30,31,32)           125.5993         estimate D2E/DX2                !
 ! A88   A(30,31,60)           115.9236         estimate D2E/DX2                !
 ! A89   A(32,31,60)           118.2976         estimate D2E/DX2                !
 ! A90   A(31,32,33)           124.5277         estimate D2E/DX2                !
 ! A91   A(31,32,34)           118.8019         estimate D2E/DX2                !
 ! A92   A(33,32,34)           116.6562         estimate D2E/DX2                !
 ! A93   A(32,33,93)           102.4003         estimate D2E/DX2                !
 ! A94   A(32,34,35)           122.1222         estimate D2E/DX2                !
 ! A95   A(32,34,77)           115.8494         estimate D2E/DX2                !
 ! A96   A(35,34,77)           122.0087         estimate D2E/DX2                !
 ! A97   A(34,35,36)           121.0045         estimate D2E/DX2                !
 ! A98   A(34,35,78)           120.3917         estimate D2E/DX2                !
 ! A99   A(36,35,78)           118.6004         estimate D2E/DX2                !
 ! A100  A(35,36,37)           120.8495         estimate D2E/DX2                !
 ! A101  A(35,36,60)           118.7844         estimate D2E/DX2                !
 ! A102  A(37,36,60)           120.3658         estimate D2E/DX2                !
 ! A103  A(36,37,38)           121.4009         estimate D2E/DX2                !
 ! A104  A(36,37,79)           118.7015         estimate D2E/DX2                !
 ! A105  A(38,37,79)           119.8864         estimate D2E/DX2                !
 ! A106  A(37,38,39)           123.2744         estimate D2E/DX2                !
 ! A107  A(37,38,58)           118.2659         estimate D2E/DX2                !
 ! A108  A(39,38,58)           118.4095         estimate D2E/DX2                !
 ! A109  A(38,39,40)           123.1756         estimate D2E/DX2                !
 ! A110  A(38,39,44)           121.3715         estimate D2E/DX2                !
 ! A111  A(40,39,44)           115.3142         estimate D2E/DX2                !
 ! A112  A(39,40,41)           121.9507         estimate D2E/DX2                !
 ! A113  A(39,40,80)           118.327          estimate D2E/DX2                !
 ! A114  A(41,40,80)           119.6917         estimate D2E/DX2                !
 ! A115  A(40,41,42)           121.2505         estimate D2E/DX2                !
 ! A116  A(40,41,81)           119.0945         estimate D2E/DX2                !
 ! A117  A(42,41,81)           119.6501         estimate D2E/DX2                !
 ! A118  A(41,42,43)           118.2115         estimate D2E/DX2                !
 ! A119  A(41,42,82)           120.8469         estimate D2E/DX2                !
 ! A120  A(43,42,82)           120.9377         estimate D2E/DX2                !
 ! A121  A(42,43,44)           119.1424         estimate D2E/DX2                !
 ! A122  A(42,43,57)           135.5578         estimate D2E/DX2                !
 ! A123  A(44,43,57)           105.2876         estimate D2E/DX2                !
 ! A124  A(39,44,43)           124.092          estimate D2E/DX2                !
 ! A125  A(39,44,45)           124.737          estimate D2E/DX2                !
 ! A126  A(43,44,45)           111.1563         estimate D2E/DX2                !
 ! A127  A(44,45,46)           107.2943         estimate D2E/DX2                !
 ! A128  A(45,46,47)           125.4303         estimate D2E/DX2                !
 ! A129  A(45,46,57)           110.5324         estimate D2E/DX2                !
 ! A130  A(47,46,57)           124.0351         estimate D2E/DX2                !
 ! A131  A(46,47,48)           124.0113         estimate D2E/DX2                !
 ! A132  A(46,47,54)           114.1366         estimate D2E/DX2                !
 ! A133  A(48,47,54)           121.7887         estimate D2E/DX2                !
 ! A134  A(47,48,49)           120.6507         estimate D2E/DX2                !
 ! A135  A(47,48,53)           121.4926         estimate D2E/DX2                !
 ! A136  A(49,48,53)           117.7655         estimate D2E/DX2                !
 ! A137  A(48,49,50)           121.1691         estimate D2E/DX2                !
 ! A138  A(48,49,83)           120.0293         estimate D2E/DX2                !
 ! A139  A(50,49,83)           118.7778         estimate D2E/DX2                !
 ! A140  A(49,50,51)           120.4695         estimate D2E/DX2                !
 ! A141  A(49,50,84)           119.5273         estimate D2E/DX2                !
 ! A142  A(51,50,84)           119.9883         estimate D2E/DX2                !
 ! A143  A(50,51,52)           119.0541         estimate D2E/DX2                !
 ! A144  A(50,51,85)           120.2219         estimate D2E/DX2                !
 ! A145  A(52,51,85)           120.7142         estimate D2E/DX2                !
 ! A146  A(51,52,53)           120.6263         estimate D2E/DX2                !
 ! A147  A(51,52,86)           120.2519         estimate D2E/DX2                !
 ! A148  A(53,52,86)           119.1191         estimate D2E/DX2                !
 ! A149  A(48,53,52)           120.902          estimate D2E/DX2                !
 ! A150  A(48,53,87)           119.8911         estimate D2E/DX2                !
 ! A151  A(52,53,87)           119.2022         estimate D2E/DX2                !
 ! A152  A(47,54,55)           123.027          estimate D2E/DX2                !
 ! A153  A(47,54,88)           118.6277         estimate D2E/DX2                !
 ! A154  A(55,54,88)           118.3144         estimate D2E/DX2                !
 ! A155  A(54,55,56)           121.1679         estimate D2E/DX2                !
 ! A156  A(54,55,89)           118.9801         estimate D2E/DX2                !
 ! A157  A(56,55,89)           119.828          estimate D2E/DX2                !
 ! A158  A(55,56,57)           117.7642         estimate D2E/DX2                !
 ! A159  A(55,56,90)           121.1881         estimate D2E/DX2                !
 ! A160  A(57,56,90)           121.0471         estimate D2E/DX2                !
 ! A161  A(43,57,46)           105.6739         estimate D2E/DX2                !
 ! A162  A(43,57,56)           134.5713         estimate D2E/DX2                !
 ! A163  A(46,57,56)           119.747          estimate D2E/DX2                !
 ! A164  A(38,58,59)           121.264          estimate D2E/DX2                !
 ! A165  A(38,58,91)           119.1543         estimate D2E/DX2                !
 ! A166  A(59,58,91)           119.546          estimate D2E/DX2                !
 ! A167  A(58,59,60)           121.7821         estimate D2E/DX2                !
 ! A168  A(58,59,92)           118.3801         estimate D2E/DX2                !
 ! A169  A(60,59,92)           119.8375         estimate D2E/DX2                !
 ! A170  A(31,60,36)           120.8599         estimate D2E/DX2                !
 ! A171  A(31,60,59)           122.3149         estimate D2E/DX2                !
 ! A172  A(36,60,59)           116.808          estimate D2E/DX2                !
 ! A173  A(1,93,33)            135.9895         estimate D2E/DX2                !
 ! D1    D(93,1,2,3)          -145.4561         estimate D2E/DX2                !
 ! D2    D(93,1,2,30)           36.7886         estimate D2E/DX2                !
 ! D3    D(2,1,93,33)          -34.693          estimate D2E/DX2                !
 ! D4    D(1,2,3,4)            178.2705         estimate D2E/DX2                !
 ! D5    D(1,2,3,61)            -1.7609         estimate D2E/DX2                !
 ! D6    D(30,2,3,4)            -3.8211         estimate D2E/DX2                !
 ! D7    D(30,2,3,61)          176.1476         estimate D2E/DX2                !
 ! D8    D(1,2,30,29)         -172.1422         estimate D2E/DX2                !
 ! D9    D(1,2,30,31)           21.7532         estimate D2E/DX2                !
 ! D10   D(3,2,30,29)           10.1442         estimate D2E/DX2                !
 ! D11   D(3,2,30,31)         -155.9605         estimate D2E/DX2                !
 ! D12   D(2,3,4,5)             -2.4201         estimate D2E/DX2                !
 ! D13   D(2,3,4,62)           179.0603         estimate D2E/DX2                !
 ! D14   D(61,3,4,5)           177.6133         estimate D2E/DX2                !
 ! D15   D(61,3,4,62)           -0.9064         estimate D2E/DX2                !
 ! D16   D(3,4,5,6)           -179.4305         estimate D2E/DX2                !
 ! D17   D(3,4,5,29)             2.0043         estimate D2E/DX2                !
 ! D18   D(62,4,5,6)            -0.8839         estimate D2E/DX2                !
 ! D19   D(62,4,5,29)         -179.449          estimate D2E/DX2                !
 ! D20   D(4,5,6,7)            178.9595         estimate D2E/DX2                !
 ! D21   D(4,5,6,63)            -1.2494         estimate D2E/DX2                !
 ! D22   D(29,5,6,7)            -2.4912         estimate D2E/DX2                !
 ! D23   D(29,5,6,63)          177.2999         estimate D2E/DX2                !
 ! D24   D(4,5,29,28)         -176.3262         estimate D2E/DX2                !
 ! D25   D(4,5,29,30)            4.726          estimate D2E/DX2                !
 ! D26   D(6,5,29,28)            5.088          estimate D2E/DX2                !
 ! D27   D(6,5,29,30)         -173.8599         estimate D2E/DX2                !
 ! D28   D(5,6,7,8)            176.5459         estimate D2E/DX2                !
 ! D29   D(5,6,7,27)            -1.8103         estimate D2E/DX2                !
 ! D30   D(63,6,7,8)            -3.2437         estimate D2E/DX2                !
 ! D31   D(63,6,7,27)          178.4            estimate D2E/DX2                !
 ! D32   D(6,7,8,9)            106.5326         estimate D2E/DX2                !
 ! D33   D(6,7,8,13)           -74.0117         estimate D2E/DX2                !
 ! D34   D(27,7,8,9)           -75.1579         estimate D2E/DX2                !
 ! D35   D(27,7,8,13)          104.2978         estimate D2E/DX2                !
 ! D36   D(6,7,27,28)            3.4321         estimate D2E/DX2                !
 ! D37   D(6,7,27,75)         -178.0906         estimate D2E/DX2                !
 ! D38   D(8,7,27,28)         -174.907          estimate D2E/DX2                !
 ! D39   D(8,7,27,75)            3.5703         estimate D2E/DX2                !
 ! D40   D(7,8,9,10)          -179.3614         estimate D2E/DX2                !
 ! D41   D(7,8,9,64)            -0.0363         estimate D2E/DX2                !
 ! D42   D(13,8,9,10)            1.158          estimate D2E/DX2                !
 ! D43   D(13,8,9,64)         -179.5169         estimate D2E/DX2                !
 ! D44   D(7,8,13,12)          179.2633         estimate D2E/DX2                !
 ! D45   D(7,8,13,14)           -3.8427         estimate D2E/DX2                !
 ! D46   D(9,8,13,12)           -1.2382         estimate D2E/DX2                !
 ! D47   D(9,8,13,14)          175.6558         estimate D2E/DX2                !
 ! D48   D(8,9,10,11)           -0.2462         estimate D2E/DX2                !
 ! D49   D(8,9,10,65)          179.5071         estimate D2E/DX2                !
 ! D50   D(64,9,10,11)        -179.5632         estimate D2E/DX2                !
 ! D51   D(64,9,10,65)           0.1901         estimate D2E/DX2                !
 ! D52   D(9,10,11,12)          -0.6697         estimate D2E/DX2                !
 ! D53   D(9,10,11,66)        -179.6359         estimate D2E/DX2                !
 ! D54   D(65,10,11,12)        179.5783         estimate D2E/DX2                !
 ! D55   D(65,10,11,66)          0.6121         estimate D2E/DX2                !
 ! D56   D(10,11,12,13)          0.6062         estimate D2E/DX2                !
 ! D57   D(10,11,12,26)       -174.101          estimate D2E/DX2                !
 ! D58   D(66,11,12,13)        179.5714         estimate D2E/DX2                !
 ! D59   D(66,11,12,26)          4.8641         estimate D2E/DX2                !
 ! D60   D(11,12,13,8)           0.3768         estimate D2E/DX2                !
 ! D61   D(11,12,13,14)       -176.8853         estimate D2E/DX2                !
 ! D62   D(26,12,13,8)         176.5284         estimate D2E/DX2                !
 ! D63   D(26,12,13,14)         -0.7337         estimate D2E/DX2                !
 ! D64   D(11,12,26,15)        175.1069         estimate D2E/DX2                !
 ! D65   D(11,12,26,25)          0.0047         estimate D2E/DX2                !
 ! D66   D(13,12,26,15)         -0.0995         estimate D2E/DX2                !
 ! D67   D(13,12,26,25)       -175.2017         estimate D2E/DX2                !
 ! D68   D(8,13,14,15)        -175.9436         estimate D2E/DX2                !
 ! D69   D(12,13,14,15)          1.2926         estimate D2E/DX2                !
 ! D70   D(13,14,15,16)        175.4303         estimate D2E/DX2                !
 ! D71   D(13,14,15,26)         -1.355          estimate D2E/DX2                !
 ! D72   D(14,15,16,17)          3.721          estimate D2E/DX2                !
 ! D73   D(14,15,16,23)       -176.0169         estimate D2E/DX2                !
 ! D74   D(26,15,16,17)       -179.9004         estimate D2E/DX2                !
 ! D75   D(26,15,16,23)          0.3617         estimate D2E/DX2                !
 ! D76   D(14,15,26,12)          0.8993         estimate D2E/DX2                !
 ! D77   D(14,15,26,25)        176.8983         estimate D2E/DX2                !
 ! D78   D(16,15,26,12)       -175.9314         estimate D2E/DX2                !
 ! D79   D(16,15,26,25)          0.0676         estimate D2E/DX2                !
 ! D80   D(15,16,17,18)       -145.8562         estimate D2E/DX2                !
 ! D81   D(15,16,17,22)         35.6873         estimate D2E/DX2                !
 ! D82   D(23,16,17,18)         33.863          estimate D2E/DX2                !
 ! D83   D(23,16,17,22)       -144.5934         estimate D2E/DX2                !
 ! D84   D(15,16,23,24)         -0.4341         estimate D2E/DX2                !
 ! D85   D(15,16,23,72)       -179.1427         estimate D2E/DX2                !
 ! D86   D(17,16,23,24)        179.8241         estimate D2E/DX2                !
 ! D87   D(17,16,23,72)          1.1155         estimate D2E/DX2                !
 ! D88   D(16,17,18,19)       -178.0181         estimate D2E/DX2                !
 ! D89   D(16,17,18,67)          3.7696         estimate D2E/DX2                !
 ! D90   D(22,17,18,19)          0.4819         estimate D2E/DX2                !
 ! D91   D(22,17,18,67)       -177.7304         estimate D2E/DX2                !
 ! D92   D(16,17,22,21)        177.2795         estimate D2E/DX2                !
 ! D93   D(16,17,22,71)         -2.0527         estimate D2E/DX2                !
 ! D94   D(18,17,22,21)         -1.2107         estimate D2E/DX2                !
 ! D95   D(18,17,22,71)        179.4571         estimate D2E/DX2                !
 ! D96   D(17,18,19,20)          0.4441         estimate D2E/DX2                !
 ! D97   D(17,18,19,68)       -178.7373         estimate D2E/DX2                !
 ! D98   D(67,18,19,20)        178.6624         estimate D2E/DX2                !
 ! D99   D(67,18,19,68)         -0.5189         estimate D2E/DX2                !
 ! D100  D(18,19,20,21)         -0.652          estimate D2E/DX2                !
 ! D101  D(18,19,20,69)       -179.6269         estimate D2E/DX2                !
 ! D102  D(68,19,20,21)        178.5248         estimate D2E/DX2                !
 ! D103  D(68,19,20,69)         -0.4502         estimate D2E/DX2                !
 ! D104  D(19,20,21,22)         -0.0746         estimate D2E/DX2                !
 ! D105  D(19,20,21,70)       -179.4766         estimate D2E/DX2                !
 ! D106  D(69,20,21,22)        178.8989         estimate D2E/DX2                !
 ! D107  D(69,20,21,70)         -0.5031         estimate D2E/DX2                !
 ! D108  D(20,21,22,17)          1.0207         estimate D2E/DX2                !
 ! D109  D(20,21,22,71)       -179.6471         estimate D2E/DX2                !
 ! D110  D(70,21,22,17)       -179.5739         estimate D2E/DX2                !
 ! D111  D(70,21,22,71)         -0.2416         estimate D2E/DX2                !
 ! D112  D(16,23,24,25)          0.0821         estimate D2E/DX2                !
 ! D113  D(16,23,24,73)       -179.4561         estimate D2E/DX2                !
 ! D114  D(72,23,24,25)        178.7832         estimate D2E/DX2                !
 ! D115  D(72,23,24,73)         -0.7549         estimate D2E/DX2                !
 ! D116  D(23,24,25,26)          0.3686         estimate D2E/DX2                !
 ! D117  D(23,24,25,74)        179.6285         estimate D2E/DX2                !
 ! D118  D(73,24,25,26)        179.9034         estimate D2E/DX2                !
 ! D119  D(73,24,25,74)         -0.8367         estimate D2E/DX2                !
 ! D120  D(24,25,26,12)        174.1355         estimate D2E/DX2                !
 ! D121  D(24,25,26,15)         -0.4369         estimate D2E/DX2                !
 ! D122  D(74,25,26,12)         -5.1251         estimate D2E/DX2                !
 ! D123  D(74,25,26,15)       -179.6975         estimate D2E/DX2                !
 ! D124  D(7,27,28,29)          -0.7034         estimate D2E/DX2                !
 ! D125  D(7,27,28,76)         179.0934         estimate D2E/DX2                !
 ! D126  D(75,27,28,29)       -179.1644         estimate D2E/DX2                !
 ! D127  D(75,27,28,76)          0.6324         estimate D2E/DX2                !
 ! D128  D(27,28,29,5)          -3.5456         estimate D2E/DX2                !
 ! D129  D(27,28,29,30)        175.3951         estimate D2E/DX2                !
 ! D130  D(76,28,29,5)         176.6558         estimate D2E/DX2                !
 ! D131  D(76,28,29,30)         -4.4035         estimate D2E/DX2                !
 ! D132  D(5,29,30,2)          -10.7419         estimate D2E/DX2                !
 ! D133  D(5,29,30,31)         156.4894         estimate D2E/DX2                !
 ! D134  D(28,29,30,2)         170.3543         estimate D2E/DX2                !
 ! D135  D(28,29,30,31)        -22.4144         estimate D2E/DX2                !
 ! D136  D(2,30,31,32)         -77.5679         estimate D2E/DX2                !
 ! D137  D(2,30,31,60)         107.4075         estimate D2E/DX2                !
 ! D138  D(29,30,31,32)        116.1327         estimate D2E/DX2                !
 ! D139  D(29,30,31,60)        -58.8918         estimate D2E/DX2                !
 ! D140  D(30,31,32,33)          7.1605         estimate D2E/DX2                !
 ! D141  D(30,31,32,34)       -171.4225         estimate D2E/DX2                !
 ! D142  D(60,31,32,33)       -177.922          estimate D2E/DX2                !
 ! D143  D(60,31,32,34)          3.4951         estimate D2E/DX2                !
 ! D144  D(30,31,60,36)        174.6667         estimate D2E/DX2                !
 ! D145  D(30,31,60,59)         -6.8897         estimate D2E/DX2                !
 ! D146  D(32,31,60,36)         -0.7395         estimate D2E/DX2                !
 ! D147  D(32,31,60,59)        177.7041         estimate D2E/DX2                !
 ! D148  D(31,32,33,93)         45.3337         estimate D2E/DX2                !
 ! D149  D(34,32,33,93)       -136.0557         estimate D2E/DX2                !
 ! D150  D(31,32,34,35)         -3.635          estimate D2E/DX2                !
 ! D151  D(31,32,34,77)        177.9455         estimate D2E/DX2                !
 ! D152  D(33,32,34,35)        177.6713         estimate D2E/DX2                !
 ! D153  D(33,32,34,77)         -0.7483         estimate D2E/DX2                !
 ! D154  D(32,33,93,1)         -29.7105         estimate D2E/DX2                !
 ! D155  D(32,34,35,36)          0.8055         estimate D2E/DX2                !
 ! D156  D(32,34,35,78)       -178.5215         estimate D2E/DX2                !
 ! D157  D(77,34,35,36)        179.1281         estimate D2E/DX2                !
 ! D158  D(77,34,35,78)         -0.1988         estimate D2E/DX2                !
 ! D159  D(34,35,36,37)       -177.7416         estimate D2E/DX2                !
 ! D160  D(34,35,36,60)          2.0492         estimate D2E/DX2                !
 ! D161  D(78,35,36,37)          1.5972         estimate D2E/DX2                !
 ! D162  D(78,35,36,60)       -178.612          estimate D2E/DX2                !
 ! D163  D(35,36,37,38)       -177.7891         estimate D2E/DX2                !
 ! D164  D(35,36,37,79)          0.9905         estimate D2E/DX2                !
 ! D165  D(60,36,37,38)          2.4235         estimate D2E/DX2                !
 ! D166  D(60,36,37,79)       -178.7969         estimate D2E/DX2                !
 ! D167  D(35,36,60,31)         -2.0458         estimate D2E/DX2                !
 ! D168  D(35,36,60,59)        179.4279         estimate D2E/DX2                !
 ! D169  D(37,36,60,31)        177.746          estimate D2E/DX2                !
 ! D170  D(37,36,60,59)         -0.7804         estimate D2E/DX2                !
 ! D171  D(36,37,38,39)       -178.3769         estimate D2E/DX2                !
 ! D172  D(36,37,38,58)         -0.9986         estimate D2E/DX2                !
 ! D173  D(79,37,38,39)          2.8578         estimate D2E/DX2                !
 ! D174  D(79,37,38,58)       -179.764          estimate D2E/DX2                !
 ! D175  D(37,38,39,40)         58.6994         estimate D2E/DX2                !
 ! D176  D(37,38,39,44)       -125.785          estimate D2E/DX2                !
 ! D177  D(58,38,39,40)       -118.6753         estimate D2E/DX2                !
 ! D178  D(58,38,39,44)         56.8403         estimate D2E/DX2                !
 ! D179  D(37,38,58,59)         -2.0993         estimate D2E/DX2                !
 ! D180  D(37,38,58,91)       -179.9146         estimate D2E/DX2                !
 ! D181  D(39,38,58,59)        175.4088         estimate D2E/DX2                !
 ! D182  D(39,38,58,91)         -2.4066         estimate D2E/DX2                !
 ! D183  D(38,39,40,41)        174.1504         estimate D2E/DX2                !
 ! D184  D(38,39,40,80)         -3.8288         estimate D2E/DX2                !
 ! D185  D(44,39,40,41)         -1.6146         estimate D2E/DX2                !
 ! D186  D(44,39,40,80)       -179.5937         estimate D2E/DX2                !
 ! D187  D(38,39,44,43)       -173.722          estimate D2E/DX2                !
 ! D188  D(38,39,44,45)          7.7987         estimate D2E/DX2                !
 ! D189  D(40,39,44,43)          2.1265         estimate D2E/DX2                !
 ! D190  D(40,39,44,45)       -176.3528         estimate D2E/DX2                !
 ! D191  D(39,40,41,42)         -0.0425         estimate D2E/DX2                !
 ! D192  D(39,40,41,81)       -179.2345         estimate D2E/DX2                !
 ! D193  D(80,40,41,42)        177.9097         estimate D2E/DX2                !
 ! D194  D(80,40,41,81)         -1.2823         estimate D2E/DX2                !
 ! D195  D(40,41,42,43)          1.3114         estimate D2E/DX2                !
 ! D196  D(40,41,42,82)       -179.3968         estimate D2E/DX2                !
 ! D197  D(81,41,42,43)       -179.5011         estimate D2E/DX2                !
 ! D198  D(81,41,42,82)         -0.2092         estimate D2E/DX2                !
 ! D199  D(41,42,43,44)         -0.8411         estimate D2E/DX2                !
 ! D200  D(41,42,43,57)        177.6754         estimate D2E/DX2                !
 ! D201  D(82,42,43,44)        179.8677         estimate D2E/DX2                !
 ! D202  D(82,42,43,57)         -1.6158         estimate D2E/DX2                !
 ! D203  D(42,43,44,39)         -0.9391         estimate D2E/DX2                !
 ! D204  D(42,43,44,45)        177.7209         estimate D2E/DX2                !
 ! D205  D(57,43,44,39)       -179.8623         estimate D2E/DX2                !
 ! D206  D(57,43,44,45)         -1.2023         estimate D2E/DX2                !
 ! D207  D(42,43,57,46)       -176.5246         estimate D2E/DX2                !
 ! D208  D(42,43,57,56)          4.5356         estimate D2E/DX2                !
 ! D209  D(44,43,57,46)          2.1321         estimate D2E/DX2                !
 ! D210  D(44,43,57,56)       -176.8076         estimate D2E/DX2                !
 ! D211  D(39,44,45,46)        178.3903         estimate D2E/DX2                !
 ! D212  D(43,44,45,46)         -0.2594         estimate D2E/DX2                !
 ! D213  D(44,45,46,47)       -177.782          estimate D2E/DX2                !
 ! D214  D(44,45,46,57)          1.701          estimate D2E/DX2                !
 ! D215  D(45,46,47,48)          6.0043         estimate D2E/DX2                !
 ! D216  D(45,46,47,54)       -176.8507         estimate D2E/DX2                !
 ! D217  D(57,46,47,48)       -173.4114         estimate D2E/DX2                !
 ! D218  D(57,46,47,54)          3.7336         estimate D2E/DX2                !
 ! D219  D(45,46,57,43)         -2.4091         estimate D2E/DX2                !
 ! D220  D(45,46,57,56)        176.721          estimate D2E/DX2                !
 ! D221  D(47,46,57,43)        177.0825         estimate D2E/DX2                !
 ! D222  D(47,46,57,56)         -3.7874         estimate D2E/DX2                !
 ! D223  D(46,47,48,49)       -160.5551         estimate D2E/DX2                !
 ! D224  D(46,47,48,53)         22.996          estimate D2E/DX2                !
 ! D225  D(54,47,48,49)         22.5103         estimate D2E/DX2                !
 ! D226  D(54,47,48,53)       -153.9386         estimate D2E/DX2                !
 ! D227  D(46,47,54,55)         -1.0661         estimate D2E/DX2                !
 ! D228  D(46,47,54,88)       -179.0085         estimate D2E/DX2                !
 ! D229  D(48,47,54,55)        176.1498         estimate D2E/DX2                !
 ! D230  D(48,47,54,88)         -1.7926         estimate D2E/DX2                !
 ! D231  D(47,48,49,50)       -175.1646         estimate D2E/DX2                !
 ! D232  D(47,48,49,83)          6.6305         estimate D2E/DX2                !
 ! D233  D(53,48,49,50)          1.4134         estimate D2E/DX2                !
 ! D234  D(53,48,49,83)       -176.7915         estimate D2E/DX2                !
 ! D235  D(47,48,53,52)        175.4308         estimate D2E/DX2                !
 ! D236  D(47,48,53,87)         -3.7695         estimate D2E/DX2                !
 ! D237  D(49,48,53,52)         -1.1168         estimate D2E/DX2                !
 ! D238  D(49,48,53,87)        179.6829         estimate D2E/DX2                !
 ! D239  D(48,49,50,51)         -0.8769         estimate D2E/DX2                !
 ! D240  D(48,49,50,84)       -179.4754         estimate D2E/DX2                !
 ! D241  D(83,49,50,51)        177.35           estimate D2E/DX2                !
 ! D242  D(83,49,50,84)         -1.2486         estimate D2E/DX2                !
 ! D243  D(49,50,51,52)          0.0013         estimate D2E/DX2                !
 ! D244  D(49,50,51,85)       -178.871          estimate D2E/DX2                !
 ! D245  D(84,50,51,52)        178.5934         estimate D2E/DX2                !
 ! D246  D(84,50,51,85)         -0.2789         estimate D2E/DX2                !
 ! D247  D(50,51,52,53)          0.2909         estimate D2E/DX2                !
 ! D248  D(50,51,52,86)        179.6812         estimate D2E/DX2                !
 ! D249  D(85,51,52,53)        179.1575         estimate D2E/DX2                !
 ! D250  D(85,51,52,86)         -1.4522         estimate D2E/DX2                !
 ! D251  D(51,52,53,48)          0.284          estimate D2E/DX2                !
 ! D252  D(51,52,53,87)        179.4897         estimate D2E/DX2                !
 ! D253  D(86,52,53,48)       -179.1131         estimate D2E/DX2                !
 ! D254  D(86,52,53,87)          0.0926         estimate D2E/DX2                !
 ! D255  D(47,54,55,56)         -1.562          estimate D2E/DX2                !
 ! D256  D(47,54,55,89)       -179.7758         estimate D2E/DX2                !
 ! D257  D(88,54,55,56)        176.3865         estimate D2E/DX2                !
 ! D258  D(88,54,55,89)         -1.8273         estimate D2E/DX2                !
 ! D259  D(54,55,56,57)          1.6266         estimate D2E/DX2                !
 ! D260  D(54,55,56,90)       -178.0971         estimate D2E/DX2                !
 ! D261  D(89,55,56,57)        179.8254         estimate D2E/DX2                !
 ! D262  D(89,55,56,90)          0.1017         estimate D2E/DX2                !
 ! D263  D(55,56,57,43)        179.7218         estimate D2E/DX2                !
 ! D264  D(55,56,57,46)          0.8976         estimate D2E/DX2                !
 ! D265  D(90,56,57,43)         -0.5541         estimate D2E/DX2                !
 ! D266  D(90,56,57,46)       -179.3783         estimate D2E/DX2                !
 ! D267  D(38,58,59,60)          3.8092         estimate D2E/DX2                !
 ! D268  D(38,58,59,92)       -175.9851         estimate D2E/DX2                !
 ! D269  D(91,58,59,60)       -178.3839         estimate D2E/DX2                !
 ! D270  D(91,58,59,92)          1.8218         estimate D2E/DX2                !
 ! D271  D(58,59,60,31)        179.2058         estimate D2E/DX2                !
 ! D272  D(58,59,60,36)         -2.2911         estimate D2E/DX2                !
 ! D273  D(92,59,60,31)         -1.0028         estimate D2E/DX2                !
 ! D274  D(92,59,60,36)        177.5003         estimate D2E/DX2                !
 --------------------------------------------------------------------------------
 Trust Radius=3.00D-01 FncErr=1.00D-07 GrdErr=1.00D-06 EigMax=2.50D+02 EigMin=1.00D-04
 Number of steps in this run=    558 maximum allowed number of steps=    558.
 GradGradGradGradGradGradGradGradGradGradGradGradGradGradGradGradGradGrad

 Leave Link  103 at Mon Mar 31 12:33:05 2025, MaxMem= 13421772800 cpu:               0.7 elap:               0.0
 (Enter /public/software/apps/Gaussian/g16/l202.exe)
 Symmetry turned off by external request.
 Stoichiometry    C56H32CuO4(2)
 Framework group  C1[X(C56H32CuO4)]
 Deg. of freedom   273
 Full point group                 C1      NOp   1
                          Input orientation:                          
 ---------------------------------------------------------------------
 Center     Atomic      Atomic             Coordinates (Angstroms)
 Number     Number       Type             X           Y           Z
 ---------------------------------------------------------------------
      1          8           0       -6.572157    0.612700   -1.475151
      2          6           0       -5.443834    1.202374   -1.214322
      3          6           0       -4.950752    2.120045   -2.215024
      4          6           0       -3.798364    2.827265   -2.047416
      5          6           0       -3.046075    2.725502   -0.833607
      6          6           0       -1.858703    3.461277   -0.643905
      7          6           0       -1.135349    3.382993    0.540535
      8          6           0        0.152591    4.111458    0.681098
      9          6           0        0.313634    5.269005    1.456947
     10          6           0        1.550488    5.933449    1.550147
     11          6           0        2.677757    5.462162    0.873720
     12          6           0        2.553324    4.297368    0.106249
     13          6           0        1.301555    3.654774    0.034112
     14          8           0        1.377953    2.500652   -0.698856
     15          6           0        2.685113    2.358904   -1.090128
     16          6           0        3.204009    1.257702   -1.783540
     17          6           0        2.370957    0.126958   -2.255454
     18          6           0        2.887913   -1.181195   -2.277386
     19          6           0        2.124106   -2.245774   -2.758850
     20          6           0        0.830007   -2.024337   -3.237570
     21          6           0        0.301982   -0.729080   -3.217284
     22          6           0        1.058886    0.333781   -2.722201
     23          6           0        4.594695    1.299768   -1.998252
     24          6           0        5.396549    2.365940   -1.560261
     25          6           0        4.844519    3.452212   -0.878354
     26          6           0        3.466199    3.444106   -0.636332
     27          6           0       -1.636832    2.570300    1.584308
     28          6           0       -2.780913    1.813418    1.409721
     29          6           0       -3.502568    1.833258    0.186614
     30          6           0       -4.640511    0.971692   -0.034601
     31          6           0       -4.714652   -0.256662    0.809611
     32          6           0       -5.741598   -0.548458    1.778109
     33          8           0       -6.819276    0.165828    1.950985
     34          6           0       -5.573909   -1.687559    2.647044
     35          6           0       -4.513504   -2.536312    2.532900
     36          6           0       -3.500529   -2.321521    1.545546
     37          6           0       -2.426217   -3.230646    1.398494
     38          6           0       -1.413083   -3.009951    0.475331
     39          6           0       -0.288341   -3.950522    0.262409
     40          6           0       -0.468359   -5.289510   -0.121496
     41          6           0        0.617869   -6.126815   -0.433642
     42          6           0        1.932878   -5.659614   -0.375906
     43          6           0        2.148349   -4.335683    0.030007
     44          6           0        1.040322   -3.526104    0.344802
     45          8           0        1.438373   -2.286568    0.767596
     46          6           0        2.810028   -2.267796    0.741697
     47          6           0        3.616717   -1.192344    1.144494
     48          6           0        3.096273    0.042655    1.780362
     49          6           0        3.863281    1.223256    1.789556
     50          6           0        3.429381    2.360097    2.469145
     51          6           0        2.206733    2.357805    3.145357
     52          6           0        1.425620    1.200046    3.130588
     53          6           0        1.859916    0.057830    2.456095
     54          6           0        4.997136   -1.403518    0.952127
     55          6           0        5.522780   -2.593395    0.425959
     56          6           0        4.691934   -3.663147    0.088406
     57          6           0        3.313489   -3.496940    0.259593
     58          6           0       -1.488780   -1.853631   -0.340632
     59          6           0       -2.557444   -0.989140   -0.257706
     60          6           0       -3.593984   -1.168352    0.701079
     61          1           0       -5.561183    2.210934   -3.116727
     62          1           0       -3.442331    3.503914   -2.830782
     63          1           0       -1.501535    4.104798   -1.453252
     64          1           0       -0.555065    5.663634    1.991311
     65          1           0        1.624368    6.837288    2.161501
     66          1           0        3.637019    5.980534    0.955694
     67          1           0        3.889313   -1.374161   -1.886338
     68          1           0        2.539450   -3.256727   -2.746822
     69          1           0        0.230027   -2.860097   -3.608982
     70          1           0       -0.713253   -0.544572   -3.581471
     71          1           0        0.632962    1.338008   -2.706740
     72          1           0        5.060531    0.477353   -2.546097
     73          1           0        6.470348    2.342593   -1.766577
     74          1           0        5.471311    4.278599   -0.532796
     75          1           0       -1.092074    2.527464    2.529360
     76          1           0       -3.141647    1.181953    2.223983
     77          1           0       -6.363802   -1.843713    3.385583
     78          1           0       -4.426834   -3.406119    3.192021
     79          1           0       -2.392325   -4.113069    2.044711
     80          1           0       -1.489323   -5.671693   -0.208224
     81          1           0        0.423228   -7.158667   -0.739458
     82          1           0        2.771728   -6.313407   -0.629393
     83          1           0        4.801886    1.269248    1.234154
     84          1           0        4.041886    3.264586    2.451399
     85          1           0        1.861659    3.257825    3.661777
     86          1           0        0.467559    1.174901    3.657786
     87          1           0        1.236285   -0.834706    2.466641
     88          1           0        5.693266   -0.619848    1.255751
     89          1           0        6.605975   -2.687688    0.308217
     90          1           0        5.103642   -4.601349   -0.292628
     91          1           0       -0.701538   -1.666834   -1.071584
     92          1           0       -2.600754   -0.151453   -0.952352
     93         29           0       -7.391310    0.457714    0.200369
 ---------------------------------------------------------------------
 Rotational constants (GHZ):           0.0597302           0.0355960           0.0270280
 Leave Link  202 at Mon Mar 31 12:33:05 2025, MaxMem= 13421772800 cpu:               0.1 elap:               0.0
 (Enter /public/software/apps/Gaussian/g16/l301.exe)
 Standard basis: def2SVPP (5D, 7F)
 Ernie: Thresh=  0.10000D-02 Tol=  0.10000D-05 Strict=F.
   928 basis functions,  1699 primitive gaussians,   990 cartesian basis functions
   215 alpha electrons      214 beta electrons
       nuclear repulsion energy      9332.1376501558 Hartrees.
 IExCor=  402 DFT=T Ex+Corr=B3LYP ExCW=0 ScaHFX=  0.200000
 ScaDFX=  0.800000  0.720000  1.000000  0.810000 ScalE2=  1.000000  1.000000
 IRadAn=      5 IRanWt=     -1 IRanGd=            0 ICorTp=0 IEmpDi=141
 NAtoms=   93 NActive=   93 NUniq=   93 SFac= 1.00D+00 NAtFMM=   60 NAOKFM=T Big=T
 Integral buffers will be    131072 words long.
 Raffenetti 2 integral format.
 Two-electron integral symmetry is turned off.
 R6Disp:  Grimme-D3(BJ) Dispersion energy=       -0.2987540797 Hartrees.
 Nuclear repulsion after empirical dispersion term =     9331.8388960760 Hartrees.
 Leave Link  301 at Mon Mar 31 12:33:06 2025, MaxMem= 13421772800 cpu:               1.4 elap:               0.1
 (Enter /public/software/apps/Gaussian/g16/l302.exe)
 NPDir=0 NMtPBC=     1 NCelOv=     1 NCel=       1 NClECP=     1 NCelD=      1
         NCelK=      1 NCelE2=     1 NClLst=     1 CellRange=     0.0.
 One-electron integrals computed using PRISM.
   1 Symmetry operations used in ECPInt.
 ECPInt:  NShTT=   94395 NPrTT=  385042 LenC2=   76850 LenP2D=  187800.
 LDataN:  DoStor=T MaxTD1= 4 Len=   56
 NBasis=   928 RedAO= T EigKep=  1.88D-04  NBF=   928
 NBsUse=   928 1.00D-06 EigRej= -1.00D+00 NBFU=   928
 Precomputing XC quadrature grid using
 IXCGrd= 4 IRadAn=           5 IRanWt=          -1 IRanGd=           0 AccXCQ= 0.00D+00.
 Generated NRdTot=       0 NPtTot=           0 NUsed=           0 NTot=          32
 NSgBfM=   931   927   927   930   931 MxSgAt=    93 MxSgA2=    93.
 Leave Link  302 at Mon Mar 31 12:33:07 2025, MaxMem= 13421772800 cpu:              49.8 elap:               1.6
 (Enter /public/software/apps/Gaussian/g16/l303.exe)
 DipDrv:  MaxL=1.
 Leave Link  303 at Mon Mar 31 12:33:07 2025, MaxMem= 13421772800 cpu:               4.7 elap:               0.2
 (Enter /public/software/apps/Gaussian/g16/l401.exe)
 ExpMin= 3.30D-02 ExpMax= 7.64D+04 ExpMxC= 1.15D+04 IAcc=3 IRadAn=         5 AccDes= 0.00D+00
 Harris functional with IExCor=  402 and IRadAn=       5 diagonalized for initial guess.
 HarFok:  IExCor=  402 AccDes= 0.00D+00 IRadAn=         5 IDoV= 1 UseB2=F ITyADJ=14
 ICtDFT=  3500011 ScaDFX=  1.000000  1.000000  1.000000  1.000000
 FoFCou: FMM=F IPFlag=           0 FMFlag=      100000 FMFlg1=        2001
         NFxFlg=           0 DoJE=T BraDBF=F KetDBF=T FulRan=T
         wScrn=  0.000000 ICntrl=       500 IOpCl=  0 I1Cent=   200000004 NGrid=           0
         NMat0=    1 NMatS0=      1 NMatT0=    0 NMatD0=    1 NMtDS0=    0 NMtDT0=    0
 Symmetry not used in FoFCou.
 Harris En= -4093.11092485342    
 JPrj=0 DoOrth=F DoCkMO=F.
 Initial guess <Sx>= 0.0000 <Sy>= 0.0000 <Sz>= 0.5000 <S**2>= 0.7500 S= 0.5000
 Leave Link  401 at Mon Mar 31 12:33:11 2025, MaxMem= 13421772800 cpu:             117.3 elap:               3.7
 (Enter /public/software/apps/Gaussian/g16/l502.exe)
 Two-electron integral symmetry not used.
 UHF open shell SCF:
 Using DIIS extrapolation, IDIIS=  1040.
 NGot= 13421772800 LenX= 13419770968 LenY= 13418789878
 Requested convergence on RMS density matrix=1.00D-08 within 128 cycles.
 Requested convergence on MAX density matrix=1.00D-06.
 Requested convergence on             energy=1.00D-06.
 No special actions if energy rises.
 Fock matrices will be formed incrementally for  20 cycles.

 Cycle   1  Pass 1  IDiag  1:
 FoFJK:  IHMeth= 1 ICntrl=       0 DoSepK=F KAlg= 0 I1Cent=           0 FoldK=F
 IRaf= 960000000 NMat=       1 IRICut=       1 DoRegI=T DoRafI=F ISym2E= 0 IDoP0=0 IntGTp=1.
 FoFCou: FMM=T IPFlag=           0 FMFlag=      100000 FMFlg1=        2001
         NFxFlg=           0 DoJE=F BraDBF=F KetDBF=F FulRan=T
         wScrn=  0.000000 ICntrl=         0 IOpCl=  1 I1Cent=           0 NGrid=           0
         NMat0=    1 NMatS0=      1 NMatT0=    0 NMatD0=    1 NMtDS0=    0 NMtDT0=    0
 Symmetry not used in FoFCou.
 FMM levels:  10  Number of levels for PrismC:   9
 E= -4058.33502071572    
 DIIS: error= 2.64D-01 at cycle   1 NSaved=   1.
 NSaved= 1 IEnMin= 1 EnMin= -4058.33502071572     IErMin= 1 ErrMin= 2.64D-01
 ErrMax= 2.64D-01  0.00D+00 EMaxC= 1.00D-01 BMatC= 9.59D+01 BMatP= 9.59D+01
 IDIUse=3 WtCom= 0.00D+00 WtEn= 1.00D+00
 Coeff-Com:  0.100D+01
 Coeff-En:   0.100D+01
 Coeff:      0.100D+01
 Gap=    -2.515 Goal=   None    Shift=    0.000
 Gap=    -1.364 Goal=   None    Shift=    0.000
 GapD=   -2.515 DampG=0.250 DampE=0.125 DampFc=0.1250 IDamp=-1.
 Damping current iteration by 1.25D-01
 RMSDP=3.56D-01 MaxDP=8.84D+01              OVMax= 9.94D-01

 Cycle   2  Pass 1  IDiag  1:
 RMSU=  4.44D-02    CP:  1.23D+00
 E= -4065.06515173635     Delta-E=       -6.730131020637 Rises=F Damp=T
 DIIS: error= 1.84D-01 at cycle   2 NSaved=   2.
 NSaved= 2 IEnMin= 2 EnMin= -4065.06515173635     IErMin= 2 ErrMin= 1.84D-01
 ErrMax= 1.84D-01  0.00D+00 EMaxC= 1.00D-01 BMatC= 3.95D+01 BMatP= 9.59D+01
 IDIUse=3 WtCom= 0.00D+00 WtEn= 1.00D+00
 Coeff-Com: -0.537D+00 0.154D+01
 Coeff-En:   0.227D+00 0.773D+00
 Coeff:      0.227D+00 0.773D+00
 Gap=    -0.090 Goal=   None    Shift=    0.000
 Gap=     0.133 Goal=   None    Shift=    0.000
 RMSDP=4.58D-02 MaxDP=9.64D+00 DE=-6.73D+00 OVMax= 9.95D-01

 Cycle   3  Pass 1  IDiag  1:
 RMSU=  2.78D-02    CP:  9.24D-01  1.88D-01
 E= -3897.00908617329     Delta-E=      168.056065563062 Rises=F Damp=F
 DIIS: error= 1.65D-01 at cycle   3 NSaved=   3.
 NSaved= 3 IEnMin= 2 EnMin= -4065.06515173635     IErMin= 3 ErrMin= 1.65D-01
 ErrMax= 1.65D-01  0.00D+00 EMaxC= 1.00D-01 BMatC= 2.58D+02 BMatP= 3.95D+01
 IDIUse=2 WtCom= 0.00D+00 WtEn= 1.00D+00
 EnCoef did     5 forward-backward iterations
 Coeff-En:   0.127D+00 0.709D+00 0.164D+00
 Coeff:      0.127D+00 0.709D+00 0.164D+00
 Gap=    -0.901 Goal=   None    Shift=    0.000
 Gap=     0.020 Goal=   None    Shift=    0.000
 RMSDP=2.93D-02 MaxDP=4.81D+00 DE= 1.68D+02 OVMax= 9.89D-01

 Cycle   4  Pass 1  IDiag  1:
[...]
 00001458,-0.00000207,-0.00000452,0.00000866,0.00001481,0.00000992,-0.0
 0002333,-0.00001531,-0.00000926,0.00000282,0.00008981,0.00005658,0.000
 08613,-0.00006639,-0.00006675,-0.00007913,0.00000037,0.00002034,0.0000
 1360,0.00004735,0.00001487,0.00002770,-0.00000063,-0.00001011,-0.00003
 224,0.00001571,0.00001025,-0.00004479,-0.00001222,-0.00002773,-0.00001
 759,-0.00005029,-0.00004760,0.00021610,-0.00005336,0.00014487,-0.00006
 867,0.00008200,-0.00000753,0.00000576,-0.00001944,-0.00000919,0.000003
 84,-0.00001416,-0.00001296,-0.00002629,-0.00000912,-0.00000397,0.00002
 049,0.00001809,0.00001108,0.00011917,0.00025406,0.00015803,0.00033290,
 -0.00022632,-0.00010174,0.00219571,-0.00346893,-0.00205236,0.00290643,
 -0.00133880,-0.00159106,0.00045724,-0.00222840,-0.00067489,-0.00032232
 ,-0.00010477,0.00015117,0.00005085,0.00007455,0.00008013,-0.00005403,0
 .00012264,-0.00013761,0.00028460,-0.00013604,0.00001324,0.00087589,0.0
 0206612,0.00188881,-0.00029964,0.00031908,-0.00050228,0.00510090,0.001
 74743,0.00154476,-0.00040226,-0.00030692,0.00041584,0.00015089,0.00000
 869,0.00002566,-0.00000298,-0.00002934,-0.00003482,0.00000418,-0.00006
 346,-0.00001771,-0.00002740,0.00007090,-0.00000376,0.00003420,-0.00013
 987,-0.00008142,0.00001743,0.00009322,0.00000752,-0.00002526,0.0000131
 9,-0.00000089,0.00000274,0.00000707,-0.00000045,-0.00000040,0.00000194
 ,-0.00000055,0.00000187,0.00000287,-0.00000028,0.00000225,-0.00000025,
 -0.00000161,0.00000071,-0.00000556,0.00000120,-0.00000370,0.00000007,0
 .00001028,-0.00000050,-0.00000071,0.00000053,0.00000954,0.00000690,-0.
 00000225,0.00000290,0.00000318,-0.00000358,0.00000500,0.00000199,-0.00
 000201,-0.00000683,-0.00002303,-0.00000681,0.00083035,-0.01149768,0.01
 325624,0.01137681,-0.21807968,0.14999756,-0.00056019,0.00001123,0.0023
 2676,-0.00005173,0.00002083,0.00000779,-0.00000079,0.00002014,-0.00001
 786,0.00001689,-0.00000799,-0.00002078,-0.00000139,-0.00000837,-0.0000
 0446,0.00000422,0.00000197,0.00000042,0.00000166,0.00000102,-0.0000002
 3,-0.00000983,-0.00000096,0.00000132,-0.00001601,0.00000961,-0.0000015
 0,0.00001869,-0.00002411,0.00001090,-0.00005103,0.00005358,-0.00022720
 ,0.00000640,-0.00001619,0.00000727,0.00000892,0.00000073,-0.00000071,-
 0.00000205,-0.00000320,-0.00000080,-0.00000097,-0.00000189,0.00000085,
 0.00000926,-0.00001265,0.00000597,0.00003799,-0.00005335,0.00000915,-0
 .00000424,0.00001040,0.00001211,-0.00001128,0.00002929,0.00004717,-0.0
 0027109,-0.00033004,-0.00031453,-0.00002550,-0.00000256,0.00000870,0.0
 0001507,-0.00001207,-0.00000719,0.00000282,-0.00000321,0.00000152,0.00
 000288,-0.00000123,0.00000120,-0.00000050,0.00000126,0.00000020,-0.000
 00174,-0.00000203,-0.00000262,0.00000419,0.00000266,-0.00000934,-0.000
 00193,-0.00000258,0.00000112,0.,-0.00000016,0.00000233,0.00000235,0.00
 000012,0.00000148,-0.00000033,-0.00000244,0.00000208,-0.00179452,-0.00
 086969,-0.00218363,-0.02089934,0.23479319,0.00007944,-0.00003759,-0.00
 002848,-0.00044489,0.00012157,-0.00002305,-0.00003872,-0.00034093,-0.0
 0019172,0.00025722,0.00007799,0.00015421,-0.00029934,0.00011837,0.0006
 3865,-0.00007767,-0.00011785,-0.00010382,0.00000306,-0.00017021,0.0001
 2231,-0.00007977,-0.00001593,-0.00001173,0.00003197,-0.00001179,-0.000
 02050,0.00001884,0.00000127,-0.00000062,0.00000962,0.00001690,0.000012
 17,-0.00001404,-0.00001320,-0.00001068,0.00000664,0.00005121,0.0000420
 2,0.00012320,-0.00003912,-0.00007694,-0.00012244,0.00000944,0.00003346
 ,0.00001700,0.00003651,0.00000912,-0.00001935,0.00003544,-0.00001778,-
 0.00003852,-0.00001747,-0.00001175,0.00001420,0.00000910,-0.00002243,-
 0.00004939,-0.00009567,0.00000725,0.00005261,-0.00002486,0.00017369,0.
 00000103,0.00007492,0.00000004,0.00000407,-0.00001707,-0.00000752,0.00
 000732,-0.00001239,-0.00000929,-0.00002234,-0.00000742,-0.00000337,0.0
 0002794,0.00002537,0.00001317,0.00003605,0.00019387,-0.00005344,-0.000
 48800,0.00001273,-0.00068219,0.00061909,-0.00001322,0.00041754,0.00124
 934,-0.00052654,0.00012886,-0.00143658,-0.00133883,-0.00039162,0.00008
 660,0.00021498,-0.00041533,-0.00008048,0.00000493,0.00020829,0.0000012
 0,-0.00000019,-0.00013834,-0.00020680,0.00093605,-0.00034501,0.0049438
 3,0.00052083,0.00053544,-0.00009698,-0.00075177,0.00008171,0.00303544,
 0.00181463,0.00414329,-0.00021005,-0.00000959,0.00005253,0.00000673,-0
 .00001065,-0.00005984,-0.00004040,-0.00001957,0.00002202,0.00000266,-0
 .00001134,-0.00000415,-0.00000661,0.00002729,0.00000845,0.00010149,0.0
 0011098,-0.00001845,-0.00007309,-0.00005393,-0.00003581,0.00003507,-0.
 00000534,-0.00001791,-0.00000518,0.00002476,0.00001110,-0.00001172,0.0
 0001133,0.00000937,0.00000638,-0.00000097,-0.00000054,0.00000600,-0.00
 000046,-0.00000326,0.00000092,-0.00001639,-0.00000035,0.00000086,-0.00
 000556,0.00001648,0.00001181,-0.00000011,0.00000266,-0.00000247,-0.000
 00538,-0.00000120,-0.00000514,-0.00000601,-0.00000490,0.00001299,-0.00
 000925,-0.00000405,-0.00000856,0.00000723,0.00000661,0.00248231,-0.002
 02007,0.00584969,-0.00084504,0.14825789,-0.16683572,-0.00303566,0.0166
 3190,-0.00771089,-0.00002403,0.00000022,0.00000513,-0.00001913,0.00002
 488,-0.00002883,0.00001210,0.00002828,-0.00001225,-0.00000304,-0.00000
 922,-0.00000454,0.00000552,0.00000384,0.00000139,0.00000314,0.00000225
 ,-0.00000035,-0.00000587,0.00000110,0.00000025,-0.00001161,0.00000397,
 -0.00000095,0.00000610,0.00000012,0.00000717,-0.00007264,0.00003711,-0
 .00009986,0.00000045,-0.00001538,0.00005003,0.00000824,-0.00000018,-0.
 00000261,0.00000015,-0.00000232,-0.00000140,0.00000015,-0.00000070,0.0
 0000127,0.00002795,0.00000205,0.00000893,0.00004166,-0.00005434,-0.000
 02940,0.00002682,0.00000651,0.00001817,0.00021654,0.00004429,-0.000208
 14,-0.00033957,-0.00023793,-0.00044475,-0.00001847,0.00000293,-0.00001
 378,0.00000312,-0.00000069,0.00000158,-0.00000149,0.00000154,-0.000005
 48,0.00000270,0.00000204,-0.00000122,-0.00000138,0.00000050,-0.0000017
 0,-0.00000244,-0.00000192,-0.00000470,0.00000453,0.00000419,-0.0000173
 8,-0.00000318,0.00000985,-0.00000173,-0.00000392,0.00000037,0.00000025
 ,0.00000002,-0.00000101,-0.00000040,0.00000113,-0.00000100,0.00000108,
 -0.00190814,-0.00211136,-0.00194779,-0.00349025,-0.16147279,0.16732707
 ,-0.00968896,0.00332236,0.04015314,-0.03293750,-0.01296859,0.01200980,
 0.00297722,-0.00061553,-0.00142373,-0.00114238,-0.00041059,-0.00074642
 ,0.00138475,0.00057589,0.00064839,-0.00135188,-0.00041358,-0.00084555,
 0.00044234,-0.00021957,0.00116077,-0.00020634,-0.00010884,0.00000895,0
 .00007390,-0.00000222,-0.00000827,0.00003019,-0.00000366,-0.00000575,0
 .00001334,0.00003456,0.00002058,-0.00000387,-0.00002741,-0.00003074,0.
 00004349,0.00008676,0.00000952,0.00012044,-0.00002548,-0.00004109,-0.0
 0013055,0.00000870,0.00003650,0.00000779,-0.00001800,-0.00001068,-0.00
 000781,-0.00001218,-0.00000491,0.00000897,-0.00000041,-0.00000399,-0.0
 0000113,0.00000195,-0.00001065,0.00002413,0.00002947,-0.00001153,0.000
 00068,0.00000050,-0.00003453,0.00000418,0.00000569,-0.00001511,0.00000
 454,0.00000179,-0.00000365,-0.00000058,-0.00000186,-0.00000231,-0.0000
 0720,-0.00000766,-0.00000515,0.00002098,0.00003975,0.00002207,0.000350
 81,0.00051228,-0.00004774,0.00000198,0.00004330,0.00024210,-0.00053083
 ,-0.00302215,-0.00226980,-0.00031554,-0.00324452,0.00805790,-0.0009912
 0,0.00521858,-0.00741189,-0.02342527,0.01342983,-0.01273425,-0.0014785
 4,-0.00310177,-0.02775832,0.00176166,0.00025134,0.00105196,-0.00081689
 ,0.00019236,0.00050154,0.00106716,-0.00027702,-0.00041622,-0.00110473,
 0.00023084,0.00033115,0.00058449,0.00024283,-0.00060952,-0.00021712,0.
 00015666,0.00004817,0.00007551,-0.00004848,0.00002365,0.00000094,0.000
 00761,0.00000764,0.00002182,-0.00003646,-0.00001327,0.00000525,0.00003
 891,0.00000430,0.00004203,-0.00005140,-0.00003699,0.00014526,0.0000046
 3,0.00001034,-0.00014054,0.00000193,0.00000083,0.00001407,0.00001041,0
 .00000622,-0.00000421,0.00000786,0.00000433,0.00000966,0.00000005,0.00
 000344,0.00000489,-0.00000354,0.00000574,0.00001043,-0.00002210,0.0000
 0270,-0.00000456,-0.00000453,0.00003010,0.00000955,-0.00000967,0.00000
 959,0.00000530,0.00000112,0.00000241,-0.00000013,0.00000110,0.00000320
 ,-0.00000520,0.00001039,0.00000470,0.00001112,-0.00004622,-0.00001241,
 0.00015290,-0.00027808,-0.00004638,0.00018126,-0.00021958,-0.00011922,
 -0.00000869,0.00208315,0.00227979,0.00006702,-0.00014390,0.00010857,-0
 .00011125,0.00037786,0.00011671,0.00002299,0.00003938,-0.00003746,-0.0
 0001076,-0.00002689,-0.00001004,0.00001177,0.00001506,0.00000906,0.000
 01221,0.00000203,-0.00000081,0.00000242,-0.00000148,0.00000670,0.00000
 096,-0.00000611,0.00001013,-0.00000845,0.00000143,0.00001498,0.0000031
 7,0.00000414,0.00003450,-0.00001867,-0.00001137,0.00001340,-0.00000253
 ,-0.00000594,0.00000099,0.00001075,-0.00000248,-0.00000111,0.00000159,
 0.00000562,0.00000625,0.00005489,-0.00002472,0.00000709,-0.00005047,0.
 00006312,-0.00001505,0.00005145,0.00006025,-0.00001202,-0.00004680,-0.
 00025202,-0.00012881,-0.00000221,-0.00006552,0.00000846,-0.00000467,0.
 00002105,0.00001038,0.00000625,-0.00001799,-0.00000954,0.00001152,-0.0
 0000350,-0.00000172,0.00000106,0.00000161,-0.00000761,-0.00000093,0.00
 000707,-0.00000826,-0.00000907,0.00000203,-0.00001044,0.00000326,0.000
 00320,-0.00003444,-0.00001511,0.00000958,-0.00001249,-0.00000168,0.000
 00614,-0.00000111,0.00001054,0.00000168,-0.00000216,-0.00000072,-0.000
 00667,-0.00000478,0.00001343,-0.00000762,0.00003263,-0.00003419,-0.000
 03055,0.00001115,0.06494081,0.00120441,-0.00742061,0.00863760,-0.01044
 102,-0.00336101,0.00454063,-0.00117874,0.00098678,0.00019248,-0.000842
 55,-0.00053287,-0.00041679,0.00043311,0.00012888,0.00035074,-0.0005769
 5,-0.00028969,-0.00034160,0.00011099,-0.00012167,0.00053864,-0.0000738
 4,-0.00002878,0.00001943,0.00001057,0.00000287,0.00000891,0.00002103,-
 0.00000825,-0.00000372,0.00001099,0.00001636,0.00001558,-0.00002437,-0
 .00001536,-0.00001009,0.00001107,0.00010096,0.00003912,0.00007104,-0.0
 0007855,-0.00005677,-0.00007924,-0.00000462,0.00000992,0.00001296,0.00
 002556,0.00001130,0.00001182,0.00001141,0.00000245,-0.00000784,-0.0000
 0907,-0.00000016,0.00000395,-0.00000722,0.00000756,-0.00000789,-0.0000
 0727,0.00001375,-0.00001229,-0.00001177,0.00001308,-0.00000648,0.00002
 228,0.00000685,0.00001155,-0.00001517,-0.00000225,0.00000681,-0.000016
 11,-0.00000767,-0.00001877,-0.00000690,0.00000165,0.00001412,0.0000195
 2,0.00001481,0.00032071,0.00006181,-0.00000719,0.00003739,-0.00000934,
 -0.00016236,-0.00078123,-0.00032363,0.00029324,0.00047787,0.00103444,-
 0.00075174,0.00011257,0.00139563,-0.00001887,0.01228073,-0.00746311,0.
 00654099,-0.00193513,-0.00679108,0.01640161,0.00126189,0.00030870,0.00
 053055,0.00065619,-0.00062196,-0.00026969,-0.00048044,0.00017689,0.000
 14590,0.00056634,-0.00028397,-0.00017958,-0.00027269,-0.00015719,0.000
 35264,0.00011381,-0.00008747,0.00000938,-0.00002578,0.00002712,-0.0000
 1007,-0.00001252,-0.00000862,-0.00000583,-0.00001473,0.00002905,0.0000
 1278,0.00001697,-0.00002870,-0.00000506,0.00000582,0.00011782,0.000043
 49,-0.00014169,-0.00008502,-0.00003258,0.00011665,-0.00001593,-0.00001
 328,-0.00000985,0.00002788,0.00001557,-0.00000971,0.00001157,0.0000014
 7,0.00000698,-0.00000816,-0.00000163,0.00000278,-0.00000247,-0.0000006
 3,0.00000212,-0.00000777,0.00000145,-0.00000731,-0.00001195,0.00001235
 ,0.00001395,0.00001321,0.00000002,-0.00001431,-0.00001522,0.00000037,-
 0.00001160,-0.00001569,-0.00000404,0.00001956,-0.00001318,-0.00000463,
 -0.00001054,0.00003893,0.00001313,-0.00023687,0.00004871,-0.00001013,-
 0.00008211,0.00013062,-0.00014214,0.00071125,-0.00062921,0.00025782,0.
 00002247,0.00007798,-0.00003977,0.00002658,-0.00015825,-0.00006006,-0.
 00000560,-0.00000918,-0.00001321,-0.00000190,-0.00000977,-0.00001216,-
 0.00000025,0.00000213,-0.00000286,0.00000247,0.00000348,-0.00000277,-0
 .00000014,0.00000288,-0.00000426,0.00000582,-0.00000303,-0.00000615,0.
 00000268,-0.00000929,-0.00001364,-0.00000079,0.00001753,-0.00001082,-0
 .00000225,-0.00000330,0.00000324,0.00000538,0.00000046,-0.00000557,0.0
 0000076,-0.00000018,-0.00000320,-0.00000162,0.00000072,-0.00000085,0.0
 0000604,0.00002053,0.00000657,-0.00001571,0.00009575,0.00010129,0.0000
 1032,0.00009432,0.00002435,-0.00000483,-0.00009184,-0.00006422,0.00001
 150,-0.00000003,-0.00001000,-0.00000165,-0.00001417,-0.00000537,-0.000
 00119,0.00000323,0.00000257,-0.00000546,0.00000302,0.00000017,-0.00000
 047,0.00000382,-0.00000259,-0.00000616,-0.00000325,-0.00000244,-0.0000
 0330,-0.00000631,-0.00000841,0.00000537,0.00001256,-0.00001139,0.00000
 264,0.00000392,0.00001062,-0.00000715,-0.00000030,-0.00000300,-0.00000
 423,-0.00000102,-0.00000164,0.00000170,0.00000172,0.00000024,0.0000039
 1,0.00002436,-0.00001308,-0.00002047,0.00003125,0.00011198,-0.00136596
 ,0.02368781,0.03591529,-0.00108300,-0.10416891,0.03158354,0.01592885,0
 .00008912,-0.00504061,-0.00159399,0.00287682,0.00250758,0.00083901,0.0
 0132874,-0.00170064,-0.00024777,-0.00133788,0.00144758,0.00066345,0.00
 085328,-0.00041971,0.00027940,-0.00131194,0.00008164,0.00006620,-0.000
 01562,-0.00002717,-0.00000743,-0.00001143,-0.00000609,0.00000006,-0.00
 000361,-0.00000355,-0.00000831,-0.00000689,0.00000298,0.00001013,0.000
 01059,-0.00002858,-0.00002878,0.00002346,-0.00000182,-0.00000223,-0.00
 000922,0.00000928,-0.00000259,0.00000171,-0.00000125,0.00000578,0.0000
 0277,0.00000207,0.00000155,0.00000082,-0.00000362,0.00000157,-0.000000
 85,-0.00000396,-0.00000024,-0.00000524,-0.00000106,0.00000560,-0.00000
 666,0.00002688,-0.00000199,0.00000122,-0.00000799,-0.00000597,-0.00000
 802,0.00000059,0.00000079,-0.00000184,-0.00000107,-0.00000102,-0.00000
 296,-0.00000317,0.00000193,-0.00000215,-0.00000047,-0.00000339,-0.0000
 0451,-0.00062553,-0.00062811,0.00015616,0.00012263,-0.00004165,0.00025
 082,0.00020377,0.00074301,-0.00078610,0.00000743,-0.00304037,-0.005408
 51,0.00106566,-0.00141175,-0.00631551,-0.03384660,0.02124078,-0.003620
 56,-0.02247423,0.00555217,-0.11488245,0.00455186,-0.00285998,0.0032872
 1,-0.00269816,0.00084837,0.00116029,0.00200443,-0.00038889,-0.00101181
 ,-0.00181751,0.00070846,0.00069800,0.00095316,0.00050542,-0.00114399,-
 0.00012648,0.00014535,0.00003517,0.00001852,-0.00007387,0.00002963,-0.
 00003731,0.00000766,-0.00000786,0.00002025,-0.00000021,-0.00000422,0.0
 0000141,0.00001599,0.00000159,0.00005038,0.00002074,-0.00002412,0.0000
 2583,-0.00001347,-0.00000544,-0.00002349,-0.00000517,0.00000389,0.0000
 0308,0.00000351,0.00000174,-0.00000040,0.00000119,0.00000079,0.0000010
 3,0.00000117,-0.00000096,0.00000080,0.00000063,-0.00000294,0.00000058,
 0.00000341,-0.00000436,-0.00001154,0.00000386,-0.00000013,-0.00000069,
 -0.00000575,-0.00000576,-0.00000015,0.00000259,-0.00000200,0.00000157,
 0.00000004,-0.00000261,0.00000037,0.00000005,-0.00000190,0.00000465,-0
 .00000719,-0.00000341,0.00049270,-0.00064138,0.00008617,-0.00002523,-0
 .00010118,0.00009054,-0.00007464,0.00142667,-0.00022332,0.00003454,0.0
 0020102,-0.00023682,0.00008359,-0.00037155,-0.00012729,0.00001498,0.00
 000256,0.00002149,0.00000297,0.00000486,0.00000565,-0.00000295,-0.0000
 0455,0.00000004,-0.00000090,-0.00000126,0.00000154,-0.00000261,-0.0000
 0047,0.00000143,-0.00000231,0.00000168,0.00000272,0.00000215,-0.000003
 85,0.00000536,-0.00000293,-0.00000098,0.00000362,0.00000492,0.00000342
 ,0.00000440,0.00000118,-0.00000042,0.00000146,-0.00000079,-0.00000070,
 0.00000156,-0.00000017,-0.00000143,0.00000080,-0.00005627,0.00001282,0
 .00001280,-0.00003216,0.00000461,-0.00002620,0.00001361,0.00029734,-0.
 00027474,-0.00007106,-0.00035732,-0.00023158,-0.00003017,-0.00000363,0
 .00001443,-0.00000057,-0.00000784,0.00000999,0.00000082,-0.00000201,-0
 .00000180,0.00000077,-0.00000169,0.00000392,0.00000223,-0.00000088,0.0
 0000140,0.00000241,0.00000046,0.00000193,0.00000040,-0.00000188,0.0000
 0469,0.00000155,-0.00000483,0.00000570,-0.00000267,0.00000161,0.000002
 66,0.00000028,-0.00000051,0.00000174,0.00000067,-0.00000043,0.00000119
 ,0.00000061,-0.00000098,0.00000120,0.00002946,-0.00001372,0.00003121,0
 .00002821,-0.00001682,-0.00003251,-0.01211461,-0.03656231,0.23015316\\
 -0.00000012,-0.00000749,-0.00000047,0.00000814,0.00000543,0.00000717,-
 0.00000183,-0.00000006,0.00000019,0.00000139,0.00000008,-0.00000016,-0
 .00000288,-0.00000305,0.00000008,0.00000319,-0.00000028,0.00000204,-0.
 00000219,0.00000289,-0.00000621,-0.00000250,0.00000105,0.00000305,0.00
 000227,0.00000050,0.00000030,-0.00000192,-0.00000099,0.00000045,-0.000
 00030,0.00000029,-0.00000293,0.00000108,0.00000158,0.00000457,0.000001
 62,-0.00000245,-0.00000009,-0.00000408,-0.00000060,-0.00000063,0.00000
 439,0.00000562,0.00000328,-0.00000808,-0.00001179,-0.00000521,0.000006
 60,0.00000983,0.00000178,-0.00000288,-0.00000144,0.00000325,0.00000230
 ,0.00000311,-0.00000222,-0.00000368,-0.00000038,-0.00000222,0.00000044
 ,-0.00000230,0.00000094,0.00000244,-0.00000057,0.00000077,0.,0.0000028
 3,0.00000162,-0.00000015,-0.00000085,-0.00000055,0.00000335,0.00000160
 ,0.00000734,-0.00000202,-0.00000305,-0.00000753,0.00000093,-0.00000184
 ,0.00000158,0.00000142,-0.00000271,-0.00000137,-0.00000009,-0.00000354
 ,-0.00000131,-0.00000317,0.00000273,-0.00000246,0.00000010,-0.00000163
 ,-0.00000566,-0.00000769,0.00000129,-0.00000074,0.00000977,-0.00000268
 ,0.00000018,0.00000301,-0.00000056,0.00000132,-0.00000220,0.00000047,0
 .00000003,0.00000322,-0.00000186,-0.00000165,-0.00000217,0.00000260,0.
 00000103,-0.00000019,-0.00000187,0.00000326,-0.00000366,0.00000082,-0.
 00000132,0.00000305,-0.00000257,-0.00000134,-0.00000137,0.00000179,0.0
 0000008,0.00000092,0.00000018,0.00000155,0.00000049,0.00000154,-0.0000
 0655,0.00000237,-0.00000174,0.00000026,0.00000079,0.00000142,0.0000021
 9,-0.00000166,-0.00000188,-0.00000208,-0.00000031,0.00000666,-0.000000
 16,-0.00000097,-0.00000485,-0.00000098,-0.00000162,0.00000018,-0.00000
 063,0.00000065,-0.00000023,-0.00000016,-0.00000077,0.00000211,0.000000
 81,-0.00000035,-0.00000016,-0.00000135,0.00000118,-0.00000032,0.000000
 03,-0.00000059,-0.00000071,-0.00000024,0.00000028,0.00000159,0.0000009
 0,-0.00000058,-0.00000093,-0.00000213,0.00000308,-0.00000126,0.0000080
 7,0.00000165,0.00000056,-0.00000161,0.00000063,0.00000412,0.00000036,-
 0.00000088,0.00000034,0.00000308,-0.00000003,-0.00000003,-0.00000001,-
 0.00000038,0.00000041,0.00000008,-0.00000113,0.00000037,-0.00000031,-0
 .00000030,0.00000023,0.,-0.00000018,0.00000002,0.00000026,-0.00000067,
 0.00000078,0.00000069,0.00000095,-0.00000158,-0.00000300,0.00000104,-0
 .00000009,0.00000358,0.00000127,0.00000036,-0.00000039,0.00000006,0.00
 000171,0.00000008,-0.00000174,0.00000005,-0.00000008,0.00000144,0.0000
 0152,0.,-0.00000015,-0.00000125,0.00000011,-0.00000152,0.00000139,-0.0
 0000145,-0.00000063,-0.00000021,0.00000015,0.00000003,-0.00000045,0.00
 000056,-0.00000010,-0.00000013,-0.00000002,-0.00000026,-0.00000060,-0.
 00000020,-0.00000021,-0.00000066,-0.00000051,0.00000013,-0.00000027,0.
 00000031,0.00000074,-0.00000023,0.00000013,-0.00000018,-0.00000007,-0.
 00000051,0.00000176,0.00000048,0.00000225,-0.00000036,-0.00000102,-0.0
 0000044,0.00000001,-0.00000028,0.00000059,-0.00000085,-0.00000084,0.00
 000072,-0.00000094,0.00000026,0.00000017,0.00000042,0.00000018,0.,0.00
 000014,0.00000098,0.,0.00000012,0.00000024,0.00000080,-0.00000060,-0.0
 0000049,-0.00000024,-0.00000114,0.00000141,-0.00000042,-0.00000663,0.0
 0000122,-0.00000451\\\@
 The archive entry for this job was punched.


 THE MORE PROGRESS PHYSICAL SCIENCES MAKE, THE MORE THEY TEND TO ENTER
 THE DOMAIN OF MATHEMATICS, WHICH IS A KIND OF CENTRE TO WHICH THEY ALL
 CONVERGE.  WE MAY EVEN JUDGE THE DEGREE OF PERFECTION TO WHICH A 
 SCIENCE HAS ARRIVED BY THE FACILITY WITH WHICH IT MAY BE SUBMITTED
 TO CALCULATION.

                               -- ADOLPHE QUETELET, 1796-1874
 Job cpu time:       4 days  5 hours 44 minutes 12.1 seconds.
 Elapsed time:       0 days  3 hours 11 minutes 38.5 seconds.
 File lengths (MBytes):  RWF=  17455 Int=      0 D2E=      0 Chk=    100 Scr=      1
 Normal termination of Gaussian 16 at Mon Mar 31 17:01:50 2025.
