 Entering Gaussian System, Link 0=g16
 Initial command:
 /public/software/apps/Gaussian/g16/l1.exe "/tmp/Gau-26757.inp" -scrdir="/tmp/"
 Entering Link 1 = /public/software/apps/Gaussian/g16/l1.exe PID=     26758.
  
 Copyright (c) 1988-2019, Gaussian, Inc.  All Rights Reserved.
  
 This is part of the Gaussian(R) 16 program.  It is based on
 the Gaussian(R) 09 system (copyright 2009, Gaussian, Inc.),
 the Gaussian(R) 03 system (copyright 2003, Gaussian, Inc.),
 the Gaussian(R) 98 system (copyright 1998, Gaussian, Inc.),
 the Gaussian(R) 94 system (copyright 1995, Gaussian, Inc.),
 the Gaussian 92(TM) system (copyright 1992, Gaussian, Inc.),
 the Gaussian 90(TM) system (copyright 1990, Gaussian, Inc.),
 the Gaussian 88(TM) system (copyright 1988, Gaussian, Inc.),
 the Gaussian 86(TM) system (copyright 1986, Carnegie Mellon
 University), and the Gaussian 82(TM) system (copyright 1983,
 Carnegie Mellon University). Gaussian is a federally registered
 trademark of Gaussian, Inc.
  
 This software contains proprietary and confidential information,
 including trade secrets, belonging to Gaussian, Inc.
  
 This software is provided under written license and may be
 used, copied, transmitted, or stored only in accord with that
 written license.
  
 The following legend is applicable only to US Government
 contracts under FAR:
  
                    RESTRICTED RIGHTS LEGEND
  
 Use, reproduction and disclosure by the US Government is
 subject to restrictions as set forth in subparagraphs (a)
 and (c) of the Commercial Computer Software - Restricted
 Rights clause in FAR 52.227-19.
  
 Gaussian, Inc.
 340 Quinnipiac St., Bldg. 40, Wallingford CT 06492
  
  
 ---------------------------------------------------------------
 Warning -- This program may not be used in any manner that
 competes with the business of Gaussian, Inc. or will provide
 assistance to any competitor of Gaussian, Inc.  The licensee
 of this program is prohibited from giving any competitor of
 Gaussian, Inc. access to this program.  By using this program,
 the user acknowledges that Gaussian, Inc. is engaged in the
 business of creating and licensing software in the field of
 computational chemistry and represents and warrants to the
 licensee that it is not a competitor of Gaussian, Inc. and that
 it will not use this program in any manner prohibited above.
 ---------------------------------------------------------------
  

 Cite this work as:
 Gaussian 16, Revision C.01,
 M. J. Frisch, G. W. Trucks, H. B. Schlegel, G. E. Scuseria, 
 M. A. Robb, J. R. Cheeseman, G. Scalmani, V. Barone, 
 G. A. Petersson, H. Nakatsuji, X. Li, M. Caricato, A. V. Marenich, 
 J. Bloino, B. G. Janesko, R. Gomperts, B. Mennucci, H. P. Hratchian, 
 J. V. Ortiz, A. F. Izmaylov, J. L. Sonnenberg, D. Williams-Young, 
 F. Ding, F. Lipparini, F. Egidi, J. Goings, B. Peng, A. Petrone, 
 T. Henderson, D. Ranasinghe, V. G. Zakrzewski, J. Gao, N. Rega, 
 G. Zheng, W. Liang, M. Hada, M. Ehara, K. Toyota, R. Fukuda, 
 J. Hasegawa, M. Ishida, T. Nakajima, Y. Honda, O. Kitao, H. Nakai, 
 T. Vreven, K. Throssell, J. A. Montgomery, Jr., J. E. Peralta, 
 F. Ogliaro, M. J. Bearpark, J. J. Heyd, E. N. Brothers, K. N. Kudin, 
 V. N. Staroverov, T. A. Keith, R. Kobayashi, J. Normand, 
 K. Raghavachari, A. P. Rendell, J. C. Burant, S. S. Iyengar, 
 J. Tomasi, M. Cossi, J. M. Millam, M. Klene, C. Adamo, R. Cammi, 
 J. W. Ochterski, R. L. Martin, K. Morokuma, O. Farkas, 
 J. B. Foresman, and D. J. Fox, Gaussian, Inc., Wallingford CT, 2019.
 
 ******************************************
 Gaussian 16:  ES64L-G16RevC.01  3-Jul-2019
                27-Mar-2025 
 ******************************************
 %nprocshared=32
 Will use up to   32 processors via shared memory.
 %mem=100GB
 ------------------------------------------
 #p opt freq b3lyp/def2svpp em=gd3bj nosymm
 ------------------------------------------
 1/18=20,19=15,26=3,38=1/1,3;
 2/9=110,12=2,15=1,17=6,18=5,40=1/2;
 3/5=43,7=202,11=2,25=1,30=1,71=1,74=-5,124=41/1,2,3;
 4//1;
 5/5=2,38=5/2;
 6/7=2,8=2,9=2,10=2,28=1/1;
 7/30=1/1,2,3,16;
 1/18=20,19=15,26=3/3(2);
 2/9=110,15=1/2;
 99//99;
 2/9=110,15=1/2;
 3/5=43,7=202,11=2,25=1,30=1,71=1,74=-5,124=41/1,2,3;
 4/5=5,16=3,69=1/1;
 5/5=2,38=5/2;
 7/30=1/1,2,3,16;
 1/18=20,19=15,26=3/3(-5);
 2/9=110,15=1/2;
 6/7=2,8=2,9=2,10=2,19=2,28=1/1;
 99/9=1/99;
 Leave Link    1 at Thu Mar 27 19:13:52 2025, MaxMem= 13421772800 cpu:               1.8 elap:               0.1
 (Enter /public/software/apps/Gaussian/g16/l101.exe)
 ------------------
 $$$$Title####0????
 ------------------
 Symbolic Z-matrix:
 Charge =  0 Multiplicity = 2
 C                     5.19921   1.26243   3.85641 
 C                     4.94998   2.6907    4.36386 
 C                     5.73146   2.92948   5.66156 
 C                     3.44699   2.96023   4.59169 
 C                     2.66505   2.9318    3.30241 
 C                     1.92291   1.79599   2.94534 
 C                     1.22335   1.76091   1.73668 
 C                     1.25553   2.86119   0.86005 
 C                     0.52354   2.81437  -0.43121 
 C                     1.11027   3.31724  -1.60284 
 C                     0.43994   3.2348   -2.82343 
 C                    -0.82049   2.62613  -2.90148 
 C                    -1.47607   2.52817  -4.13563 
 C                    -2.71998   1.90675  -4.2236 
 C                    -3.32084   1.36263  -3.08762 
 O                    -4.5547    0.73176  -3.21249 
 C                    -2.68426   1.44353  -1.83388 
 C                    -3.34098   0.81317  -0.65327 
 C                    -4.54845   1.35956  -0.17677 
 O                    -5.1294    2.45044  -0.81589 
 C                    -5.17541   0.81991   0.94715 
 C                    -4.61017  -0.26103   1.6204 
 C                    -3.41138  -0.82726   1.16785 
 C                    -2.83857  -1.90299   1.86079 
 C                    -1.63421  -2.45979   1.43011 
 C                    -0.98973  -1.96691   0.28512 
 C                     0.31341  -2.53055  -0.14877 
 C                     0.54188  -3.91732  -0.1136 
 C                     1.7721   -4.44361  -0.51738 
 C                     2.79792  -3.59301  -0.95731 
 C                     4.11818  -4.15936  -1.41655 
 C                     4.22783  -4.19952  -2.95595 
 C                     3.21613  -5.17834  -3.57037 
 C                     5.6517   -4.58659  -3.37369 
 C                     2.57269  -2.20909  -0.99681 
 C                     1.34291  -1.68175  -0.59534 
 C                    -1.57988  -0.91363  -0.43264 
 C                    -2.77312  -0.30719   0.01312 
 C                    -1.42807   2.10172  -1.73235 
 C                    -0.75547   2.2377   -0.4998 
 C                     2.00352   3.99604   1.22018 
 C                     2.70294   4.0296    2.42976 
 H                     4.72643   1.11482   2.86289 
 H                     6.28894   1.08092   3.73947 
 H                     4.78596   0.51552   4.56784 
 H                     5.33455   3.40502   3.60209 
 H                     6.81754   2.76846   5.49173 
 H                     5.5907    3.97574   6.00762 
 H                     5.38632   2.23762   6.45995 
 H                     3.03432   2.21887   5.31167 
 H                     3.31638   3.9619    5.05769 
 H                     1.89442   0.93215   3.59795 
 H                     0.6742    0.86382   1.4785 
 H                     2.09964   3.7565   -1.57972 
 H                     0.91702   3.63093  -3.71219 
 H                    -1.02448   2.93061  -5.03478 
 H                    -3.21656   1.8375   -5.18319 
 H                    -6.10236   1.24851   1.30671 
 H                    -5.11007  -0.65359   2.4981 
 H                    -3.31394  -2.30284   2.74879 
 H                    -1.19531  -3.26457   2.00645 
 H                    -0.2375   -4.59649   0.20845 
 H                     1.92179  -5.51593  -0.49397 
 H                     4.26864  -5.18008  -0.99971 
 H                     4.93283  -3.5244   -1.00337 
 H                     4.02207  -3.18345  -3.36053 
 H                     3.35847  -6.20022  -3.1577 
 H                     3.34045  -5.21703  -4.67364 
 H                     2.17775  -4.84605  -3.36125 
 H                     6.38291  -3.85449  -2.96921 
 H                     5.90994  -5.59895  -2.99467 
 H                     5.7418   -4.58401  -4.48104 
 H                     3.35147  -1.53804  -1.33784 
 H                     1.20279  -0.60809  -0.62011 
 H                    -1.0983   -0.57291  -1.33925 
 H                    -1.21777   1.89519   0.41611 
 H                     2.03757   4.86283   0.57223 
 H                     3.27571   4.91214   2.68694 
 Cu                   -5.77493   2.15812  -2.64452 
 
 ITRead=  0  0  0  0  0  0  0  0  0  0  0  0  0  0  0  0  0  0  0  0
 ITRead=  0  0  0  0  0  0  0  0  0  0  0  0  0  0  0  0  0  0  0  0
 ITRead=  0  0  0  0  0  0  0  0  0  0  0  0  0  0  0  0  0  0  0  0
 ITRead=  0  0  0  0  0  0  0  0  0  0  0  0  0  0  0  0  0  0  0
 MicOpt= -1 -1 -1 -1 -1 -1 -1 -1 -1 -1 -1 -1 -1 -1 -1 -1 -1 -1 -1 -1
 MicOpt= -1 -1 -1 -1 -1 -1 -1 -1 -1 -1 -1 -1 -1 -1 -1 -1 -1 -1 -1 -1
 MicOpt= -1 -1 -1 -1 -1 -1 -1 -1 -1 -1 -1 -1 -1 -1 -1 -1 -1 -1 -1 -1
 MicOpt= -1 -1 -1 -1 -1 -1 -1 -1 -1 -1 -1 -1 -1 -1 -1 -1 -1 -1 -1
 NAtoms=     79 NQM=       79 NQMF=       0 NMMI=      0 NMMIF=      0
                NMic=       0 NMicF=      0.
                    Isotopes and Nuclear Properties:
 (Nuclear quadrupole moments (NQMom) in fm**2, nuclear magnetic moments (NMagM)
  in nuclear magnetons)

  Atom         1           2           3           4           5           6           7           8           9          10
 IAtWgt=          12          12          12          12          12          12          12          12          12          12
 AtmWgt=  12.0000000  12.0000000  12.0000000  12.0000000  12.0000000  12.0000000  12.0000000  12.0000000  12.0000000  12.0000000
 NucSpn=           0           0           0           0           0           0           0           0           0           0
 AtZEff=  -0.0000000  -0.0000000  -0.0000000  -0.0000000  -0.0000000  -0.0000000  -0.0000000  -0.0000000  -0.0000000  -0.0000000
 NQMom=    0.0000000   0.0000000   0.0000000   0.0000000   0.0000000   0.0000000   0.0000000   0.0000000   0.0000000   0.0000000
 NMagM=    0.0000000   0.0000000   0.0000000   0.0000000   0.0000000   0.0000000   0.0000000   0.0000000   0.0000000   0.0000000
 AtZNuc=   6.0000000   6.0000000   6.0000000   6.0000000   6.0000000   6.0000000   6.0000000   6.0000000   6.0000000   6.0000000

  Atom        11          12          13          14          15          16          17          18          19          20
 IAtWgt=          12          12          12          12          12          16          12          12          12          16
 AtmWgt=  12.0000000  12.0000000  12.0000000  12.0000000  12.0000000  15.9949146  12.0000000  12.0000000  12.0000000  15.9949146
 NucSpn=           0           0           0           0           0           0           0           0           0           0
 AtZEff=  -0.0000000  -0.0000000  -0.0000000  -0.0000000  -0.0000000  -0.0000000  -0.0000000  -0.0000000  -0.0000000  -0.0000000
 NQMom=    0.0000000   0.0000000   0.0000000   0.0000000   0.0000000   0.0000000   0.0000000   0.0000000   0.0000000   0.0000000
 NMagM=    0.0000000   0.0000000   0.0000000   0.0000000   0.0000000   0.0000000   0.0000000   0.0000000   0.0000000   0.0000000
 AtZNuc=   6.0000000   6.0000000   6.0000000   6.0000000   6.0000000   8.0000000   6.0000000   6.0000000   6.0000000   8.0000000

  Atom        21          22          23          24          25          26          27          28          29          30
 IAtWgt=          12          12          12          12          12          12          12          12          12          12
 AtmWgt=  12.0000000  12.0000000  12.0000000  12.0000000  12.0000000  12.0000000  12.0000000  12.0000000  12.0000000  12.0000000
 NucSpn=           0           0           0           0           0           0           0           0           0           0
 AtZEff=  -0.0000000  -0.0000000  -0.0000000  -0.0000000  -0.0000000  -0.0000000  -0.0000000  -0.0000000  -0.0000000  -0.0000000
 NQMom=    0.0000000   0.0000000   0.0000000   0.0000000   0.0000000   0.0000000   0.0000000   0.0000000   0.0000000   0.0000000
 NMagM=    0.0000000   0.0000000   0.0000000   0.0000000   0.0000000   0.0000000   0.0000000   0.0000000   0.0000000   0.0000000
 AtZNuc=   6.0000000   6.0000000   6.0000000   6.0000000   6.0000000   6.0000000   6.0000000   6.0000000   6.0000000   6.0000000

  Atom        31          32          33          34          35          36          37          38          39          40
 IAtWgt=          12          12          12          12          12          12          12          12          12          12
 AtmWgt=  12.0000000  12.0000000  12.0000000  12.0000000  12.0000000  12.0000000  12.0000000  12.0000000  12.0000000  12.0000000
 NucSpn=           0           0           0           0           0           0           0           0           0           0
 AtZEff=  -0.0000000  -0.0000000  -0.0000000  -0.0000000  -0.0000000  -0.0000000  -0.0000000  -0.0000000  -0.0000000  -0.0000000
 NQMom=    0.0000000   0.0000000   0.0000000   0.0000000   0.0000000   0.0000000   0.0000000   0.0000000   0.0000000   0.0000000
 NMagM=    0.0000000   0.0000000   0.0000000   0.0000000   0.0000000   0.0000000   0.0000000   0.0000000   0.0000000   0.0000000
 AtZNuc=   6.0000000   6.0000000   6.0000000   6.0000000   6.0000000   6.0000000   6.0000000   6.0000000   6.0000000   6.0000000

  Atom        41          42          43          44          45          46          47          48          49          50
 IAtWgt=          12          12           1           1           1           1           1           1           1           1
 AtmWgt=  12.0000000  12.0000000   1.0078250   1.0078250   1.0078250   1.0078250   1.0078250   1.0078250   1.0078250   1.0078250
 NucSpn=           0           0           1           1           1           1           1           1           1           1
 AtZEff=  -0.0000000  -0.0000000  -0.0000000  -0.0000000  -0.0000000  -0.0000000  -0.0000000  -0.0000000  -0.0000000  -0.0000000
 NQMom=    0.0000000   0.0000000   0.0000000   0.0000000   0.0000000   0.0000000   0.0000000   0.0000000   0.0000000   0.0000000
 NMagM=    0.0000000   0.0000000   2.7928460   2.7928460   2.7928460   2.7928460   2.7928460   2.7928460   2.7928460   2.7928460
 AtZNuc=   6.0000000   6.0000000   1.0000000   1.0000000   1.0000000   1.0000000   1.0000000   1.0000000   1.0000000   1.0000000

  Atom        51          52          53          54          55          56          57          58          59          60
 IAtWgt=           1           1           1           1           1           1           1           1           1           1
 AtmWgt=   1.0078250   1.0078250   1.0078250   1.0078250   1.0078250   1.0078250   1.0078250   1.0078250   1.0078250   1.0078250
 NucSpn=           1           1           1           1           1           1           1           1           1           1
 AtZEff=  -0.0000000  -0.0000000  -0.0000000  -0.0000000  -0.0000000  -0.0000000  -0.0000000  -0.0000000  -0.0000000  -0.0000000
 NQMom=    0.0000000   0.0000000   0.0000000   0.0000000   0.0000000   0.0000000   0.0000000   0.0000000   0.0000000   0.0000000
 NMagM=    2.7928460   2.7928460   2.7928460   2.7928460   2.7928460   2.7928460   2.7928460   2.7928460   2.7928460   2.7928460
 AtZNuc=   1.0000000   1.0000000   1.0000000   1.0000000   1.0000000   1.0000000   1.0000000   1.0000000   1.0000000   1.0000000

  Atom        61          62          63          64          65          66          67          68          69          70
 IAtWgt=           1           1           1           1           1           1           1           1           1           1
 AtmWgt=   1.0078250   1.0078250   1.0078250   1.0078250   1.0078250   1.0078250   1.0078250   1.0078250   1.0078250   1.0078250
 NucSpn=           1           1           1           1           1           1           1           1           1           1
 AtZEff=  -0.0000000  -0.0000000  -0.0000000  -0.0000000  -0.0000000  -0.0000000  -0.0000000  -0.0000000  -0.0000000  -0.0000000
 NQMom=    0.0000000   0.0000000   0.0000000   0.0000000   0.0000000   0.0000000   0.0000000   0.0000000   0.0000000   0.0000000
 NMagM=    2.7928460   2.7928460   2.7928460   2.7928460   2.7928460   2.7928460   2.7928460   2.7928460   2.7928460   2.7928460
 AtZNuc=   1.0000000   1.0000000   1.0000000   1.0000000   1.0000000   1.0000000   1.0000000   1.0000000   1.0000000   1.0000000

  Atom        71          72          73          74          75          76          77          78          79
 IAtWgt=           1           1           1           1           1           1           1           1          63
 AtmWgt=   1.0078250   1.0078250   1.0078250   1.0078250   1.0078250   1.0078250   1.0078250   1.0078250  62.9295992
 NucSpn=           1           1           1           1           1           1           1           1           3
 AtZEff=  -0.0000000  -0.0000000  -0.0000000  -0.0000000  -0.0000000  -0.0000000  -0.0000000  -0.0000000  -0.0000000
 NQMom=    0.0000000   0.0000000   0.0000000   0.0000000   0.0000000   0.0000000   0.0000000   0.0000000 -22.0000000
 NMagM=    2.7928460   2.7928460   2.7928460   2.7928460   2.7928460   2.7928460   2.7928460   2.7928460   2.2233000
 AtZNuc=   1.0000000   1.0000000   1.0000000   1.0000000   1.0000000   1.0000000   1.0000000   1.0000000  29.0000000
 Leave Link  101 at Thu Mar 27 19:13:52 2025, MaxMem= 13421772800 cpu:               3.7 elap:               0.1
 (Enter /public/software/apps/Gaussian/g16/l103.exe)

 GradGradGradGradGradGradGradGradGradGradGradGradGradGradGradGradGradGrad
 Berny optimization.
 Initialization pass.
                           ----------------------------
                           !    Initial Parameters    !
                           ! (Angstroms and Degrees)  !
 --------------------------                            --------------------------
 ! Name  Definition              Value          Derivative Info.                !
 --------------------------------------------------------------------------------
 ! R1    R(1,2)                  1.5361         estimate D2E/DX2                !
 ! R2    R(1,43)                 1.1101         estimate D2E/DX2                !
 ! R3    R(1,44)                 1.1109         estimate D2E/DX2                !
 ! R4    R(1,45)                 1.1112         estimate D2E/DX2                !
 ! R5    R(2,3)                  1.5335         estimate D2E/DX2                !
 ! R6    R(2,4)                  1.5439         estimate D2E/DX2                !
 ! R7    R(2,46)                 1.1129         estimate D2E/DX2                !
 ! R8    R(3,47)                 1.111          estimate D2E/DX2                !
 ! R9    R(3,48)                 1.111          estimate D2E/DX2                !
 ! R10   R(3,49)                 1.1114         estimate D2E/DX2                !
 ! R11   R(4,5)                  1.5081         estimate D2E/DX2                !
 ! R12   R(4,50)                 1.1128         estimate D2E/DX2                !
 ! R13   R(4,51)                 1.1125         estimate D2E/DX2                !
 ! R14   R(5,6)                  1.403          estimate D2E/DX2                !
 ! R15   R(5,42)                 1.4029         estimate D2E/DX2                !
 ! R16   R(6,7)                  1.397          estimate D2E/DX2                !
 ! R17   R(6,52)                 1.083          estimate D2E/DX2                !
 ! R18   R(7,8)                  1.4072         estimate D2E/DX2                !
 ! R19   R(7,53)                 1.083          estimate D2E/DX2                !
 ! R20   R(8,9)                  1.485          estimate D2E/DX2                !
 ! R21   R(8,41)                 1.4061         estimate D2E/DX2                !
 ! R22   R(9,10)                 1.4035         estimate D2E/DX2                !
 ! R23   R(9,40)                 1.4047         estimate D2E/DX2                !
 ! R24   R(10,11)                1.395          estimate D2E/DX2                !
 ! R25   R(10,54)                1.0828         estimate D2E/DX2                !
 ! R26   R(11,12)                1.4019         estimate D2E/DX2                !
 ! R27   R(11,55)                1.0837         estimate D2E/DX2                !
 ! R28   R(12,13)                1.4009         estimate D2E/DX2                !
 ! R29   R(12,39)                1.4181         estimate D2E/DX2                !
 ! R30   R(13,14)                1.3933         estimate D2E/DX2                !
 ! R31   R(13,56)                1.0837         estimate D2E/DX2                !
 ! R32   R(14,15)                1.3955         estimate D2E/DX2                !
 ! R33   R(14,57)                1.0827         estimate D2E/DX2                !
 ! R34   R(15,16)                1.3914         estimate D2E/DX2                !
 ! R35   R(15,17)                1.4084         estimate D2E/DX2                !
 ! R36   R(16,79)                1.9611         estimate D2E/DX2                !
 ! R37   R(17,18)                1.4908         estimate D2E/DX2                !
 ! R38   R(17,39)                1.4218         estimate D2E/DX2                !
 ! R39   R(18,19)                1.4084         estimate D2E/DX2                !
 ! R40   R(18,38)                1.4219         estimate D2E/DX2                !
 ! R41   R(19,20)                1.3914         estimate D2E/DX2                !
 ! R42   R(19,21)                1.3955         estimate D2E/DX2                !
 ! R43   R(20,79)                1.9611         estimate D2E/DX2                !
 ! R44   R(21,22)                1.3933         estimate D2E/DX2                !
 ! R45   R(21,58)                1.0827         estimate D2E/DX2                !
 ! R46   R(22,23)                1.4009         estimate D2E/DX2                !
 ! R47   R(22,59)                1.0837         estimate D2E/DX2                !
 ! R48   R(23,24)                1.402          estimate D2E/DX2                !
 ! R49   R(23,38)                1.4182         estimate D2E/DX2                !
 ! R50   R(24,25)                1.395          estimate D2E/DX2                !
 ! R51   R(24,60)                1.0837         estimate D2E/DX2                !
 ! R52   R(25,26)                1.4033         estimate D2E/DX2                !
 ! R53   R(25,61)                1.0828         estimate D2E/DX2                !
 ! R54   R(26,27)                1.4846         estimate D2E/DX2                !
 ! R55   R(26,37)                1.4046         estimate D2E/DX2                !
 ! R56   R(27,28)                1.4059         estimate D2E/DX2                !
 ! R57   R(27,36)                1.407          estimate D2E/DX2                !
 ! R58   R(28,29)                1.3977         estimate D2E/DX2                !
 ! R59   R(28,62)                1.0828         estimate D2E/DX2                !
 ! R60   R(29,30)                1.4033         estimate D2E/DX2                !
 ! R61   R(29,63)                1.083          estimate D2E/DX2                !
 ! R62   R(30,31)                1.5082         estimate D2E/DX2                !
 ! R63   R(30,35)                1.4027         estimate D2E/DX2                !
 ! R64   R(31,32)                1.5438         estimate D2E/DX2                !
 ! R65   R(31,64)                1.1128         estimate D2E/DX2                !
 ! R66   R(31,65)                1.1125         estimate D2E/DX2                !
 ! R67   R(32,33)                1.5359         estimate D2E/DX2                !
 ! R68   R(32,34)                1.5335         estimate D2E/DX2                !
 ! R69   R(32,66)                1.1128         estimate D2E/DX2                !
 ! R70   R(33,67)                1.1112         estimate D2E/DX2                !
 ! R71   R(33,68)                1.1109         estimate D2E/DX2                !
 ! R72   R(33,69)                1.1101         estimate D2E/DX2                !
 ! R73   R(34,70)                1.111          estimate D2E/DX2                !
 ! R74   R(34,71)                1.1114         estimate D2E/DX2                !
 ! R75   R(34,72)                1.111          estimate D2E/DX2                !
 ! R76   R(35,36)                1.397          estimate D2E/DX2                !
 ! R77   R(35,73)                1.0831         estimate D2E/DX2                !
 ! R78   R(36,74)                1.0831         estimate D2E/DX2                !
 ! R79   R(37,38)                1.4108         estimate D2E/DX2                !
 ! R80   R(37,75)                1.0816         estimate D2E/DX2                !
 ! R81   R(39,40)                1.4107         estimate D2E/DX2                !
 ! R82   R(40,76)                1.0816         estimate D2E/DX2                !
 ! R83   R(41,42)                1.3976         estimate D2E/DX2                !
 ! R84   R(41,77)                1.0827         estimate D2E/DX2                !
 ! R85   R(42,78)                1.0831         estimate D2E/DX2                !
 ! A1    A(2,1,43)             110.4987         estimate D2E/DX2                !
 ! A2    A(2,1,44)             110.2335         estimate D2E/DX2                !
 ! A3    A(2,1,45)             110.6791         estimate D2E/DX2                !
 ! A4    A(43,1,44)            107.5677         estimate D2E/DX2                !
 ! A5    A(43,1,45)            108.9795         estimate D2E/DX2                !
 ! A6    A(44,1,45)            108.806          estimate D2E/DX2                !
 ! A7    A(1,2,3)              109.9771         estimate D2E/DX2                !
 ! A8    A(1,2,4)              111.6556         estimate D2E/DX2                !
 ! A9    A(1,2,46)             108.3382         estimate D2E/DX2                !
 ! A10   A(3,2,4)              110.1228         estimate D2E/DX2                !
 ! A11   A(3,2,46)             107.6505         estimate D2E/DX2                !
 ! A12   A(4,2,46)             108.9885         estimate D2E/DX2                !
 ! A13   A(2,3,47)             110.2569         estimate D2E/DX2                !
 ! A14   A(2,3,48)             110.2222         estimate D2E/DX2                !
 ! A15   A(2,3,49)             110.6533         estimate D2E/DX2                !
 ! A16   A(47,3,48)            107.9366         estimate D2E/DX2                !
 ! A17   A(47,3,49)            108.8546         estimate D2E/DX2                !
 ! A18   A(48,3,49)            108.8531         estimate D2E/DX2                !
 ! A19   A(2,4,5)              112.0433         estimate D2E/DX2                !
 ! A20   A(2,4,50)             109.8894         estimate D2E/DX2                !
 ! A21   A(2,4,51)             109.4696         estimate D2E/DX2                !
 ! A22   A(5,4,50)             110.382          estimate D2E/DX2                !
 ! A23   A(5,4,51)             108.3124         estimate D2E/DX2                !
 ! A24   A(50,4,51)            106.5773         estimate D2E/DX2                !
 ! A25   A(4,5,6)              120.4708         estimate D2E/DX2                !
 ! A26   A(4,5,42)             120.1994         estimate D2E/DX2                !
 ! A27   A(6,5,42)             119.3067         estimate D2E/DX2                !
 ! A28   A(5,6,7)              120.3602         estimate D2E/DX2                !
 ! A29   A(5,6,52)             120.4168         estimate D2E/DX2                !
 ! A30   A(7,6,52)             119.2195         estimate D2E/DX2                !
 ! A31   A(6,7,8)              120.525          estimate D2E/DX2                !
 ! A32   A(6,7,53)             118.7484         estimate D2E/DX2                !
 ! A33   A(8,7,53)             120.7138         estimate D2E/DX2                !
 ! A34   A(7,8,9)              120.3819         estimate D2E/DX2                !
 ! A35   A(7,8,41)             118.9266         estimate D2E/DX2                !
 ! A36   A(9,8,41)             120.6873         estimate D2E/DX2                !
 ! A37   A(8,9,10)             120.5645         estimate D2E/DX2                !
 ! A38   A(8,9,40)             120.2791         estimate D2E/DX2                !
 ! A39   A(10,9,40)            119.1413         estimate D2E/DX2                !
 ! A40   A(9,10,11)            120.5559         estimate D2E/DX2                !
 ! A41   A(9,10,54)            120.6321         estimate D2E/DX2                !
 ! A42   A(11,10,54)           118.7989         estimate D2E/DX2                !
 ! A43   A(10,11,12)           120.425          estimate D2E/DX2                !
 ! A44   A(10,11,55)           118.976          estimate D2E/DX2                !
 ! A45   A(12,11,55)           120.5884         estimate D2E/DX2                !
 ! A46   A(11,12,13)           120.0106         estimate D2E/DX2                !
 ! A47   A(11,12,39)           119.9923         estimate D2E/DX2                !
 ! A48   A(13,12,39)           119.9958         estimate D2E/DX2                !
 ! A49   A(12,13,14)           120.3058         estimate D2E/DX2                !
 ! A50   A(12,13,56)           120.6622         estimate D2E/DX2                !
 ! A51   A(14,13,56)           119.0318         estimate D2E/DX2                !
 ! A52   A(13,14,15)           120.4578         estimate D2E/DX2                !
 ! A53   A(13,14,57)           119.6023         estimate D2E/DX2                !
 ! A54   A(15,14,57)           119.9364         estimate D2E/DX2                !
 ! A55   A(14,15,16)           119.0476         estimate D2E/DX2                !
 ! A56   A(14,15,17)           120.5046         estimate D2E/DX2                !
 ! A57   A(16,15,17)           120.4467         estimate D2E/DX2                !
 ! A58   A(15,16,79)           101.303          estimate D2E/DX2                !
 ! A59   A(15,17,18)           118.7879         estimate D2E/DX2                !
 ! A60   A(15,17,39)           119.3072         estimate D2E/DX2                !
 ! A61   A(18,17,39)           121.8966         estimate D2E/DX2                !
 ! A62   A(17,18,19)           118.7878         estimate D2E/DX2                !
 ! A63   A(17,18,38)           121.897          estimate D2E/DX2                !
 ! A64   A(19,18,38)           119.3085         estimate D2E/DX2                !
 ! A65   A(18,19,20)           120.4453         estimate D2E/DX2                !
 ! A66   A(18,19,21)           120.5063         estimate D2E/DX2                !
 ! A67   A(20,19,21)           119.0475         estimate D2E/DX2                !
 ! A68   A(19,20,79)           116.6713         estimate D2E/DX2                !
 ! A69   A(19,21,22)           120.4589         estimate D2E/DX2                !
 ! A70   A(19,21,58)           119.9354         estimate D2E/DX2                !
 ! A71   A(22,21,58)           119.6028         estimate D2E/DX2                !
 ! A72   A(21,22,23)           120.308          estimate D2E/DX2                !
 ! A73   A(21,22,59)           119.0305         estimate D2E/DX2                !
 ! A74   A(23,22,59)           120.6613         estimate D2E/DX2                !
 ! A75   A(22,23,24)           120.0067         estimate D2E/DX2                !
 ! A76   A(22,23,38)           119.9955         estimate D2E/DX2                !
 ! A77   A(24,23,38)           119.9968         estimate D2E/DX2                !
 ! A78   A(23,24,25)           120.4253         estimate D2E/DX2                !
 ! A79   A(23,24,60)           120.5907         estimate D2E/DX2                !
 ! A80   A(25,24,60)           118.9745         estimate D2E/DX2                !
 ! A81   A(24,25,26)           120.5446         estimate D2E/DX2                !
 ! A82   A(24,25,61)           118.8339         estimate D2E/DX2                !
 ! A83   A(26,25,61)           120.6091         estimate D2E/DX2                !
 ! A84   A(25,26,27)           120.5458         estimate D2E/DX2                !
 ! A85   A(25,26,37)           119.1672         estimate D2E/DX2                !
 ! A86   A(27,26,37)           120.2751         estimate D2E/DX2                !
 ! A87   A(26,27,28)           120.6519         estimate D2E/DX2                !
 ! A88   A(26,27,36)           120.3956         estimate D2E/DX2                !
 ! A89   A(28,27,36)           118.9516         estimate D2E/DX2                !
 ! A90   A(27,28,29)           120.4803         estimate D2E/DX2                !
 ! A91   A(27,28,62)           120.6083         estimate D2E/DX2                !
 ! A92   A(29,28,62)           118.9013         estimate D2E/DX2                !
 ! A93   A(28,29,30)           120.3807         estimate D2E/DX2                !
 ! A94   A(28,29,63)           119.2263         estimate D2E/DX2                !
 ! A95   A(30,29,63)           120.3913         estimate D2E/DX2                !
 ! A96   A(29,30,31)           120.5134         estimate D2E/DX2                !
 ! A97   A(29,30,35)           119.3058         estimate D2E/DX2                !
 ! A98   A(31,30,35)           120.163          estimate D2E/DX2                !
 ! A99   A(30,31,32)           112.0594         estimate D2E/DX2                !
 ! A100  A(30,31,64)           110.4102         estimate D2E/DX2                !
 ! A101  A(30,31,65)           108.2772         estimate D2E/DX2                !
 ! A102  A(32,31,64)           109.8802         estimate D2E/DX2                !
 ! A103  A(32,31,65)           109.4627         estimate D2E/DX2                !
 ! A104  A(64,31,65)           106.5831         estimate D2E/DX2                !
 ! A105  A(31,32,33)           111.6342         estimate D2E/DX2                !
 ! A106  A(31,32,34)           110.1292         estimate D2E/DX2                !
 ! A107  A(31,32,66)           109.0032         estimate D2E/DX2                !
 ! A108  A(33,32,34)           109.9841         estimate D2E/DX2                !
 ! A109  A(33,32,66)           108.3391         estimate D2E/DX2                !
 ! A110  A(34,32,66)           107.6433         estimate D2E/DX2                !
 ! A111  A(32,33,67)           110.6778         estimate D2E/DX2                !
 ! A112  A(32,33,68)           110.2275         estimate D2E/DX2                !
 ! A113  A(32,33,69)           110.487          estimate D2E/DX2                !
 ! A114  A(67,33,68)           108.8113         estimate D2E/DX2                !
 ! A115  A(67,33,69)           108.9731         estimate D2E/DX2                !
 ! A116  A(68,33,69)           107.5886         estimate D2E/DX2                !
 ! A117  A(32,34,70)           110.219          estimate D2E/DX2                !
 ! A118  A(32,34,71)           110.6557         estimate D2E/DX2                !
 ! A119  A(32,34,72)           110.2564         estimate D2E/DX2                !
 ! A120  A(70,34,71)           108.8538         estimate D2E/DX2                !
 ! A121  A(70,34,72)           107.9373         estimate D2E/DX2                !
 ! A122  A(71,34,72)           108.8547         estimate D2E/DX2                !
 ! A123  A(30,35,36)           120.3764         estimate D2E/DX2                !
 ! A124  A(30,35,73)           120.3108         estimate D2E/DX2                !
 ! A125  A(36,35,73)           119.3128         estimate D2E/DX2                !
 ! A126  A(27,36,35)           120.5038         estimate D2E/DX2                !
 ! A127  A(27,36,74)           120.7053         estimate D2E/DX2                !
 ! A128  A(35,36,74)           118.7843         estimate D2E/DX2                !
 ! A129  A(26,37,38)           121.0819         estimate D2E/DX2                !
 ! A130  A(26,37,75)           118.5199         estimate D2E/DX2                !
 ! A131  A(38,37,75)           120.3981         estimate D2E/DX2                !
 ! A132  A(18,38,23)           119.3943         estimate D2E/DX2                !
 ! A133  A(18,38,37)           121.8982         estimate D2E/DX2                !
 ! A134  A(23,38,37)           118.7043         estimate D2E/DX2                !
 ! A135  A(12,39,17)           119.3969         estimate D2E/DX2                !
 ! A136  A(12,39,40)           118.711          estimate D2E/DX2                !
 ! A137  A(17,39,40)           121.8883         estimate D2E/DX2                !
 ! A138  A(9,40,39)            121.0892         estimate D2E/DX2                !
 ! A139  A(9,40,76)            118.5431         estimate D2E/DX2                !
 ! A140  A(39,40,76)           120.3676         estimate D2E/DX2                !
 ! A141  A(8,41,42)            120.481          estimate D2E/DX2                !
 ! A142  A(8,41,77)            120.6363         estimate D2E/DX2                !
 ! A143  A(42,41,77)           118.8782         estimate D2E/DX2                !
 ! A144  A(5,42,41)            120.3996         estimate D2E/DX2                !
 ! A145  A(5,42,78)            120.2788         estimate D2E/DX2                !
 ! A146  A(41,42,78)           119.3216         estimate D2E/DX2                !
 ! A147  A(16,79,20)           100.0            estimate D2E/DX2                !
 ! D1    D(43,1,2,3)          -173.9467         estimate D2E/DX2                !
 ! D2    D(43,1,2,4)            63.4925         estimate D2E/DX2                !
 ! D3    D(43,1,2,46)          -56.5355         estimate D2E/DX2                !
 ! D4    D(44,1,2,3)           -55.1809         estimate D2E/DX2                !
 ! D5    D(44,1,2,4)          -177.7416         estimate D2E/DX2                !
 ! D6    D(44,1,2,46)           62.2304         estimate D2E/DX2                !
 ! D7    D(45,1,2,3)            65.2402         estimate D2E/DX2                !
 ! D8    D(45,1,2,4)           -57.3206         estimate D2E/DX2                !
 ! D9    D(45,1,2,46)         -177.3486         estimate D2E/DX2                !
 ! D10   D(1,2,3,47)            58.3883         estimate D2E/DX2                !
 ! D11   D(1,2,3,48)           177.452          estimate D2E/DX2                !
 ! D12   D(1,2,3,49)           -62.0922         estimate D2E/DX2                !
 ! D13   D(4,2,3,47)          -178.1504         estimate D2E/DX2                !
 ! D14   D(4,2,3,48)           -59.0868         estimate D2E/DX2                !
 ! D15   D(4,2,3,49)            61.3691         estimate D2E/DX2                !
 ! D16   D(46,2,3,47)          -59.4497         estimate D2E/DX2                !
 ! D17   D(46,2,3,48)           59.6139         estimate D2E/DX2                !
 ! D18   D(46,2,3,49)         -179.9302         estimate D2E/DX2                !
 ! D19   D(1,2,4,5)            -65.7144         estimate D2E/DX2                !
 ! D20   D(1,2,4,50)            57.3833         estimate D2E/DX2                !
 ! D21   D(1,2,4,51)           174.1082         estimate D2E/DX2                !
 ! D22   D(3,2,4,5)            171.8082         estimate D2E/DX2                !
 ! D23   D(3,2,4,50)           -65.0941         estimate D2E/DX2                !
 ! D24   D(3,2,4,51)            51.6308         estimate D2E/DX2                !
 ! D25   D(46,2,4,5)            53.9307         estimate D2E/DX2                !
 ! D26   D(46,2,4,50)          177.0284         estimate D2E/DX2                !
 ! D27   D(46,2,4,51)          -66.2467         estimate D2E/DX2                !
 ! D28   D(2,4,5,6)            100.5123         estimate D2E/DX2                !
 ! D29   D(2,4,5,42)           -77.7288         estimate D2E/DX2                !
 ! D30   D(50,4,5,6)           -22.3068         estimate D2E/DX2                !
 ! D31   D(50,4,5,42)          159.4521         estimate D2E/DX2                !
 ! D32   D(51,4,5,6)          -138.6384         estimate D2E/DX2                !
 ! D33   D(51,4,5,42)           43.1205         estimate D2E/DX2                !
 ! D34   D(4,5,6,7)           -178.5816         estimate D2E/DX2                !
 ! D35   D(4,5,6,52)             0.7379         estimate D2E/DX2                !
 ! D36   D(42,5,6,7)            -0.3249         estimate D2E/DX2                !
 ! D37   D(42,5,6,52)          178.9946         estimate D2E/DX2                !
 ! D38   D(4,5,42,41)          178.5891         estimate D2E/DX2                !
 ! D39   D(4,5,42,78)           -1.3716         estimate D2E/DX2                !
 ! D40   D(6,5,42,41)            0.3276         estimate D2E/DX2                !
 ! D41   D(6,5,42,78)         -179.6332         estimate D2E/DX2                !
 ! D42   D(5,6,7,8)              0.1512         estimate D2E/DX2                !
 ! D43   D(5,6,7,53)           178.8579         estimate D2E/DX2                !
 ! D44   D(52,6,7,8)          -179.1764         estimate D2E/DX2                !
 ! D45   D(52,6,7,53)           -0.4697         estimate D2E/DX2                !
 ! D46   D(6,7,8,9)            179.2865         estimate D2E/DX2                !
 ! D47   D(6,7,8,41)             0.023          estimate D2E/DX2                !
 ! D48   D(53,7,8,9)             0.6053         estimate D2E/DX2                !
 ! D49   D(53,7,8,41)         -178.6582         estimate D2E/DX2                !
 ! D50   D(7,8,9,10)          -138.0647         estimate D2E/DX2                !
 ! D51   D(7,8,9,40)            40.5092         estimate D2E/DX2                !
 ! D52   D(41,8,9,10)           41.1857         estimate D2E/DX2                !
 ! D53   D(41,8,9,40)         -140.2404         estimate D2E/DX2                !
 ! D54   D(7,8,41,42)           -0.0204         estimate D2E/DX2                !
 ! D55   D(7,8,41,77)         -179.2381         estimate D2E/DX2                !
 ! D56   D(9,8,41,42)         -179.2816         estimate D2E/DX2                !
 ! D57   D(9,8,41,77)            1.5007         estimate D2E/DX2                !
 ! D58   D(8,9,10,11)          177.9561         estimate D2E/DX2                !
 ! D59   D(8,9,10,54)           -0.7096         estimate D2E/DX2                !
 ! D60   D(40,9,10,11)          -0.6338         estimate D2E/DX2                !
 ! D61   D(40,9,10,54)        -179.2995         estimate D2E/DX2                !
 ! D62   D(8,9,40,39)         -175.637          estimate D2E/DX2                !
 ! D63   D(8,9,40,76)            4.2239         estimate D2E/DX2                !
 ! D64   D(10,9,40,39)           2.957          estimate D2E/DX2                !
 ! D65   D(10,9,40,76)        -177.182          estimate D2E/DX2                !
 ! D66   D(9,10,11,12)          -1.1557         estimate D2E/DX2                !
 ! D67   D(9,10,11,55)        -179.9745         estimate D2E/DX2                !
 ! D68   D(54,10,11,12)        177.5342         estimate D2E/DX2                !
 ! D69   D(54,10,11,55)         -1.2847         estimate D2E/DX2                !
 ! D70   D(10,11,12,13)       -178.934          estimate D2E/DX2                !
 ! D71   D(10,11,12,39)          0.6553         estimate D2E/DX2                !
 ! D72   D(55,11,12,13)         -0.1343         estimate D2E/DX2                !
 ! D73   D(55,11,12,39)        179.455          estimate D2E/DX2                !
 ! D74   D(11,12,13,14)        179.0425         estimate D2E/DX2                !
 ! D75   D(11,12,13,56)         -0.7905         estimate D2E/DX2                !
 ! D76   D(39,12,13,14)         -0.5468         estimate D2E/DX2                !
 ! D77   D(39,12,13,56)        179.6201         estimate D2E/DX2                !
 ! D78   D(11,12,39,17)       -177.7068         estimate D2E/DX2                !
 ! D79   D(11,12,39,40)          1.6013         estimate D2E/DX2                !
 ! D80   D(13,12,39,17)          1.8826         estimate D2E/DX2                !
 ! D81   D(13,12,39,40)       -178.8093         estimate D2E/DX2                !
 ! D82   D(12,13,14,15)         -0.6765         estimate D2E/DX2                !
 ! D83   D(12,13,14,57)        179.9913         estimate D2E/DX2                !
 ! D84   D(56,13,14,15)        179.1592         estimate D2E/DX2                !
 ! D85   D(56,13,14,57)         -0.173          estimate D2E/DX2                !
 ! D86   D(13,14,15,16)       -179.0829         estimate D2E/DX2                !
 ! D87   D(13,14,15,17)          0.5406         estimate D2E/DX2                !
 ! D88   D(57,14,15,16)          0.247          estimate D2E/DX2                !
 ! D89   D(57,14,15,17)        179.8705         estimate D2E/DX2                !
 ! D90   D(14,15,16,79)        -98.3777         estimate D2E/DX2                !
 ! D91   D(17,15,16,79)         81.9986         estimate D2E/DX2                !
 ! D92   D(14,15,17,18)       -178.1664         estimate D2E/DX2                !
 ! D93   D(14,15,17,39)          0.8089         estimate D2E/DX2                !
 ! D94   D(16,15,17,18)          1.4519         estimate D2E/DX2                !
 ! D95   D(16,15,17,39)       -179.5729         estimate D2E/DX2                !
 ! D96   D(15,16,79,20)        -60.3872         estimate D2E/DX2                !
 ! D97   D(15,17,18,19)        -67.3368         estimate D2E/DX2                !
 ! D98   D(15,17,18,38)        113.6082         estimate D2E/DX2                !
 ! D99   D(39,17,18,19)        113.7157         estimate D2E/DX2                !
 ! D100  D(39,17,18,38)        -65.3393         estimate D2E/DX2                !
 ! D101  D(15,17,39,12)         -2.0035         estimate D2E/DX2                !
 ! D102  D(15,17,39,40)        178.7112         estimate D2E/DX2                !
 ! D103  D(18,17,39,12)        176.9387         estimate D2E/DX2                !
 ! D104  D(18,17,39,40)         -2.3466         estimate D2E/DX2                !
 ! D105  D(17,18,19,20)          1.3313         estimate D2E/DX2                !
 ! D106  D(17,18,19,21)       -178.3018         estimate D2E/DX2                !
 ! D107  D(38,18,19,20)       -179.5888         estimate D2E/DX2                !
 ! D108  D(38,18,19,21)          0.7781         estimate D2E/DX2                !
 ! D109  D(17,18,38,23)        177.1499         estimate D2E/DX2                !
 ! D110  D(17,18,38,37)         -2.1907         estimate D2E/DX2                !
 ! D111  D(19,18,38,23)         -1.9003         estimate D2E/DX2                !
 ! D112  D(19,18,38,37)        178.7591         estimate D2E/DX2                !
 ! D113  D(18,19,20,79)         65.576          estimate D2E/DX2                !
 ! D114  D(21,19,20,79)       -114.7855         estimate D2E/DX2                !
 ! D115  D(18,19,21,22)          0.5004         estimate D2E/DX2                !
 ! D116  D(18,19,21,58)        179.8746         estimate D2E/DX2                !
 ! D117  D(20,19,21,22)       -179.1378         estimate D2E/DX2                !
 ! D118  D(20,19,21,58)          0.2364         estimate D2E/DX2                !
 ! D119  D(19,20,79,16)        -28.2873         estimate D2E/DX2                !
 ! D120  D(19,21,22,23)         -0.6389         estimate D2E/DX2                !
 ! D121  D(19,21,22,59)        179.2149         estimate D2E/DX2                !
 ! D122  D(58,21,22,23)        179.9848         estimate D2E/DX2                !
 ! D123  D(58,21,22,59)         -0.1614         estimate D2E/DX2                !
 ! D124  D(21,22,23,24)        179.1224         estimate D2E/DX2                !
 ! D125  D(21,22,23,38)         -0.5107         estimate D2E/DX2                !
 ! D126  D(59,22,23,24)         -0.729          estimate D2E/DX2                !
 ! D127  D(59,22,23,38)        179.6379         estimate D2E/DX2                !
 ! D128  D(22,23,24,25)       -178.9836         estimate D2E/DX2                !
 ! D129  D(22,23,24,60)         -0.1223         estimate D2E/DX2                !
 ! D130  D(38,23,24,25)          0.6496         estimate D2E/DX2                !
 ! D131  D(38,23,24,60)        179.5109         estimate D2E/DX2                !
 ! D132  D(22,23,38,18)          1.7763         estimate D2E/DX2                !
 ! D133  D(22,23,38,37)       -178.862          estimate D2E/DX2                !
 ! D134  D(24,23,38,18)       -177.8568         estimate D2E/DX2                !
 ! D135  D(24,23,38,37)          1.5049         estimate D2E/DX2                !
 ! D136  D(23,24,25,26)         -1.0704         estimate D2E/DX2                !
 ! D137  D(23,24,25,61)        177.6572         estimate D2E/DX2                !
 ! D138  D(60,24,25,26)       -179.9499         estimate D2E/DX2                !
 ! D139  D(60,24,25,61)         -1.2224         estimate D2E/DX2                !
 ! D140  D(24,25,26,27)        178.0502         estimate D2E/DX2                !
 ! D141  D(24,25,26,37)         -0.6938         estimate D2E/DX2                !
 ! D142  D(61,25,26,27)         -0.6546         estimate D2E/DX2                !
 ! D143  D(61,25,26,37)       -179.3987         estimate D2E/DX2                !
 ! D144  D(25,26,27,28)         41.9154         estimate D2E/DX2                !
 ! D145  D(25,26,27,36)       -137.7328         estimate D2E/DX2                !
 ! D146  D(37,26,27,28)       -139.3545         estimate D2E/DX2                !
 ! D147  D(37,26,27,36)         40.9973         estimate D2E/DX2                !
 ! D148  D(25,26,37,38)          2.9119         estimate D2E/DX2                !
 ! D149  D(25,26,37,75)       -177.1658         estimate D2E/DX2                !
 ! D150  D(27,26,37,38)       -175.8356         estimate D2E/DX2                !
 ! D151  D(27,26,37,75)          4.0867         estimate D2E/DX2                !
 ! D152  D(26,27,28,29)       -179.7184         estimate D2E/DX2                !
 ! D153  D(26,27,28,62)          1.4499         estimate D2E/DX2                !
 ! D154  D(36,27,28,29)         -0.0652         estimate D2E/DX2                !
 ! D155  D(36,27,28,62)       -178.8969         estimate D2E/DX2                !
 ! D156  D(26,27,36,35)        179.6272         estimate D2E/DX2                !
 ! D157  D(26,27,36,74)          0.5663         estimate D2E/DX2                !
 ! D158  D(28,27,36,35)         -0.0269         estimate D2E/DX2                !
 ! D159  D(28,27,36,74)       -179.0879         estimate D2E/DX2                !
 ! D160  D(27,28,29,30)          0.3082         estimate D2E/DX2                !
 ! D161  D(27,28,29,63)       -179.2263         estimate D2E/DX2                !
 ! D162  D(62,28,29,30)        179.1596         estimate D2E/DX2                !
 ! D163  D(62,28,29,63)         -0.3748         estimate D2E/DX2                !
 ! D164  D(28,29,30,31)       -178.9235         estimate D2E/DX2                !
 ! D165  D(28,29,30,35)         -0.4539         estimate D2E/DX2                !
 ! D166  D(63,29,30,31)          0.6055         estimate D2E/DX2                !
 ! D167  D(63,29,30,35)        179.0751         estimate D2E/DX2                !
 ! D168  D(29,30,31,32)        101.4169         estimate D2E/DX2                !
 ! D169  D(29,30,31,64)        -21.4221         estimate D2E/DX2                !
 ! D170  D(29,30,31,65)       -137.7559         estimate D2E/DX2                !
 ! D171  D(35,30,31,32)        -77.0396         estimate D2E/DX2                !
 ! D172  D(35,30,31,64)        160.1215         estimate D2E/DX2                !
 ! D173  D(35,30,31,65)         43.7877         estimate D2E/DX2                !
 ! D174  D(29,30,35,36)          0.3618         estimate D2E/DX2                !
 ! D175  D(29,30,35,73)       -179.7207         estimate D2E/DX2                !
 ! D176  D(31,30,35,36)        178.8369         estimate D2E/DX2                !
 ! D177  D(31,30,35,73)         -1.2457         estimate D2E/DX2                !
 ! D178  D(30,31,32,33)        -65.7419         estimate D2E/DX2                !
 ! D179  D(30,31,32,34)        171.782          estimate D2E/DX2                !
 ! D180  D(30,31,32,66)         53.9006         estimate D2E/DX2                !
 ! D181  D(64,31,32,33)         57.3966         estimate D2E/DX2                !
 ! D182  D(64,31,32,34)        -65.0795         estimate D2E/DX2                !
 ! D183  D(64,31,32,66)        177.0391         estimate D2E/DX2                !
 ! D184  D(65,31,32,33)        174.1191         estimate D2E/DX2                !
 ! D185  D(65,31,32,34)         51.6431         estimate D2E/DX2                !
 ! D186  D(65,31,32,66)        -66.2384         estimate D2E/DX2                !
 ! D187  D(31,32,33,67)        -57.4853         estimate D2E/DX2                !
 ! D188  D(31,32,33,68)       -177.9083         estimate D2E/DX2                !
 ! D189  D(31,32,33,69)         63.3111         estimate D2E/DX2                !
 ! D190  D(34,32,33,67)         65.0738         estimate D2E/DX2                !
 ! D191  D(34,32,33,68)        -55.3492         estimate D2E/DX2                !
 ! D192  D(34,32,33,69)       -174.1298         estimate D2E/DX2                !
 ! D193  D(66,32,33,67)       -177.5191         estimate D2E/DX2                !
 ! D194  D(66,32,33,68)         62.0579         estimate D2E/DX2                !
 ! D195  D(66,32,33,69)        -56.7227         estimate D2E/DX2                !
 ! D196  D(31,32,34,70)        -59.1068         estimate D2E/DX2                !
 ! D197  D(31,32,34,71)         61.3494         estimate D2E/DX2                !
 ! D198  D(31,32,34,72)       -178.1689         estimate D2E/DX2                !
 ! D199  D(33,32,34,70)        177.45           estimate D2E/DX2                !
 ! D200  D(33,32,34,71)        -62.0938         estimate D2E/DX2                !
 ! D201  D(33,32,34,72)         58.3878         estimate D2E/DX2                !
 ! D202  D(66,32,34,70)         59.6111         estimate D2E/DX2                !
 ! D203  D(66,32,34,71)       -179.9327         estimate D2E/DX2                !
 ! D204  D(66,32,34,72)        -59.4511         estimate D2E/DX2                !
 ! D205  D(30,35,36,27)         -0.1234         estimate D2E/DX2                !
 ! D206  D(30,35,36,74)        178.9554         estimate D2E/DX2                !
 ! D207  D(73,35,36,27)        179.9584         estimate D2E/DX2                !
 ! D208  D(73,35,36,74)         -0.9629         estimate D2E/DX2                !
 ! D209  D(26,37,38,18)        176.0404         estimate D2E/DX2                !
 ! D210  D(26,37,38,23)         -3.3046         estimate D2E/DX2                !
 ! D211  D(75,37,38,18)         -3.8805         estimate D2E/DX2                !
 ! D212  D(75,37,38,23)        176.7745         estimate D2E/DX2                !
 ! D213  D(12,39,40,9)          -3.4276         estimate D2E/DX2                !
 ! D214  D(12,39,40,76)        176.714          estimate D2E/DX2                !
 ! D215  D(17,39,40,9)         175.8625         estimate D2E/DX2                !
 ! D216  D(17,39,40,76)         -3.9959         estimate D2E/DX2                !
 ! D217  D(8,41,42,5)           -0.1564         estimate D2E/DX2                !
 ! D218  D(8,41,42,78)         179.8047         estimate D2E/DX2                !
 ! D219  D(77,41,42,5)         179.0749         estimate D2E/DX2                !
 ! D220  D(77,41,42,78)         -0.964          estimate D2E/DX2                !
 --------------------------------------------------------------------------------
 Trust Radius=3.00D-01 FncErr=1.00D-07 GrdErr=1.00D-06 EigMax=2.50D+02 EigMin=1.00D-04
 Number of steps in this run=    462 maximum allowed number of steps=    474.
 GradGradGradGradGradGradGradGradGradGradGradGradGradGradGradGradGradGrad

 Leave Link  103 at Thu Mar 27 19:13:52 2025, MaxMem= 13421772800 cpu:               0.7 elap:               0.0
 (Enter /public/software/apps/Gaussian/g16/l202.exe)
 Symmetry turned off by external request.
 Stoichiometry    C40H36CuO2(2)
 Framework group  C1[X(C40H36CuO2)]
 Deg. of freedom   231
 Full point group                 C1      NOp   1
                          Input orientation:                          
 ---------------------------------------------------------------------
 Center     Atomic      Atomic             Coordinates (Angstroms)
 Number     Number       Type             X           Y           Z
 ---------------------------------------------------------------------
      1          6           0        5.199208    1.262430    3.856405
      2          6           0        4.949982    2.690701    4.363859
      3          6           0        5.731456    2.929479    5.661563
      4          6           0        3.446992    2.960227    4.591693
      5          6           0        2.665045    2.931801    3.302413
      6          6           0        1.922912    1.795989    2.945340
      7          6           0        1.223347    1.760907    1.736677
      8          6           0        1.255530    2.861185    0.860048
      9          6           0        0.523544    2.814374   -0.431205
     10          6           0        1.110266    3.317235   -1.602838
     11          6           0        0.439940    3.234802   -2.823432
     12          6           0       -0.820486    2.626126   -2.901476
     13          6           0       -1.476071    2.528166   -4.135632
     14          6           0       -2.719976    1.906751   -4.223600
     15          6           0       -3.320837    1.362633   -3.087623
     16          8           0       -4.554698    0.731762   -3.212493
     17          6           0       -2.684257    1.443529   -1.833884
     18          6           0       -3.340975    0.813174   -0.653272
     19          6           0       -4.548449    1.359560   -0.176771
     20          8           0       -5.129396    2.450440   -0.815888
     21          6           0       -5.175410    0.819910    0.947153
     22          6           0       -4.610174   -0.261025    1.620401
     23          6           0       -3.411377   -0.827258    1.167849
     24          6           0       -2.838572   -1.902990    1.860789
     25          6           0       -1.634207   -2.459790    1.430112
     26          6           0       -0.989726   -1.966911    0.285120
     27          6           0        0.313406   -2.530550   -0.148767
     28          6           0        0.541884   -3.917320   -0.113601
     29          6           0        1.772099   -4.443606   -0.517378
     30          6           0        2.797918   -3.593012   -0.957307
     31          6           0        4.118177   -4.159356   -1.416554
     32          6           0        4.227830   -4.199523   -2.955950
     33          6           0        3.216133   -5.178344   -3.570373
     34          6           0        5.651700   -4.586585   -3.373691
     35          6           0        2.572693   -2.209087   -0.996809
     36          6           0        1.342906   -1.681754   -0.595343
     37          6           0       -1.579883   -0.913630   -0.432638
     38          6           0       -2.773123   -0.307194    0.013116
     39          6           0       -1.428074    2.101718   -1.732351
     40          6           0       -0.755473    2.237701   -0.499801
     41          6           0        2.003519    3.996037    1.220177
     42          6           0        2.702942    4.029600    2.429760
     43          1           0        4.726425    1.114821    2.862887
     44          1           0        6.288943    1.080916    3.739472
     45          1           0        4.785959    0.515523    4.567843
     46          1           0        5.334549    3.405020    3.602089
     47          1           0        6.817536    2.768460    5.491728
     48          1           0        5.590697    3.975737    6.007620
     49          1           0        5.386317    2.237622    6.459954
     50          1           0        3.034317    2.218873    5.311671
     51          1           0        3.316384    3.961900    5.057689
     52          1           0        1.894420    0.932146    3.597952
     53          1           0        0.674198    0.863818    1.478503
     54          1           0        2.099640    3.756503   -1.579724
     55          1           0        0.917022    3.630927   -3.712186
     56          1           0       -1.024479    2.930607   -5.034779
     57          1           0       -3.216560    1.837498   -5.183194
     58          1           0       -6.102359    1.248505    1.306710
     59          1           0       -5.110067   -0.653592    2.498104
     60          1           0       -3.313942   -2.302843    2.748786
     61          1           0       -1.195311   -3.264565    2.006452
     62          1           0       -0.237500   -4.596486    0.208448
     63          1           0        1.921785   -5.515934   -0.493971
     64          1           0        4.268638   -5.180075   -0.999713
     65          1           0        4.932828   -3.524400   -1.003367
     66          1           0        4.022070   -3.183449   -3.360526
     67          1           0        3.358473   -6.200223   -3.157705
     68          1           0        3.340455   -5.217026   -4.673639
     69          1           0        2.177751   -4.846048   -3.361246
     70          1           0        6.382907   -3.854493   -2.969213
     71          1           0        5.909944   -5.598946   -2.994672
     72          1           0        5.741803   -4.584011   -4.481043
     73          1           0        3.351474   -1.538037   -1.337841
     74          1           0        1.202790   -0.608085   -0.620114
     75          1           0       -1.098304   -0.572912   -1.339253
     76          1           0       -1.217772    1.895190    0.416112
     77          1           0        2.037568    4.862829    0.572231
     78          1           0        3.275711    4.912138    2.686942
     79         29           0       -5.774929    2.158121   -2.644522
 ---------------------------------------------------------------------
 Rotational constants (GHZ):           0.0723215           0.0464994           0.0364668
 Leave Link  202 at Thu Mar 27 19:13:52 2025, MaxMem= 13421772800 cpu:               1.3 elap:               0.1
 (Enter /public/software/apps/Gaussian/g16/l301.exe)
 Standard basis: def2SVPP (5D, 7F)
 Ernie: Thresh=  0.10000D-02 Tol=  0.10000D-05 Strict=F.
   684 basis functions,  1265 primitive gaussians,   728 cartesian basis functions
   161 alpha electrons      160 beta electrons
       nuclear repulsion energy      5301.1602205435 Hartrees.
 IExCor=  402 DFT=T Ex+Corr=B3LYP ExCW=0 ScaHFX=  0.200000
 ScaDFX=  0.800000  0.720000  1.000000  0.810000 ScalE2=  1.000000  1.000000
 IRadAn=      5 IRanWt=     -1 IRanGd=            0 ICorTp=0 IEmpDi=141
 NAtoms=   79 NActive=   79 NUniq=   79 SFac= 1.00D+00 NAtFMM=   60 NAOKFM=T Big=T
 Integral buffers will be    131072 words long.
 Raffenetti 2 integral format.
 Two-electron integral symmetry is turned off.
 R6Disp:  Grimme-D3(BJ) Dispersion energy=       -0.2016735852 Hartrees.
 Nuclear repulsion after empirical dispersion term =     5300.9585469583 Hartrees.
 Leave Link  301 at Thu Mar 27 19:13:52 2025, MaxMem= 13421772800 cpu:               1.4 elap:               0.1
 (Enter /public/software/apps/Gaussian/g16/l302.exe)
 NPDir=0 NMtPBC=     1 NCelOv=     1 NCel=       1 NClECP=     1 NCelD=      1
         NCelK=      1 NCelE2=     1 NClLst=     1 CellRange=     0.0.
 One-electron integrals computed using PRISM.
   1 Symmetry operations used in ECPInt.
 ECPInt:  NShTT=   55945 NPrTT=  229520 LenC2=   44781 LenP2D=  111378.
 LDataN:  DoStor=T MaxTD1= 4 Len=   56
 NBasis=   684 RedAO= T EigKep=  1.86D-04  NBF=   684
 NBsUse=   684 1.00D-06 EigRej= -1.00D+00 NBFU=   684
 Precomputing XC quadrature grid using
 IXCGrd= 4 IRadAn=           5 IRanWt=          -1 IRanGd=           0 AccXCQ= 0.00D+00.
 Generated NRdTot=       0 NPtTot=           0 NUsed=           0 NTot=          32
 NSgBfM=   712   712   712   712   712 MxSgAt=    79 MxSgA2=    79.
 Leave Link  302 at Thu Mar 27 19:13:54 2025, MaxMem= 13421772800 cpu:              34.2 elap:               1.1
 (Enter /public/software/apps/Gaussian/g16/l303.exe)
 DipDrv:  MaxL=1.
 Leave Link  303 at Thu Mar 27 19:13:54 2025, MaxMem= 13421772800 cpu:               3.0 elap:               0.1
 (Enter /public/software/apps/Gaussian/g16/l401.exe)
 ExpMin= 3.30D-02 ExpMax= 7.64D+04 ExpMxC= 1.15D+04 IAcc=3 IRadAn=         5 AccDes= 0.00D+00
 Harris functional with IExCor=  402 and IRadAn=       5 diagonalized for initial guess.
 HarFok:  IExCor=  402 AccDes= 0.00D+00 IRadAn=         5 IDoV= 1 UseB2=F ITyADJ=14
 ICtDFT=  3500011 ScaDFX=  1.000000  1.000000  1.000000  1.000000
 FoFCou: FMM=F IPFlag=           0 FMFlag=      100000 FMFlg1=        2001
         NFxFlg=           0 DoJE=T BraDBF=F KetDBF=T FulRan=T
         wScrn=  0.000000 ICntrl=       500 IOpCl=  0 I1Cent=   200000004 NGrid=           0
         NMat0=    1 NMatS0=      1 NMatT0=    0 NMatD0=    1 NMtDS0=    0 NMtDT0=    0
 Symmetry not used in FoFCou.
 Harris En= -3335.92244948139    
 JPrj=0 DoOrth=F DoCkMO=F.
 Initial guess <Sx>= 0.0000 <Sy>= 0.0000 <Sz>= 0.5000 <S**2>= 0.7500 S= 0.5000
 Leave Link  401 at Thu Mar 27 19:13:56 2025, MaxMem= 13421772800 cpu:              68.5 elap:               2.2
 (Enter /public/software/apps/Gaussian/g16/l502.exe)
 Two-electron integral symmetry not used.
 UHF open shell SCF:
 Using DIIS extrapolation, IDIIS=  1040.
 NGot= 13421772800 LenX= 13420681464 LenY= 13420150752
 Requested convergence on RMS density matrix=1.00D-08 within 128 cycles.
 Requested convergence on MAX density matrix=1.00D-06.
 Requested convergence on             energy=1.00D-06.
 No special actions if energy rises.
 Fock matrices will be formed incrementally for  20 cycles.

 Cycle   1  Pass 1  IDiag  1:
 FoFJK:  IHMeth= 1 ICntrl=       0 DoSepK=F KAlg= 0 I1Cent=           0 FoldK=F
 IRaf= 940000000 NMat=       1 IRICut=       1 DoRegI=T DoRafI=F ISym2E= 0 IDoP0=0 IntGTp=1.
 FoFCou: FMM=T IPFlag=           0 FMFlag=      100000 FMFlg1=        2001
         NFxFlg=           0 DoJE=F BraDBF=F KetDBF=F FulRan=T
         wScrn=  0.000000 ICntrl=         0 IOpCl=  1 I1Cent=           0 NGrid=           0
         NMat0=    1 NMatS0=      1 NMatT0=    0 NMatD0=    1 NMtDS0=    0 NMtDT0=    0
 Symmetry not used in FoFCou.
 FMM levels:  10  Number of levels for PrismC:   9
 E= -3316.89660749088    
 DIIS: error= 2.99D-01 at cycle   1 NSaved=   1.
 NSaved= 1 IEnMin= 1 EnMin= -3316.89660749088     IErMin= 1 ErrMin= 2.99D-01
 ErrMax= 2.99D-01  0.00D+00 EMaxC= 1.00D-01 BMatC= 9.06D+01 BMatP= 9.06D+01
 IDIUse=3 WtCom= 0.00D+00 WtEn= 1.00D+00
 Coeff-Com:  0.100D+01
 Coeff-En:   0.100D+01
 Coeff:      0.100D+01
 Gap=    -0.001 Goal=   None    Shift=    0.000
 Gap=     0.493 Goal=   None    Shift=    0.000
 GapD=   -0.001 DampG=0.250 DampE=0.125 DampFc=0.1250 IDamp=-1.
 Damping current iteration by 1.25D-01
 RMSDP=8.56D-02 MaxDP=1.74D+01              OVMax= 9.85D-01

 Cycle   2  Pass 1  IDiag  1:
 RMSU=  1.07D-02    CP:  1.06D+00
 E= -3323.20991610448     Delta-E=       -6.313308613599 Rises=F Damp=T
 DIIS: error= 1.83D-01 at cycle   2 NSaved=   2.
 NSaved= 2 IEnMin= 2 EnMin= -3323.20991610448     IErMin= 2 ErrMin= 1.83D-01
 ErrMax= 1.83D-01  0.00D+00 EMaxC= 1.00D-01 BMatC= 3.33D+01 BMatP= 9.06D+01
 IDIUse=3 WtCom= 0.00D+00 WtEn= 1.00D+00
 Coeff-Com: -0.118D+01 0.218D+01
 Coeff-En:   0.000D+00 0.100D+01
 Coeff:      0.000D+00 0.100D+01
 Gap=     0.094 Goal=   None    Shift=    0.000
 Gap=    -0.102 Goal=   None    Shift=    0.000
 RMSDP=1.52D-02 MaxDP=3.81D+00 DE=-6.31D+00 OVMax= 9.54D-01

 Cycle   3  Pass 1  IDiag  1:
 RMSU=  1.50D-02    CP:  9.25D-01  9.00D-01
 E= -3288.75240537399     Delta-E=       34.457510730492 Rises=F Damp=F
 DIIS: error= 1.54D-01 at cycle   3 NSaved=   3.
 NSaved= 3 IEnMin= 2 EnMin= -3323.20991610448     IErMin= 3 ErrMin= 1.54D-01
 ErrMax= 1.54D-01  0.00D+00 EMaxC= 1.00D-01 BMatC= 1.12D+02 BMatP= 3.33D+01
 IDIUse=2 WtCom= 0.00D+00 WtEn= 1.00D+00
 EnCoef did    18 forward-backward iterations
 Coeff-En:   0.542D+00 0.133D+00 0.325D+00
 Coeff:      0.542D+00 0.133D+00 0.325D+00
 Gap=     0.219 Goal=   None    Shift=    0.000
 Gap=    -0.168 Goal=   None    Shift=    0.000
 RMSDP=1.74D-02 MaxDP=2.16D+00 DE= 3.45D+01 OVMax= 9.25D-01

 Cycle   4  Pass 1  IDiag  1:
 RMSU=  1.15D-02    CP:  9.10D-01  2.55D-01  2.60D-01
 E= -3308.64504583597     Delta-E=      -19.892640461980 Rises=F Damp=F
 DIIS: error= 1.52D-01 at cycle   4 NSaved=   4.
 NSaved= 4 IEnMin= 2 EnMin= -3323.20991610448     IErMin= 4 ErrMin= 1.52D-01
 ErrMax= 1.52D-01  0.00D+00 EMaxC= 1.00D-01 BMatC= 6.19D+01 BMatP= 3.33D+01
 IDIUse=2 WtCom= 0.00D+00 WtEn= 1.00D+00
 EnCoef did   100 forward-backward iterations
 Coeff-En:   0.518D+00 0.195D-01 0.222D+00 0.241D+00
 Coeff:      0.518D+00 0.195D-01 0.222D+00 0.241D+00
 Gap=     0.208 Goal=   None    Shift=    0.000
 Gap=    -0.224 Goal=   None    Shift=    0.000
 RMSDP=1.31D-02 MaxDP=2.02D+00 DE=-1.99D+01 OVMax= 9.98D-01

 Cycle   5  Pass 1  IDiag  1:
 RMSU=  6.32D-03    CP:  8.82D-01  2.84D-02  1.84D-01  3.50D-02
 E= -3318.89432486160     Delta-E=      -10.249279025635 Rises=F Damp=F
 DIIS: error= 1.38D-01 at cycle   5 NSaved=   5.
 NSaved= 5 IEnMin= 2 EnMin= -3323.20991610448     IErMin= 5 ErrMin= 1.38D-01
 ErrMax= 1.38D-01  0.00D+00 EMaxC= 1.00D-01 BMatC= 3.58D+01 BMatP= 3.33D+01
 IDIUse=3 WtCom= 0.00D+00 WtEn= 1.00D+00
 EnCoef did   100 forward-backward iterations
 Coeff-Com: -0.702D+00 0.134D+01 0.208D-01 0.580D-01 0.279D+00
 Coeff-En:   0.262D+00 0.803D-03 0.000D+00 0.333D+00 0.404D+00
 Coeff:      0.262D+00 0.803D-03 0.000D+00 0.333D+00 0.404D+00
 Gap=    -0.140 Goal=   None    Shift=    0.000
 Gap=    -0.160 Goal=   None    Shift=    0.000
 RMSDP=6.76D-03 MaxDP=6.70D-01 DE=-1.02D+01 OVMax= 8.72D-01

 Cycle   6  Pass 1  IDiag  1:
 RMSU=  4.75D-03    CP:  8.90D-01  7.26D-02  1.53D-01  1.10D-01  2.60D-01
 E= -3329.87526759289     Delta-E=      -10.980942731283 Rises=F Damp=F
 DIIS: error= 4.84D-02 at cycle   6 NSaved=   6.
 NSaved= 6 IEnMin= 6 EnMin= -3329.87526759289     IErMin= 6 ErrMin= 4.84D-02
 ErrMax= 4.84D-02  0.00D+00 EMaxC= 1.00D-01 BMatC= 9.71D+00 BMatP= 3.33D+01
 IDIUse=3 WtCom= 5.16D-01 WtEn= 4.84D-01
 EnCoef did   100 forward-backward iterations
 Coeff-Com: -0.430D+00 0.869D+00-0.115D-02 0.289D-01 0.220D+00 0.313D+00
 Coeff-En:   0.216D+00 0.370D-02 0.000D+00 0.656D-01 0.217D+00 0.498D+00
 Coeff:     -0.118D+00 0.451D+00-0.593D-03 0.466D-01 0.218D+00 0.402D+00
 Gap=    -0.607 Goal=   None    Shift=    0.000
 Gap=     0.354 Goal=   None    Shift=    0.000
 RMSDP=6.86D-03 MaxDP=1.37D+00 DE=-1.10D+01 OVMax= 9.69D-01

 Cycle   7  Pass 1  IDiag  1:
 RMSU=  4.89D-03    CP:  8.98D-01  1.08D-02  7.14D-02  1.08D-01  4.49D-01
                    CP:  6.52D-02
 E= -3324.05158808737     Delta-E=        5.823679505513 Rises=F Damp=F
 DIIS: error= 7.79D-02 at cycle   7 NSaved=   7.
 NSaved= 7 IEnMin= 6 EnMin= -3329.87526759289     IErMin= 6 ErrMin= 4.84D-02
 ErrMax= 7.79D-02  0.00D+00 EMaxC= 1.00D-01 BMatC= 2.68D+01 BMatP= 9.71D+00
 IDIUse=2 WtCom= 0.00D+00 WtEn= 1.00D+00
 EnCoef did   100 forward-backward iterations
 Coeff-En:   0.140D+00 0.580D-02 0.000D+00 0.000D+00 0.115D-01 0.564D+00
 Coeff-En:   0.279D+00
 Coeff:      0.140D+00 0.580D-02 0.000D+00 0.000D+00 0.115D-01 0.564D+00
 Coeff:      0.279D+00
 Gap=    -0.054 Goal=   None    Shift=    0.000
 Gap=    -0.019 Goal=   None    Shift=    0.000
 RMSDP=5.25D-03 MaxDP=4.50D-01 DE= 5.82D+00 OVMax= 6.39D-01

 Cycle   8  Pass 1  IDiag  1:
 RMSU=  3.86D-03    CP:  8.92D-01 -5.70D-03  6.04D-02  1.03D-01  4.73D-01
                    CP:  1.90D-01  2.85D-01
 E= -3330.37868280956     Delta-E=       -6.327094722188 Rises=F Damp=F
 DIIS: error= 4.46D-02 at cycle   8 NSaved=   8.
 NSaved= 8 IEnMin= 8 EnMin= -3330.37868280956     IErMin= 8 ErrMin= 4.46D-02
 ErrMax= 4.46D-02  0.00D+00 EMaxC= 1.00D-01 BMatC= 1.37D+01 BMatP= 9.71D+00
 IDIUse=2 WtCom= 0.00D+00 WtEn= 1.00D+00
 EnCoef did   100 forward-backward iterations
 Coeff-En:   0.123D+00 0.318D-02 0.000D+00 0.000D+00 0.000D+00 0.444D+00
 Coeff-En:   0.190D+00 0.240D+00
 Coeff:      0.123D+00 0.318D-02 0.000D+00 0.000D+00 0.000D+00 0.444D+00
 Coeff:      0.190D+00 0.240D+00
 Gap=     0.025 Goal=   None    Shift=    0.000
 Gap=    -0.187 Goal=   None    Shift=    0.000
 RMSDP=4.32D-03 MaxDP=2.48D-01 DE=-6.33D+00 OVMax= 7.04D-01

 Cycle   9  Pass 1  IDiag  1:
 RMSU=  2.88D-03    CP:  8.91D-01 -1.50D-02  6.79D-02  9.50D-02  2.88D-01
                    CP:  3.28D-01  2.95D-01  2.44D-01
 E= -3335.41959876022     Delta-E=       -5.040915950656 Rises=F Damp=F
 DIIS: error= 1.97D-02 at cycle   9 NSaved=   9.
 NSaved= 9 IEnMin= 9 EnMin= -3335.41959876022     IErMin= 9 ErrMin= 1.97D-02
 ErrMax= 1.97D-02  0.00D+00 EMaxC= 1.00D-01 BMatC= 7.95D-01 BMatP= 9.71D+00
 IDIUse=3 WtCom= 8.03D-01 WtEn= 1.97D-01
 Coeff-Com: -0.137D+00 0.257D+00 0.163D-02-0.278D-01-0.355D-02 0.952D-01
 Coeff-Com:  0.572D-02 0.718D-01 0.737D+00
 Coeff-En:   0.000D+00 0.000D+00 0.000D+00 0.000D+00 0.000D+00 0.000D+00
 Coeff-En:   0.000D+00 0.000D+00 0.100D+01
 Coeff:     -0.110D+00 0.207D+00 0.131D-02-0.223D-01-0.286D-02 0.765D-01
 Coeff:      0.459D-02 0.577D-01 0.789D+00
 Gap=     0.239 Goal=   None    Shift=    0.000
 Gap=     0.086 Goal=   None    Shift=    0.000
 RMSDP=1.93D-03 MaxDP=1.84D-01 DE=-5.04D+00 OVMax= 3.94D-01

 Cycle  10  Pass 1  IDiag  1:
 RMSU=  1.59D-03    CP:  8.87D-01 -1.72D-02  7.66D-02  8.20D-02  3.18D-01
                    CP:  4.01D-01  2.33D-01  2.73D-01  6.78D-01
 E= -3335.32428499845     Delta-E=        0.095313761769 Rises=F Damp=F
 DIIS: error= 3.02D-02 at cycle  10 NSaved=  10.
 NSaved=10 IEnMin= 9 EnMin= -3335.41959876022     IErMin= 9 ErrMin= 1.97D-02
 ErrMax= 3.02D-02  0.00D+00 EMaxC= 1.00D-01 BMatC= 1.38D+00 BMatP= 7.95D-01
 IDIUse=2 WtCom= 0.00D+00 WtEn= 1.00D+00
 Coeff-En:   0.000D+00 0.000D+00 0.000D+00 0.000D+00 0.000D+00 0.000D+00
 Coeff-En:   0.000D+00 0.000D+00 0.588D+00 0.412D+00
 Coeff:      0.000D+00 0.000D+00 0.000D+00 0.000D+00 0.000D+00 0.000D+00
 Coeff:      0.000D+00 0.000D+00 0.588D+00 0.412D+00
 Gap=     0.117 Goal=   None    Shift=    0.000
 Gap=     0.144 Goal=   None    Shift=    0.000
 RMSDP=2.07D-03 MaxDP=2.05D-01 DE= 9.53D-02 OVMax= 3.71D-01

 Cycle  11  Pass 1  IDiag  1:
 RMSU=  1.52D-03    CP:  8.89D-01 -1.27D-03  6.42D-02  8.14D-02  2.46D-01
                    CP:  4.04D-01  1.71D-01  4.32D-01  5.99D-01  3.18D-01
 E= -3335.16999727733     Delta-E=        0.154287721120 Rises=F Damp=F
 DIIS: error= 7.16D-02 at cycle  11 NSaved=  11.
 NSaved=11 IEnMin= 9 EnMin= -3335.41959876022     IErMin= 9 ErrMin= 1.97D-02
 ErrMax= 7.16D-02  0.00D+00 EMaxC= 1.00D-01 BMatC= 2.79D+00 BMatP= 7.95D-01
 IDIUse=2 WtCom= 0.00D+00 WtEn= 1.00D+00
 EnCoef did     1 forward-backward iterations
 Coeff-En:   0.000D+00 0.000D+00 0.000D+00 0.000D+00 0.000D+00 0.000D+00
 Coeff-En:   0.000D+00 0.000D+00 0.429D+00 0.335D+00 0.236D+00
 Coeff:      0.000D+00 0.000D+00 0.000D+00 0.000D+00 0.000D+00 0.000D+00
 Coeff:      0.000D+00 0.000D+00 0.429D+00 0.335D+00 0.236D+00
 Gap=     0.060 Goal=   None    Shift=    0.000
 Gap=    -0.008 Goal=   None    Shift=    0.000
 RMSDP=1.20D-03 MaxDP=1.69D-01 DE= 1.54D-01 OVMax= 2.07D-01

 Cycle  12  Pass 1  IDiag  1:
 RMSU=  7.70D-04    CP:  8.87D-01 -1.16D-02  7.71D-02  8.54D-02  2.92D-01
                    CP:  4.09D-01  2.02D-01  3.43D-01  6.97D-01  3.61D-01
                    CP:  5.38D-01
 E= -3335.59149993417     Delta-E=       -0.421502656840 Rises=F Damp=F
 DIIS: error= 9.82D-03 at cycle  12 NSaved=  12.
 NSaved=12 IEnMin=12 EnMin= -3335.59149993417     IErMin=12 ErrMin= 9.82D-03
 ErrMax= 9.82D-03  0.00D+00 EMaxC= 1.00D-01 BMatC= 1.72D-01 BMatP= 7.95D-01
 IDIUse=3 WtCom= 9.02D-01 WtEn= 9.82D-02
 EnCoef did     2 forward-backward iterations
 Coeff-Com:  0.125D-02-0.255D-02 0.734D-03-0.307D-02-0.249D-02-0.166D-01
 Coeff-Com: -0.954D-03-0.226D-01 0.257D+00 0.231D+00 0.169D+00 0.389D+00
 Coeff-En:   0.000D+00 0.000D+00 0.000D+00 0.000D+00 0.000D+00 0.000D+00
 Coeff-En:   0.000D+00 0.000D+00 0.124D+00 0.616D-01 0.000D+00 0.815D+00
 Coeff:      0.112D-02-0.230D-02 0.662D-03-0.277D-02-0.224D-02-0.149D-01
 Coeff:     -0.860D-03-0.204D-01 0.244D+00 0.214D+00 0.153D+00 0.431D+00
 Gap=     0.113 Goal=   None    Shift=    0.000
 Gap=     0.022 Goal=   None    Shift=    0.000
 RMSDP=7.85D-04 MaxDP=5.50D-02 DE=-4.22D-01 OVMax= 3.74D-01

 Cycle  13  Pass 1  IDiag  1:
 RMSU=  3.95D-04    CP:  8.88D-01 -1.32D-02  7.26D-02  8.62D-02  2.81D-01
                    CP:  3.86D-01  2.30D-01  3.00D-01  7.82D-01  4.73D-01
                    CP:  3.77D-01  3.63D-01
 E= -3335.63797173446     Delta-E=       -0.046471800291 Rises=F Damp=F
 DIIS: error= 7.29D-03 at cycle  13 NSaved=  13.
 NSaved=13 IEnMin=13 EnMin= -3335.63797173446     IErMin=13 ErrMin= 7.29D-03
 ErrMax= 7.29D-03  0.00D+00 EMaxC= 1.00D-01 BMatC= 4.96D-02 BMatP= 1.72D-01
 IDIUse=3 WtCom= 9.27D-01 WtEn= 7.29D-02
 Coeff-Com:  0.803D-02-0.131D-01-0.587D-03-0.856D-03 0.113D-02-0.124D-02
 Coeff-Com: -0.647D-03-0.503D-02 0.952D-01 0.596D-01 0.354D-01 0.312D+00
 Coeff-Com:  0.510D+00
 Coeff-En:   0.000D+00 0.000D+00 0.000D+00 0.000D+00 0.000D+00 0.000D+00
 Coeff-En:   0.000D+00 0.000D+00 0.000D+00 0.000D+00 0.000D+00 0.186D+00
 Coeff-En:   0.814D+00
 Coeff:      0.744D-02-0.121D-01-0.544D-03-0.793D-03 0.105D-02-0.115D-02
 Coeff:     -0.600D-03-0.466D-02 0.883D-01 0.553D-01 0.328D-01 0.303D+00
 Coeff:      0.532D+00
 Gap=     0.114 Goal=   None    Shift=    0.000
 Gap=     0.035 Goal=   None    Shift=    0.000
 RMSDP=2.49D-04 MaxDP=1.85D-02 DE=-4.65D-02 OVMax= 1.05D-01

 Cycle  14  Pass 1  IDiag  1:
 RMSU=  1.73D-04    CP:  8.88D-01 -1.51D-02  7.30D-02  8.39D-02  2.85D-01
                    CP:  3.87D-01  2.30D-01  3.03D-01  7.79D-01  4.11D-01
                    CP:  4.16D-01  4.89D-01  7.82D-01
 E= -3335.64645724724     Delta-E=       -0.008485512773 Rises=F Damp=F
 DIIS: error= 3.43D-03 at cycle  14 NSaved=  14.
 NSaved=14 IEnMin=14 EnMin= -3335.64645724724     IErMin=14 ErrMin= 3.43D-03
 ErrMax= 3.43D-03  0.00D+00 EMaxC= 1.00D-01 BMatC= 8.46D-03 BMatP= 4.96D-02
 IDIUse=3 WtCom= 9.66D-01 WtEn= 3.43D-02
 Coeff-Com:  0.127D-02-0.210D-02-0.262D-03 0.511D-03 0.109D-02 0.507D-03
 Coeff-Com: -0.130D-02 0.160D-02 0.270D-01 0.136D-01-0.205D-01 0.144D+00
 Coeff-Com:  0.289D+00 0.545D+00
 Coeff-En:   0.000D+00 0.000D+00 0.000D+00 0.000D+00 0.000D+00 0.000D+00
 Coeff-En:   0.000D+00 0.000D+00 0.000D+00 0.000D+00 0.000D+00 0.000D+00
 Coeff-En:   0.000D+00 0.100D+01
 Coeff:      0.123D-02-0.203D-02-0.253D-03 0.493D-03 0.105D-02 0.490D-03
 Coeff:     -0.125D-02 0.154D-02 0.261D-01 0.131D-01-0.198D-01 0.139D+00
 Coeff:      0.280D+00 0.561D+00
 Gap=     0.112 Goal=   None    Shift=    0.000
 Gap=     0.039 Goal=   None    Shift=    0.000
 RMSDP=9.99D-05 MaxDP=9.85D-03 DE=-8.49D-03 OVMax= 1.78D-02

 Cycle  15  Pass 1  IDiag  1:
 RMSU=  7.79D-05    CP:  8.88D-01 -1.46D-02  7.33D-02  8.55D-02  2.86D-01
                    CP:  3.86D-01  2.29D-01  3.02D-01  7.82D-01  4.16D-01
                    CP:  3.98D-01  5.07D-01  8.60D-01  7.88D-01
 E= -3335.64800263082     Delta-E=       -0.001545383584 Rises=F Damp=F
 DIIS: error= 1.03D-03 at cycle  15 NSaved=  15.
 NSaved=15 IEnMin=15 EnMin= -3335.64800263082     IErMin=15 ErrMin= 1.03D-03
 ErrMax= 1.03D-03  0.00D+00 EMaxC= 1.00D-01 BMatC= 1.54D-03 BMatP= 8.46D-03
 IDIUse=3 WtCom= 9.90D-01 WtEn= 1.03D-02
 Coeff-Com: -0.120D-02 0.195D-02-0.233D-04 0.288D-03 0.437D-03 0.106D-03
 Coeff-Com: -0.696D-03 0.151D-02 0.318D-02 0.699D-02-0.169D-01 0.662D-01
 Coeff-Com:  0.757D-01 0.315D+00 0.547D+00
 Coeff-En:   0.000D+00 0.000D+00 0.000D+00 0.000D+00 0.000D+00 0.000D+00
 Coeff-En:   0.000D+00 0.000D+00 0.000D+00 0.000D+00 0.000D+00 0.000D+00
 Coeff-En:   0.000D+00 0.000D+00 0.100D+01
 Coeff:     -0.119D-02 0.193D-02-0.230D-04 0.285D-03 0.432D-03 0.105D-03
[...]
 0000157,0.00000250,-0.00000156,-0.00000377,-0.00001045,-0.00000136,-0.
 00000383,0.00000007,0.00001986,-0.00003355,0.00000697,-0.05810503,-0.1
 3822468,0.22170002,-0.00001356,-0.00003132,-0.00005363,0.00023124,0.00
 003724,-0.00007514,-0.00008754,-0.00005775,0.00004124,-0.00212774,0.00
 159788,-0.00075832,-0.00278668,-0.00703139,-0.00208458,0.00383370,-0.0
 0323264,0.00094217,0.00003678,0.00068752,0.00016891,0.00403562,-0.0024
 2983,-0.00355451,-0.00002733,-0.00053632,0.00036717,-0.00010939,0.0000
 5637,0.00001439,0.00000126,-0.00000148,-0.00002085,0.00000953,-0.00001
 305,-0.00005313,0.00001179,0.00001166,0.00004504,-0.00004381,-0.000015
 89,-0.00001296,0.00001716,0.00000144,-0.00006410,-0.00002918,-0.000007
 12,-0.00000305,-0.00000994,-0.00000768,0.00002249,-0.00002815,0.000007
 47,0.00002018,0.00005940,-0.00004787,-0.00001050,-0.00005251,0.0000546
 8,-0.00001313,0.00000421,0.00000371,-0.00002411,0.00002694,-0.00001896
 ,-0.00000401,-0.00001484,0.00000443,-0.00000253,0.00002122,-0.00001911
 ,-0.00001006,-0.00001496,-0.00000168,0.00001615,-0.00001735,0.00001204
 ,-0.00000115,-0.00000276,-0.00000045,0.00000102,0.00000092,0.00000048,
 -0.00000358,0.00000307,0.00000085,-0.00000280,-0.00000452,0.00000232,0
 .00000375,-0.00000435,0.00000144,-0.00000279,0.00000288,0.00000162,0.0
 0000497,-0.00000077,0.00000077,-0.00000151,-0.00000264,-0.00000051,-0.
 00000208,-0.00000032,-0.00000732,0.00000076,-0.00000088,0.00000526,-0.
 00000282,0.00000302,-0.00001049,0.00000779,0.00000301,0.00000300,0.000
 01021,-0.00000351,0.00004669,0.00009127,-0.00006626,0.00005240,-0.0001
 9959,-0.00467644,-0.00919118,-0.00006412,-0.17322566,-0.14252157,-0.03
 152209,-0.00001400,0.00002793,0.00003100,0.00000543,0.00003434,0.00002
 197,-0.00000582,0.00003216,-0.00001150,-0.00011799,0.00010508,-0.00020
 354,-0.00001061,-0.00000323,-0.00001703,0.00000469,0.00001426,0.000004
 22,0.00000077,-0.00000099,0.00000706,0.00005014,0.00020411,0.00018095,
 0.00042158,0.00062477,0.00062335,-0.00019010,-0.00031270,-0.00018089,-
 0.00057016,0.00041232,0.00012716,0.00003378,0.00000012,0.00005031,-0.0
 0000137,-0.00000389,-0.00001732,0.00000320,0.00000020,-0.00000521,-0.0
 0000288,-0.00000152,0.00000002,-0.00000377,0.00000137,-0.00000008,0.00
 000243,-0.00000199,0.00000388,0.00000276,0.00000179,0.00000186,0.00000
 222,0.00000385,0.00000182,-0.00000058,0.00000169,0.00000121,0.00000164
 ,-0.00000289,0.00000071,0.00000156,-0.00000265,0.00000017,0.00000167,0
 .00000018,-0.00000095,0.00000003,-0.00000108,0.00000115,0.00000042,-0.
 00000063,0.00000124,-0.00000038,-0.00000085,-0.00000238,0.00000268,0.0
 0000109,0.00000090,0.00000038,0.00000078,0.00000060,0.00000076,-0.0000
 0098,0.00000086,0.00000079,-0.00000104,-0.00000249,-0.00000029,0.00000
 257,0.00000056,0.00000098,0.00000007,0.00000318,0.00000235,0.00000520,
 0.00000023,0.00000123,-0.00000145,0.00003633,-0.00183146,0.00252540,0.
 00082731,0.17723677,0.00008636,-0.00001289,-0.00015459,-0.00036278,-0.
 00013181,0.00080498,0.00035685,0.00004256,-0.00011468,0.00171673,-0.00
 081209,-0.00161097,-0.01284690,-0.00901168,-0.00524100,-0.00294213,0.0
 0157414,0.00406112,0.00077102,0.00002853,0.00039031,-0.00266782,0.0042
 1861,0.00041490,-0.00014807,0.00006471,0.00025124,-0.00002340,-0.00005
 776,-0.00005169,-0.00001238,0.00000500,-0.00001456,-0.00000237,-0.0000
 0124,-0.00001887,0.00000202,-0.00000725,0.00002124,-0.00002105,-0.0000
 0942,-0.00000449,0.00002040,0.00000690,-0.00002876,-0.00003266,-0.0000
 1140,-0.00000944,0.00001446,0.00000969,0.00000223,-0.00001170,-0.00000
 027,0.00001178,0.00003183,-0.00002116,-0.00000383,-0.00003128,0.000022
 91,-0.00000786,0.00000306,-0.00000408,-0.00001157,0.00000816,-0.000008
 44,-0.00000197,0.00000242,-0.00000350,-0.00000064,0.00000922,-0.000015
 33,-0.00001013,-0.00001403,-0.00000263,0.00000020,-0.00003042,0.000014
 71,0.00000386,-0.00000900,0.00000310,0.00000524,0.00000183,0.00000146,
 -0.00000541,0.00000660,0.00000168,-0.00000296,-0.00000159,0.00000210,0
 .00000622,-0.00000943,-0.00000156,-0.00000346,0.00000436,0.00000099,0.
 00000274,-0.00000108,0.00000081,-0.00000015,-0.00000380,-0.00000172,-0
 .00000226,0.00000062,-0.00000968,0.00000577,0.00000110,0.00000806,-0.0
 0000215,0.00000860,-0.00001814,0.00000540,0.00000099,0.00000465,0.0000
 0236,-0.00001261,0.00000711,-0.00001585,-0.00000741,-0.00009945,-0.000
 12165,-0.00230331,0.00054886,0.00133113,-0.14316961,-0.19058750,-0.025
 58370,-0.00006810,0.00001597,0.00004115,0.00001105,0.00000311,0.000025
 72,0.00001124,0.00010209,-0.00003484,0.00062640,-0.00007899,-0.0000405
 3,0.00001615,0.00001957,0.00006463,-0.00000778,-0.00000037,0.00002418,
 -0.00003854,0.00000206,-0.00012904,-0.00002156,0.00021867,-0.00018399,
 -0.00002882,-0.00002267,0.00054314,-0.00070821,-0.00047128,-0.00014411
 ,0.00041505,-0.00042323,-0.00019132,-0.00003443,-0.00000169,-0.0000143
 3,-0.00000209,-0.00000133,-0.00001529,0.00000240,0.00000108,-0.0000052
 0,-0.00000359,0.00000171,-0.00000095,-0.00000013,0.00000237,0.00000037
 ,0.00000397,0.00000120,0.00000129,0.00000488,0.00000622,-0.00000071,0.
 00000149,0.00000514,0.00000355,-0.00000135,0.00000287,0.00000027,0.000
 00141,-0.00000436,-0.00000033,0.00000223,-0.00000395,-0.00000005,0.000
 00542,0.00000181,-0.00000390,-0.00000002,-0.00000121,0.00000180,0.0000
 0039,-0.00000066,0.00000097,0.00000005,0.00000005,-0.00000115,0.000003
 15,0.00000106,0.00000021,0.00000159,0.00000188,-0.00000047,0.00000069,
 -0.00000155,0.00000044,0.00000151,-0.00000053,-0.00000121,-0.00000053,
 0.00000244,-0.00000519,-0.00000221,-0.00000033,0.00000513,0.00000011,0
 .00000638,-0.00000051,0.00002810,-0.00000695,-0.00001612,0.00244483,-0
 .00127094,-0.00102696,0.15893623,0.19615742,0.00004791,0.00001896,0.00
 007599,-0.00003720,0.00024213,-0.00011316,0.00002045,-0.00002242,-0.00
 002793,0.00107415,0.00034414,0.00118866,0.01599573,0.01701574,0.007047
 52,0.00005654,0.00342632,-0.00325415,0.00011557,0.00027549,-0.00096305
 ,-0.00249917,0.00111360,-0.00440408,-0.00076476,-0.00087229,0.00047200
 ,-0.00007910,0.00003845,0.00003227,-0.00000324,0.00000539,-0.00004801,
 0.00001874,-0.00000506,-0.00002433,-0.00000060,-0.00000158,0.00002287,
 -0.00002162,-0.00000973,-0.00001539,0.00000075,-0.00000666,-0.00004489
 ,-0.00001406,-0.00000325,-0.00000274,0.,-0.00000397,-0.00000026,-0.000
 02616,0.00000938,0.00001955,0.00004573,-0.00003031,-0.00002050,-0.0000
 3157,0.00002885,-0.00000541,0.00000452,-0.00000068,-0.00001177,0.00001
 415,-0.00001045,-0.00000055,-0.00001543,0.00001000,-0.00000408,0.00002
 314,-0.00000996,-0.00000323,-0.00000281,0.00000329,0.00001745,-0.00001
 728,0.00001182,-0.00001220,-0.00000238,-0.00000028,0.00000251,0.000001
 26,0.00000059,-0.00000242,0.00000367,-0.00000028,-0.00000171,-0.000000
 43,0.00000125,0.00000235,-0.00000499,-0.00000225,-0.00000124,0.0000020
 4,0.00000036,0.00000201,-0.00000046,0.00000013,-0.00000013,-0.00000226
 ,-0.00000154,-0.00000110,-0.00000098,-0.00000725,0.00000540,0.00000003
 ,0.00000862,-0.00000286,0.00000459,-0.00001600,0.00000985,0.00000091,0
 .00000570,0.00000276,-0.00008441,0.00005961,0.00004474,-0.00010158,-0.
 00006946,-0.00040968,-0.02042921,-0.02172358,-0.00012276,-0.03074443,-
 0.02593204,-0.06335379,0.00001458,-0.00003254,-0.00002659,0.00000403,-
 0.00005628,-0.00000868,0.00000634,-0.00003467,0.00001936,-0.00009359,0
 .00010922,-0.00001995,0.00003091,-0.00001417,0.00002905,-0.00001770,-0
 .00002158,-0.00002726,-0.00000268,-0.00001177,0.00002428,-0.00006077,-
 0.00030156,0.00008690,-0.00000943,-0.00051907,-0.00032263,0.00085177,0
 .00093195,0.00029953,0.00013500,-0.00019373,-0.00000205,0.00001723,-0.
 00001905,0.00000363,-0.00000479,-0.00000486,-0.00002353,0.00000141,0.0
 0000007,-0.00000627,-0.00000241,-0.00000003,-0.00000017,-0.00000113,0.
 00000106,0.00000064,-0.00000102,-0.00000113,0.00000327,-0.00000456,-0.
 00000414,0.00000431,0.00000154,-0.00000542,0.00000095,-0.00000046,0.00
 000074,0.00000003,0.00000073,-0.00000150,0.00000007,0.00000130,-0.0000
 0090,-0.00000023,0.00000308,0.00000081,-0.00000137,-0.00000056,-0.0000
 0023,0.00000044,0.00000012,0.00000007,0.00000035,-0.00000004,-0.000000
 06,-0.00000066,0.00000174,0.00000055,0.00000011,0.00000134,0.00000103,
 0.00000010,0.00000038,-0.00000017,-0.00000002,0.00000068,-0.00000051,-
 0.00000082,-0.00000036,0.00000125,-0.00000328,-0.00000217,0.00000137,0
 .00000347,0.00000172,0.00000482,0.00000131,0.00001240,-0.00001683,0.00
 000900,0.00125608,-0.00050431,0.00091470,0.03530168,0.02680177,0.06294
 753,0.00000919,0.00000185,-0.00000936,-0.00003854,0.00001894,0.0000233
 2,0.00001743,-0.00001540,-0.00001411,0.00002966,-0.00001612,-0.0000360
 8,-0.00001777,0.00000305,-0.00001715,0.00002564,0.00003885,0.00001005,
 0.00004279,0.00001141,0.00002444,-0.00000935,-0.00004470,-0.00008709,0
 .00065817,0.00026931,-0.00036987,0.00028214,0.00022544,0.00137960,-0.0
 0152677,-0.00040231,-0.00084720,0.00154041,0.00047123,0.00111246,-0.00
 168067,-0.00069466,-0.00096944,0.00287250,-0.00122732,-0.00056051,-0.0
 4227051,0.00128323,0.00637841,-0.02088800,0.03516902,0.04288240,-0.002
 82955,0.00233197,0.00799657,0.00241909,0.00025788,-0.00761894,-0.01028
 353,0.00297356,-0.01608852,0.00000963,-0.00817219,-0.00173309,0.001714
 48,0.00090826,0.00062409,-0.00016640,0.00009336,0.00012068,0.00055860,
 -0.00042368,0.00015982,-0.00055267,0.00025791,-0.00005841,0.00037915,-
 0.00019114,-0.00024757,-0.00009171,-0.00019776,0.00021758,-0.00001625,
 0.00002411,0.00003009,0.00001761,-0.00000059,-0.00002740,0.00002367,0.
 00000577,-0.00001803,-0.00001888,0.00000526,0.00002261,-0.00002754,0.0
 0000622,-0.00001726,0.00001777,0.00001624,0.00002251,-0.00000556,0.000
 00374,-0.00000591,-0.00001447,-0.00000357,-0.00001021,0.00000518,-0.00
 003273,0.00000969,0.00001015,0.00003354,-0.00000697,-0.00000046,-0.000
 26213,-0.00016136,0.00043056,0.00276283,0.00096349,-0.00087660,-0.0030
 6353,-0.00034089,0.00000877,0.00019483,-0.00000548,-0.00001095,0.00000
 065,0.00007023,-0.00000352,-0.00003953,0.00004020,-0.00000825,0.000015
 41,0.00001374,0.00001580,-0.00000680,0.00000331,-0.00000747,-0.0000004
 2,0.00000041,-0.00000550,-0.00000246,0.00000030,0.00001557,-0.00000338
 ,0.00001144,-0.00000255,0.00000886,0.00000139,-0.00000544,-0.00000237,
 0.00000627,-0.00000082,-0.00000704,0.00001902,0.00001226,0.00001434,0.
 00002047,-0.00000678,-0.00001064,0.00001840,-0.00000581,0.00001391,-0.
 00000928,0.00003433,-0.00000699,0.00002719,0.00003398,0.00001278,-0.00
 004193,0.00002702,0.00034635,-0.00008409,-0.00001196,-0.00004728,0.000
 16906,0.00009904,0.00005291,-0.00003167,-0.00012643,-0.00026662,0.0000
 2813,0.00000379,-0.00003019,0.00004595,0.00002668,0.00000182,0.0000138
 7,-0.00000762,0.00000982,0.00000761,0.00001226,-0.00001903,0.00000339,
 0.00001031,-0.00001603,0.00000215,0.00000994,-0.00000054,-0.00000824,0
 .00000024,-0.00000985,0.00000862,0.00000463,-0.00000593,0.00000811,-0.
 00000124,-0.00000352,-0.00001502,0.00001446,0.00000932,0.00000490,-0.0
 0000019,0.00000279,0.00000221,0.00000556,-0.00000649,0.00000565,0.0000
 0482,-0.00000412,-0.00001431,-0.00000665,0.00001194,-0.00000377,-0.000
 01053,-0.00000135,-0.00001055,-0.00006199,0.00002861,0.00002943,-0.000
 01590,0.00009284,-0.00001591,-0.00002301,-0.00001891,-0.00001351,0.000
 02053,0.00001726,0.00001187,0.07021403,0.00000399,-0.00000055,-0.00000
 053,-0.00000238,0.00000590,-0.00000009,0.00000146,-0.00000080,-0.00000
 014,0.00000145,0.00000160,-0.00000126,0.00000090,0.00000236,-0.0000002
 6,-0.00000529,-0.00000499,-0.00000415,0.00003582,0.00001987,0.00000731
 ,-0.00001029,0.00002065,0.00000006,-0.00036173,-0.00023904,0.00020309,
 -0.00011174,-0.00009218,-0.00057117,0.00063260,0.00017262,0.00037606,-
 0.00079269,-0.00021426,-0.00068748,0.00084578,0.00016790,0.00070490,-0
 .00440329,0.00183630,0.00059169,0.01699119,0.00443732,0.00174395,0.028
 45912,-0.04277640,-0.03928895,0.00102001,-0.00275703,-0.00428046,0.000
 14636,-0.00238006,-0.00096179,-0.00379506,0.00700711,0.00079517,-0.008
 42482,-0.02709809,-0.04285680,0.00243225,0.00003531,0.00294154,-0.0006
 2340,0.00024510,0.00002481,0.00046264,-0.00024706,-0.00007675,-0.00019
 895,0.00016701,-0.00003515,0.00012995,-0.00006044,-0.00013203,0.000020
 96,-0.00019047,0.00017175,0.00002876,0.00000009,-0.00001066,-0.0000112
 5,-0.00000727,0.00001413,-0.00001571,-0.00001567,0.00000791,0.00000379
 ,0.00000226,-0.00000926,0.00001292,-0.00000224,0.00001112,-0.00000608,
 0.00000625,-0.00001038,0.00000401,-0.00000446,-0.00000057,0.00000597,-
 0.00000056,0.00000430,0.00000178,0.00000837,-0.00000397,-0.00003163,0.
 00003169,-0.00001429,-0.00009920,0.00002618,-0.00004570,0.00051592,-0.
 00044685,-0.00011590,-0.00023649,0.00096935,-0.00024893,0.00010710,-0.
 00011251,0.00000420,-0.00000036,-0.00000806,-0.00000423,0.00000090,-0.
 00000882,0.00000064,-0.00000099,0.00000236,-0.00000291,0.00000131,-0.0
 0000108,0.00000093,-0.00000115,-0.00000032,0.00000368,-0.00000092,-0.0
 0000209,0.00000102,0.00000116,0.00000059,0.00000022,-0.00000088,-0.000
 00368,-0.00000142,-0.00000085,0.00000079,0.00000082,-0.00000070,0.0000
 0101,0.00000205,-0.00000271,-0.00000514,-0.00000182,0.00000236,0.00000
 302,0.00001027,0.00000289,0.00000927,-0.00000641,-0.00000753,0.0000323
 3,-0.00000827,-0.00000303,-0.00000607,0.00001471,-0.00004452,-0.000425
 48,0.00007282,0.00011299,0.00006763,-0.00025961,0.00007306,0.00005037,
 -0.00022481,-0.00010689,-0.00027967,0.00001270,-0.00000858,0.00000523,
 -0.00000816,0.00000725,0.00002776,-0.00000025,0.00000694,-0.00000842,0
 .00000782,-0.00000225,0.00000607,0.00000150,-0.00000305,0.00000477,0.0
 0000011,-0.00001081,-0.00000253,0.00000330,0.00000134,0.00000051,-0.00
 000137,-0.00000172,0.00000042,-0.00000220,0.00000249,0.00000003,0.0000
 0176,-0.00000651,0.00000032,0.00000288,-0.00000556,-0.00000370,-0.0000
 0092,-0.00000112,0.00000201,-0.00000102,-0.00000121,0.00000316,0.00000
 426,-0.00000860,0.00000054,0.00001059,0.00001030,0.00001043,-0.0000038
 7,0.00003497,0.00007774,0.00003548,-0.00000999,0.00007157,0.00003076,-
 0.00000736,0.00000114,0.00000572,-0.00000531,-0.00000064,-0.00000093,-
 0.03275007,0.06186436,-0.00000215,-0.00000043,0.00000152,-0.00000378,-
 0.00000299,-0.00000178,-0.00000089,-0.00000018,-0.00000019,-0.00000232
 ,-0.00000231,0.00000222,-0.00000138,0.00000096,-0.00001772,0.00000671,
 -0.00000234,-0.00001050,-0.00003916,-0.00005121,-0.00001460,0.00000348
 ,0.00001783,0.00003460,-0.00063700,-0.00011535,0.00018842,-0.00010464,
 -0.00015768,-0.00101181,0.00113415,0.00044125,0.00052559,-0.00103759,-
 0.00032220,-0.00103402,0.00206341,0.00072893,0.00103996,-0.00334693,-0
 .00009540,0.00171037,0.02384921,0.00554267,0.00165915,0.03864582,-0.04
 637890,-0.06070106,-0.00186899,-0.00387554,0.00054226,0.00151920,-0.00
 497076,-0.00508770,-0.02887249,0.01970607,-0.03289539,-0.00116215,-0.0
 5347977,-0.09695313,0.00254147,-0.00056455,0.00467845,-0.00248209,0.00
 210521,-0.00055411,0.00211318,-0.00140788,-0.00001745,-0.00173607,0.00
 137744,-0.00044437,0.00122923,-0.00059143,-0.00114264,0.00026972,-0.00
 054698,0.00089201,-0.00004627,0.00004986,0.00006393,0.00003001,-0.0000
 1199,-0.00005705,0.00002706,0.00003298,-0.00001922,0.00000133,0.000001
 13,0.00001306,-0.00002880,0.00000666,-0.00002357,0.00002963,-0.0000041
 8,0.00003197,-0.00000363,0.00000402,-0.00000691,-0.00001365,-0.0000044
 0,-0.00001281,0.00000805,-0.00003096,-0.00000765,0.00003753,-0.0000621
 6,0.00000587,-0.00015487,0.00000632,0.00011099,0.00021277,0.00179923,-
 0.00089638,0.00071139,-0.00070283,-0.00101018,0.00003001,0.00014768,0.
 00024364,0.00000497,-0.00000881,-0.00002362,0.00000574,0.00001753,0.00
 000033,-0.00000223,-0.00000116,0.00000487,0.00000377,-0.00000074,0.000
 00008,-0.00000006,0.00000119,-0.00000599,0.00000277,0.00000220,-0.0000
 0162,0.00000312,-0.00000232,0.00000053,-0.00000094,0.00000318,0.000001
 33,-0.00000015,0.00000052,-0.00000143,0.00000016,0.00000140,-0.0000062
 9,0.00000033,0.00000323,-0.00000040,-0.00001040,0.00000247,-0.00001733
 ,-0.00001420,0.00000050,0.00000747,0.00000141,0.00000480,-0.00002137,0
 .00002958,0.00001511,0.00000827,-0.00001093,-0.00013951,0.00002098,0.0
 0011262,-0.00003663,-0.00018473,0.00011963,0.00001028,-0.00027815,-0.0
 0016626,-0.00036092,0.00002759,-0.00002232,0.00000640,0.00002695,0.000
 04206,-0.00000122,-0.00000948,-0.00001409,0.00002824,-0.00000539,0.000
 01148,-0.00001326,0.00000236,0.00000746,-0.00000720,-0.00000232,0.0000
 1598,-0.00000257,-0.00000750,-0.00000230,0.00000385,0.00000137,-0.0000
 0216,0.00000172,0.00000192,0.00000172,-0.00000874,-0.00001426,0.000012
 07,0.00000373,0.00001163,0.00000236,0.00000184,0.00000360,0.00000154,0
 .00000003,0.00000113,0.00000633,-0.00000709,-0.00001241,0.00002116,0.0
 0000527,-0.00001378,-0.00000434,-0.00000690,0.00001206,0.00000096,-0.0
 0010543,-0.00002817,-0.00003729,-0.00006881,-0.00006760,0.00001273,0.0
 0000974,-0.00000120,0.00000130,0.00000346,-0.00000001,-0.03305205,0.08
 205883,0.19074680\\0.00000040,0.00000178,-0.00000019,0.00000031,-0.000
 00136,-0.00000058,0.00000053,0.00000086,-0.00000019,-0.00000048,-0.000
 00006,-0.00000061,0.00000107,0.00000241,0.00000004,-0.00000039,-0.0000
 0114,-0.00000073,0.00000022,-0.00000103,0.00000223,-0.00000012,0.00000
 226,-0.00000133,-0.00000093,-0.00000182,0.00000072,0.00000048,0.000000
 35,0.00000056,-0.00000172,-0.00000033,0.00000005,0.00000131,0.00000040
 ,-0.00000890,0.00000178,0.00000196,0.00000546,-0.00000157,-0.00000333,
 0.00000187,-0.00000600,-0.00000239,0.00000290,0.00000233,0.00000397,-0
 .00000313,0.00001142,0.00000403,-0.00000299,0.00000005,-0.00000443,0.0
 0000167,0.00000213,0.00000137,0.00000221,0.00000045,0.00000221,-0.0000
 0066,-0.00000241,-0.00000127,-0.00000055,0.00000136,-0.00000140,0.0000
 0224,-0.00000300,0.00000382,-0.00000316,0.00000263,-0.00000315,-0.0000
 0009,-0.00000294,-0.00000049,0.00000487,0.00000263,0.00000057,-0.00000
 463,-0.00000294,0.00000050,0.00000104,-0.00000027,0.00000074,0.0000014
 9,0.00000104,0.00000068,-0.00000026,0.00000080,-0.00000052,-0.00000020
 ,-0.00000013,-0.00000013,0.00000179,-0.00000029,-0.00000159,-0.0000015
 7,0.00000022,0.00000047,0.00000002,-0.00000026,0.00000047,0.00000030,-
 0.00000079,0.00000026,-0.00000014,0.00000194,-0.00000073,-0.00000139,0
 .00000020,0.00000128,0.00000223,-0.00000225,-0.00000250,0.00000061,-0.
 00001030,-0.00000538,0.00000179,0.00000192,0.00000176,0.00000154,-0.00
 000031,-0.00000085,-0.00000154,-0.00000010,-0.00000047,0.00000108,-0.0
 0000020,0.00000051,-0.00000064,0.00000019,0.00000074,-0.00000005,-0.00
 000009,0.00000025,-0.00000017,-0.00000004,0.00000072,-0.00000085,0.000
 00035,0.00000063,-0.00000041,0.00000005,0.00000078,-0.00000057,0.00000
 021,0.00000054,-0.00000002,0.00000010,0.00000052,-0.00000020,0.0000008
 0,0.00000051,-0.00000042,0.00000023,0.00000028,-0.00000025,0.00000059,
 0.00000003,0.00000027,-0.00000047,0.00000058,-0.00000059,0.00000024,-0
 .00000024,-0.00000012,-0.00000078,-0.00000070,-0.00000050,0.00000102,-
 0.00000189,-0.00000069,0.00000024,0.00000013,0.00000050,0.00000097,-0.
 00000002,0.00000015,0.00000050,0.00000046,0.00000036,0.00000005,0.0000
 0014,0.00000004,0.00000106,-0.00000027,-0.00000013,-0.00000029,0.00000
 011,0.00000040,-0.00000003,-0.00000010,-0.00000017,0.00000019,0.000000
 14,-0.00000026,-0.00000016,0.00000027,0.00000013,0.,-0.00000043,0.0000
 0066,0.00000026,-0.00000040,0.00000032,0.00000008,-0.00000018,0.000000
 27,0.00000001,0.00000016,0.00000014,0.00000011,-0.00000016,0.00000015,
 -0.00000018,-0.00000016,0.00000004,-0.00000014,0.00000002,0.00000029,0
 .00000053,-0.00000020,0.00000003,-0.00000019,0.00000180,0.00000012,0.0
 0000057,0.00000058,-0.00000161,-0.00000009,-0.00000009,-0.00000031,-0.
 00000043,0.00000043,-0.00000063,-0.00000330,-0.00000326,0.00000089\\\@
 The archive entry for this job was punched.


 DEPRESSION IS WAITING FOR YOUR SHIP TO COME IN,
 AND FINDING OUT IT'S THE TITANIC.
 Job cpu time:       1 days  8 hours 33 minutes 49.9 seconds.
 Elapsed time:       0 days  1 hours  1 minutes 28.4 seconds.
 File lengths (MBytes):  RWF=   8093 Int=      0 D2E=      0 Chk=     56 Scr=      1
 Normal termination of Gaussian 16 at Thu Mar 27 22:12:32 2025.
