 Entering Gaussian System, Link 0=g16
 Initial command:
 /public/software/apps/Gaussian/g16/l1.exe "/tmp/Gau-96057.inp" -scrdir="/tmp/"
 Entering Link 1 = /public/software/apps/Gaussian/g16/l1.exe PID=     96058.
  
 Copyright (c) 1988-2019, Gaussian, Inc.  All Rights Reserved.
  
 This is part of the Gaussian(R) 16 program.  It is based on
 the Gaussian(R) 09 system (copyright 2009, Gaussian, Inc.),
 the Gaussian(R) 03 system (copyright 2003, Gaussian, Inc.),
 the Gaussian(R) 98 system (copyright 1998, Gaussian, Inc.),
 the Gaussian(R) 94 system (copyright 1995, Gaussian, Inc.),
 the Gaussian 92(TM) system (copyright 1992, Gaussian, Inc.),
 the Gaussian 90(TM) system (copyright 1990, Gaussian, Inc.),
 the Gaussian 88(TM) system (copyright 1988, Gaussian, Inc.),
 the Gaussian 86(TM) system (copyright 1986, Carnegie Mellon
 University), and the Gaussian 82(TM) system (copyright 1983,
 Carnegie Mellon University). Gaussian is a federally registered
 trademark of Gaussian, Inc.
  
 This software contains proprietary and confidential information,
 including trade secrets, belonging to Gaussian, Inc.
  
 This software is provided under written license and may be
 used, copied, transmitted, or stored only in accord with that
 written license.
  
 The following legend is applicable only to US Government
 contracts under FAR:
  
                    RESTRICTED RIGHTS LEGEND
  
 Use, reproduction and disclosure by the US Government is
 subject to restrictions as set forth in subparagraphs (a)
 and (c) of the Commercial Computer Software - Restricted
 Rights clause in FAR 52.227-19.
  
 Gaussian, Inc.
 340 Quinnipiac St., Bldg. 40, Wallingford CT 06492
  
  
 ---------------------------------------------------------------
 Warning -- This program may not be used in any manner that
 competes with the business of Gaussian, Inc. or will provide
 assistance to any competitor of Gaussian, Inc.  The licensee
 of this program is prohibited from giving any competitor of
 Gaussian, Inc. access to this program.  By using this program,
 the user acknowledges that Gaussian, Inc. is engaged in the
 business of creating and licensing software in the field of
 computational chemistry and represents and warrants to the
 licensee that it is not a competitor of Gaussian, Inc. and that
 it will not use this program in any manner prohibited above.
 ---------------------------------------------------------------
  

 Cite this work as:
 Gaussian 16, Revision C.01,
 M. J. Frisch, G. W. Trucks, H. B. Schlegel, G. E. Scuseria, 
 M. A. Robb, J. R. Cheeseman, G. Scalmani, V. Barone, 
 G. A. Petersson, H. Nakatsuji, X. Li, M. Caricato, A. V. Marenich, 
 J. Bloino, B. G. Janesko, R. Gomperts, B. Mennucci, H. P. Hratchian, 
 J. V. Ortiz, A. F. Izmaylov, J. L. Sonnenberg, D. Williams-Young, 
 F. Ding, F. Lipparini, F. Egidi, J. Goings, B. Peng, A. Petrone, 
 T. Henderson, D. Ranasinghe, V. G. Zakrzewski, J. Gao, N. Rega, 
 G. Zheng, W. Liang, M. Hada, M. Ehara, K. Toyota, R. Fukuda, 
 J. Hasegawa, M. Ishida, T. Nakajima, Y. Honda, O. Kitao, H. Nakai, 
 T. Vreven, K. Throssell, J. A. Montgomery, Jr., J. E. Peralta, 
 F. Ogliaro, M. J. Bearpark, J. J. Heyd, E. N. Brothers, K. N. Kudin, 
 V. N. Staroverov, T. A. Keith, R. Kobayashi, J. Normand, 
 K. Raghavachari, A. P. Rendell, J. C. Burant, S. S. Iyengar, 
 J. Tomasi, M. Cossi, J. M. Millam, M. Klene, C. Adamo, R. Cammi, 
 J. W. Ochterski, R. L. Martin, K. Morokuma, O. Farkas, 
 J. B. Foresman, and D. J. Fox, Gaussian, Inc., Wallingford CT, 2019.
 
 ******************************************
 Gaussian 16:  ES64L-G16RevC.01  3-Jul-2019
                27-Mar-2025 
 ******************************************
 %nprocshared=32
 Will use up to   32 processors via shared memory.
 %mem=100GB
 ------------------------------------------
 #p opt freq b3lyp/def2svpp em=gd3bj nosymm
 ------------------------------------------
 1/18=20,19=15,26=3,38=1/1,3;
 2/9=110,12=2,15=1,17=6,18=5,40=1/2;
 3/5=43,7=202,11=2,25=1,30=1,71=1,74=-5,124=41/1,2,3;
 4//1;
 5/5=2,38=5/2;
 6/7=2,8=2,9=2,10=2,28=1/1;
 7/30=1/1,2,3,16;
 1/18=20,19=15,26=3/3(2);
 2/9=110,15=1/2;
 99//99;
 2/9=110,15=1/2;
 3/5=43,7=202,11=2,25=1,30=1,71=1,74=-5,124=41/1,2,3;
 4/5=5,16=3,69=1/1;
 5/5=2,38=5/2;
 7/30=1/1,2,3,16;
 1/18=20,19=15,26=3/3(-5);
 2/9=110,15=1/2;
 6/7=2,8=2,9=2,10=2,19=2,28=1/1;
 99/9=1/99;
 Leave Link    1 at Thu Mar 27 20:44:12 2025, MaxMem= 13421772800 cpu:               2.1 elap:               0.1
 (Enter /public/software/apps/Gaussian/g16/l101.exe)
 ------------------
 $$$$Title####0????
 ------------------
 Symbolic Z-matrix:
 Charge =  0 Multiplicity = 2
 C                    -6.72842   1.20187  -1.33901 
 O                    -5.58076   1.21372  -2.15724 
 C                    -5.77047   0.33258  -3.24291 
 C                    -4.56409   0.38736  -4.18025 
 O                    -3.40925  -0.19008  -3.56865 
 C                    -2.54827   0.4459   -2.65902 
 C                    -2.62937   1.81865  -2.35539 
 C                    -1.75634   2.389    -1.42413 
 C                    -0.77939   1.60481  -0.78786 
 C                     0.08571   2.17893   0.27325 
 C                    -0.46673   3.02469   1.24655 
 C                     0.29561   3.44634   2.33317 
 C                     1.61376   2.99863   2.49051 
 C                     2.33849   3.36553   3.63061 
 C                     3.6264    2.87968   3.83004 
 C                     4.21168   2.02469   2.89715 
 O                     5.49026   1.53544   3.14799 
 C                     3.51955   1.65479   1.724 
 C                     4.21444   0.75148   0.75572 
 C                     5.38806   1.22178   0.12997 
 O                     5.82107   2.52876   0.33277 
 C                     6.13598   0.38656  -0.69981 
 C                     5.73253  -0.92547  -0.92943 
 C                     4.5564   -1.41464  -0.34834 
 C                     4.13378  -2.72169  -0.62524 
 C                     2.91087  -3.18488  -0.14223 
 C                     2.09556  -2.3595    0.64943 
 C                     0.67519  -2.72611   0.92157 
 C                    -0.07568  -3.41635  -0.05154 
 C                    -1.45708  -3.56466   0.08744 
 C                    -2.1231   -2.99318   1.17292 
 O                    -3.5237   -3.03661   1.19823 
 C                    -4.34178  -1.97867   1.699 
 C                    -4.22031  -0.74359   0.80302 
 O                    -5.0102    0.30737   1.32665 
 C                    -4.18909   1.30889   1.88463 
 C                    -1.37701  -2.3686    2.18588 
 C                     0.00995  -2.25007   2.06797 
 C                     2.58535  -1.0981    1.03863 
 C                     3.78399  -0.58318   0.50349 
 C                     2.2024    2.15511   1.51117 
 C                     1.43773   1.80395   0.37741 
 C                    -0.68523   0.24137  -1.11497 
 C                    -1.56229  -0.32886  -2.03972 
 H                    -6.9222    0.18593  -0.92825 
 H                    -7.61972   1.57443  -1.8909 
 H                    -6.55742   1.8843   -0.48147 
 H                    -5.8914   -0.71498  -2.8834 
 H                    -6.67093   0.62293  -3.83188 
 H                    -4.80546  -0.21474  -5.08166 
 H                    -4.36726   1.42173  -4.53116 
 H                    -3.36225   2.45786  -2.82457 
 H                    -1.84473   3.44507  -1.20165 
 H                    -1.50475   3.32701   1.19228 
 H                    -0.16251   4.08713   3.07755 
 H                     1.90055   4.01494   4.37963 
 H                     4.17096   3.15927   4.72312 
 H                     7.0385    0.75812  -1.1685 
 H                     6.33058  -1.55287  -1.58003 
 H                     4.7274   -3.37108  -1.2581 
 H                     2.58929  -4.18093  -0.41772 
 H                     0.38591  -3.7787   -0.96037 
 H                    -2.02259  -4.05721  -0.69345 
 H                    -5.39852  -2.3201    1.69809 
 H                    -4.07344  -1.73228   2.7469 
 H                    -3.14511  -0.47751   0.65986 
 H                    -4.61081  -1.00157  -0.20441 
 H                    -3.5233    0.89294   2.67409 
 H                    -4.83583   2.07702   2.35539 
 H                    -3.58922   1.8097    1.09292 
 H                    -1.86025  -1.95849   3.06107 
 H                     0.55321  -1.75316   2.86086 
 H                     1.97969  -0.4815    1.68193 
 H                     1.86874   1.19496  -0.4059 
 H                     0.04392  -0.39223  -0.62936 
 H                    -1.48572  -1.38521  -2.26474 
 Cu                    6.82182   2.42276   2.01521 
 
 ITRead=  0  0  0  0  0  0  0  0  0  0  0  0  0  0  0  0  0  0  0  0
 ITRead=  0  0  0  0  0  0  0  0  0  0  0  0  0  0  0  0  0  0  0  0
 ITRead=  0  0  0  0  0  0  0  0  0  0  0  0  0  0  0  0  0  0  0  0
 ITRead=  0  0  0  0  0  0  0  0  0  0  0  0  0  0  0  0  0
 MicOpt= -1 -1 -1 -1 -1 -1 -1 -1 -1 -1 -1 -1 -1 -1 -1 -1 -1 -1 -1 -1
 MicOpt= -1 -1 -1 -1 -1 -1 -1 -1 -1 -1 -1 -1 -1 -1 -1 -1 -1 -1 -1 -1
 MicOpt= -1 -1 -1 -1 -1 -1 -1 -1 -1 -1 -1 -1 -1 -1 -1 -1 -1 -1 -1 -1
 MicOpt= -1 -1 -1 -1 -1 -1 -1 -1 -1 -1 -1 -1 -1 -1 -1 -1 -1
 NAtoms=     77 NQM=       77 NQMF=       0 NMMI=      0 NMMIF=      0
                NMic=       0 NMicF=      0.
                    Isotopes and Nuclear Properties:
 (Nuclear quadrupole moments (NQMom) in fm**2, nuclear magnetic moments (NMagM)
  in nuclear magnetons)

  Atom         1           2           3           4           5           6           7           8           9          10
 IAtWgt=          12          16          12          12          16          12          12          12          12          12
 AtmWgt=  12.0000000  15.9949146  12.0000000  12.0000000  15.9949146  12.0000000  12.0000000  12.0000000  12.0000000  12.0000000
 NucSpn=           0           0           0           0           0           0           0           0           0           0
 AtZEff=  -0.0000000  -0.0000000  -0.0000000  -0.0000000  -0.0000000  -0.0000000  -0.0000000  -0.0000000  -0.0000000  -0.0000000
 NQMom=    0.0000000   0.0000000   0.0000000   0.0000000   0.0000000   0.0000000   0.0000000   0.0000000   0.0000000   0.0000000
 NMagM=    0.0000000   0.0000000   0.0000000   0.0000000   0.0000000   0.0000000   0.0000000   0.0000000   0.0000000   0.0000000
 AtZNuc=   6.0000000   8.0000000   6.0000000   6.0000000   8.0000000   6.0000000   6.0000000   6.0000000   6.0000000   6.0000000

  Atom        11          12          13          14          15          16          17          18          19          20
 IAtWgt=          12          12          12          12          12          12          16          12          12          12
 AtmWgt=  12.0000000  12.0000000  12.0000000  12.0000000  12.0000000  12.0000000  15.9949146  12.0000000  12.0000000  12.0000000
 NucSpn=           0           0           0           0           0           0           0           0           0           0
 AtZEff=  -0.0000000  -0.0000000  -0.0000000  -0.0000000  -0.0000000  -0.0000000  -0.0000000  -0.0000000  -0.0000000  -0.0000000
 NQMom=    0.0000000   0.0000000   0.0000000   0.0000000   0.0000000   0.0000000   0.0000000   0.0000000   0.0000000   0.0000000
 NMagM=    0.0000000   0.0000000   0.0000000   0.0000000   0.0000000   0.0000000   0.0000000   0.0000000   0.0000000   0.0000000
 AtZNuc=   6.0000000   6.0000000   6.0000000   6.0000000   6.0000000   6.0000000   8.0000000   6.0000000   6.0000000   6.0000000

  Atom        21          22          23          24          25          26          27          28          29          30
 IAtWgt=          16          12          12          12          12          12          12          12          12          12
 AtmWgt=  15.9949146  12.0000000  12.0000000  12.0000000  12.0000000  12.0000000  12.0000000  12.0000000  12.0000000  12.0000000
 NucSpn=           0           0           0           0           0           0           0           0           0           0
 AtZEff=  -0.0000000  -0.0000000  -0.0000000  -0.0000000  -0.0000000  -0.0000000  -0.0000000  -0.0000000  -0.0000000  -0.0000000
 NQMom=    0.0000000   0.0000000   0.0000000   0.0000000   0.0000000   0.0000000   0.0000000   0.0000000   0.0000000   0.0000000
 NMagM=    0.0000000   0.0000000   0.0000000   0.0000000   0.0000000   0.0000000   0.0000000   0.0000000   0.0000000   0.0000000
 AtZNuc=   8.0000000   6.0000000   6.0000000   6.0000000   6.0000000   6.0000000   6.0000000   6.0000000   6.0000000   6.0000000

  Atom        31          32          33          34          35          36          37          38          39          40
 IAtWgt=          12          16          12          12          16          12          12          12          12          12
 AtmWgt=  12.0000000  15.9949146  12.0000000  12.0000000  15.9949146  12.0000000  12.0000000  12.0000000  12.0000000  12.0000000
 NucSpn=           0           0           0           0           0           0           0           0           0           0
 AtZEff=  -0.0000000  -0.0000000  -0.0000000  -0.0000000  -0.0000000  -0.0000000  -0.0000000  -0.0000000  -0.0000000  -0.0000000
 NQMom=    0.0000000   0.0000000   0.0000000   0.0000000   0.0000000   0.0000000   0.0000000   0.0000000   0.0000000   0.0000000
 NMagM=    0.0000000   0.0000000   0.0000000   0.0000000   0.0000000   0.0000000   0.0000000   0.0000000   0.0000000   0.0000000
 AtZNuc=   6.0000000   8.0000000   6.0000000   6.0000000   8.0000000   6.0000000   6.0000000   6.0000000   6.0000000   6.0000000

  Atom        41          42          43          44          45          46          47          48          49          50
 IAtWgt=          12          12          12          12           1           1           1           1           1           1
 AtmWgt=  12.0000000  12.0000000  12.0000000  12.0000000   1.0078250   1.0078250   1.0078250   1.0078250   1.0078250   1.0078250
 NucSpn=           0           0           0           0           1           1           1           1           1           1
 AtZEff=  -0.0000000  -0.0000000  -0.0000000  -0.0000000  -0.0000000  -0.0000000  -0.0000000  -0.0000000  -0.0000000  -0.0000000
 NQMom=    0.0000000   0.0000000   0.0000000   0.0000000   0.0000000   0.0000000   0.0000000   0.0000000   0.0000000   0.0000000
 NMagM=    0.0000000   0.0000000   0.0000000   0.0000000   2.7928460   2.7928460   2.7928460   2.7928460   2.7928460   2.7928460
 AtZNuc=   6.0000000   6.0000000   6.0000000   6.0000000   1.0000000   1.0000000   1.0000000   1.0000000   1.0000000   1.0000000

  Atom        51          52          53          54          55          56          57          58          59          60
 IAtWgt=           1           1           1           1           1           1           1           1           1           1
 AtmWgt=   1.0078250   1.0078250   1.0078250   1.0078250   1.0078250   1.0078250   1.0078250   1.0078250   1.0078250   1.0078250
 NucSpn=           1           1           1           1           1           1           1           1           1           1
 AtZEff=  -0.0000000  -0.0000000  -0.0000000  -0.0000000  -0.0000000  -0.0000000  -0.0000000  -0.0000000  -0.0000000  -0.0000000
 NQMom=    0.0000000   0.0000000   0.0000000   0.0000000   0.0000000   0.0000000   0.0000000   0.0000000   0.0000000   0.0000000
 NMagM=    2.7928460   2.7928460   2.7928460   2.7928460   2.7928460   2.7928460   2.7928460   2.7928460   2.7928460   2.7928460
 AtZNuc=   1.0000000   1.0000000   1.0000000   1.0000000   1.0000000   1.0000000   1.0000000   1.0000000   1.0000000   1.0000000

  Atom        61          62          63          64          65          66          67          68          69          70
 IAtWgt=           1           1           1           1           1           1           1           1           1           1
 AtmWgt=   1.0078250   1.0078250   1.0078250   1.0078250   1.0078250   1.0078250   1.0078250   1.0078250   1.0078250   1.0078250
 NucSpn=           1           1           1           1           1           1           1           1           1           1
 AtZEff=  -0.0000000  -0.0000000  -0.0000000  -0.0000000  -0.0000000  -0.0000000  -0.0000000  -0.0000000  -0.0000000  -0.0000000
 NQMom=    0.0000000   0.0000000   0.0000000   0.0000000   0.0000000   0.0000000   0.0000000   0.0000000   0.0000000   0.0000000
 NMagM=    2.7928460   2.7928460   2.7928460   2.7928460   2.7928460   2.7928460   2.7928460   2.7928460   2.7928460   2.7928460
 AtZNuc=   1.0000000   1.0000000   1.0000000   1.0000000   1.0000000   1.0000000   1.0000000   1.0000000   1.0000000   1.0000000

  Atom        71          72          73          74          75          76          77
 IAtWgt=           1           1           1           1           1           1          63
 AtmWgt=   1.0078250   1.0078250   1.0078250   1.0078250   1.0078250   1.0078250  62.9295992
 NucSpn=           1           1           1           1           1           1           3
 AtZEff=  -0.0000000  -0.0000000  -0.0000000  -0.0000000  -0.0000000  -0.0000000  -0.0000000
 NQMom=    0.0000000   0.0000000   0.0000000   0.0000000   0.0000000   0.0000000 -22.0000000
 NMagM=    2.7928460   2.7928460   2.7928460   2.7928460   2.7928460   2.7928460   2.2233000
 AtZNuc=   1.0000000   1.0000000   1.0000000   1.0000000   1.0000000   1.0000000  29.0000000
 Leave Link  101 at Thu Mar 27 20:44:12 2025, MaxMem= 13421772800 cpu:               4.8 elap:               0.2
 (Enter /public/software/apps/Gaussian/g16/l103.exe)

 GradGradGradGradGradGradGradGradGradGradGradGradGradGradGradGradGradGrad
 Berny optimization.
 Initialization pass.
                           ----------------------------
                           !    Initial Parameters    !
                           ! (Angstroms and Degrees)  !
 --------------------------                            --------------------------
 ! Name  Definition              Value          Derivative Info.                !
 --------------------------------------------------------------------------------
 ! R1    R(1,2)                  1.4095         estimate D2E/DX2                !
 ! R2    R(1,45)                 1.1128         estimate D2E/DX2                !
 ! R3    R(1,46)                 1.1126         estimate D2E/DX2                !
 ! R4    R(1,47)                 1.1092         estimate D2E/DX2                !
 ! R5    R(2,3)                  1.4111         estimate D2E/DX2                !
 ! R6    R(3,4)                  1.5287         estimate D2E/DX2                !
 ! R7    R(3,48)                 1.1141         estimate D2E/DX2                !
 ! R8    R(3,49)                 1.1145         estimate D2E/DX2                !
 ! R9    R(4,5)                  1.4287         estimate D2E/DX2                !
 ! R10   R(4,50)                 1.1106         estimate D2E/DX2                !
 ! R11   R(4,51)                 1.1099         estimate D2E/DX2                !
 ! R12   R(5,6)                  1.4047         estimate D2E/DX2                !
 ! R13   R(6,7)                  1.4083         estimate D2E/DX2                !
 ! R14   R(6,44)                 1.3986         estimate D2E/DX2                !
 ! R15   R(7,8)                  1.3981         estimate D2E/DX2                !
 ! R16   R(7,52)                 1.0797         estimate D2E/DX2                !
 ! R17   R(8,9)                  1.4051         estimate D2E/DX2                !
 ! R18   R(8,53)                 1.0829         estimate D2E/DX2                !
 ! R19   R(9,10)                 1.4846         estimate D2E/DX2                !
 ! R20   R(9,43)                 1.4053         estimate D2E/DX2                !
 ! R21   R(10,11)                1.4028         estimate D2E/DX2                !
 ! R22   R(10,42)                1.4069         estimate D2E/DX2                !
 ! R23   R(11,12)                1.3927         estimate D2E/DX2                !
 ! R24   R(11,54)                1.0825         estimate D2E/DX2                !
 ! R25   R(12,13)                1.401          estimate D2E/DX2                !
 ! R26   R(12,55)                1.0838         estimate D2E/DX2                !
 ! R27   R(13,14)                1.3999         estimate D2E/DX2                !
 ! R28   R(13,41)                1.4203         estimate D2E/DX2                !
 ! R29   R(14,15)                1.3909         estimate D2E/DX2                !
 ! R30   R(14,56)                1.0838         estimate D2E/DX2                !
 ! R31   R(15,16)                1.3942         estimate D2E/DX2                !
 ! R32   R(15,57)                1.0827         estimate D2E/DX2                !
 ! R33   R(16,17)                1.3918         estimate D2E/DX2                !
 ! R34   R(16,18)                1.4114         estimate D2E/DX2                !
 ! R35   R(17,77)                1.9605         estimate D2E/DX2                !
 ! R36   R(18,19)                1.4955         estimate D2E/DX2                !
 ! R37   R(18,41)                1.425          estimate D2E/DX2                !
 ! R38   R(19,20)                1.4107         estimate D2E/DX2                !
 ! R39   R(19,40)                1.4249         estimate D2E/DX2                !
 ! R40   R(20,21)                1.3917         estimate D2E/DX2                !
 ! R41   R(20,22)                1.3948         estimate D2E/DX2                !
 ! R42   R(21,77)                1.9604         estimate D2E/DX2                !
 ! R43   R(22,23)                1.3917         estimate D2E/DX2                !
 ! R44   R(22,58)                1.0827         estimate D2E/DX2                !
 ! R45   R(23,24)                1.4001         estimate D2E/DX2                !
 ! R46   R(23,59)                1.0838         estimate D2E/DX2                !
 ! R47   R(24,25)                1.4013         estimate D2E/DX2                !
 ! R48   R(24,40)                1.419          estimate D2E/DX2                !
 ! R49   R(25,26)                1.394          estimate D2E/DX2                !
 ! R50   R(25,60)                1.0838         estimate D2E/DX2                !
 ! R51   R(26,27)                1.4045         estimate D2E/DX2                !
 ! R52   R(26,61)                1.0823         estimate D2E/DX2                !
 ! R53   R(27,28)                1.492          estimate D2E/DX2                !
 ! R54   R(27,39)                1.408          estimate D2E/DX2                !
 ! R55   R(28,29)                1.4097         estimate D2E/DX2                !
 ! R56   R(28,38)                1.4083         estimate D2E/DX2                !
 ! R57   R(29,30)                1.3963         estimate D2E/DX2                !
 ! R58   R(29,62)                1.0818         estimate D2E/DX2                !
 ! R59   R(30,31)                1.3959         estimate D2E/DX2                !
 ! R60   R(30,63)                1.0827         estimate D2E/DX2                !
 ! R61   R(31,32)                1.4015         estimate D2E/DX2                !
 ! R62   R(31,37)                1.4046         estimate D2E/DX2                !
 ! R63   R(32,33)                1.428          estimate D2E/DX2                !
 ! R64   R(33,34)                1.5307         estimate D2E/DX2                !
 ! R65   R(33,64)                1.1105         estimate D2E/DX2                !
 ! R66   R(33,65)                1.1094         estimate D2E/DX2                !
 ! R67   R(34,35)                1.4151         estimate D2E/DX2                !
 ! R68   R(34,66)                1.1168         estimate D2E/DX2                !
 ! R69   R(34,67)                1.1108         estimate D2E/DX2                !
 ! R70   R(35,36)                1.4102         estimate D2E/DX2                !
 ! R71   R(36,68)                1.1133         estimate D2E/DX2                !
 ! R72   R(36,69)                1.109          estimate D2E/DX2                !
 ! R73   R(36,70)                1.1124         estimate D2E/DX2                !
 ! R74   R(37,38)                1.397          estimate D2E/DX2                !
 ! R75   R(37,71)                1.0806         estimate D2E/DX2                !
 ! R76   R(38,72)                1.082          estimate D2E/DX2                !
 ! R77   R(39,40)                1.4101         estimate D2E/DX2                !
 ! R78   R(39,73)                1.0774         estimate D2E/DX2                !
 ! R79   R(41,42)                1.4119         estimate D2E/DX2                !
 ! R80   R(42,74)                1.0818         estimate D2E/DX2                !
 ! R81   R(43,44)                1.3963         estimate D2E/DX2                !
 ! R82   R(43,75)                1.0812         estimate D2E/DX2                !
 ! R83   R(44,76)                1.0828         estimate D2E/DX2                !
 ! A1    A(2,1,45)             111.3292         estimate D2E/DX2                !
 ! A2    A(2,1,46)             111.193          estimate D2E/DX2                !
 ! A3    A(2,1,47)             108.5483         estimate D2E/DX2                !
 ! A4    A(45,1,46)            110.4449         estimate D2E/DX2                !
 ! A5    A(45,1,47)            107.6474         estimate D2E/DX2                !
 ! A6    A(46,1,47)            107.5161         estimate D2E/DX2                !
 ! A7    A(1,2,3)              109.3857         estimate D2E/DX2                !
 ! A8    A(2,3,4)              110.0773         estimate D2E/DX2                !
 ! A9    A(2,3,48)             110.6994         estimate D2E/DX2                !
 ! A10   A(2,3,49)             110.6433         estimate D2E/DX2                !
 ! A11   A(4,3,48)             108.4942         estimate D2E/DX2                !
 ! A12   A(4,3,49)             107.7128         estimate D2E/DX2                !
 ! A13   A(48,3,49)            109.1354         estimate D2E/DX2                !
 ! A14   A(3,4,5)              111.157          estimate D2E/DX2                !
 ! A15   A(3,4,50)             107.8626         estimate D2E/DX2                !
 ! A16   A(3,4,51)             111.5434         estimate D2E/DX2                !
 ! A17   A(5,4,50)             107.6997         estimate D2E/DX2                !
 ! A18   A(5,4,51)             111.6343         estimate D2E/DX2                !
 ! A19   A(50,4,51)            106.6901         estimate D2E/DX2                !
 ! A20   A(4,5,6)              126.1331         estimate D2E/DX2                !
 ! A21   A(5,6,7)              123.0697         estimate D2E/DX2                !
 ! A22   A(5,6,44)             117.9081         estimate D2E/DX2                !
 ! A23   A(7,6,44)             119.0205         estimate D2E/DX2                !
 ! A24   A(6,7,8)              120.3518         estimate D2E/DX2                !
 ! A25   A(6,7,52)             121.498          estimate D2E/DX2                !
 ! A26   A(8,7,52)             118.1495         estimate D2E/DX2                !
 ! A27   A(7,8,9)              120.539          estimate D2E/DX2                !
 ! A28   A(7,8,53)             118.9293         estimate D2E/DX2                !
 ! A29   A(9,8,53)             120.5317         estimate D2E/DX2                !
 ! A30   A(8,9,10)             120.8642         estimate D2E/DX2                !
 ! A31   A(8,9,43)             118.8598         estimate D2E/DX2                !
 ! A32   A(10,9,43)            120.1683         estimate D2E/DX2                !
 ! A33   A(9,10,11)            119.9736         estimate D2E/DX2                !
 ! A34   A(9,10,42)            120.6525         estimate D2E/DX2                !
 ! A35   A(11,10,42)           119.1941         estimate D2E/DX2                !
 ! A36   A(10,11,12)           120.5513         estimate D2E/DX2                !
 ! A37   A(10,11,54)           120.745          estimate D2E/DX2                !
 ! A38   A(12,11,54)           118.649          estimate D2E/DX2                !
 ! A39   A(11,12,13)           120.3903         estimate D2E/DX2                !
 ! A40   A(11,12,55)           118.9141         estimate D2E/DX2                !
 ! A41   A(13,12,55)           120.6323         estimate D2E/DX2                !
 ! A42   A(12,13,14)           119.6576         estimate D2E/DX2                !
 ! A43   A(12,13,41)           120.1529         estimate D2E/DX2                !
 ! A44   A(14,13,41)           120.1776         estimate D2E/DX2                !
 ! A45   A(13,14,15)           120.3053         estimate D2E/DX2                !
 ! A46   A(13,14,56)           120.7118         estimate D2E/DX2                !
 ! A47   A(15,14,56)           118.9724         estimate D2E/DX2                !
 ! A48   A(14,15,16)           120.4634         estimate D2E/DX2                !
 ! A49   A(14,15,57)           119.5896         estimate D2E/DX2                !
 ! A50   A(16,15,57)           119.9425         estimate D2E/DX2                !
 ! A51   A(15,16,17)           118.7263         estimate D2E/DX2                !
 ! A52   A(15,16,18)           120.7311         estimate D2E/DX2                !
 ! A53   A(17,16,18)           120.5415         estimate D2E/DX2                !
 ! A54   A(16,17,77)           111.1438         estimate D2E/DX2                !
 ! A55   A(16,18,19)           117.9441         estimate D2E/DX2                !
 ! A56   A(16,18,41)           119.0383         estimate D2E/DX2                !
 ! A57   A(19,18,41)           123.0174         estimate D2E/DX2                !
 ! A58   A(18,19,20)           118.1904         estimate D2E/DX2                !
 ! A59   A(18,19,40)           122.686          estimate D2E/DX2                !
 ! A60   A(20,19,40)           119.0176         estimate D2E/DX2                !
 ! A61   A(19,20,21)           120.4834         estimate D2E/DX2                !
 ! A62   A(19,20,22)           120.687          estimate D2E/DX2                !
 ! A63   A(21,20,22)           118.8295         estimate D2E/DX2                !
 ! A64   A(20,21,77)           103.4796         estimate D2E/DX2                !
 ! A65   A(20,22,23)           120.4791         estimate D2E/DX2                !
 ! A66   A(20,22,58)           119.9341         estimate D2E/DX2                !
 ! A67   A(23,22,58)           119.5867         estimate D2E/DX2                !
 ! A68   A(22,23,24)           120.2924         estimate D2E/DX2                !
 ! A69   A(22,23,59)           119.0016         estimate D2E/DX2                !
 ! A70   A(24,23,59)           120.6933         estimate D2E/DX2                !
 ! A71   A(23,24,25)           119.8159         estimate D2E/DX2                !
 ! A72   A(23,24,40)           120.1122         estimate D2E/DX2                !
 ! A73   A(25,24,40)           120.0658         estimate D2E/DX2                !
 ! A74   A(24,25,26)           120.3984         estimate D2E/DX2                !
 ! A75   A(24,25,60)           120.6024         estimate D2E/DX2                !
 ! A76   A(26,25,60)           118.9292         estimate D2E/DX2                !
 ! A77   A(25,26,27)           120.615          estimate D2E/DX2                !
 ! A78   A(25,26,61)           118.5698         estimate D2E/DX2                !
 ! A79   A(27,26,61)           120.7841         estimate D2E/DX2                !
 ! A80   A(26,27,28)           120.734          estimate D2E/DX2                !
 ! A81   A(26,27,39)           118.7076         estimate D2E/DX2                !
 ! A82   A(28,27,39)           120.0583         estimate D2E/DX2                !
 ! A83   A(27,28,29)           120.0991         estimate D2E/DX2                !
 ! A84   A(27,28,38)           121.0056         estimate D2E/DX2                !
 ! A85   A(29,28,38)           118.4133         estimate D2E/DX2                !
 ! A86   A(28,29,30)           120.6823         estimate D2E/DX2                !
 ! A87   A(28,29,62)           121.1082         estimate D2E/DX2                !
 ! A88   A(30,29,62)           118.0459         estimate D2E/DX2                !
 ! A89   A(29,30,31)           120.3958         estimate D2E/DX2                !
 ! A90   A(29,30,63)           119.557          estimate D2E/DX2                !
 ! A91   A(31,30,63)           119.8622         estimate D2E/DX2                !
 ! A92   A(30,31,32)           118.5671         estimate D2E/DX2                !
 ! A93   A(30,31,37)           119.303          estimate D2E/DX2                !
 ! A94   A(32,31,37)           122.1135         estimate D2E/DX2                !
 ! A95   A(31,32,33)           123.7717         estimate D2E/DX2                !
 ! A96   A(32,33,34)           110.3065         estimate D2E/DX2                !
 ! A97   A(32,33,64)           108.4859         estimate D2E/DX2                !
 ! A98   A(32,33,65)           110.928          estimate D2E/DX2                !
 ! A99   A(34,33,64)           108.8514         estimate D2E/DX2                !
 ! A100  A(34,33,65)           110.7625         estimate D2E/DX2                !
 ! A101  A(64,33,65)           107.4106         estimate D2E/DX2                !
 ! A102  A(33,34,35)           109.7763         estimate D2E/DX2                !
 ! A103  A(33,34,66)           110.1002         estimate D2E/DX2                !
 ! A104  A(33,34,67)           108.395          estimate D2E/DX2                !
 ! A105  A(35,34,66)           114.0703         estimate D2E/DX2                !
 ! A106  A(35,34,67)           108.1697         estimate D2E/DX2                !
 ! A107  A(66,34,67)           106.1118         estimate D2E/DX2                !
 ! A108  A(34,35,36)           110.4165         estimate D2E/DX2                !
 ! A109  A(35,36,68)           111.3114         estimate D2E/DX2                !
 ! A110  A(35,36,69)           108.6814         estimate D2E/DX2                !
 ! A111  A(35,36,70)           110.617          estimate D2E/DX2                !
 ! A112  A(68,36,69)           107.8493         estimate D2E/DX2                !
 ! A113  A(68,36,70)           110.5103         estimate D2E/DX2                !
 ! A114  A(69,36,70)           107.7441         estimate D2E/DX2                !
 ! A115  A(31,37,38)           120.2799         estimate D2E/DX2                !
 ! A116  A(31,37,71)           121.019          estimate D2E/DX2                !
 ! A117  A(38,37,71)           118.6949         estimate D2E/DX2                !
 ! A118  A(28,38,37)           120.5966         estimate D2E/DX2                !
 ! A119  A(28,38,72)           120.9691         estimate D2E/DX2                !
 ! A120  A(37,38,72)           118.3983         estimate D2E/DX2                !
 ! A121  A(27,39,40)           121.1948         estimate D2E/DX2                !
 ! A122  A(27,39,73)           118.8294         estimate D2E/DX2                !
 ! A123  A(40,39,73)           119.6998         estimate D2E/DX2                !
 ! A124  A(19,40,24)           119.385          estimate D2E/DX2                !
 ! A125  A(19,40,39)           122.1195         estimate D2E/DX2                !
 ! A126  A(24,40,39)           118.4616         estimate D2E/DX2                !
 ! A127  A(13,41,18)           119.2516         estimate D2E/DX2                !
 ! A128  A(13,41,42)           118.4873         estimate D2E/DX2                !
 ! A129  A(18,41,42)           122.2236         estimate D2E/DX2                !
 ! A130  A(10,42,41)           120.9053         estimate D2E/DX2                !
 ! A131  A(10,42,74)           118.6411         estimate D2E/DX2                !
 ! A132  A(41,42,74)           120.377          estimate D2E/DX2                !
 ! A133  A(9,43,44)            120.5517         estimate D2E/DX2                !
 ! A134  A(9,43,75)            120.6116         estimate D2E/DX2                !
 ! A135  A(44,43,75)           118.801          estimate D2E/DX2                !
 ! A136  A(6,44,43)            120.656          estimate D2E/DX2                !
 ! A137  A(6,44,76)            119.8871         estimate D2E/DX2                !
 ! A138  A(43,44,76)           119.4491         estimate D2E/DX2                !
 ! A139  A(17,77,21)            99.9991         estimate D2E/DX2                !
 ! D1    D(45,1,2,3)            60.6843         estimate D2E/DX2                !
 ! D2    D(46,1,2,3)           -62.9294         estimate D2E/DX2                !
 ! D3    D(47,1,2,3)           178.9979         estimate D2E/DX2                !
 ! D4    D(1,2,3,4)            177.0799         estimate D2E/DX2                !
 ! D5    D(1,2,3,48)           -62.9766         estimate D2E/DX2                !
 ! D6    D(1,2,3,49)            58.1425         estimate D2E/DX2                !
 ! D7    D(2,3,4,5)             69.3042         estimate D2E/DX2                !
 ! D8    D(2,3,4,50)          -172.8407         estimate D2E/DX2                !
 ! D9    D(2,3,4,51)           -55.9923         estimate D2E/DX2                !
 ! D10   D(48,3,4,5)           -51.9665         estimate D2E/DX2                !
 ! D11   D(48,3,4,50)           65.8886         estimate D2E/DX2                !
 ! D12   D(48,3,4,51)         -177.263          estimate D2E/DX2                !
 ! D13   D(49,3,4,5)          -169.9803         estimate D2E/DX2                !
 ! D14   D(49,3,4,50)          -52.1252         estimate D2E/DX2                !
 ! D15   D(49,3,4,51)           64.7232         estimate D2E/DX2                !
 ! D16   D(3,4,5,6)            -81.6051         estimate D2E/DX2                !
 ! D17   D(50,4,5,6)           160.4412         estimate D2E/DX2                !
 ! D18   D(51,4,5,6)            43.6406         estimate D2E/DX2                !
 ! D19   D(4,5,6,7)             -8.1478         estimate D2E/DX2                !
 ! D20   D(4,5,6,44)           172.3335         estimate D2E/DX2                !
 ! D21   D(5,6,7,8)            178.97           estimate D2E/DX2                !
 ! D22   D(5,6,7,52)            -0.727          estimate D2E/DX2                !
 ! D23   D(44,6,7,8)            -1.5164         estimate D2E/DX2                !
 ! D24   D(44,6,7,52)          178.7866         estimate D2E/DX2                !
 ! D25   D(5,6,44,43)         -179.2908         estimate D2E/DX2                !
 ! D26   D(5,6,44,76)           -0.3112         estimate D2E/DX2                !
 ! D27   D(7,6,44,43)            1.1704         estimate D2E/DX2                !
 ! D28   D(7,6,44,76)         -179.85           estimate D2E/DX2                !
 ! D29   D(6,7,8,9)              0.576          estimate D2E/DX2                !
 ! D30   D(6,7,8,53)          -179.4693         estimate D2E/DX2                !
 ! D31   D(52,7,8,9)          -179.717          estimate D2E/DX2                !
 ! D32   D(52,7,8,53)            0.2376         estimate D2E/DX2                !
 ! D33   D(7,8,9,10)          -175.5156         estimate D2E/DX2                !
 ! D34   D(7,8,9,43)             0.7171         estimate D2E/DX2                !
 ! D35   D(53,8,9,10)            4.5304         estimate D2E/DX2                !
 ! D36   D(53,8,9,43)         -179.2368         estimate D2E/DX2                !
 ! D37   D(8,9,10,11)           42.0205         estimate D2E/DX2                !
 ! D38   D(8,9,10,42)         -142.8911         estimate D2E/DX2                !
 ! D39   D(43,9,10,11)        -134.1632         estimate D2E/DX2                !
 ! D40   D(43,9,10,42)          40.9253         estimate D2E/DX2                !
 ! D41   D(8,9,43,44)           -1.0674         estimate D2E/DX2                !
 ! D42   D(8,9,43,75)         -178.8665         estimate D2E/DX2                !
 ! D43   D(10,9,43,44)         175.1923         estimate D2E/DX2                !
 ! D44   D(10,9,43,75)          -2.6069         estimate D2E/DX2                !
 ! D45   D(9,10,11,12)         172.5828         estimate D2E/DX2                !
 ! D46   D(9,10,11,54)          -4.6885         estimate D2E/DX2                !
 ! D47   D(42,10,11,12)         -2.5773         estimate D2E/DX2                !
 ! D48   D(42,10,11,54)       -179.8486         estimate D2E/DX2                !
 ! D49   D(9,10,42,41)        -168.7217         estimate D2E/DX2                !
 ! D50   D(9,10,42,74)           8.1077         estimate D2E/DX2                !
 ! D51   D(11,10,42,41)          6.4047         estimate D2E/DX2                !
 ! D52   D(11,10,42,74)       -176.766          estimate D2E/DX2                !
 ! D53   D(10,11,12,13)         -1.9334         estimate D2E/DX2                !
 ! D54   D(10,11,12,55)       -179.0587         estimate D2E/DX2                !
 ! D55   D(54,11,12,13)        175.3942         estimate D2E/DX2                !
 ! D56   D(54,11,12,55)         -1.7311         estimate D2E/DX2                !
 ! D57   D(11,12,13,14)       -176.0618         estimate D2E/DX2                !
 ! D58   D(11,12,13,41)          2.6886         estimate D2E/DX2                !
 ! D59   D(55,12,13,14)          1.0138         estimate D2E/DX2                !
 ! D60   D(55,12,13,41)        179.7641         estimate D2E/DX2                !
 ! D61   D(12,13,14,15)        177.0822         estimate D2E/DX2                !
 ! D62   D(12,13,14,56)         -1.7251         estimate D2E/DX2                !
 ! D63   D(41,13,14,15)         -1.6678         estimate D2E/DX2                !
 ! D64   D(41,13,14,56)        179.5249         estimate D2E/DX2                !
 ! D65   D(12,13,41,18)       -176.7721         estimate D2E/DX2                !
 ! D66   D(12,13,41,42)          1.0529         estimate D2E/DX2                !
 ! D67   D(14,13,41,18)          1.9717         estimate D2E/DX2                !
 ! D68   D(14,13,41,42)        179.7967         estimate D2E/DX2                !
 ! D69   D(13,14,15,16)          0.127          estimate D2E/DX2                !
 ! D70   D(13,14,15,57)       -179.1004         estimate D2E/DX2                !
 ! D71   D(56,14,15,16)        178.9549         estimate D2E/DX2                !
 ! D72   D(56,14,15,57)         -0.2725         estimate D2E/DX2                !
 ! D73   D(14,15,16,17)       -178.5311         estimate D2E/DX2                !
 ! D74   D(14,15,16,18)          1.0991         estimate D2E/DX2                !
 ! D75   D(57,15,16,17)          0.6936         estimate D2E/DX2                !
 ! D76   D(57,15,16,18)       -179.6763         estimate D2E/DX2                !
 ! D77   D(15,16,17,77)       -105.6633         estimate D2E/DX2                !
 ! D78   D(18,16,17,77)         74.7058         estimate D2E/DX2                !
 ! D79   D(15,16,18,19)        179.068          estimate D2E/DX2                !
 ! D80   D(15,16,18,41)         -0.7621         estimate D2E/DX2                !
 ! D81   D(17,16,18,19)         -1.3086         estimate D2E/DX2                !
 ! D82   D(17,16,18,41)        178.8613         estimate D2E/DX2                !
 ! D83   D(16,17,77,21)        -39.8404         estimate D2E/DX2                !
 ! D84   D(16,18,19,20)        -63.4512         estimate D2E/DX2                !
 ! D85   D(16,18,19,40)        112.7645         estimate D2E/DX2                !
 ! D86   D(41,18,19,20)        116.3717         estimate D2E/DX2                !
 ! D87   D(41,18,19,40)        -67.4127         estimate D2E/DX2                !
 ! D88   D(16,18,41,13)         -0.7614         estimate D2E/DX2                !
 ! D89   D(16,18,41,42)       -178.5016         estimate D2E/DX2                !
 ! D90   D(19,18,41,13)        179.4176         estimate D2E/DX2                !
 ! D91   D(19,18,41,42)          1.6773         estimate D2E/DX2                !
 ! D92   D(18,19,20,21)         -4.9833         estimate D2E/DX2                !
 ! D93   D(18,19,20,22)        174.8954         estimate D2E/DX2                !
 ! D94   D(40,19,20,21)        178.6588         estimate D2E/DX2                !
 ! D95   D(40,19,20,22)         -1.4624         estimate D2E/DX2                !
 ! D96   D(18,19,40,24)       -175.0            estimate D2E/DX2                !
 ! D97   D(18,19,40,39)          7.1523         estimate D2E/DX2                !
 ! D98   D(20,19,40,24)          1.1857         estimate D2E/DX2                !
 ! D99   D(20,19,40,39)       -176.662          estimate D2E/DX2                !
 ! D100  D(19,20,21,77)         83.6789         estimate D2E/DX2                !
 ! D101  D(22,20,21,77)        -96.2021         estimate D2E/DX2                !
 ! D102  D(19,20,22,23)          0.2962         estimate D2E/DX2                !
 ! D103  D(19,20,22,58)       -179.5793         estimate D2E/DX2                !
 ! D104  D(21,20,22,23)       -179.8232         estimate D2E/DX2                !
 ! D105  D(21,20,22,58)          0.3014         estimate D2E/DX2                !
 ! D106  D(20,21,77,17)        -51.7691         estimate D2E/DX2                !
 ! D107  D(20,22,23,24)          1.1637         estimate D2E/DX2                !
 ! D108  D(20,22,23,59)        179.8744         estimate D2E/DX2                !
 ! D109  D(58,22,23,24)       -178.9604         estimate D2E/DX2                !
 ! D110  D(58,22,23,59)         -0.2497         estimate D2E/DX2                !
 ! D111  D(22,23,24,25)        177.677          estimate D2E/DX2                !
 ! D112  D(22,23,24,40)         -1.4211         estimate D2E/DX2                !
 ! D113  D(59,23,24,25)         -1.0116         estimate D2E/DX2                !
 ! D114  D(59,23,24,40)        179.8902         estimate D2E/DX2                !
 ! D115  D(23,24,25,26)       -174.7524         estimate D2E/DX2                !
 ! D116  D(23,24,25,60)          2.173          estimate D2E/DX2                !
 ! D117  D(40,24,25,26)          4.3462         estimate D2E/DX2                !
 ! D118  D(40,24,25,60)       -178.7284         estimate D2E/DX2                !
 ! D119  D(23,24,40,19)          0.2358         estimate D2E/DX2                !
 ! D120  D(23,24,40,39)        178.1624         estimate D2E/DX2                !
 ! D121  D(25,24,40,19)       -178.8601         estimate D2E/DX2                !
 ! D122  D(25,24,40,39)         -0.9335         estimate D2E/DX2                !
 ! D123  D(24,25,26,27)         -1.2134         estimate D2E/DX2                !
 ! D124  D(24,25,26,61)        176.7761         estimate D2E/DX2                !
 ! D125  D(60,25,26,27)       -178.1897         estimate D2E/DX2                !
 ! D126  D(60,25,26,61)         -0.2002         estimate D2E/DX2                !
 ! D127  D(25,26,27,28)        166.6465         estimate D2E/DX2                !
 ! D128  D(25,26,27,39)         -5.2455         estimate D2E/DX2                !
 ! D129  D(61,26,27,28)        -11.2983         estimate D2E/DX2                !
 ! D130  D(61,26,27,39)        176.8098         estimate D2E/DX2                !
 ! D131  D(26,27,28,29)        -32.9645         estimate D2E/DX2                !
 ! D132  D(26,27,28,38)        155.1269         estimate D2E/DX2                !
 ! D133  D(39,27,28,29)        138.8183         estimate D2E/DX2                !
 ! D134  D(39,27,28,38)        -33.0902         estimate D2E/DX2                !
 ! D135  D(26,27,39,40)          8.7381         estimate D2E/DX2                !
 ! D136  D(26,27,39,73)       -177.3162         estimate D2E/DX2                !
 ! D137  D(28,27,39,40)       -163.2101         estimate D2E/DX2                !
 ! D138  D(28,27,39,73)         10.7356         estimate D2E/DX2                !
 ! D139  D(27,28,29,30)       -168.944          estimate D2E/DX2                !
 ! D140  D(27,28,29,62)          6.3153         estimate D2E/DX2                !
 ! D141  D(38,28,29,30)          3.1721         estimate D2E/DX2                !
 ! D142  D(38,28,29,62)        178.4314         estimate D2E/DX2                !
 ! D143  D(27,28,38,37)        167.1247         estimate D2E/DX2                !
 ! D144  D(27,28,38,72)        -10.6572         estimate D2E/DX2                !
 ! D145  D(29,28,38,37)         -4.917          estimate D2E/DX2                !
 ! D146  D(29,28,38,72)        177.3011         estimate D2E/DX2                !
 ! D147  D(28,29,30,31)          2.0734         estimate D2E/DX2                !
 ! D148  D(28,29,30,63)        177.1243         estimate D2E/DX2                !
 ! D149  D(62,29,30,31)       -173.3279         estimate D2E/DX2                !
 ! D150  D(62,29,30,63)          1.723          estimate D2E/DX2                !
 ! D151  D(29,30,31,32)        172.9732         estimate D2E/DX2                !
 ! D152  D(29,30,31,37)         -5.5843         estimate D2E/DX2                !
 ! D153  D(63,30,31,32)         -2.0626         estimate D2E/DX2                !
 ! D154  D(63,30,31,37)        179.3799         estimate D2E/DX2                !
 ! D155  D(30,31,32,33)       -143.0622         estimate D2E/DX2                !
 ! D156  D(37,31,32,33)         35.4526         estimate D2E/DX2                !
 ! D157  D(30,31,37,38)          3.8323         estimate D2E/DX2                !
 ! D158  D(30,31,37,71)       -177.0845         estimate D2E/DX2                !
 ! D159  D(32,31,37,38)       -174.6719         estimate D2E/DX2                !
 ! D160  D(32,31,37,71)          4.4113         estimate D2E/DX2                !
 ! D161  D(31,32,33,34)         66.7454         estimate D2E/DX2                !
 ! D162  D(31,32,33,64)       -174.1122         estimate D2E/DX2                !
 ! D163  D(31,32,33,65)        -56.3611         estimate D2E/DX2                !
 ! D164  D(32,33,34,35)       -178.6251         estimate D2E/DX2                !
 ! D165  D(32,33,34,66)        -52.247          estimate D2E/DX2                !
 ! D166  D(32,33,34,67)         63.419          estimate D2E/DX2                !
 ! D167  D(64,33,34,35)         62.455          estimate D2E/DX2                !
 ! D168  D(64,33,34,66)       -171.167          estimate D2E/DX2                !
 ! D169  D(64,33,34,67)        -55.501          estimate D2E/DX2                !
 ! D170  D(65,33,34,35)        -55.4221         estimate D2E/DX2                !
 ! D171  D(65,33,34,66)         70.9559         estimate D2E/DX2                !
 ! D172  D(65,33,34,67)       -173.3781         estimate D2E/DX2                !
 ! D173  D(33,34,35,36)        107.8022         estimate D2E/DX2                !
 ! D174  D(66,34,35,36)        -16.2948         estimate D2E/DX2                !
 ! D175  D(67,34,35,36)       -134.102          estimate D2E/DX2                !
 ! D176  D(34,35,36,68)        -56.9894         estimate D2E/DX2                !
 ! D177  D(34,35,36,69)       -175.6236         estimate D2E/DX2                !
 ! D178  D(34,35,36,70)         66.2813         estimate D2E/DX2                !
 ! D179  D(31,37,38,28)          1.4555         estimate D2E/DX2                !
 ! D180  D(31,37,38,72)        179.2935         estimate D2E/DX2                !
 ! D181  D(71,37,38,28)       -177.6488         estimate D2E/DX2                !
 ! D182  D(71,37,38,72)          0.1892         estimate D2E/DX2                !
 ! D183  D(27,39,40,19)        172.208          estimate D2E/DX2                !
 ! D184  D(27,39,40,24)         -5.6588         estimate D2E/DX2                !
 ! D185  D(73,39,40,19)         -1.6858         estimate D2E/DX2                !
 ! D186  D(73,39,40,24)       -179.5526         estimate D2E/DX2                !
 ! D187  D(13,41,42,10)         -5.6177         estimate D2E/DX2                !
 ! D188  D(13,41,42,74)        177.6079         estimate D2E/DX2                !
 ! D189  D(18,41,42,10)        172.1392         estimate D2E/DX2                !
 ! D190  D(18,41,42,74)         -4.6353         estimate D2E/DX2                !
 ! D191  D(9,43,44,6)            0.1212         estimate D2E/DX2                !
 ! D192  D(9,43,44,76)        -178.8628         estimate D2E/DX2                !
 ! D193  D(75,43,44,6)         177.9597         estimate D2E/DX2                !
 ! D194  D(75,43,44,76)         -1.0243         estimate D2E/DX2                !
 --------------------------------------------------------------------------------
 Trust Radius=3.00D-01 FncErr=1.00D-07 GrdErr=1.00D-06 EigMax=2.50D+02 EigMin=1.00D-04
 Number of steps in this run=    426 maximum allowed number of steps=    462.
 GradGradGradGradGradGradGradGradGradGradGradGradGradGradGradGradGradGrad

 Leave Link  103 at Thu Mar 27 20:44:12 2025, MaxMem= 13421772800 cpu:               0.8 elap:               0.0
 (Enter /public/software/apps/Gaussian/g16/l202.exe)
 Symmetry turned off by external request.
 Stoichiometry    C38H32CuO6(2)
 Framework group  C1[X(C38H32CuO6)]
 Deg. of freedom   225
 Full point group                 C1      NOp   1
                          Input orientation:                          
 ---------------------------------------------------------------------
 Center     Atomic      Atomic             Coordinates (Angstroms)
 Number     Number       Type             X           Y           Z
 ---------------------------------------------------------------------
      1          6           0       -6.728415    1.201868   -1.339007
      2          8           0       -5.580760    1.213717   -2.157243
      3          6           0       -5.770469    0.332576   -3.242914
      4          6           0       -4.564087    0.387357   -4.180248
      5          8           0       -3.409247   -0.190080   -3.568653
      6          6           0       -2.548272    0.445898   -2.659023
      7          6           0       -2.629366    1.818652   -2.355387
      8          6           0       -1.756340    2.388997   -1.424131
      9          6           0       -0.779387    1.604810   -0.787858
     10          6           0        0.085709    2.178932    0.273247
     11          6           0       -0.466727    3.024689    1.246554
     12          6           0        0.295609    3.446337    2.333172
     13          6           0        1.613763    2.998633    2.490514
     14          6           0        2.338490    3.365527    3.630606
     15          6           0        3.626399    2.879676    3.830037
     16          6           0        4.211680    2.024689    2.897153
     17          8           0        5.490258    1.535437    3.147995
     18          6           0        3.519550    1.654786    1.723995
     19          6           0        4.214442    0.751479    0.755720
     20          6           0        5.388062    1.221776    0.129968
     21          8           0        5.821073    2.528764    0.332766
     22          6           0        6.135979    0.386560   -0.699805
     23          6           0        5.732534   -0.925471   -0.929432
     24          6           0        4.556396   -1.414641   -0.348335
     25          6           0        4.133778   -2.721693   -0.625243
     26          6           0        2.910871   -3.184880   -0.142226
     27          6           0        2.095560   -2.359504    0.649427
     28          6           0        0.675186   -2.726108    0.921571
     29          6           0       -0.075680   -3.416353   -0.051538
     30          6           0       -1.457084   -3.564662    0.087442
     31          6           0       -2.123103   -2.993178    1.172922
     32          8           0       -3.523699   -3.036605    1.198232
     33          6           0       -4.341783   -1.978669    1.699003
     34          6           0       -4.220308   -0.743586    0.803021
     35          8           0       -5.010196    0.307367    1.326649
     36          6           0       -4.189089    1.308892    1.884630
     37          6           0       -1.377011   -2.368598    2.185884
     38          6           0        0.009951   -2.250073    2.067974
     39          6           0        2.585345   -1.098103    1.038627
     40          6           0        3.783985   -0.583182    0.503489
     41          6           0        2.202399    2.155109    1.511169
     42          6           0        1.437726    1.803953    0.377406
     43          6           0       -0.685232    0.241372   -1.114971
     44          6           0       -1.562290   -0.328859   -2.039722
     45          1           0       -6.922197    0.185929   -0.928246
     46          1           0       -7.619718    1.574432   -1.890895
     47          1           0       -6.557422    1.884302   -0.481474
     48          1           0       -5.891399   -0.714982   -2.883401
     49          1           0       -6.670934    0.622930   -3.831880
     50          1           0       -4.805465   -0.214739   -5.081664
     51          1           0       -4.367262    1.421734   -4.531156
     52          1           0       -3.362248    2.457862   -2.824574
     53          1           0       -1.844728    3.445071   -1.201646
     54          1           0       -1.504754    3.327013    1.192276
     55          1           0       -0.162514    4.087128    3.077547
     56          1           0        1.900554    4.014938    4.379628
     57          1           0        4.170964    3.159274    4.723121
     58          1           0        7.038498    0.758122   -1.168499
     59          1           0        6.330581   -1.552874   -1.580027
     60          1           0        4.727399   -3.371076   -1.258097
     61          1           0        2.589288   -4.180935   -0.417720
     62          1           0        0.385911   -3.778695   -0.960373
     63          1           0       -2.022590   -4.057209   -0.693450
     64          1           0       -5.398517   -2.320100    1.698092
     65          1           0       -4.073442   -1.732280    2.746898
     66          1           0       -3.145106   -0.477509    0.659864
     67          1           0       -4.610812   -1.001573   -0.204412
     68          1           0       -3.523296    0.892940    2.674085
     69          1           0       -4.835827    2.077016    2.355386
     70          1           0       -3.589219    1.809695    1.092924
     71          1           0       -1.860245   -1.958491    3.061067
     72          1           0        0.553213   -1.753156    2.860855
     73          1           0        1.979688   -0.481496    1.681927
     74          1           0        1.868736    1.194963   -0.405903
     75          1           0        0.043919   -0.392227   -0.629362
     76          1           0       -1.485718   -1.385209   -2.264737
     77         29           0        6.821821    2.422757    2.015208
 ---------------------------------------------------------------------
 Rotational constants (GHZ):           0.1173306           0.0383066           0.0359205
 Leave Link  202 at Thu Mar 27 20:44:12 2025, MaxMem= 13421772800 cpu:               1.5 elap:               0.1
 (Enter /public/software/apps/Gaussian/g16/l301.exe)
 Standard basis: def2SVPP (5D, 7F)
 Ernie: Thresh=  0.10000D-02 Tol=  0.10000D-05 Strict=F.
   704 basis functions,  1299 primitive gaussians,   750 cartesian basis functions
   169 alpha electrons      168 beta electrons
       nuclear repulsion energy      5993.2757326138 Hartrees.
 IExCor=  402 DFT=T Ex+Corr=B3LYP ExCW=0 ScaHFX=  0.200000
 ScaDFX=  0.800000  0.720000  1.000000  0.810000 ScalE2=  1.000000  1.000000
 IRadAn=      5 IRanWt=     -1 IRanGd=            0 ICorTp=0 IEmpDi=141
 NAtoms=   77 NActive=   77 NUniq=   77 SFac= 1.00D+00 NAtFMM=   60 NAOKFM=T Big=T
 Integral buffers will be    131072 words long.
 Raffenetti 2 integral format.
 Two-electron integral symmetry is turned off.
 R6Disp:  Grimme-D3(BJ) Dispersion energy=       -0.2050092774 Hartrees.
 Nuclear repulsion after empirical dispersion term =     5993.0707233363 Hartrees.
 Leave Link  301 at Thu Mar 27 20:44:12 2025, MaxMem= 13421772800 cpu:               0.6 elap:               0.0
 (Enter /public/software/apps/Gaussian/g16/l302.exe)
 NPDir=0 NMtPBC=     1 NCelOv=     1 NCel=       1 NClECP=     1 NCelD=      1
         NCelK=      1 NCelE2=     1 NClLst=     1 CellRange=     0.0.
 One-electron integrals computed using PRISM.
   1 Symmetry operations used in ECPInt.
 ECPInt:  NShTT=   57291 NPrTT=  234978 LenC2=   47069 LenP2D=  117843.
 LDataN:  DoStor=T MaxTD1= 4 Len=   56
 NBasis=   704 RedAO= T EigKep=  1.88D-04  NBF=   704
 NBsUse=   704 1.00D-06 EigRej= -1.00D+00 NBFU=   704
 Precomputing XC quadrature grid using
 IXCGrd= 4 IRadAn=           5 IRanWt=          -1 IRanGd=           0 AccXCQ= 0.00D+00.
 Generated NRdTot=       0 NPtTot=           0 NUsed=           0 NTot=          32
 NSgBfM=   719   719   719   719   719 MxSgAt=    77 MxSgA2=    77.
 Leave Link  302 at Thu Mar 27 20:44:14 2025, MaxMem= 13421772800 cpu:              34.7 elap:               1.1
 (Enter /public/software/apps/Gaussian/g16/l303.exe)
 DipDrv:  MaxL=1.
 Leave Link  303 at Thu Mar 27 20:44:14 2025, MaxMem= 13421772800 cpu:               3.7 elap:               0.1
 (Enter /public/software/apps/Gaussian/g16/l401.exe)
 ExpMin= 3.30D-02 ExpMax= 7.64D+04 ExpMxC= 1.15D+04 IAcc=3 IRadAn=         5 AccDes= 0.00D+00
 Harris functional with IExCor=  402 and IRadAn=       5 diagonalized for initial guess.
 HarFok:  IExCor=  402 AccDes= 0.00D+00 IRadAn=         5 IDoV= 1 UseB2=F ITyADJ=14
 ICtDFT=  3500011 ScaDFX=  1.000000  1.000000  1.000000  1.000000
 FoFCou: FMM=F IPFlag=           0 FMFlag=      100000 FMFlg1=        2001
         NFxFlg=           0 DoJE=T BraDBF=F KetDBF=T FulRan=T
         wScrn=  0.000000 ICntrl=       500 IOpCl=  0 I1Cent=   200000004 NGrid=           0
         NMat0=    1 NMatS0=      1 NMatT0=    0 NMatD0=    1 NMtDS0=    0 NMtDT0=    0
 Symmetry not used in FoFCou.
 Harris En= -3557.85115733346    
 JPrj=0 DoOrth=F DoCkMO=F.
 Initial guess <Sx>= 0.0000 <Sy>= 0.0000 <Sz>= 0.5000 <S**2>= 0.7500 S= 0.5000
 Leave Link  401 at Thu Mar 27 20:44:16 2025, MaxMem= 13421772800 cpu:              75.6 elap:               2.4
 (Enter /public/software/apps/Gaussian/g16/l502.exe)
 Two-electron integral symmetry not used.
 UHF open shell SCF:
 Using DIIS extrapolation, IDIIS=  1040.
 NGot= 13421772800 LenX= 13420615726 LenY= 13420052476
 Requested convergence on RMS density matrix=1.00D-08 within 128 cycles.
 Requested convergence on MAX density matrix=1.00D-06.
 Requested convergence on             energy=1.00D-06.
 No special actions if energy rises.
 Fock matrices will be formed incrementally for  20 cycles.

 Cycle   1  Pass 1  IDiag  1:
 FoFJK:  IHMeth= 1 ICntrl=       0 DoSepK=F KAlg= 0 I1Cent=           0 FoldK=F
 IRaf= 980000000 NMat=       1 IRICut=       1 DoRegI=T DoRafI=F ISym2E= 0 IDoP0=0 IntGTp=1.
 FoFCou: FMM=T IPFlag=           0 FMFlag=      100000 FMFlg1=        2001
         NFxFlg=           0 DoJE=F BraDBF=F KetDBF=F FulRan=T
         wScrn=  0.000000 ICntrl=         0 IOpCl=  1 I1Cent=           0 NGrid=           0
         NMat0=    1 NMatS0=      1 NMatT0=    0 NMatD0=    1 NMtDS0=    0 NMtDT0=    0
 Symmetry not used in FoFCou.
 FMM levels:  10  Number of levels for PrismC:   9
 E= -3541.23488955110    
 DIIS: error= 2.74D-01 at cycle   1 NSaved=   1.
 NSaved= 1 IEnMin= 1 EnMin= -3541.23488955110     IErMin= 1 ErrMin= 2.74D-01
 ErrMax= 2.74D-01  0.00D+00 EMaxC= 1.00D-01 BMatC= 7.33D+01 BMatP= 7.33D+01
 IDIUse=3 WtCom= 0.00D+00 WtEn= 1.00D+00
 Coeff-Com:  0.100D+01
 Coeff-En:   0.100D+01
 Coeff:      0.100D+01
 Gap=     0.011 Goal=   None    Shift=    0.000
 Gap=    -0.517 Goal=   None    Shift=    0.000
 GapD=   -0.517 DampG=0.250 DampE=0.125 DampFc=0.1250 IDamp=-1.
 Damping current iteration by 1.25D-01
 RMSDP=7.34D-02 MaxDP=1.46D+01              OVMax= 9.89D-01

 Cycle   2  Pass 1  IDiag  1:
 RMSU=  9.13D-03    CP:  1.05D+00
 E= -3546.75430271720     Delta-E=       -5.519413166106 Rises=F Damp=T
 DIIS: error= 1.83D-01 at cycle   2 NSaved=   2.
 NSaved= 2 IEnMin= 2 EnMin= -3546.75430271720     IErMin= 2 ErrMin= 1.83D-01
 ErrMax= 1.83D-01  0.00D+00 EMaxC= 1.00D-01 BMatC= 2.72D+01 BMatP= 7.33D+01
 IDIUse=3 WtCom= 0.00D+00 WtEn= 1.00D+00
 Coeff-Com: -0.117D+01 0.217D+01
 Coeff-En:   0.000D+00 0.100D+01
 Coeff:      0.000D+00 0.100D+01
 Gap=     0.019 Goal=   None    Shift=    0.000
 Gap=    -0.010 Goal=   None    Shift=    0.000
 RMSDP=1.29D-02 MaxDP=3.14D+00 DE=-5.52D+00 OVMax= 8.71D-01

 Cycle   3  Pass 1  IDiag  1:
 RMSU=  1.28D-02    CP:  9.55D-01  1.00D+00
 E= -3524.10834483855     Delta-E=       22.645957878653 Rises=F Damp=F
 DIIS: error= 3.06D-01 at cycle   3 NSaved=   3.
 NSaved= 3 IEnMin= 2 EnMin= -3546.75430271720     IErMin= 2 ErrMin= 1.83D-01
 ErrMax= 3.06D-01  0.00D+00 EMaxC= 1.00D-01 BMatC= 1.02D+02 BMatP= 2.72D+01
 IDIUse=2 WtCom= 0.00D+00 WtEn= 1.00D+00
 EnCoef did   100 forward-backward iterations
 Coeff-En:   0.593D+00 0.333D-01 0.373D+00
 Coeff:      0.593D+00 0.333D-01 0.373D+00
 Gap=     0.051 Goal=   None    Shift=    0.000
 Gap=     0.169 Goal=   None    Shift=    0.000
 RMSDP=1.59D-02 MaxDP=1.78D+00 DE= 2.26D+01 OVMax= 8.51D-01

 Cycle   4  Pass 1  IDiag  1:
 RMSU=  1.04D-02    CP:  9.14D-01  2.35D-01  2.37D-01
 E= -3531.05180776611     Delta-E=       -6.943462927557 Rises=F Damp=F
 DIIS: error= 1.32D-01 at cycle   4 NSaved=   4.
 NSaved= 4 IEnMin= 2 EnMin= -3546.75430271720     IErMin= 4 ErrMin= 1.32D-01
 ErrMax= 1.32D-01  0.00D+00 EMaxC= 1.00D-01 BMatC= 6.45D+01 BMatP= 2.72D+01
 IDIUse=2 WtCom= 0.00D+00 WtEn= 1.00D+00
 EnCoef did   100 forward-backward iterations
 Coeff-En:   0.520D+00 0.144D-01 0.271D+00 0.195D+00
 Coeff:      0.520D+00 0.144D-01 0.271D+00 0.195D+00
 Gap=    -0.067 Goal=   None    Shift=    0.000
 Gap=    -0.118 Goal=   None    Shift=    0.000
 RMSDP=1.14D-02 MaxDP=2.08D+00 DE=-6.94D+00 OVMax= 9.96D-01

 Cycle   5  Pass 1  IDiag  1:
 RMSU=  5.47D-03    CP:  8.91D-01  2.71D-03  1.70D-01  7.06D-02
 E= -3548.58778806017     Delta-E=      -17.535980294060 Rises=F Damp=F
 DIIS: error= 1.19D-01 at cycle   5 NSaved=   5.
 NSaved= 5 IEnMin= 5 EnMin= -3548.58778806017     IErMin= 5 ErrMin= 1.19D-01
 ErrMax= 1.19D-01  0.00D+00 EMaxC= 1.00D-01 BMatC= 2.12D+01 BMatP= 2.72D+01
 IDIUse=3 WtCom= 0.00D+00 WtEn= 1.00D+00
 EnCoef did   100 forward-backward iterations
 Coeff-Com: -0.636D+00 0.125D+01 0.143D-01 0.359D-01 0.334D+00
 Coeff-En:   0.243D+00 0.139D-01 0.000D+00 0.252D+00 0.491D+00
 Coeff:      0.243D+00 0.139D-01 0.000D+00 0.252D+00 0.491D+00
 Gap=    -0.165 Goal=   None    Shift=    0.000
 Gap=     0.232 Goal=   None    Shift=    0.000
 RMSDP=6.24D-03 MaxDP=9.68D-01 DE=-1.75D+01 OVMax= 9.01D-01

 Cycle   6  Pass 1  IDiag  1:
 RMSU=  4.77D-03    CP:  9.02D-01  8.84D-02  1.72D-01  1.51D-01  2.95D-01
 E= -3551.29924708552     Delta-E=       -2.711459025353 Rises=F Damp=F
 DIIS: error= 4.38D-02 at cycle   6 NSaved=   6.
 NSaved= 6 IEnMin= 6 EnMin= -3551.29924708552     IErMin= 6 ErrMin= 4.38D-02
 ErrMax= 4.38D-02  0.00D+00 EMaxC= 1.00D-01 BMatC= 1.22D+01 BMatP= 2.12D+01
 IDIUse=3 WtCom= 5.62D-01 WtEn= 4.38D-01
 EnCoef did   100 forward-backward iterations
 Coeff-Com: -0.409D+00 0.849D+00-0.962D-02 0.929D-02 0.287D+00 0.274D+00
 Coeff-En:   0.196D+00 0.553D-02 0.000D+00 0.312D-01 0.331D+00 0.436D+00
 Coeff:     -0.144D+00 0.480D+00-0.541D-02 0.189D-01 0.306D+00 0.345D+00
 Gap=    -0.178 Goal=   None    Shift=    0.000
 Gap=     0.535 Goal=   None    Shift=    0.000
 RMSDP=5.38D-03 MaxDP=1.37D+00 DE=-2.71D+00 OVMax= 7.15D-01

 Cycle   7  Pass 1  IDiag  1:
 RMSU=  3.55D-03    CP:  9.07D-01 -1.62D-02  8.19D-02  1.40D-01  4.22D-01
                    CP:  2.27D-01
 E= -3556.33029713221     Delta-E=       -5.031050046691 Rises=F Damp=F
 DIIS: error= 6.37D-02 at cycle   7 NSaved=   7.
 NSaved= 7 IEnMin= 7 EnMin= -3556.33029713221     IErMin= 6 ErrMin= 4.38D-02
 ErrMax= 6.37D-02  0.00D+00 EMaxC= 1.00D-01 BMatC= 5.55D+00 BMatP= 1.22D+01
 IDIUse=3 WtCom= 5.62D-01 WtEn= 4.38D-01
 EnCoef did     3 forward-backward iterations
 Coeff-Com: -0.370D+00 0.721D+00-0.533D-02-0.545D-01 0.840D-01 0.193D+00
 Coeff-Com:  0.432D+00
 Coeff-En:   0.801D-01 0.000D+00 0.000D+00 0.000D+00 0.000D+00 0.180D+00
 Coeff-En:   0.740D+00
 Coeff:     -0.173D+00 0.406D+00-0.300D-02-0.306D-01 0.472D-01 0.187D+00
 Coeff:      0.567D+00
 Gap=     0.283 Goal=   None    Shift=    0.000
 Gap=    -0.038 Goal=   None    Shift=    0.000
 RMSDP=3.66D-03 MaxDP=4.59D-01 DE=-5.03D+00 OVMax= 5.13D-01

 Cycle   8  Pass 1  IDiag  1:
 RMSU=  2.44D-03    CP:  8.96D-01 -3.22D-02  9.56D-02  6.39D-02  5.08D-01
                    CP:  2.75D-01  2.87D-01
 E= -3556.63826887312     Delta-E=       -0.307971740909 Rises=F Damp=F
 DIIS: error= 3.65D-02 at cycle   8 NSaved=   8.
 NSaved= 8 IEnMin= 8 EnMin= -3556.63826887312     IErMin= 8 ErrMin= 3.65D-02
 ErrMax= 3.65D-02  0.00D+00 EMaxC= 1.00D-01 BMatC= 3.80D+00 BMatP= 5.55D+00
 IDIUse=3 WtCom= 6.35D-01 WtEn= 3.65D-01
 EnCoef did     4 forward-backward iterations
 Coeff-Com: -0.219D+00 0.436D+00 0.154D-02-0.465D-01-0.600D-01 0.740D-01
 Coeff-Com:  0.441D+00 0.373D+00
 Coeff-En:   0.270D-01 0.000D+00 0.000D+00 0.000D+00 0.000D+00 0.312D-02
 Coeff-En:   0.425D+00 0.545D+00
 Coeff:     -0.129D+00 0.277D+00 0.978D-03-0.295D-01-0.381D-01 0.481D-01
 Coeff:      0.435D+00 0.436D+00
 Gap=     0.209 Goal=   None    Shift=    0.000
 Gap=    -0.001 Goal=   None    Shift=    0.000
 RMSDP=2.56D-03 MaxDP=2.97D-01 DE=-3.08D-01 OVMax= 8.16D-01

 Cycle   9  Pass 1  IDiag  1:
 RMSU=  1.42D-03    CP:  8.97D-01 -2.24D-02  8.16D-02  1.02D-01  3.93D-01
                    CP:  3.25D-01  6.18D-01  3.51D-01
 E= -3557.47988517415     Delta-E=       -0.841616301026 Rises=F Damp=F
 DIIS: error= 1.97D-02 at cycle   9 NSaved=   9.
 NSaved= 9 IEnMin= 9 EnMin= -3557.47988517415     IErMin= 9 ErrMin= 1.97D-02
 ErrMax= 1.97D-02  0.00D+00 EMaxC= 1.00D-01 BMatC= 6.05D-01 BMatP= 3.80D+00
 IDIUse=3 WtCom= 8.03D-01 WtEn= 1.97D-01
 Coeff-Com: -0.772D-01 0.134D+00 0.317D-03-0.208D-03-0.251D-01-0.104D-01
 Coeff-Com:  0.559D-01 0.273D+00 0.650D+00
 Coeff-En:   0.000D+00 0.000D+00 0.000D+00 0.000D+00 0.000D+00 0.000D+00
 Coeff-En:   0.000D+00 0.186D+00 0.814D+00
 Coeff:     -0.620D-01 0.108D+00 0.254D-03-0.167D-03-0.201D-01-0.835D-02
 Coeff:      0.449D-01 0.256D+00 0.682D+00
 Gap=     0.173 Goal=   None    Shift=    0.000
 Gap=     0.029 Goal=   None    Shift=    0.000
 RMSDP=1.56D-03 MaxDP=2.14D-01 DE=-8.42D-01 OVMax= 6.15D-01

 Cycle  10  Pass 1  IDiag  1:
 RMSU=  1.19D-03    CP:  8.95D-01 -2.73D-02  8.75D-02  9.67D-02  4.13D-01
                    CP:  3.14D-01  4.85D-01  5.71D-01  5.16D-01
 E= -3557.51328574846     Delta-E=       -0.033400574317 Rises=F Damp=F
 DIIS: error= 2.06D-02 at cycle  10 NSaved=  10.
 NSaved=10 IEnMin=10 EnMin= -3557.51328574846     IErMin= 9 ErrMin= 1.97D-02
 ErrMax= 2.06D-02  0.00D+00 EMaxC= 1.00D-01 BMatC= 5.65D-01 BMatP= 6.05D-01
 IDIUse=3 WtCom= 8.03D-01 WtEn= 1.97D-01
 Coeff-Com: -0.232D-01 0.430D-01-0.803D-03-0.118D-02-0.699D-02-0.247D-01
 Coeff-Com: -0.492D-01 0.763D-01 0.557D+00 0.430D+00
 Coeff-En:   0.000D+00 0.000D+00 0.000D+00 0.000D+00 0.000D+00 0.000D+00
 Coeff-En:   0.000D+00 0.000D+00 0.461D+00 0.539D+00
 Coeff:     -0.186D-01 0.346D-01-0.645D-03-0.948D-03-0.561D-02-0.199D-01
 Coeff:     -0.395D-01 0.613D-01 0.538D+00 0.451D+00
 Gap=     0.127 Goal=   None    Shift=    0.000
 Gap=    -0.002 Goal=   None    Shift=    0.000
 RMSDP=1.06D-03 MaxDP=1.09D-01 DE=-3.34D-02 OVMax= 4.56D-01

 Cycle  11  Pass 1  IDiag  1:
 RMSU=  6.78D-04    CP:  8.96D-01 -2.64D-02  8.47D-02  9.27D-02  3.98D-01
                    CP:  3.04D-01  4.99D-01  5.07D-01  8.77D-01  4.90D-01
 E= -3557.64363522547     Delta-E=       -0.130349477011 Rises=F Damp=F
 DIIS: error= 4.31D-03 at cycle  11 NSaved=  11.
 NSaved=11 IEnMin=11 EnMin= -3557.64363522547     IErMin=11 ErrMin= 4.31D-03
 ErrMax= 4.31D-03  0.00D+00 EMaxC= 1.00D-01 BMatC= 4.32D-02 BMatP= 5.65D-01
 IDIUse=3 WtCom= 9.57D-01 WtEn= 4.31D-02
 Coeff-Com: -0.942D-02 0.157D-01-0.351D-03-0.701D-03 0.359D-02-0.613D-02
 Coeff-Com: -0.247D-01-0.487D-02 0.224D+00 0.280D+00 0.523D+00
 Coeff-En:   0.000D+00 0.000D+00 0.000D+00 0.000D+00 0.000D+00 0.000D+00
 Coeff-En:   0.000D+00 0.000D+00 0.000D+00 0.663D-01 0.934D+00
 Coeff:     -0.901D-02 0.150D-01-0.336D-03-0.671D-03 0.344D-02-0.587D-02
 Coeff:     -0.236D-01-0.466D-02 0.214D+00 0.271D+00 0.541D+00
 Gap=     0.107 Goal=   None    Shift=    0.000
 Gap=     0.023 Goal=   None    Shift=    0.000
 RMSDP=3.88D-04 MaxDP=4.62D-02 DE=-1.30D-01 OVMax= 1.41D-01

 Cycle  12  Pass 1  IDiag  1:
 RMSU=  2.84D-04    CP:  8.95D-01 -2.74D-02  8.53D-02  9.53D-02  4.00D-01
                    CP:  3.06D-01  5.05D-01  4.94D-01  8.37D-01  6.41D-01
                    CP:  7.36D-01
 E= -3557.65468223765     Delta-E=       -0.011047012174 Rises=F Damp=F
 DIIS: error= 1.88D-03 at cycle  12 NSaved=  12.
 NSaved=12 IEnMin=12 EnMin= -3557.65468223765     IErMin=12 ErrMin= 1.88D-03
 ErrMax= 1.88D-03  0.00D+00 EMaxC= 1.00D-01 BMatC= 1.28D-02 BMatP= 4.32D-02
 IDIUse=3 WtCom= 9.81D-01 WtEn= 1.88D-02
 Coeff-Com: -0.554D-02 0.876D-02 0.262D-03-0.654D-03 0.440D-02-0.388D-02
 Coeff-Com: -0.392D-02-0.140D-01 0.633D-01 0.885D-01 0.360D+00 0.502D+00
 Coeff-En:   0.000D+00 0.000D+00 0.000D+00 0.000D+00 0.000D+00 0.000D+00
 Coeff-En:   0.000D+00 0.000D+00 0.000D+00 0.000D+00 0.145D+00 0.855D+00
 Coeff:     -0.544D-02 0.859D-02 0.257D-03-0.642D-03 0.432D-02-0.380D-02
 Coeff:     -0.384D-02-0.137D-01 0.621D-01 0.868D-01 0.356D+00 0.509D+00
 Gap=     0.104 Goal=   None    Shift=    0.000
 Gap=     0.030 Goal=   None    Shift=    0.000
 RMSDP=1.75D-04 MaxDP=2.10D-02 DE=-1.10D-02 OVMax= 8.35D-02

 Cycle  13  Pass 1  IDiag  1:
 RMSU=  1.47D-04    CP:  8.95D-01 -2.70D-02  8.56D-02  9.48D-02  3.99D-01
                    CP:  3.03D-01  4.99D-01  4.97D-01  8.46D-01  6.27D-01
                    CP:  8.66D-01  9.63D-01
 E= -3557.65864072890     Delta-E=       -0.003958491256 Rises=F Damp=F
 DIIS: error= 6.16D-04 at cycle  13 NSaved=  13.
 NSaved=13 IEnMin=13 EnMin= -3557.65864072890     IErMin=13 ErrMin= 6.16D-04
 ErrMax= 6.16D-04  0.00D+00 EMaxC= 1.00D-01 BMatC= 2.03D-03 BMatP= 1.28D-02
 IDIUse=3 WtCom= 9.94D-01 WtEn= 6.16D-03
 Coeff-Com: -0.173D-02 0.250D-02 0.271D-03-0.268D-03 0.188D-02-0.371D-03
 Coeff-Com:  0.912D-02-0.366D-02-0.506D-02-0.234D-01 0.102D+00 0.274D+00
 Coeff-Com:  0.644D+00
 Coeff-En:   0.000D+00 0.000D+00 0.000D+00 0.000D+00 0.000D+00 0.000D+00
 Coeff-En:   0.000D+00 0.000D+00 0.000D+00 0.000D+00 0.000D+00 0.000D+00
 Coeff-En:   0.100D+01
 Coeff:     -0.172D-02 0.248D-02 0.269D-03-0.267D-03 0.186D-02-0.369D-03
 Coeff:      0.906D-02-0.363D-02-0.503D-02-0.232D-01 0.102D+00 0.272D+00
 Coeff:      0.647D+00
 Gap=     0.104 Goal=   None    Shift=    0.000
 Gap=     0.035 Goal=   None    Shift=    0.000
 RMSDP=1.18D-04 MaxDP=1.34D-02 DE=-3.96D-03 OVMax= 5.48D-02

 Cycle  14  Pass 1  IDiag  1:
 RMSU=  9.36D-05    CP:  8.95D-01 -2.68D-02  8.56D-02  9.53D-02  3.99D-01
                    CP:  3.02D-01  5.01D-01  4.91D-01  8.31D-01  6.11D-01
                    CP:  8.98D-01  1.14D+00  1.23D+00
 E= -3557.66007569505     Delta-E=       -0.001434966143 Rises=F Damp=F
 DIIS: error= 5.98D-04 at cycle  14 NSaved=  14.
 NSaved=14 IEnMin=14 EnMin= -3557.66007569505     IErMin=14 ErrMin= 5.98D-04
 ErrMax= 5.98D-04  0.00D+00 EMaxC= 1.00D-01 BMatC= 1.07D-03 BMatP= 2.03D-03
 IDIUse=3 WtCom= 9.94D-01 WtEn= 5.98D-03
 Coeff-Com:  0.153D-03-0.493D-03 0.685D-04-0.513D-04 0.114D-02 0.538D-03
 Coeff-Com:  0.801D-02 0.123D-02-0.955D-02-0.308D-01-0.341D-01-0.121D-01
 Coeff-Com:  0.439D+00 0.637D+00
 Coeff-En:   0.000D+00 0.000D+00 0.000D+00 0.000D+00 0.000D+00 0.000D+00
 Coeff-En:   0.000D+00 0.000D+00 0.000D+00 0.000D+00 0.000D+00 0.000D+00
 Coeff-En:   0.000D+00 0.100D+01
 Coeff:      0.152D-03-0.490D-03 0.681D-04-0.510D-04 0.113D-02 0.534D-03
 Coeff:      0.796D-02 0.122D-02-0.949D-02-0.306D-01-0.339D-01-0.120D-01
 Coeff:      0.437D+00 0.639D+00
 Gap=     0.103 Goal=   None    Shift=    0.000
 Gap=     0.036 Goal=   None    Shift=    0.000
 RMSDP=1.03D-04 MaxDP=1.15D-02 DE=-1.43D-03 OVMax= 6.21D-02

 Cycle  15  Pass 1  IDiag  1:
 RMSU=  4.53D-05    CP:  8.95D-01 -2.70D-02  8.58D-02  9.53D-02  3.98D-01
                    CP:  3.02D-01  5.00D-01  4.89D-01  8.21D-01  6.01D-01
                    CP:  9.24D-01  1.25D+00  1.74D+00  1.40D+00
 E= -3557.66103557366     Delta-E=       -0.000959878616 Rises=F Damp=F
 DIIS: error= 3.79D-04 at cycle  15 NSaved=  15.
 NSaved=15 IEnMin=15 EnMin= -3557.66103557366     IErMin=15 ErrMin= 3.79D-04
 ErrMax= 3.79D-04  0.00D+00 EMaxC= 1.00D-01 BMatC= 3.20D-04 BMatP= 1.07D-03
 IDIUse=3 WtCom= 9.96D-01 WtEn= 3.79D-03
 Coeff-Com:  0.155D-02-0.261D-02-0.483D-04-0.803D-04 0.228D-03 0.381D-03
 Coeff-Com:  0.123D-02 0.159D-02 0.464D-02 0.152D-02-0.631D-01-0.125D+00
 Coeff-Com:  0.538D-01 0.426D+00 0.700D+00
 Coeff-En:   0.000D+00 0.000D+00 0.000D+00 0.000D+00 0.000D+00 0.000D+00
 Coeff-En:   0.000D+00 0.000D+00 0.000D+00 0.000D+00 0.000D+00 0.000D+00
 Coeff-En:   0.000D+00 0.000D+00 0.100D+01
 Coeff:      0.155D-02-0.260D-02-0.481D-04-0.800D-04 0.227D-03 0.380D-03
 Coeff:      0.122D-02 0.159D-02 0.463D-02 0.152D-02-0.629D-01-0.124D+00
 Coeff:      0.536D-01 0.424D+00 0.701D+00
 Gap=     0.104 Goal=   None    Shift=    0.000
 Gap=     0.038 Goal=   None    Shift=    0.000
 RMSDP=9.21D-05 MaxDP=1.04D-02 DE=-9.60D-04 OVMax= 5.63D-02

 Cycle  16  Pass 1  IDiag  1:
 RMSU=  3.13D-05    CP:  8.95D-01 -2.71D-02  8.58D-02  9.55D-02  3.98D-01
                    CP:  3.03D-01  5.00D-01  4.87D-01  8.09D-01  5.86D-01
                    CP:  9.23D-01  1.32D+00  2.14D+00  1.91D+00  1.58D+00
 E= -3557.66162229285     Delta-E=       -0.000586719189 Rises=F Damp=F
 DIIS: error= 3.80D-04 at cycle  16 NSaved=  16.
 NSaved=16 IEnMin=16 EnMin= -3557.66162229285     IErMin=15 ErrMin= 3.79D-04
 ErrMax= 3.80D-04  0.00D+00 EMaxC= 1.00D-01 BMatC= 2.73D-04 BMatP= 3.20D-04
 IDIUse=3 WtCom= 9.96D-01 WtEn= 3.79D-03
 Coeff-Com:  0.917D-03-0.156D-02-0.184D-04-0.766D-04-0.207D-04 0.363D-03
 Coeff-Com:  0.147D-04 0.106D-02 0.492D-02 0.107D-01-0.317D-01-0.177D-01
 Coeff-Com: -0.447D-01 0.115D+00 0.249D+00 0.713D+00
 Coeff-En:   0.000D+00 0.000D+00 0.000D+00 0.000D+00 0.000D+00 0.000D+00
 Coeff-En:   0.000D+00 0.000D+00 0.000D+00 0.000D+00 0.000D+00 0.000D+00
 Coeff-En:   0.000D+00 0.000D+00 0.000D+00 0.100D+01
 Coeff:      0.913D-03-0.156D-02-0.183D-04-0.763D-04-0.206D-04 0.362D-03
 Coeff:      0.146D-04 0.105D-02 0.491D-02 0.107D-01-0.316D-01-0.176D-01
 Coeff:     -0.445D-01 0.115D+00 0.248D+00 0.714D+00
 Gap=     0.106 Goal=   None    Shift=    0.000
 Gap=     0.039 Goal=   None    Shift=    0.000
 RMSDP=5.59D-05 MaxDP=5.29D-03 DE=-5.87D-04 OVMax= 3.34D-02

 Cycle  17  Pass 1  IDiag  1:
 RMSU=  1.72D-05    CP:  8.95D-01 -2.72D-02  8.58D-02  9.53D-02  3.98D-01
                    CP:  3.03D-01  5.00D-01  4.87D-01  8.00D-01  5.77D-01
                    CP:  9.10D-01  1.36D+00  2.33D+00  2.22D+00  2.08D+00
                    CP:  1.41D+00
 E= -3557.66189766494     Delta-E=       -0.000275372087 Rises=F Damp=F
 DIIS: error= 3.30D-04 at cycle  17 NSaved=  17.
 NSaved=17 IEnMin=17 EnMin= -3557.66189766494     IErMin=17 ErrMin= 3.30D-04
 ErrMax= 3.30D-04  0.00D+00 EMaxC= 1.00D-01 BMatC= 2.32D-04 BMatP= 2.73D-04
 IDIUse=3 WtCom= 9.97D-01 WtEn= 3.30D-03
 Coeff-Com: -0.209D-03 0.240D-03 0.205D-04 0.244D-04-0.606D-05 0.321D-03
 Coeff-Com: -0.162D-03-0.426D-03 0.120D-02 0.126D-01 0.791D-02 0.111D+00
 Coeff-Com: -0.330D-01-0.110D+00-0.423D+00 0.437D+00 0.996D+00
 Coeff-En:   0.000D+00 0.000D+00 0.000D+00 0.000D+00 0.000D+00 0.000D+00
 Coeff-En:   0.000D+00 0.000D+00 0.000D+00 0.000D+00 0.000D+00 0.000D+00
 Coeff-En:   0.000D+00 0.000D+00 0.000D+00 0.000D+00 0.100D+01
 Coeff:     -0.208D-03 0.239D-03 0.204D-04 0.243D-04-0.604D-05 0.320D-03
 Coeff:     -0.161D-03-0.424D-03 0.119D-02 0.126D-01 0.789D-02 0.111D+00
 Coeff:     -0.329D-01-0.109D+00-0.421D+00 0.436D+00 0.996D+00
 Gap=     0.107 Goal=   None    Shift=    0.000
 Gap=     0.039 Goal=   None    Shift=    0.000
 RMSDP=7.62D-05 MaxDP=6.70D-03 DE=-2.75D-04 OVMax= 4.78D-02

 Cycle  18  Pass 1  IDiag  1:
[...]
 .00001312,-0.00000822,-0.00000382,0.00002369,-0.00000882,-0.00000327,0
 .00000691,-0.00004090,0.00000698,0.00000957,-0.00007960,-0.00002341,-0
 .00001986,-0.00002088,0.00000507,-0.00001300,0.00000687,-0.00000367,-0
 .00000031,0.00001292,0.00000232,-0.00001633,-0.00001815,0.00002897,-0.
 00000356,-0.00000108,-0.00000055,0.00000395,0.00000794,-0.00001351,-0.
 00000210,0.00000743,-0.00000143,0.00001345,0.00000813,-0.00000112,-0.0
 0000911,0.00001662,-0.00000136,-0.00000556,-0.00006264,-0.00006419,-0.
 00006688,-0.00008218,-0.00008863,-0.00016752,-0.00059134,0.00013176,0.
 09306783,-0.04259259,0.07406628,-0.00002336,0.00000077,-0.00000450,0.0
 0001831,-0.00012925,-0.00009456,-0.00004414,0.00012632,0.00012048,-0.0
 0038901,-0.00016936,0.00001666,0.00105708,-0.00136688,0.00233064,0.000
 36122,0.02473162,0.00866261,-0.00291457,0.00238593,-0.00379968,-0.0009
 0739,-0.00030136,-0.00042619,-0.00006639,0.00013154,-0.00500595,0.0005
 9206,-0.00068543,-0.00030170,-0.00025728,-0.00006244,-0.00009585,-0.00
 003945,-0.00002680,-0.00014247,0.00007320,-0.00000123,0.00003983,-0.00
 008770,-0.00000639,-0.00005816,0.00001700,-0.00007833,-0.00004018,-0.0
 0005894,0.00001994,-0.00017276,0.00015375,-0.00003096,0.00012147,0.000
 06939,0.00009954,0.00011046,-0.00019885,-0.00001171,0.00013184,0.00017
 422,0.00014748,-0.00011758,-0.00012642,-0.00018805,-0.00000939,0.00005
 105,-0.00006229,-0.00003157,0.00007877,0.00007464,-0.00001463,-0.00008
 800,-0.00004627,0.00003166,0.00006856,0.00002707,0.00002110,-0.0000088
 1,0.00002901,0.00009208,-0.00000086,-0.00006392,-0.00003727,-0.0000218
 5,-0.00004876,0.00003381,0.00015005,-0.00001916,-0.00004327,0.00001093
 ,0.00010796,-0.00005291,0.00006812,0.00008636,0.00007042,-0.00011137,-
 0.00002062,-0.00005261,-0.00003473,0.00002176,0.00002938,0.00001006,0.
 00006464,0.00009541,0.00000035,-0.00010947,-0.00006402,0.00005654,0.00
 006003,0.00001091,-0.00002217,0.00000996,0.00002681,-0.00000652,-0.000
 08141,0.00001193,-0.00002659,0.00000429,0.00001444,0.00002372,-0.00001
 413,-0.00002648,-0.00003749,-0.00002689,0.00001037,-0.00000730,0.00000
 390,0.00001914,0.00760145,-0.01923476,-0.00656165,-0.06066852,0.050814
 87,0.00838047,-0.00000893,-0.00001140,0.00000508,0.00000665,-0.0000021
 7,0.00000402,0.00001097,0.00000110,-0.00000890,-0.00002937,-0.00003561
 ,-0.00001524,0.00002705,-0.00001885,-0.00001885,0.00007376,-0.00003471
 ,0.00005092,0.00019163,-0.00018718,0.00017312,0.00001096,0.00118471,0.
 00045415,-0.00015509,-0.00017802,0.00029108,-0.00000756,-0.00000886,0.
 00000905,-0.00001195,0.00000134,-0.00002526,-0.00000181,0.00000700,0.0
 0000017,0.00000402,-0.00000207,-0.00000214,-0.00000094,-0.00000273,-0.
 00000183,-0.00000758,0.00000673,-0.00000066,-0.00001568,0.00001134,-0.
 00000503,-0.00000864,0.00003052,-0.00002145,-0.00002685,0.00009025,0.0
 0000163,-0.00003209,-0.00009844,0.00001560,-0.00000137,-0.00000060,0.0
 0000487,-0.00000044,-0.00000219,-0.00001866,0.00001058,0.00000495,-0.0
 0002207,-0.00004429,-0.00000953,0.00000175,-0.00000960,-0.00000634,0.0
 0000045,-0.00000338,-0.00000928,-0.00000243,-0.00001577,-0.00001065,-0
 .00000323,-0.00000214,-0.00000488,-0.00000068,-0.00000417,0.00001033,0
 .00000218,0.00001287,0.00001130,0.00000813,-0.00002420,-0.00001459,-0.
 00002179,-0.00058590,-0.00072282,0.00252522,0.05617239,-0.00001662,0.0
 0000182,0.00002365,0.00004628,0.00006861,0.00007040,-0.00009260,-0.000
 00992,-0.00021118,-0.00003131,0.00007051,0.00046367,-0.00176449,0.0007
 2983,0.00065816,-0.00047161,-0.01108622,-0.00817885,0.00356113,0.00056
 490,0.00026090,-0.00005824,0.00074849,0.00064234,-0.00057831,0.0022879
 9,-0.00277514,0.00050135,-0.00026611,-0.00008110,-0.00021359,-0.000032
 68,-0.00000659,-0.00006238,-0.00003084,-0.00012488,0.00007093,-0.00000
 487,0.00002419,-0.00009382,-0.00000237,-0.00005349,0.00001395,-0.00008
 515,-0.00004756,-0.00006017,0.00001938,-0.00017745,0.00015085,-0.00001
 890,0.00010605,0.00007289,0.00009832,0.00009830,-0.00019327,0.00000400
 ,0.00013659,0.00017107,0.00014068,-0.00011735,-0.00013125,-0.00020043,
 0.00001155,0.00005568,-0.00006327,-0.00003799,0.00008267,0.00007586,-0
 .00001934,-0.00008065,-0.00004445,0.00002664,0.00008266,0.00004066,-0.
 00000505,-0.00001807,0.00002750,0.00005716,-0.00000886,-0.00003581,-0.
 00003051,-0.00004270,0.00007272,-0.00008835,-0.00014620,-0.00013666,0.
 00013141,0.00008914,-0.00014775,0.00033223,0.00007885,-0.00013046,-0.0
 0015467,-0.00004579,0.00002866,0.00001894,0.00003409,-0.00004442,-0.00
 001580,-0.00003119,-0.00002159,-0.00000718,0.00001969,0.00003055,-0.00
 001288,-0.00002579,-0.00001572,0.00001948,0.00003766,0.00002671,-0.000
 00064,-0.00001175,-0.00002796,0.00006495,0.00002726,0.00002926,0.00001
 228,0.00000759,-0.00003258,-0.00001793,-0.00002085,-0.00002665,0.00002
 636,-0.00005455,-0.00002737,-0.00000522,0.00340984,-0.00772097,-0.0028
 5445,0.05326527,-0.29692678,-0.09352702,0.00000716,0.00000808,-0.00000
 475,0.00000842,-0.00000244,0.00000051,-0.00001016,-0.00000095,0.000003
 88,0.00001725,0.00002225,0.00001198,-0.00003558,0.00000315,0.00003187,
 0.00008956,-0.00003774,0.00002476,-0.00005954,0.00005453,-0.00007782,-
 0.00011295,-0.00058481,-0.00030941,-0.00011257,-0.00018295,0.00015848,
 -0.00000697,-0.00000603,0.00001889,-0.00000990,0.00000148,-0.00002311,
 0.00000021,0.00000512,-0.00000277,0.00000139,-0.00000225,-0.00000283,-
 0.00000336,-0.00000517,-0.00000220,-0.00000638,0.00000940,0.00000112,-
 0.00000998,0.00000939,-0.00000103,0.00000049,0.00000938,-0.00000511,0.
 00001804,0.00001939,-0.00001016,-0.00000645,0.00004184,-0.00001271,0.0
 0000040,0.00000768,-0.00000518,-0.00000082,0.00000550,0.00000114,0.000
 00740,0.00000207,0.00002727,-0.00001410,-0.00001018,0.00000866,0.00000
 218,0.00000425,-0.00000542,0.00000293,0.00000108,0.00000006,0.00001065
 ,0.00000676,0.00000093,0.00000118,-0.00000156,0.00000735,0.00000102,0.
 00000056,0.00000385,0.00000894,0.00000180,0.00000917,-0.00000192,-0.00
 001733,-0.00002609,-0.00114406,-0.00002299,0.00154072,-0.05615923,0.31
 273571,-0.00002160,-0.00001745,0.00001002,0.00000956,-0.00002526,-0.00
 012025,0.00011566,-0.00004688,0.00028833,0.00011554,0.00024636,-0.0005
 6775,0.00215295,0.00085766,-0.00142690,-0.00270656,0.00820003,0.007805
 43,-0.00321695,-0.00057294,0.00246267,-0.00034676,0.00038359,-0.000663
 17,-0.00549319,-0.00284116,0.00194689,0.00052741,-0.00069905,0.0003989
 3,-0.00021724,0.00008451,-0.00008774,0.00001145,-0.00002439,-0.0001073
 8,0.00002921,-0.00000548,0.00000924,-0.00009265,0.00001211,-0.00005601
 ,-0.00001709,-0.00010970,-0.00007100,-0.00007216,0.00000781,-0.0002970
 8,0.00022001,-0.00003518,0.00018836,0.00011240,0.00016180,0.00016326,-
 0.00029068,0.00000376,0.00018947,0.00027669,0.00022076,-0.00018560,-0.
 00020028,-0.00028125,-0.00001661,0.00010455,-0.00007777,-0.00007245,0.
 00010461,0.00012827,-0.00001630,-0.00007871,-0.00006604,0.00001622,0.0
 0012093,0.00009376,-0.00001430,0.00000640,0.00003244,0.00007906,-0.000
 26957,-0.00007090,-0.00002509,-0.00013055,-0.00018583,0.00000119,-0.00
 019060,-0.00007646,0.00023859,0.00026542,-0.00005390,0.00018218,0.0003
 5123,-0.00012236,-0.00010738,-0.00021997,0.00009239,0.00006389,0.00013
 777,-0.00012604,-0.00006557,0.00001626,-0.00007676,-0.00002839,-0.0000
 3512,0.00014827,0.00005067,-0.00005292,-0.00008203,-0.00000790,-0.0000
 8386,0.00003263,-0.00001092,0.00006106,0.00009804,-0.00008478,0.000125
 57,0.00008363,0.00000307,-0.00001991,-0.00006417,-0.00001012,-0.000030
 74,-0.00002978,0.00003607,-0.00005095,0.00006604,-0.00008082,0.0045635
 5,-0.01841459,-0.00269847,0.00844195,-0.09356111,-0.07658188,0.0000077
 8,0.00000729,0.00000455,-0.00000234,0.00000713,-0.00000608,0.00001479,
 -0.00000718,-0.00000191,-0.00001063,-0.00000534,-0.00000790,0.00006357
 ,-0.00000405,-0.00003990,-0.00005376,0.00005163,-0.00001112,-0.0000321
 9,-0.00000133,-0.00001053,-0.00015835,0.00053959,0.00019868,0.00032256
 ,0.00015244,-0.00041400,0.00002928,-0.00000785,0.00001675,-0.00001720,
 -0.00001562,-0.00001625,-0.00000221,0.00000661,-0.00000324,0.00000257,
 -0.00000736,-0.00000126,0.00000356,-0.00000423,0.00000198,0.00000215,0
 .00000331,-0.00000171,0.00000623,0.00000200,-0.00000680,-0.00002453,0.
 00003106,0.00001548,-0.00007036,0.00010390,-0.00004402,0.00003627,0.00
 008507,-0.00003813,-0.00002156,0.00001042,-0.00000212,-0.00000225,0.00
 001929,0.00001337,-0.00004892,-0.00003593,0.00002563,0.00004547,0.0000
 1122,0.00000055,0.00000503,0.00000334,-0.00000714,0.00000331,0.0000150
 3,-0.00000138,0.00000948,0.00001479,-0.00000131,0.00000107,0.00000771,
 0.00002933,0.00000468,0.00001493,0.00004735,0.00000114,-0.00001545,0.0
 0001512,0.00001130,-0.00000153,0.00005452,0.00247039,0.00174185,-0.002
 04110,-0.00661711,0.10399553,0.07148319,-0.00001563,0.00000394,0.00000
 581,0.00001843,-0.00000641,-0.00000643,-0.00000580,0.00000580,0.000001
 58,-0.00002425,0.00000995,-0.00001400,0.00003360,-0.00000429,0.0000249
 8,-0.00003073,-0.00000526,-0.00002660,0.00002937,0.00001097,-0.0000111
 9,-0.00005232,0.00003155,0.00000717,0.00012729,-0.00000265,0.00011037,
 0.00126243,-0.00023802,0.00010893,0.00044300,0.00135802,0.00258727,-0.
 00393010,-0.00004017,-0.00230949,0.00356549,-0.00084043,0.00089337,-0.
 00421907,-0.00031102,-0.00316991,0.00532722,-0.00343649,-0.00214803,-0
 .04391233,0.00329686,0.00297407,-0.01918212,-0.03197014,0.04305319,0.0
 0673352,-0.00225908,0.00518028,0.00002248,0.00497008,-0.00165400,-0.01
 312267,-0.02214509,-0.01338146,-0.01323537,0.00632121,-0.03368007,0.00
 126943,0.00472063,0.00204699,-0.00217444,-0.00104819,0.00053522,0.0003
 6920,0.00217033,0.00060407,-0.00153610,-0.00182933,0.00016221,0.001393
 17,0.00010883,-0.00088010,0.00001535,0.00068764,0.00006246,0.00002448,
 -0.00000546,0.00004330,0.00000821,-0.00003351,-0.00004459,0.00005417,-
 0.00004617,-0.00004644,-0.00020666,-0.00002139,-0.00000721,0.00029017,
 -0.00003827,-0.00004668,-0.00008327,0.00009076,0.00005792,-0.00002623,
 0.00005718,-0.00000273,-0.00000793,-0.00011283,-0.00003739,0.00005072,
 0.00006774,0.00001066,0.00008972,0.00004772,0.00004947,-0.00003247,0.0
 0005673,0.00003011,0.00123232,0.00011127,-0.00013063,-0.00081188,-0.00
 377804,-0.00146907,-0.00500442,0.00101385,0.00072916,0.00056136,0.0010
 7240,0.00087771,-0.00002174,0.00000157,-0.00002788,0.00002099,-0.00002
 889,0.00001275,0.00000007,-0.00000060,-0.00000141,0.00000380,-0.000002
 08,0.00000247,-0.00000034,0.00000102,-0.00000145,-0.00000103,-0.000001
 11,-0.00000185,0.00000396,-0.00000295,0.00000106,0.00000150,-0.0000004
 0,0.00000208,0.00000098,-0.00000208,0.00000212,-0.00000199,-0.00000258
 ,-0.00000007,0.00001184,-0.00003481,0.00002274,0.00002474,0.00004369,0
 .00003292,-0.00003110,0.00007961,-0.00002341,0.00028005,-0.00007524,0.
 00003105,-0.00018953,0.00018618,0.00030823,0.00016948,-0.00037653,0.00
 002577,0.00006230,0.00033673,0.00003968,0.00001024,-0.00004074,0.00007
 332,0.00005022,0.00000639,0.00000967,-0.00001528,-0.00001320,-0.000000
 21,0.00001063,0.00000561,0.00000300,0.00001272,-0.00000706,0.00000094,
 0.00000126,-0.00001063,-0.00000929,0.00000630,0.00000680,0.00000163,-0
 .00000219,-0.00000550,-0.00000298,0.00000398,0.00000812,-0.00001039,-0
 .00000451,-0.00000803,-0.00000103,-0.00000479,-0.00001772,0.00003034,0
 .00001758,-0.00000016,-0.00001664,-0.00002696,0.00001275,-0.00000610,0
 .00007478,0.00008336,0.00004342,-0.00005834,-0.00005238,-0.00004658,-0
 .00000410,0.00002549,0.00000218,-0.00001123,-0.00000803,-0.00001133,0.
 08429835,-0.00000396,0.00000665,-0.00000190,0.00000513,-0.00000967,0.0
 0000449,-0.00000141,0.00000585,-0.00000378,-0.00001206,0.00001410,-0.0
 0001050,0.00001772,-0.00000579,0.00001828,-0.00000857,-0.00000075,-0.0
 0001309,0.00000972,-0.00000007,0.00000801,-0.00001838,0.00001949,0.000
 01325,0.00004228,-0.00000825,0.00000625,0.00032422,-0.00012478,0.00010
 535,0.00029265,0.00036986,0.00083565,-0.00135005,0.00004653,-0.0007167
 1,0.00142156,-0.00053627,0.00018492,-0.00136138,-0.00068906,-0.0013673
 6,0.00453652,-0.00193718,-0.00073410,-0.01593202,0.00354629,-0.0011476
 8,-0.02485250,-0.02682398,0.03600674,0.00380380,-0.00109115,0.00176097
 ,0.00025229,0.00247212,-0.00209031,-0.01036727,-0.01351256,-0.01133402
 ,0.00377132,0.00505031,0.00445766,-0.00030011,0.00067488,0.00092204,-0
 .00120270,-0.00156362,0.00030838,0.00075532,0.00128061,0.00010641,-0.0
 0136088,-0.00135522,0.00019385,0.00109047,-0.00013608,-0.00081804,0.00
 016871,0.00062995,0.00023481,0.00004654,-0.00000188,0.00000488,-0.0000
 0183,-0.00002914,-0.00002316,0.00001887,-0.00001629,-0.00001294,-0.000
 10640,-0.00002042,-0.00002497,0.00014104,-0.00002246,-0.00001505,-0.00
 004450,0.00004813,0.00002412,-0.00001649,0.00003097,-0.00000400,0.0000
 0747,-0.00005676,-0.00001089,0.00001497,0.00003243,0.00000285,0.000053
 64,0.00003107,0.00003641,-0.00004103,0.00001227,0.00001512,0.00049403,
 -0.00026263,-0.00005354,-0.00075313,-0.00172233,-0.00051158,-0.0020473
 2,0.00091932,0.00063867,0.00047912,0.00030401,0.00038841,-0.00000452,0
 .00000223,0.00000376,0.00000493,-0.00001042,0.00000884,-0.00000073,-0.
 00000350,-0.00000085,0.00000257,-0.00000118,0.00000295,-0.00000185,0.0
 0000253,-0.00000177,-0.00000155,-0.00000292,0.00000077,0.00000292,-0.0
 0000128,0.00000175,0.00000128,0.00000095,0.00000103,0.,-0.00000393,0.0
 0000017,0.00000360,0.00000274,-0.00000088,0.00000589,-0.00000820,-0.00
 000402,0.00001532,0.00003341,0.00000205,0.00000151,0.00002888,-0.00002
 932,0.00028665,-0.00006825,-0.00001500,-0.00018426,0.00032766,-0.00001
 609,0.00004945,0.00004950,-0.00023440,-0.00003947,0.00004626,-0.000074
 82,0.00000796,-0.00003704,0.00001460,0.00002303,0.00000633,-0.00001201
 ,0.00000250,0.00000533,0.00000491,0.00000219,0.00000436,0.00000060,0.0
 0000592,-0.00000299,0.00000066,0.00000060,-0.00000513,-0.00000217,0.00
 000299,0.00000252,-0.00000240,0.00000078,-0.00000129,-0.00000124,0.000
 00055,-0.00000065,0.00000204,0.00000353,-0.00000361,-0.00000227,-0.000
 00634,-0.00000407,0.00000715,0.00000108,0.00000075,-0.00000767,-0.0000
 0790,0.00000792,-0.00000933,-0.00002901,0.00002930,-0.00004810,0.00002
 615,0.00002125,-0.00001752,0.00000785,0.00000662,-0.00000254,-0.000001
 17,-0.00000155,-0.00000562,0.04185218,0.03400900,-0.00001962,-0.000009
 00,0.00001126,0.00002470,0.00001330,-0.00001226,-0.00000572,-0.0000117
 9,0.00000351,-0.00003853,0.00000642,-0.00001754,0.00008058,0.00005705,
 0.00006807,-0.00004124,-0.00006194,-0.00004518,-0.00000769,0.00004861,
 0.00001372,0.00000278,0.00000425,0.00000345,-0.00007686,0.00000052,-0.
 00005855,-0.00050546,-0.00006951,-0.00003741,-0.00018497,-0.00048026,-
 0.00094617,0.00150659,0.00012216,0.00089445,-0.00156457,0.00003783,-0.
 00085899,0.00199897,-0.00035464,0.00140695,-0.00255272,0.00228553,0.00
 180444,0.01808002,-0.00443318,0.00337129,0.03619661,0.03987788,-0.0546
 4780,-0.00579818,-0.00065688,-0.00254790,0.00651086,0.00693093,-0.0025
 4280,-0.01870704,-0.03223515,-0.01062214,-0.03350951,0.01446340,-0.088
 99566,-0.00049435,0.00584238,0.00372746,-0.00317182,-0.00329354,0.0010
 1983,0.00232817,0.00252237,-0.00037039,-0.00260609,-0.00234640,0.00032
 270,0.00186329,-0.00014981,-0.00140586,0.00056150,0.00101898,0.0004194
 7,0.00008061,0.00004770,-0.00000563,0.00002749,-0.00001576,-0.00001603
 ,-0.00006345,0.00005831,0.00003266,0.00012284,-0.00003465,-0.00004715,
 -0.00017680,0.00004430,0.00002951,0.00005900,-0.00007339,-0.00002793,0
 .00000965,-0.00005195,0.00000857,0.00001899,0.00009725,0.00001934,-0.0
 0005165,-0.00006399,0.00000023,-0.00000240,0.00001265,-0.00001422,-0.0
 0006028,-0.00001930,0.00000356,0.00033590,-0.00007426,-0.00013559,-0.0
 0017005,-0.00202708,-0.00114640,0.00118381,0.00001642,-0.00073414,-0.0
 0008623,-0.00002137,-0.00022599,0.00006204,-0.00002626,0.00001735,0.00
 001248,0.00000719,0.00000953,0.00000337,0.00000631,0.00000012,0.000003
 22,0.00000049,-0.00000016,-0.00000050,-0.00000182,-0.00000042,0.000001
 64,0.00000494,-0.00000239,0.00000427,-0.00000092,-0.00000045,0.0000053
 5,0.00000009,0.00000583,0.00000210,0.00000041,0.00000009,-0.00000074,-
 0.00000149,0.00000496,-0.00002381,0.00001807,-0.00000947,0.00000382,-0
 .00001172,-0.00001756,0.00001488,-0.00002293,-0.00000493,-0.00010113,0
 .00001689,0.00000997,0.00013117,-0.00000660,-0.00036801,0.00019251,-0.
 00021585,-0.00054445,0.00003408,0.00025684,0.00001712,0.00001735,-0.00
 004730,0.00002337,0.00004090,-0.00001476,-0.00001021,0.00002872,0.0000
 1746,0.00003037,-0.00000667,-0.00000760,0.00000230,-0.00000630,0.00000
 789,-0.00000128,-0.00000258,0.00000778,0.00000274,-0.00000193,-0.00000
 470,0.00000574,-0.00000259,0.00000284,0.00000176,-0.00000269,-0.000003
 97,0.00000484,0.00000475,0.00000489,0.00000012,0.00000667,0.00001763,-
 0.00002424,-0.00001629,-0.00000480,0.00001863,0.00003025,-0.00003102,0
 .00000019,-0.00007415,-0.00003219,-0.00007777,0.00008359,0.00001485,0.
 00002122,0.00002483,-0.00003564,0.00001202,0.00000933,0.00000778,0.000
 01976,-0.00157503,-0.02694718,0.15315455\\0.00000345,-0.00000243,0.000
 00058,-0.00000571,0.00000447,0.00000607,0.00000395,-0.00000481,-0.0000
 1112,-0.00001348,-0.00000414,0.00000078,0.00001094,0.00000177,-0.00000
 589,-0.00000594,0.00000493,0.00000549,-0.00000115,-0.00000401,-0.00000
 170,0.00000316,-0.00000341,0.00000281,0.00000096,0.00000405,0.00000186
 ,-0.00000177,0.00000124,-0.00000009,-0.00000035,-0.00000106,-0.0000033
 8,0.00000093,0.00000052,-0.00000015,-0.00000078,0.00000234,0.00000314,
 -0.00000141,-0.00000004,-0.00000144,0.00000239,0.00000050,-0.00000209,
 -0.00000497,-0.00000128,-0.00000457,0.00000286,-0.00000372,-0.00000086
 ,0.00000564,0.00000288,0.00000552,-0.00001109,-0.00000134,0.00000527,0
 .00001014,0.00001105,-0.00000615,-0.00000969,-0.00001057,0.00000211,-0
 .00000025,-0.00000337,-0.00000120,0.00000266,0.00000317,-0.00000062,-0
 .00000095,-0.00000523,-0.00000159,0.00000442,0.00000452,-0.00000081,-0
 .00000608,0.00000341,0.00000587,-0.00000035,-0.00000755,-0.00000901,-0
 .00000042,0.00000721,0.00000599,-0.00000012,0.00000112,0.00000214,-0.0
 0000145,-0.00000267,-0.00000144,-0.00000485,0.00000186,0.00001116,0.00
 000124,0.00000501,-0.00000973,0.00000714,-0.00000472,0.00000395,0.0000
 0229,0.00000154,0.00000235,-0.00000120,0.00000076,-0.00000256,-0.00000
 101,-0.00000395,0.00000134,-0.00000191,-0.00000036,-0.00000345,0.00000
 424,-0.00000119,-0.00000359,-0.00000046,0.00000146,0.00000170,0.000001
 05,0.00000048,-0.00000105,-0.00000216,-0.00000272,-0.00000615,0.000002
 51,0.00000098,0.00000313,-0.00000309,-0.00000249,-0.00000290,0.0000036
 2,-0.00000187,0.00000296,0.00000013,0.00000308,0.00000167,0.00000138,0
 .00000213,0.00000093,-0.00000488,-0.00000136,0.00000075,0.00000122,0.0
 0000186,0.00000134,0.00000106,0.00000089,0.00000073,-0.00000005,-0.000
 00226,0.00000235,-0.00000017,-0.00000024,0.00000100,0.00000172,0.00000
 086,0.00000063,-0.00000142,0.00000018,-0.00000006,-0.00000002,0.000000
 90,0.00000134,-0.00000054,0.00000036,0.,0.00000016,0.00000014,0.000000
 56,-0.00000045,0.00000055,0.00000060,0.00000041,-0.00000041,-0.0000012
 4,0.00000028,0.00000001,-0.00000087,-0.00000099,-0.00000142,-0.0000001
 4,0.00000106,-0.00000072,-0.00000242,-0.00000005,-0.00000157,-0.000000
 04,0.00000096,-0.00000093,-0.00000027,0.00000004,0.00000009,-0.0000004
 5,0.00000025,-0.00000117,0.00000092,-0.00000201,0.00000088,-0.00000309
 ,-0.00000109,-0.00000163,-0.00000081,0.00000087,0.00000070,-0.00000040
 ,0.00000002,-0.00000024,0.00000068,0.00000079,0.00000029,-0.00000035,0
 .00000180,0.00000086,0.00000050,-0.00000217,0.00000175,0.00000002,0.00
 000202,-0.00000053,0.00000196,-0.00000073,0.00000014,-0.00000027,0.000
 00024,-0.00000070,-0.00000061,0.00000022,-0.00000094,0.00000030,0.0000
 0698,0.00000614,0.00000208\\\@
 The archive entry for this job was punched.


 YOU CAN WIPE THE SLATE CLEAN, BUT YOU'LL STILL
 HAVE TO EAT A LITTLE CHALK DUST.
 Job cpu time:       1 days 15 hours 22 minutes 13.7 seconds.
 Elapsed time:       0 days  1 hours 14 minutes 13.8 seconds.
 File lengths (MBytes):  RWF=   8471 Int=      0 D2E=      0 Chk=     59 Scr=      1
 Normal termination of Gaussian 16 at Fri Mar 28 00:05:39 2025.
