 Entering Gaussian System, Link 0=g16
 Initial command:
 /public/software/apps/Gaussian/g16/l1.exe "/tmp/Gau-129148.inp" -scrdir="/tmp/"
 Entering Link 1 = /public/software/apps/Gaussian/g16/l1.exe PID=    129149.
  
 Copyright (c) 1988-2019, Gaussian, Inc.  All Rights Reserved.
  
 This is part of the Gaussian(R) 16 program.  It is based on
 the Gaussian(R) 09 system (copyright 2009, Gaussian, Inc.),
 the Gaussian(R) 03 system (copyright 2003, Gaussian, Inc.),
 the Gaussian(R) 98 system (copyright 1998, Gaussian, Inc.),
 the Gaussian(R) 94 system (copyright 1995, Gaussian, Inc.),
 the Gaussian 92(TM) system (copyright 1992, Gaussian, Inc.),
 the Gaussian 90(TM) system (copyright 1990, Gaussian, Inc.),
 the Gaussian 88(TM) system (copyright 1988, Gaussian, Inc.),
 the Gaussian 86(TM) system (copyright 1986, Carnegie Mellon
 University), and the Gaussian 82(TM) system (copyright 1983,
 Carnegie Mellon University). Gaussian is a federally registered
 trademark of Gaussian, Inc.
  
 This software contains proprietary and confidential information,
 including trade secrets, belonging to Gaussian, Inc.
  
 This software is provided under written license and may be
 used, copied, transmitted, or stored only in accord with that
 written license.
  
 The following legend is applicable only to US Government
 contracts under FAR:
  
                    RESTRICTED RIGHTS LEGEND
  
 Use, reproduction and disclosure by the US Government is
 subject to restrictions as set forth in subparagraphs (a)
 and (c) of the Commercial Computer Software - Restricted
 Rights clause in FAR 52.227-19.
  
 Gaussian, Inc.
 340 Quinnipiac St., Bldg. 40, Wallingford CT 06492
  
  
 ---------------------------------------------------------------
 Warning -- This program may not be used in any manner that
 competes with the business of Gaussian, Inc. or will provide
 assistance to any competitor of Gaussian, Inc.  The licensee
 of this program is prohibited from giving any competitor of
 Gaussian, Inc. access to this program.  By using this program,
 the user acknowledges that Gaussian, Inc. is engaged in the
 business of creating and licensing software in the field of
 computational chemistry and represents and warrants to the
 licensee that it is not a competitor of Gaussian, Inc. and that
 it will not use this program in any manner prohibited above.
 ---------------------------------------------------------------
  

 Cite this work as:
 Gaussian 16, Revision C.01,
 M. J. Frisch, G. W. Trucks, H. B. Schlegel, G. E. Scuseria, 
 M. A. Robb, J. R. Cheeseman, G. Scalmani, V. Barone, 
 G. A. Petersson, H. Nakatsuji, X. Li, M. Caricato, A. V. Marenich, 
 J. Bloino, B. G. Janesko, R. Gomperts, B. Mennucci, H. P. Hratchian, 
 J. V. Ortiz, A. F. Izmaylov, J. L. Sonnenberg, D. Williams-Young, 
 F. Ding, F. Lipparini, F. Egidi, J. Goings, B. Peng, A. Petrone, 
 T. Henderson, D. Ranasinghe, V. G. Zakrzewski, J. Gao, N. Rega, 
 G. Zheng, W. Liang, M. Hada, M. Ehara, K. Toyota, R. Fukuda, 
 J. Hasegawa, M. Ishida, T. Nakajima, Y. Honda, O. Kitao, H. Nakai, 
 T. Vreven, K. Throssell, J. A. Montgomery, Jr., J. E. Peralta, 
 F. Ogliaro, M. J. Bearpark, J. J. Heyd, E. N. Brothers, K. N. Kudin, 
 V. N. Staroverov, T. A. Keith, R. Kobayashi, J. Normand, 
 K. Raghavachari, A. P. Rendell, J. C. Burant, S. S. Iyengar, 
 J. Tomasi, M. Cossi, J. M. Millam, M. Klene, C. Adamo, R. Cammi, 
 J. W. Ochterski, R. L. Martin, K. Morokuma, O. Farkas, 
 J. B. Foresman, and D. J. Fox, Gaussian, Inc., Wallingford CT, 2019.
 
 ******************************************
 Gaussian 16:  ES64L-G16RevC.01  3-Jul-2019
                28-Mar-2025 
 ******************************************
 %nprocshared=32
 Will use up to   32 processors via shared memory.
 %mem=100GB
 ------------------------------------------
 #p opt freq b3lyp/def2svpp em=gd3bj nosymm
 ------------------------------------------
 1/18=20,19=15,26=3,38=1/1,3;
 2/9=110,12=2,15=1,17=6,18=5,40=1/2;
 3/5=43,7=202,11=2,25=1,30=1,71=1,74=-5,124=41/1,2,3;
 4//1;
 5/5=2,38=5/2;
 6/7=2,8=2,9=2,10=2,28=1/1;
 7/30=1/1,2,3,16;
 1/18=20,19=15,26=3/3(2);
 2/9=110,15=1/2;
 99//99;
 2/9=110,15=1/2;
 3/5=43,7=202,11=2,25=1,30=1,71=1,74=-5,124=41/1,2,3;
 4/5=5,16=3,69=1/1;
 5/5=2,38=5/2;
 7/30=1/1,2,3,16;
 1/18=20,19=15,26=3/3(-5);
 2/9=110,15=1/2;
 6/7=2,8=2,9=2,10=2,19=2,28=1/1;
 99/9=1/99;
 Leave Link    1 at Fri Mar 28 04:32:42 2025, MaxMem= 13421772800 cpu:               1.9 elap:               0.1
 (Enter /public/software/apps/Gaussian/g16/l101.exe)
 ------------------
 $$$$Title####0????
 ------------------
 Symbolic Z-matrix:
 Charge =  0 Multiplicity = 2
 O                     4.38174   1.01135   0.06479 
 C                     3.59176   1.71166   0.9707 
 C                     3.91333   3.03504   1.27594 
 C                     3.1219    3.7681    2.15872 
 C                     1.98456   3.18851   2.73661 
 C                     1.17253   3.94193   3.59911 
 C                     0.02325   3.37811   4.1549 
 C                    -0.32757   2.06213   3.85429 
 C                     0.47114   1.29743   3.00105 
 C                     1.64427   1.84288   2.4363 
 C                     2.47619   1.09373   1.56366 
 C                     2.17699  -0.32242   1.22388 
 C                     1.69838  -0.61537  -0.0649 
 O                     1.64489   0.39795  -1.01945 
 C                     1.2916   -1.92031  -0.39914 
 C                     0.64999  -2.20924  -1.70328 
 C                     1.0542   -3.30495  -2.50015 
 C                     0.40233  -3.58928  -3.72184 
 C                    -0.66976  -2.79411  -4.16456 
 C                    -1.05541  -1.72622  -3.35937 
 C                    -0.42332  -1.4404   -2.16814 
 O                    -0.98039  -0.40136  -1.57818 
 C                    -1.95783   0.00801  -2.36141 
 C                    -2.82917   1.08268  -2.14646 
 C                    -2.69674   1.96022  -0.95909 
 C                    -1.4318    2.42355  -0.5514 
 C                    -1.30918   3.25441   0.56555 
 C                    -2.44342   3.62495   1.29106 
 C                    -3.70451   3.17318   0.89408 
 C                    -3.83384   2.34873  -0.22848 
 C                    -3.83406   1.3023   -3.11775 
 C                    -3.93005   0.47534  -4.26007 
 C                    -3.02908  -0.58615  -4.45452 
 C                    -2.05396  -0.7893   -3.48276 
 C                     1.44577  -2.95097   0.53774 
 C                     1.976    -2.69017   1.80763 
 C                     2.12973  -3.73556   2.73257 
 C                     2.65299  -3.48189   4.00121 
 C                     3.0284   -2.18688   4.35787 
 C                     2.87982  -1.13564   3.45034 
 C                     2.34477  -1.36824   2.16515 
 H                     4.77901   3.49957   0.82106 
 H                     3.39057   4.79476   2.37788 
 H                     1.42229   4.96927   3.8364 
 H                    -0.6023    3.96602   4.81402 
 H                    -1.22617   1.634     4.27938 
 H                     0.15711   0.28566   2.78172 
 H                     1.87547  -3.93515  -2.18243 
 H                     0.7283   -4.42982  -4.3205 
 H                    -1.17774  -3.01009  -5.09542 
 H                    -0.54199   2.16216  -1.1094 
 H                    -0.33429   3.61496   0.86527 
 H                    -2.34529   4.26475   2.15854 
 H                    -4.58294   3.46168   1.4567 
 H                    -4.81824   2.00068  -0.51573 
 H                    -4.53142   2.12289  -3.00536 
 H                    -4.70191   0.66361  -4.99491 
 H                    -3.09696  -1.22334  -5.32665 
 H                     1.13108  -3.95704   0.28282 
 H                     1.84618  -4.74894   2.47385 
 H                     2.77018  -4.2922    4.70918 
 H                     3.4382   -1.99648   5.34145 
 H                     3.19106  -0.14681   3.76061 
 Cu                    3.50116   0.57091  -1.63307 
 
 ITRead=  0  0  0  0  0  0  0  0  0  0  0  0  0  0  0  0  0  0  0  0
 ITRead=  0  0  0  0  0  0  0  0  0  0  0  0  0  0  0  0  0  0  0  0
 ITRead=  0  0  0  0  0  0  0  0  0  0  0  0  0  0  0  0  0  0  0  0
 ITRead=  0  0  0  0
 MicOpt= -1 -1 -1 -1 -1 -1 -1 -1 -1 -1 -1 -1 -1 -1 -1 -1 -1 -1 -1 -1
 MicOpt= -1 -1 -1 -1 -1 -1 -1 -1 -1 -1 -1 -1 -1 -1 -1 -1 -1 -1 -1 -1
 MicOpt= -1 -1 -1 -1 -1 -1 -1 -1 -1 -1 -1 -1 -1 -1 -1 -1 -1 -1 -1 -1
 MicOpt= -1 -1 -1 -1
 NAtoms=     64 NQM=       64 NQMF=       0 NMMI=      0 NMMIF=      0
                NMic=       0 NMicF=      0.
                    Isotopes and Nuclear Properties:
 (Nuclear quadrupole moments (NQMom) in fm**2, nuclear magnetic moments (NMagM)
  in nuclear magnetons)

  Atom         1           2           3           4           5           6           7           8           9          10
 IAtWgt=          16          12          12          12          12          12          12          12          12          12
 AtmWgt=  15.9949146  12.0000000  12.0000000  12.0000000  12.0000000  12.0000000  12.0000000  12.0000000  12.0000000  12.0000000
 NucSpn=           0           0           0           0           0           0           0           0           0           0
 AtZEff=  -0.0000000  -0.0000000  -0.0000000  -0.0000000  -0.0000000  -0.0000000  -0.0000000  -0.0000000  -0.0000000  -0.0000000
 NQMom=    0.0000000   0.0000000   0.0000000   0.0000000   0.0000000   0.0000000   0.0000000   0.0000000   0.0000000   0.0000000
 NMagM=    0.0000000   0.0000000   0.0000000   0.0000000   0.0000000   0.0000000   0.0000000   0.0000000   0.0000000   0.0000000
 AtZNuc=   8.0000000   6.0000000   6.0000000   6.0000000   6.0000000   6.0000000   6.0000000   6.0000000   6.0000000   6.0000000

  Atom        11          12          13          14          15          16          17          18          19          20
 IAtWgt=          12          12          12          16          12          12          12          12          12          12
 AtmWgt=  12.0000000  12.0000000  12.0000000  15.9949146  12.0000000  12.0000000  12.0000000  12.0000000  12.0000000  12.0000000
 NucSpn=           0           0           0           0           0           0           0           0           0           0
 AtZEff=  -0.0000000  -0.0000000  -0.0000000  -0.0000000  -0.0000000  -0.0000000  -0.0000000  -0.0000000  -0.0000000  -0.0000000
 NQMom=    0.0000000   0.0000000   0.0000000   0.0000000   0.0000000   0.0000000   0.0000000   0.0000000   0.0000000   0.0000000
 NMagM=    0.0000000   0.0000000   0.0000000   0.0000000   0.0000000   0.0000000   0.0000000   0.0000000   0.0000000   0.0000000
 AtZNuc=   6.0000000   6.0000000   6.0000000   8.0000000   6.0000000   6.0000000   6.0000000   6.0000000   6.0000000   6.0000000

  Atom        21          22          23          24          25          26          27          28          29          30
 IAtWgt=          12          16          12          12          12          12          12          12          12          12
 AtmWgt=  12.0000000  15.9949146  12.0000000  12.0000000  12.0000000  12.0000000  12.0000000  12.0000000  12.0000000  12.0000000
 NucSpn=           0           0           0           0           0           0           0           0           0           0
 AtZEff=  -0.0000000  -0.0000000  -0.0000000  -0.0000000  -0.0000000  -0.0000000  -0.0000000  -0.0000000  -0.0000000  -0.0000000
 NQMom=    0.0000000   0.0000000   0.0000000   0.0000000   0.0000000   0.0000000   0.0000000   0.0000000   0.0000000   0.0000000
 NMagM=    0.0000000   0.0000000   0.0000000   0.0000000   0.0000000   0.0000000   0.0000000   0.0000000   0.0000000   0.0000000
 AtZNuc=   6.0000000   8.0000000   6.0000000   6.0000000   6.0000000   6.0000000   6.0000000   6.0000000   6.0000000   6.0000000

  Atom        31          32          33          34          35          36          37          38          39          40
 IAtWgt=          12          12          12          12          12          12          12          12          12          12
 AtmWgt=  12.0000000  12.0000000  12.0000000  12.0000000  12.0000000  12.0000000  12.0000000  12.0000000  12.0000000  12.0000000
 NucSpn=           0           0           0           0           0           0           0           0           0           0
 AtZEff=  -0.0000000  -0.0000000  -0.0000000  -0.0000000  -0.0000000  -0.0000000  -0.0000000  -0.0000000  -0.0000000  -0.0000000
 NQMom=    0.0000000   0.0000000   0.0000000   0.0000000   0.0000000   0.0000000   0.0000000   0.0000000   0.0000000   0.0000000
 NMagM=    0.0000000   0.0000000   0.0000000   0.0000000   0.0000000   0.0000000   0.0000000   0.0000000   0.0000000   0.0000000
 AtZNuc=   6.0000000   6.0000000   6.0000000   6.0000000   6.0000000   6.0000000   6.0000000   6.0000000   6.0000000   6.0000000

  Atom        41          42          43          44          45          46          47          48          49          50
 IAtWgt=          12           1           1           1           1           1           1           1           1           1
 AtmWgt=  12.0000000   1.0078250   1.0078250   1.0078250   1.0078250   1.0078250   1.0078250   1.0078250   1.0078250   1.0078250
 NucSpn=           0           1           1           1           1           1           1           1           1           1
 AtZEff=  -0.0000000  -0.0000000  -0.0000000  -0.0000000  -0.0000000  -0.0000000  -0.0000000  -0.0000000  -0.0000000  -0.0000000
 NQMom=    0.0000000   0.0000000   0.0000000   0.0000000   0.0000000   0.0000000   0.0000000   0.0000000   0.0000000   0.0000000
 NMagM=    0.0000000   2.7928460   2.7928460   2.7928460   2.7928460   2.7928460   2.7928460   2.7928460   2.7928460   2.7928460
 AtZNuc=   6.0000000   1.0000000   1.0000000   1.0000000   1.0000000   1.0000000   1.0000000   1.0000000   1.0000000   1.0000000

  Atom        51          52          53          54          55          56          57          58          59          60
 IAtWgt=           1           1           1           1           1           1           1           1           1           1
 AtmWgt=   1.0078250   1.0078250   1.0078250   1.0078250   1.0078250   1.0078250   1.0078250   1.0078250   1.0078250   1.0078250
 NucSpn=           1           1           1           1           1           1           1           1           1           1
 AtZEff=  -0.0000000  -0.0000000  -0.0000000  -0.0000000  -0.0000000  -0.0000000  -0.0000000  -0.0000000  -0.0000000  -0.0000000
 NQMom=    0.0000000   0.0000000   0.0000000   0.0000000   0.0000000   0.0000000   0.0000000   0.0000000   0.0000000   0.0000000
 NMagM=    2.7928460   2.7928460   2.7928460   2.7928460   2.7928460   2.7928460   2.7928460   2.7928460   2.7928460   2.7928460
 AtZNuc=   1.0000000   1.0000000   1.0000000   1.0000000   1.0000000   1.0000000   1.0000000   1.0000000   1.0000000   1.0000000

  Atom        61          62          63          64
 IAtWgt=           1           1           1          63
 AtmWgt=   1.0078250   1.0078250   1.0078250  62.9295992
 NucSpn=           1           1           1           3
 AtZEff=  -0.0000000  -0.0000000  -0.0000000  -0.0000000
 NQMom=    0.0000000   0.0000000   0.0000000 -22.0000000
 NMagM=    2.7928460   2.7928460   2.7928460   2.2233000
 AtZNuc=   1.0000000   1.0000000   1.0000000  29.0000000
 Leave Link  101 at Fri Mar 28 04:32:42 2025, MaxMem= 13421772800 cpu:               3.9 elap:               0.1
 (Enter /public/software/apps/Gaussian/g16/l103.exe)

 GradGradGradGradGradGradGradGradGradGradGradGradGradGradGradGradGradGrad
 Berny optimization.
 Initialization pass.
                           ----------------------------
                           !    Initial Parameters    !
                           ! (Angstroms and Degrees)  !
 --------------------------                            --------------------------
 ! Name  Definition              Value          Derivative Info.                !
 --------------------------------------------------------------------------------
 ! R1    R(1,2)                  1.3911         estimate D2E/DX2                !
 ! R2    R(1,64)                 1.9627         estimate D2E/DX2                !
 ! R3    R(2,3)                  1.3957         estimate D2E/DX2                !
 ! R4    R(2,11)                 1.4064         estimate D2E/DX2                !
 ! R5    R(3,4)                  1.3939         estimate D2E/DX2                !
 ! R6    R(3,42)                 1.0826         estimate D2E/DX2                !
 ! R7    R(4,5)                  1.4012         estimate D2E/DX2                !
 ! R8    R(4,43)                 1.0836         estimate D2E/DX2                !
 ! R9    R(5,6)                  1.4039         estimate D2E/DX2                !
 ! R10   R(5,10)                 1.4201         estimate D2E/DX2                !
 ! R11   R(6,7)                  1.3956         estimate D2E/DX2                !
 ! R12   R(6,44)                 1.0836         estimate D2E/DX2                !
 ! R13   R(7,8)                  1.3947         estimate D2E/DX2                !
 ! R14   R(7,45)                 1.0823         estimate D2E/DX2                !
 ! R15   R(8,9)                  1.3967         estimate D2E/DX2                !
 ! R16   R(8,46)                 1.0823         estimate D2E/DX2                !
 ! R17   R(9,10)                 1.4116         estimate D2E/DX2                !
 ! R18   R(9,47)                 1.0818         estimate D2E/DX2                !
 ! R19   R(10,11)                1.4194         estimate D2E/DX2                !
 ! R20   R(11,12)                1.4868         estimate D2E/DX2                !
 ! R21   R(12,13)                1.4056         estimate D2E/DX2                !
 ! R22   R(12,41)                1.417          estimate D2E/DX2                !
 ! R23   R(13,14)                1.3931         estimate D2E/DX2                !
 ! R24   R(13,15)                1.4071         estimate D2E/DX2                !
 ! R25   R(14,64)                1.9627         estimate D2E/DX2                !
 ! R26   R(15,16)                1.4819         estimate D2E/DX2                !
 ! R27   R(15,35)                1.4013         estimate D2E/DX2                !
 ! R28   R(16,17)                1.4138         estimate D2E/DX2                !
 ! R29   R(16,21)                1.3997         estimate D2E/DX2                !
 ! R30   R(17,18)                1.4136         estimate D2E/DX2                !
 ! R31   R(17,48)                1.0829         estimate D2E/DX2                !
 ! R32   R(18,19)                1.4063         estimate D2E/DX2                !
 ! R33   R(18,49)                1.0822         estimate D2E/DX2                !
 ! R34   R(19,20)                1.3919         estimate D2E/DX2                !
 ! R35   R(19,50)                1.0822         estimate D2E/DX2                !
 ! R36   R(20,21)                1.3785         estimate D2E/DX2                !
 ! R37   R(20,34)                1.3748         estimate D2E/DX2                !
 ! R38   R(21,22)                1.3183         estimate D2E/DX2                !
 ! R39   R(22,23)                1.3177         estimate D2E/DX2                !
 ! R40   R(23,24)                1.4001         estimate D2E/DX2                !
 ! R41   R(23,34)                1.3793         estimate D2E/DX2                !
 ! R42   R(24,25)                1.4824         estimate D2E/DX2                !
 ! R43   R(24,31)                1.4147         estimate D2E/DX2                !
 ! R44   R(25,26)                1.4075         estimate D2E/DX2                !
 ! R45   R(25,30)                1.4063         estimate D2E/DX2                !
 ! R46   R(26,27)                1.3975         estimate D2E/DX2                !
 ! R47   R(26,51)                1.0823         estimate D2E/DX2                !
 ! R48   R(27,28)                1.3965         estimate D2E/DX2                !
 ! R49   R(27,52)                1.0818         estimate D2E/DX2                !
 ! R50   R(28,29)                1.3972         estimate D2E/DX2                !
 ! R51   R(28,53)                1.0824         estimate D2E/DX2                !
 ! R52   R(29,30)                1.3988         estimate D2E/DX2                !
 ! R53   R(29,54)                1.0823         estimate D2E/DX2                !
 ! R54   R(30,55)                1.0829         estimate D2E/DX2                !
 ! R55   R(31,32)                1.4135         estimate D2E/DX2                !
 ! R56   R(31,56)                1.0827         estimate D2E/DX2                !
 ! R57   R(32,33)                1.4058         estimate D2E/DX2                !
 ! R58   R(32,57)                1.0822         estimate D2E/DX2                !
 ! R59   R(33,34)                1.3916         estimate D2E/DX2                !
 ! R60   R(33,58)                1.0822         estimate D2E/DX2                !
 ! R61   R(35,36)                1.4006         estimate D2E/DX2                !
 ! R62   R(35,59)                1.0845         estimate D2E/DX2                !
 ! R63   R(36,37)                1.4043         estimate D2E/DX2                !
 ! R64   R(36,41)                1.4182         estimate D2E/DX2                !
 ! R65   R(37,38)                1.3956         estimate D2E/DX2                !
 ! R66   R(37,60)                1.0836         estimate D2E/DX2                !
 ! R67   R(38,39)                1.3947         estimate D2E/DX2                !
 ! R68   R(38,61)                1.0824         estimate D2E/DX2                !
 ! R69   R(39,40)                1.3967         estimate D2E/DX2                !
 ! R70   R(39,62)                1.0824         estimate D2E/DX2                !
 ! R71   R(40,41)                1.4114         estimate D2E/DX2                !
 ! R72   R(40,63)                1.0821         estimate D2E/DX2                !
 ! A1    A(2,1,64)             114.9313         estimate D2E/DX2                !
 ! A2    A(1,2,3)              119.2697         estimate D2E/DX2                !
 ! A3    A(1,2,11)             120.2536         estimate D2E/DX2                !
 ! A4    A(3,2,11)             120.4751         estimate D2E/DX2                !
 ! A5    A(2,3,4)              120.4207         estimate D2E/DX2                !
 ! A6    A(2,3,42)             119.9464         estimate D2E/DX2                !
 ! A7    A(4,3,42)             119.6318         estimate D2E/DX2                !
 ! A8    A(3,4,5)              120.2984         estimate D2E/DX2                !
 ! A9    A(3,4,43)             119.0497         estimate D2E/DX2                !
 ! A10   A(5,4,43)             120.6449         estimate D2E/DX2                !
 ! A11   A(4,5,6)              120.0582         estimate D2E/DX2                !
 ! A12   A(4,5,10)             119.9484         estimate D2E/DX2                !
 ! A13   A(6,5,10)             119.9888         estimate D2E/DX2                !
 ! A14   A(5,6,7)              120.2776         estimate D2E/DX2                !
 ! A15   A(5,6,44)             120.6657         estimate D2E/DX2                !
 ! A16   A(7,6,44)             119.0547         estimate D2E/DX2                !
 ! A17   A(6,7,8)              120.1652         estimate D2E/DX2                !
 ! A18   A(6,7,45)             119.9373         estimate D2E/DX2                !
 ! A19   A(8,7,45)             119.8953         estimate D2E/DX2                !
 ! A20   A(7,8,9)              120.2936         estimate D2E/DX2                !
 ! A21   A(7,8,46)             119.828          estimate D2E/DX2                !
 ! A22   A(9,8,46)             119.8773         estimate D2E/DX2                !
 ! A23   A(8,9,10)             120.5373         estimate D2E/DX2                !
 ! A24   A(8,9,47)             118.0278         estimate D2E/DX2                !
 ! A25   A(10,9,47)            121.4319         estimate D2E/DX2                !
 ! A26   A(5,10,9)             118.7289         estimate D2E/DX2                !
 ! A27   A(5,10,11)            119.3186         estimate D2E/DX2                !
 ! A28   A(9,10,11)            121.9442         estimate D2E/DX2                !
 ! A29   A(2,11,10)            119.4855         estimate D2E/DX2                !
 ! A30   A(2,11,12)            118.8016         estimate D2E/DX2                !
 ! A31   A(10,11,12)           121.6863         estimate D2E/DX2                !
 ! A32   A(11,12,13)           118.4611         estimate D2E/DX2                !
 ! A33   A(11,12,41)           121.8278         estimate D2E/DX2                !
 ! A34   A(13,12,41)           119.7057         estimate D2E/DX2                !
 ! A35   A(12,13,14)           119.3208         estimate D2E/DX2                !
 ! A36   A(12,13,15)           120.6295         estimate D2E/DX2                !
 ! A37   A(14,13,15)           120.0449         estimate D2E/DX2                !
 ! A38   A(13,14,64)           104.0048         estimate D2E/DX2                !
 ! A39   A(13,15,16)           120.9994         estimate D2E/DX2                !
 ! A40   A(13,15,35)           119.4363         estimate D2E/DX2                !
 ! A41   A(16,15,35)           119.5115         estimate D2E/DX2                !
 ! A42   A(15,16,17)           121.5566         estimate D2E/DX2                !
 ! A43   A(15,16,21)           121.1441         estimate D2E/DX2                !
 ! A44   A(17,16,21)           117.2403         estimate D2E/DX2                !
 ! A45   A(16,17,18)           120.7395         estimate D2E/DX2                !
 ! A46   A(16,17,48)           120.1643         estimate D2E/DX2                !
 ! A47   A(18,17,48)           119.095          estimate D2E/DX2                !
 ! A48   A(17,18,19)           120.6563         estimate D2E/DX2                !
 ! A49   A(17,18,49)           119.6964         estimate D2E/DX2                !
 ! A50   A(19,18,49)           119.6467         estimate D2E/DX2                !
 ! A51   A(18,19,20)           117.5755         estimate D2E/DX2                !
 ! A52   A(18,19,50)           121.0489         estimate D2E/DX2                !
 ! A53   A(20,19,50)           121.3749         estimate D2E/DX2                !
 ! A54   A(19,20,21)           122.135          estimate D2E/DX2                !
 ! A55   A(19,20,34)           132.2335         estimate D2E/DX2                !
 ! A56   A(21,20,34)           105.6225         estimate D2E/DX2                !
 ! A57   A(16,21,20)           121.6492         estimate D2E/DX2                !
 ! A58   A(16,21,22)           127.4674         estimate D2E/DX2                !
 ! A59   A(20,21,22)           110.8777         estimate D2E/DX2                !
 ! A60   A(21,22,23)           106.9955         estimate D2E/DX2                !
 ! A61   A(22,23,24)           127.5043         estimate D2E/DX2                !
 ! A62   A(22,23,34)           110.8144         estimate D2E/DX2                !
 ! A63   A(24,23,34)           121.6776         estimate D2E/DX2                !
 ! A64   A(23,24,25)           121.4494         estimate D2E/DX2                !
 ! A65   A(23,24,31)           117.1164         estimate D2E/DX2                !
 ! A66   A(25,24,31)           121.4318         estimate D2E/DX2                !
 ! A67   A(24,25,26)           120.4764         estimate D2E/DX2                !
 ! A68   A(24,25,30)           120.4929         estimate D2E/DX2                !
 ! A69   A(26,25,30)           119.0295         estimate D2E/DX2                !
 ! A70   A(25,26,27)           120.4042         estimate D2E/DX2                !
 ! A71   A(25,26,51)           120.6662         estimate D2E/DX2                !
 ! A72   A(27,26,51)           118.9145         estimate D2E/DX2                !
 ! A73   A(26,27,28)           120.1142         estimate D2E/DX2                !
 ! A74   A(26,27,52)           119.9128         estimate D2E/DX2                !
 ! A75   A(28,27,52)           119.9722         estimate D2E/DX2                !
 ! A76   A(27,28,29)           119.9801         estimate D2E/DX2                !
 ! A77   A(27,28,53)           119.9735         estimate D2E/DX2                !
 ! A78   A(29,28,53)           120.046          estimate D2E/DX2                !
 ! A79   A(28,29,30)           120.1369         estimate D2E/DX2                !
 ! A80   A(28,29,54)           119.9131         estimate D2E/DX2                !
 ! A81   A(30,29,54)           119.95           estimate D2E/DX2                !
 ! A82   A(25,30,29)           120.3312         estimate D2E/DX2                !
 ! A83   A(25,30,55)           120.5582         estimate D2E/DX2                !
 ! A84   A(29,30,55)           119.1019         estimate D2E/DX2                !
 ! A85   A(24,31,32)           120.8147         estimate D2E/DX2                !
 ! A86   A(24,31,56)           120.2574         estimate D2E/DX2                !
 ! A87   A(32,31,56)           118.9166         estimate D2E/DX2                !
 ! A88   A(31,32,33)           120.6643         estimate D2E/DX2                !
 ! A89   A(31,32,57)           119.6965         estimate D2E/DX2                !
 ! A90   A(33,32,57)           119.6386         estimate D2E/DX2                !
 ! A91   A(32,33,34)           117.5633         estimate D2E/DX2                !
 ! A92   A(32,33,58)           121.0534         estimate D2E/DX2                !
 ! A93   A(34,33,58)           121.3826         estimate D2E/DX2                !
 ! A94   A(20,34,23)           105.6855         estimate D2E/DX2                !
 ! A95   A(20,34,33)           132.1531         estimate D2E/DX2                !
 ! A96   A(23,34,33)           122.1535         estimate D2E/DX2                !
 ! A97   A(15,35,36)           120.7199         estimate D2E/DX2                !
 ! A98   A(15,35,59)           119.5522         estimate D2E/DX2                !
 ! A99   A(36,35,59)           119.715          estimate D2E/DX2                !
 ! A100  A(35,36,37)           120.0            estimate D2E/DX2                !
 ! A101  A(35,36,41)           120.0374         estimate D2E/DX2                !
 ! A102  A(37,36,41)           119.9593         estimate D2E/DX2                !
 ! A103  A(36,37,38)           120.2975         estimate D2E/DX2                !
 ! A104  A(36,37,60)           120.682          estimate D2E/DX2                !
 ! A105  A(38,37,60)           119.0205         estimate D2E/DX2                !
 ! A106  A(37,38,39)           120.1431         estimate D2E/DX2                !
 ! A107  A(37,38,61)           119.9413         estimate D2E/DX2                !
 ! A108  A(39,38,61)           119.9155         estimate D2E/DX2                !
 ! A109  A(38,39,40)           120.2696         estimate D2E/DX2                !
 ! A110  A(38,39,62)           119.8421         estimate D2E/DX2                !
 ! A111  A(40,39,62)           119.8882         estimate D2E/DX2                !
 ! A112  A(39,40,41)           120.5266         estimate D2E/DX2                !
 ! A113  A(39,40,63)           118.0918         estimate D2E/DX2                !
 ! A114  A(41,40,63)           121.3807         estimate D2E/DX2                !
 ! A115  A(12,41,36)           119.3208         estimate D2E/DX2                !
 ! A116  A(12,41,40)           121.8784         estimate D2E/DX2                !
 ! A117  A(36,41,40)           118.7989         estimate D2E/DX2                !
 ! A118  A(1,64,14)            100.0            estimate D2E/DX2                !
 ! D1    D(64,1,2,3)          -112.2287         estimate D2E/DX2                !
 ! D2    D(64,1,2,11)           67.3115         estimate D2E/DX2                !
 ! D3    D(2,1,64,14)          -30.493          estimate D2E/DX2                !
 ! D4    D(1,2,3,4)            178.6416         estimate D2E/DX2                !
 ! D5    D(1,2,3,42)            -0.9904         estimate D2E/DX2                !
 ! D6    D(11,2,3,4)            -0.8976         estimate D2E/DX2                !
 ! D7    D(11,2,3,42)          179.4704         estimate D2E/DX2                !
 ! D8    D(1,2,11,10)         -176.9911         estimate D2E/DX2                !
 ! D9    D(1,2,11,12)            1.1656         estimate D2E/DX2                !
 ! D10   D(3,2,11,10)            2.5436         estimate D2E/DX2                !
 ! D11   D(3,2,11,12)         -179.2997         estimate D2E/DX2                !
 ! D12   D(2,3,4,5)             -0.7955         estimate D2E/DX2                !
 ! D13   D(2,3,4,43)          -179.8374         estimate D2E/DX2                !
 ! D14   D(42,3,4,5)           178.8377         estimate D2E/DX2                !
 ! D15   D(42,3,4,43)           -0.2043         estimate D2E/DX2                !
 ! D16   D(3,4,5,6)           -178.417          estimate D2E/DX2                !
 ! D17   D(3,4,5,10)             0.8063         estimate D2E/DX2                !
 ! D18   D(43,4,5,6)             0.6095         estimate D2E/DX2                !
 ! D19   D(43,4,5,10)          179.8328         estimate D2E/DX2                !
 ! D20   D(4,5,6,7)            178.6437         estimate D2E/DX2                !
 ! D21   D(4,5,6,44)            -0.8279         estimate D2E/DX2                !
 ! D22   D(10,5,6,7)            -0.5793         estimate D2E/DX2                !
 ! D23   D(10,5,6,44)          179.9491         estimate D2E/DX2                !
 ! D24   D(4,5,10,9)          -178.1218         estimate D2E/DX2                !
 ! D25   D(4,5,10,11)            0.846          estimate D2E/DX2                !
 ! D26   D(6,5,10,9)             1.102          estimate D2E/DX2                !
 ! D27   D(6,5,10,11)         -179.9302         estimate D2E/DX2                !
 ! D28   D(5,6,7,8)             -0.1373         estimate D2E/DX2                !
 ! D29   D(5,6,7,45)          -179.5998         estimate D2E/DX2                !
 ! D30   D(44,6,7,8)           179.3427         estimate D2E/DX2                !
 ! D31   D(44,6,7,45)           -0.1198         estimate D2E/DX2                !
 ! D32   D(6,7,8,9)              0.3149         estimate D2E/DX2                !
 ! D33   D(6,7,8,46)          -179.2994         estimate D2E/DX2                !
 ! D34   D(45,7,8,9)           179.7776         estimate D2E/DX2                !
 ! D35   D(45,7,8,46)            0.1633         estimate D2E/DX2                !
 ! D36   D(7,8,9,10)             0.2307         estimate D2E/DX2                !
 ! D37   D(7,8,9,47)          -179.1434         estimate D2E/DX2                !
 ! D38   D(46,8,9,10)          179.8448         estimate D2E/DX2                !
 ! D39   D(46,8,9,47)            0.4707         estimate D2E/DX2                !
 ! D40   D(8,9,10,5)            -0.9316         estimate D2E/DX2                !
 ! D41   D(8,9,10,11)         -179.871          estimate D2E/DX2                !
 ! D42   D(47,9,10,5)          178.4209         estimate D2E/DX2                !
 ! D43   D(47,9,10,11)          -0.5185         estimate D2E/DX2                !
 ! D44   D(5,10,11,2)           -2.4996         estimate D2E/DX2                !
 ! D45   D(5,10,11,12)         179.3986         estimate D2E/DX2                !
 ! D46   D(9,10,11,2)          176.4337         estimate D2E/DX2                !
 ! D47   D(9,10,11,12)          -1.668          estimate D2E/DX2                !
 ! D48   D(2,11,12,13)         -70.7093         estimate D2E/DX2                !
 ! D49   D(2,11,12,41)         110.14           estimate D2E/DX2                !
 ! D50   D(10,11,12,13)        107.4051         estimate D2E/DX2                !
 ! D51   D(10,11,12,41)        -71.7456         estimate D2E/DX2                !
 ! D52   D(11,12,13,14)          6.305          estimate D2E/DX2                !
 ! D53   D(11,12,13,15)       -174.4875         estimate D2E/DX2                !
 ! D54   D(41,12,13,14)       -174.5258         estimate D2E/DX2                !
 ! D55   D(41,12,13,15)          4.6817         estimate D2E/DX2                !
 ! D56   D(11,12,41,36)        176.6621         estimate D2E/DX2                !
 ! D57   D(11,12,41,40)         -3.8383         estimate D2E/DX2                !
 ! D58   D(13,12,41,36)         -2.4782         estimate D2E/DX2                !
 ! D59   D(13,12,41,40)        177.0214         estimate D2E/DX2                !
 ! D60   D(12,13,14,64)         78.2516         estimate D2E/DX2                !
 ! D61   D(15,13,14,64)       -100.9607         estimate D2E/DX2                !
 ! D62   D(12,13,15,16)        173.3096         estimate D2E/DX2                !
 ! D63   D(12,13,15,35)         -4.0338         estimate D2E/DX2                !
 ! D64   D(14,13,15,16)         -7.4886         estimate D2E/DX2                !
 ! D65   D(14,13,15,35)        175.1681         estimate D2E/DX2                !
 ! D66   D(13,14,64,1)         -59.2365         estimate D2E/DX2                !
 ! D67   D(13,15,16,17)        133.2417         estimate D2E/DX2                !
 ! D68   D(13,15,16,21)        -49.6287         estimate D2E/DX2                !
 ! D69   D(35,15,16,17)        -49.4169         estimate D2E/DX2                !
 ! D70   D(35,15,16,21)        127.7127         estimate D2E/DX2                !
 ! D71   D(13,15,35,36)          1.1894         estimate D2E/DX2                !
 ! D72   D(13,15,35,59)        179.8794         estimate D2E/DX2                !
 ! D73   D(16,15,35,36)       -176.1939         estimate D2E/DX2                !
 ! D74   D(16,15,35,59)          2.4961         estimate D2E/DX2                !
 ! D75   D(15,16,17,18)        178.0162         estimate D2E/DX2                !
 ! D76   D(15,16,17,48)         -2.3862         estimate D2E/DX2                !
 ! D77   D(21,16,17,18)          0.7792         estimate D2E/DX2                !
 ! D78   D(21,16,17,48)       -179.6231         estimate D2E/DX2                !
 ! D79   D(15,16,21,20)       -177.8971         estimate D2E/DX2                !
 ! D80   D(15,16,21,22)          1.1452         estimate D2E/DX2                !
 ! D81   D(17,16,21,20)         -0.6481         estimate D2E/DX2                !
 ! D82   D(17,16,21,22)        178.3942         estimate D2E/DX2                !
 ! D83   D(16,17,18,19)         -0.5348         estimate D2E/DX2                !
 ! D84   D(16,17,18,49)        179.7447         estimate D2E/DX2                !
 ! D85   D(48,17,18,19)        179.8632         estimate D2E/DX2                !
 ! D86   D(48,17,18,49)          0.1428         estimate D2E/DX2                !
 ! D87   D(17,18,19,20)          0.1224         estimate D2E/DX2                !
 ! D88   D(17,18,19,50)       -179.5765         estimate D2E/DX2                !
 ! D89   D(49,18,19,20)        179.843          estimate D2E/DX2                !
 ! D90   D(49,18,19,50)          0.1441         estimate D2E/DX2                !
 ! D91   D(18,19,20,21)          0.0157         estimate D2E/DX2                !
 ! D92   D(18,19,20,34)       -178.7262         estimate D2E/DX2                !
 ! D93   D(50,19,20,21)        179.7135         estimate D2E/DX2                !
 ! D94   D(50,19,20,34)          0.9716         estimate D2E/DX2                !
 ! D95   D(19,20,21,16)          0.2612         estimate D2E/DX2                !
 ! D96   D(19,20,21,22)       -178.9252         estimate D2E/DX2                !
 ! D97   D(34,20,21,16)        179.294          estimate D2E/DX2                !
 ! D98   D(34,20,21,22)          0.1076         estimate D2E/DX2                !
 ! D99   D(19,20,34,23)        179.1961         estimate D2E/DX2                !
 ! D100  D(19,20,34,33)          0.2346         estimate D2E/DX2                !
 ! D101  D(21,20,34,23)          0.3024         estimate D2E/DX2                !
 ! D102  D(21,20,34,33)       -178.6592         estimate D2E/DX2                !
 ! D103  D(16,21,22,23)       -179.6202         estimate D2E/DX2                !
 ! D104  D(20,21,22,23)         -0.4928         estimate D2E/DX2                !
 ! D105  D(21,22,23,24)        179.9931         estimate D2E/DX2                !
 ! D106  D(21,22,23,34)          0.6945         estimate D2E/DX2                !
 ! D107  D(22,23,24,25)          2.5594         estimate D2E/DX2                !
 ! D108  D(22,23,24,31)       -177.9973         estimate D2E/DX2                !
 ! D109  D(34,23,24,25)       -178.211          estimate D2E/DX2                !
 ! D110  D(34,23,24,31)          1.2323         estimate D2E/DX2                !
 ! D111  D(22,23,34,20)         -0.626          estimate D2E/DX2                !
 ! D112  D(22,23,34,33)        178.4647         estimate D2E/DX2                !
 ! D113  D(24,23,34,20)       -179.9722         estimate D2E/DX2                !
 ! D114  D(24,23,34,33)         -0.8815         estimate D2E/DX2                !
 ! D115  D(23,24,25,26)         44.2352         estimate D2E/DX2                !
 ! D116  D(23,24,25,30)       -136.1635         estimate D2E/DX2                !
 ! D117  D(31,24,25,26)       -135.184          estimate D2E/DX2                !
 ! D118  D(31,24,25,30)         44.4173         estimate D2E/DX2                !
 ! D119  D(23,24,31,32)         -0.8513         estimate D2E/DX2                !
 ! D120  D(23,24,31,56)       -179.6166         estimate D2E/DX2                !
 ! D121  D(25,24,31,32)        178.592          estimate D2E/DX2                !
 ! D122  D(25,24,31,56)         -0.1733         estimate D2E/DX2                !
 ! D123  D(24,25,26,27)        179.785          estimate D2E/DX2                !
 ! D124  D(24,25,26,51)          1.2144         estimate D2E/DX2                !
 ! D125  D(30,25,26,27)          0.1779         estimate D2E/DX2                !
 ! D126  D(30,25,26,51)       -178.3927         estimate D2E/DX2                !
 ! D127  D(24,25,30,29)        179.7819         estimate D2E/DX2                !
 ! D128  D(24,25,30,55)          0.8613         estimate D2E/DX2                !
 ! D129  D(26,25,30,29)         -0.611          estimate D2E/DX2                !
 ! D130  D(26,25,30,55)       -179.5317         estimate D2E/DX2                !
 ! D131  D(25,26,27,28)          0.3765         estimate D2E/DX2                !
 ! D132  D(25,26,27,52)       -179.3112         estimate D2E/DX2                !
 ! D133  D(51,26,27,28)        178.9719         estimate D2E/DX2                !
 ! D134  D(51,26,27,52)         -0.7158         estimate D2E/DX2                !
 ! D135  D(26,27,28,29)         -0.5006         estimate D2E/DX2                !
 ! D136  D(26,27,28,53)        179.7113         estimate D2E/DX2                !
 ! D137  D(52,27,28,29)        179.1869         estimate D2E/DX2                !
 ! D138  D(52,27,28,53)         -0.6012         estimate D2E/DX2                !
 ! D139  D(27,28,29,30)          0.0673         estimate D2E/DX2                !
 ! D140  D(27,28,29,54)       -179.9511         estimate D2E/DX2                !
 ! D141  D(53,28,29,30)        179.8553         estimate D2E/DX2                !
 ! D142  D(53,28,29,54)         -0.1631         estimate D2E/DX2                !
 ! D143  D(28,29,30,25)          0.4925         estimate D2E/DX2                !
 ! D144  D(28,29,30,55)        179.4287         estimate D2E/DX2                !
 ! D145  D(54,29,30,25)       -179.4891         estimate D2E/DX2                !
 ! D146  D(54,29,30,55)         -0.5529         estimate D2E/DX2                !
 ! D147  D(24,31,32,33)          0.1142         estimate D2E/DX2                !
 ! D148  D(24,31,32,57)       -179.6063         estimate D2E/DX2                !
 ! D149  D(56,31,32,33)        178.8958         estimate D2E/DX2                !
 ! D150  D(56,31,32,57)         -0.8247         estimate D2E/DX2                !
 ! D151  D(31,32,33,34)          0.2803         estimate D2E/DX2                !
 ! D152  D(31,32,33,58)        179.9845         estimate D2E/DX2                !
 ! D153  D(57,32,33,34)       -179.999          estimate D2E/DX2                !
 ! D154  D(57,32,33,58)         -0.2948         estimate D2E/DX2                !
 ! D155  D(32,33,34,20)        178.9108         estimate D2E/DX2                !
 ! D156  D(32,33,34,23)          0.0917         estimate D2E/DX2                !
 ! D157  D(58,33,34,20)         -0.7924         estimate D2E/DX2                !
 ! D158  D(58,33,34,23)       -179.6115         estimate D2E/DX2                !
 ! D159  D(15,35,36,37)       -179.6992         estimate D2E/DX2                !
 ! D160  D(15,35,36,41)          0.9646         estimate D2E/DX2                !
 ! D161  D(59,35,36,37)          1.6129         estimate D2E/DX2                !
 ! D162  D(59,35,36,41)       -177.7233         estimate D2E/DX2                !
 ! D163  D(35,36,37,38)       -179.774          estimate D2E/DX2                !
 ! D164  D(35,36,37,60)          0.2925         estimate D2E/DX2                !
 ! D165  D(41,36,37,38)         -0.4373         estimate D2E/DX2                !
 ! D166  D(41,36,37,60)        179.6292         estimate D2E/DX2                !
 ! D167  D(35,36,41,12)         -0.3163         estimate D2E/DX2                !
 ! D168  D(35,36,41,40)       -179.8313         estimate D2E/DX2                !
 ! D169  D(37,36,41,12)       -179.6527         estimate D2E/DX2                !
 ! D170  D(37,36,41,40)          0.8322         estimate D2E/DX2                !
 ! D171  D(36,37,38,39)         -0.0781         estimate D2E/DX2                !
 ! D172  D(36,37,38,61)       -179.921          estimate D2E/DX2                !
 ! D173  D(60,37,38,39)        179.8565         estimate D2E/DX2                !
 ! D174  D(60,37,38,61)          0.0136         estimate D2E/DX2                !
 ! D175  D(37,38,39,40)          0.1864         estimate D2E/DX2                !
 ! D176  D(37,38,39,62)       -179.7021         estimate D2E/DX2                !
 ! D177  D(61,38,39,40)       -179.9706         estimate D2E/DX2                !
 ! D178  D(61,38,39,62)          0.1408         estimate D2E/DX2                !
 ! D179  D(38,39,40,41)          0.2251         estimate D2E/DX2                !
 ! D180  D(38,39,40,63)       -179.4348         estimate D2E/DX2                !
 ! D181  D(62,39,40,41)       -179.8864         estimate D2E/DX2                !
 ! D182  D(62,39,40,63)          0.4537         estimate D2E/DX2                !
 ! D183  D(39,40,41,12)        179.7687         estimate D2E/DX2                !
 ! D184  D(39,40,41,36)         -0.7293         estimate D2E/DX2                !
 ! D185  D(63,40,41,12)         -0.5827         estimate D2E/DX2                !
 ! D186  D(63,40,41,36)        178.9193         estimate D2E/DX2                !
 --------------------------------------------------------------------------------
 Trust Radius=3.00D-01 FncErr=1.00D-07 GrdErr=1.00D-06 EigMax=2.50D+02 EigMin=1.00D-04
 Number of steps in this run=    384 maximum allowed number of steps=    384.
 GradGradGradGradGradGradGradGradGradGradGradGradGradGradGradGradGradGrad

 Leave Link  103 at Fri Mar 28 04:32:42 2025, MaxMem= 13421772800 cpu:               0.9 elap:               0.0
 (Enter /public/software/apps/Gaussian/g16/l202.exe)
 Symmetry turned off by external request.
 Stoichiometry    C38H22CuO3(2)
 Framework group  C1[X(C38H22CuO3)]
 Deg. of freedom   186
 Full point group                 C1      NOp   1
                          Input orientation:                          
 ---------------------------------------------------------------------
 Center     Atomic      Atomic             Coordinates (Angstroms)
 Number     Number       Type             X           Y           Z
 ---------------------------------------------------------------------
      1          8           0        4.381741    1.011351    0.064791
      2          6           0        3.591759    1.711655    0.970702
      3          6           0        3.913328    3.035036    1.275942
      4          6           0        3.121901    3.768099    2.158719
      5          6           0        1.984562    3.188513    2.736609
      6          6           0        1.172526    3.941931    3.599110
      7          6           0        0.023245    3.378113    4.154903
      8          6           0       -0.327570    2.062126    3.854288
      9          6           0        0.471141    1.297432    3.001047
     10          6           0        1.644268    1.842875    2.436296
     11          6           0        2.476185    1.093726    1.563657
     12          6           0        2.176994   -0.322421    1.223884
     13          6           0        1.698380   -0.615365   -0.064895
     14          8           0        1.644893    0.397953   -1.019447
     15          6           0        1.291603   -1.920307   -0.399141
     16          6           0        0.649988   -2.209243   -1.703278
     17          6           0        1.054198   -3.304954   -2.500146
     18          6           0        0.402330   -3.589279   -3.721839
     19          6           0       -0.669759   -2.794106   -4.164555
     20          6           0       -1.055408   -1.726218   -3.359369
     21          6           0       -0.423323   -1.440404   -2.168145
     22          8           0       -0.980386   -0.401362   -1.578183
     23          6           0       -1.957832    0.008008   -2.361408
     24          6           0       -2.829169    1.082677   -2.146460
     25          6           0       -2.696736    1.960217   -0.959087
     26          6           0       -1.431799    2.423552   -0.551402
     27          6           0       -1.309176    3.254405    0.565552
     28          6           0       -2.443418    3.624949    1.291061
     29          6           0       -3.704512    3.173180    0.894076
     30          6           0       -3.833842    2.348734   -0.228482
     31          6           0       -3.834055    1.302298   -3.117747
     32          6           0       -3.930051    0.475344   -4.260072
     33          6           0       -3.029084   -0.586152   -4.454524
     34          6           0       -2.053962   -0.789303   -3.482756
     35          6           0        1.445766   -2.950972    0.537736
     36          6           0        1.975996   -2.690166    1.807629
     37          6           0        2.129730   -3.735557    2.732565
     38          6           0        2.652985   -3.481890    4.001214
     39          6           0        3.028397   -2.186881    4.357868
     40          6           0        2.879823   -1.135638    3.450342
     41          6           0        2.344769   -1.368239    2.165155
     42          1           0        4.779014    3.499571    0.821063
     43          1           0        3.390565    4.794763    2.377877
     44          1           0        1.422285    4.969270    3.836400
     45          1           0       -0.602302    3.966021    4.814019
     46          1           0       -1.226167    1.634000    4.279379
     47          1           0        0.157112    0.285663    2.781717
     48          1           0        1.875469   -3.935146   -2.182428
     49          1           0        0.728297   -4.429817   -4.320495
     50          1           0       -1.177740   -3.010091   -5.095423
     51          1           0       -0.541986    2.162163   -1.109395
     52          1           0       -0.334286    3.614963    0.865271
     53          1           0       -2.345294    4.264747    2.158538
     54          1           0       -4.582944    3.461676    1.456698
     55          1           0       -4.818242    2.000678   -0.515733
     56          1           0       -4.531419    2.122889   -3.005365
     57          1           0       -4.701905    0.663612   -4.994906
     58          1           0       -3.096964   -1.223343   -5.326652
     59          1           0        1.131079   -3.957036    0.282824
     60          1           0        1.846176   -4.748945    2.473850
     61          1           0        2.770178   -4.292201    4.709175
     62          1           0        3.438200   -1.996478    5.341452
     63          1           0        3.191063   -0.146812    3.760611
     64         29           0        3.501155    0.570910   -1.633073
 ---------------------------------------------------------------------
 Rotational constants (GHZ):           0.1000521           0.0758416           0.0578997
 Leave Link  202 at Fri Mar 28 04:32:42 2025, MaxMem= 13421772800 cpu:               1.5 elap:               0.1
 (Enter /public/software/apps/Gaussian/g16/l301.exe)
 Standard basis: def2SVPP (5D, 7F)
 Ernie: Thresh=  0.10000D-02 Tol=  0.10000D-05 Strict=F.
   642 basis functions,  1184 primitive gaussians,   685 cartesian basis functions
   152 alpha electrons      151 beta electrons
       nuclear repulsion energy      5304.4866017994 Hartrees.
 IExCor=  402 DFT=T Ex+Corr=B3LYP ExCW=0 ScaHFX=  0.200000
 ScaDFX=  0.800000  0.720000  1.000000  0.810000 ScalE2=  1.000000  1.000000
 IRadAn=      5 IRanWt=     -1 IRanGd=            0 ICorTp=0 IEmpDi=141
 NAtoms=   64 NActive=   64 NUniq=   64 SFac= 1.00D+00 NAtFMM=   60 NAOKFM=T Big=T
 Integral buffers will be    131072 words long.
 Raffenetti 2 integral format.
 Two-electron integral symmetry is turned off.
 R6Disp:  Grimme-D3(BJ) Dispersion energy=       -0.1877997434 Hartrees.
 Nuclear repulsion after empirical dispersion term =     5304.2988020560 Hartrees.
 Leave Link  301 at Fri Mar 28 04:32:42 2025, MaxMem= 13421772800 cpu:               1.5 elap:               0.1
 (Enter /public/software/apps/Gaussian/g16/l302.exe)
 NPDir=0 NMtPBC=     1 NCelOv=     1 NCel=       1 NClECP=     1 NCelD=      1
         NCelK=      1 NCelE2=     1 NClLst=     1 CellRange=     0.0.
 One-electron integrals computed using PRISM.
   1 Symmetry operations used in ECPInt.
 ECPInt:  NShTT=   45150 NPrTT=  185775 LenC2=   38848 LenP2D=   99137.
 LDataN:  DoStor=T MaxTD1= 4 Len=   56
 NBasis=   642 RedAO= T EigKep=  1.71D-04  NBF=   642
 NBsUse=   642 1.00D-06 EigRej= -1.00D+00 NBFU=   642
 Precomputing XC quadrature grid using
 IXCGrd= 4 IRadAn=           5 IRanWt=          -1 IRanGd=           0 AccXCQ= 0.00D+00.
 Generated NRdTot=       0 NPtTot=           0 NUsed=           0 NTot=          32
 NSgBfM=   672   672   672   672   672 MxSgAt=    64 MxSgA2=    64.
 Leave Link  302 at Fri Mar 28 04:32:43 2025, MaxMem= 13421772800 cpu:              22.5 elap:               0.7
 (Enter /public/software/apps/Gaussian/g16/l303.exe)
 DipDrv:  MaxL=1.
 Leave Link  303 at Fri Mar 28 04:32:43 2025, MaxMem= 13421772800 cpu:               2.5 elap:               0.1
 (Enter /public/software/apps/Gaussian/g16/l401.exe)
 ExpMin= 3.30D-02 ExpMax= 7.64D+04 ExpMxC= 1.15D+04 IAcc=3 IRadAn=         5 AccDes= 0.00D+00
 Harris functional with IExCor=  402 and IRadAn=       5 diagonalized for initial guess.
 HarFok:  IExCor=  402 AccDes= 0.00D+00 IRadAn=         5 IDoV= 1 UseB2=F ITyADJ=14
 ICtDFT=  3500011 ScaDFX=  1.000000  1.000000  1.000000  1.000000
 FoFCou: FMM=F IPFlag=           0 FMFlag=      100000 FMFlg1=        2001
         NFxFlg=           0 DoJE=T BraDBF=F KetDBF=T FulRan=T
         wScrn=  0.000000 ICntrl=       500 IOpCl=  0 I1Cent=   200000004 NGrid=           0
         NMat0=    1 NMatS0=      1 NMatT0=    0 NMatD0=    1 NMtDS0=    0 NMtDT0=    0
 Symmetry not used in FoFCou.
 Harris En= -3326.46935977593    
 JPrj=0 DoOrth=F DoCkMO=F.
 Initial guess <Sx>= 0.0000 <Sy>= 0.0000 <Sz>= 0.5000 <S**2>= 0.7500 S= 0.5000
 Leave Link  401 at Fri Mar 28 04:32:45 2025, MaxMem= 13421772800 cpu:              60.4 elap:               1.9
 (Enter /public/software/apps/Gaussian/g16/l502.exe)
 Two-electron integral symmetry not used.
 UHF open shell SCF:
 Using DIIS extrapolation, IDIIS=  1040.
 NGot= 13421772800 LenX= 13420805511 LenY= 13420335601
 Requested convergence on RMS density matrix=1.00D-08 within 128 cycles.
 Requested convergence on MAX density matrix=1.00D-06.
 Requested convergence on             energy=1.00D-06.
 No special actions if energy rises.
 Fock matrices will be formed incrementally for  20 cycles.

 Cycle   1  Pass 1  IDiag  1:
 FoFJK:  IHMeth= 1 ICntrl=       0 DoSepK=F KAlg= 0 I1Cent=           0 FoldK=F
 IRaf= 990000000 NMat=       1 IRICut=       1 DoRegI=T DoRafI=F ISym2E= 0 IDoP0=0 IntGTp=1.
 FoFCou: FMM=T IPFlag=           0 FMFlag=      100000 FMFlg1=        2001
         NFxFlg=           0 DoJE=F BraDBF=F KetDBF=F FulRan=T
         wScrn=  0.000000 ICntrl=         0 IOpCl=  1 I1Cent=           0 NGrid=           0
         NMat0=    1 NMatS0=      1 NMatT0=    0 NMatD0=    1 NMtDS0=    0 NMtDT0=    0
 Symmetry not used in FoFCou.
 FMM levels:  10  Number of levels for PrismC:   9
 E= -3300.81244531991    
 DIIS: error= 3.35D-01 at cycle   1 NSaved=   1.
 NSaved= 1 IEnMin= 1 EnMin= -3300.81244531991     IErMin= 1 ErrMin= 3.35D-01
 ErrMax= 3.35D-01  0.00D+00 EMaxC= 1.00D-01 BMatC= 8.11D+01 BMatP= 8.11D+01
 IDIUse=3 WtCom= 0.00D+00 WtEn= 1.00D+00
 Coeff-Com:  0.100D+01
 Coeff-En:   0.100D+01
 Coeff:      0.100D+01
 Gap=    -0.963 Goal=   None    Shift=    0.000
 Gap=    -0.598 Goal=   None    Shift=    0.000
 GapD=   -0.963 DampG=0.250 DampE=0.125 DampFc=0.1250 IDamp=-1.
 Damping current iteration by 1.25D-01
 RMSDP=1.10D-01 MaxDP=1.59D+01              OVMax= 9.95D-01

 Cycle   2  Pass 1  IDiag  1:
 RMSU=  1.37D-02    CP:  1.08D+00
 E= -3309.75727871047     Delta-E=       -8.944833390568 Rises=F Damp=T
 DIIS: error= 2.28D-01 at cycle   2 NSaved=   2.
 NSaved= 2 IEnMin= 2 EnMin= -3309.75727871047     IErMin= 2 ErrMin= 2.28D-01
 ErrMax= 2.28D-01  0.00D+00 EMaxC= 1.00D-01 BMatC= 3.32D+01 BMatP= 8.11D+01
 IDIUse=3 WtCom= 0.00D+00 WtEn= 1.00D+00
 Coeff-Com: -0.132D+01 0.232D+01
 Coeff-En:   0.000D+00 0.100D+01
 Coeff:      0.000D+00 0.100D+01
 Gap=    -0.104 Goal=   None    Shift=    0.000
 Gap=    -0.024 Goal=   None    Shift=    0.000
 RMSDP=2.59D-02 MaxDP=6.24D+00 DE=-8.94D+00 OVMax= 9.50D-01

 Cycle   3  Pass 1  IDiag  1:
 RMSU=  2.56D-02    CP:  9.40D-01  1.21D+00
 E= -3258.44576358448     Delta-E=       51.311515125994 Rises=F Damp=F
 DIIS: error= 1.06D-01 at cycle   3 NSaved=   3.
 NSaved= 3 IEnMin= 2 EnMin= -3309.75727871047     IErMin= 3 ErrMin= 1.06D-01
 ErrMax= 1.06D-01  0.00D+00 EMaxC= 1.00D-01 BMatC= 8.31D+01 BMatP= 3.32D+01
 IDIUse=2 WtCom= 0.00D+00 WtEn= 1.00D+00
 EnCoef did   100 forward-backward iterations
 Coeff-En:   0.638D+00 0.246D-01 0.337D+00
 Coeff:      0.638D+00 0.246D-01 0.337D+00
 Gap=     0.027 Goal=   None    Shift=    0.000
 Gap=    -0.167 Goal=   None    Shift=    0.000
 RMSDP=2.89D-02 MaxDP=6.15D+00 DE= 5.13D+01 OVMax= 9.31D-01

 Cycle   4  Pass 1  IDiag  1:
 RMSU=  8.67D-03    CP:  8.97D-01  1.27D-01  9.62D-02
 E= -3312.18006937226     Delta-E=      -53.734305787779 Rises=F Damp=F
 DIIS: error= 1.51D-01 at cycle   4 NSaved=   4.
 NSaved= 4 IEnMin= 4 EnMin= -3312.18006937226     IErMin= 3 ErrMin= 1.06D-01
 ErrMax= 1.51D-01  0.00D+00 EMaxC= 1.00D-01 BMatC= 3.73D+01 BMatP= 3.32D+01
 IDIUse=2 WtCom= 0.00D+00 WtEn= 1.00D+00
 EnCoef did   100 forward-backward iterations
 Coeff-En:   0.401D+00 0.209D-01 0.148D+00 0.430D+00
 Coeff:      0.401D+00 0.209D-01 0.148D+00 0.430D+00
 Gap=     0.270 Goal=   None    Shift=    0.000
 Gap=    -0.092 Goal=   None    Shift=    0.000
 RMSDP=3.64D-02 MaxDP=8.09D+00 DE=-5.37D+01 OVMax= 9.92D-01

 Cycle   5  Pass 1  IDiag  1:
 RMSU=  3.55D-02    CP:  8.99D-01  1.00D-01  1.26D-01  7.14D-02
 E= -3245.96584736277     Delta-E=       66.214222009490 Rises=F Damp=F
 DIIS: error= 1.32D-01 at cycle   5 NSaved=   5.
 NSaved= 5 IEnMin= 4 EnMin= -3312.18006937226     IErMin= 3 ErrMin= 1.06D-01
 ErrMax= 1.32D-01  0.00D+00 EMaxC= 1.00D-01 BMatC= 1.21D+02 BMatP= 3.32D+01
 IDIUse=2 WtCom= 0.00D+00 WtEn= 1.00D+00
 EnCoef did   100 forward-backward iterations
 Coeff-En:   0.246D+00 0.191D-01 0.000D+00 0.575D+00 0.160D+00
 Coeff:      0.246D+00 0.191D-01 0.000D+00 0.575D+00 0.160D+00
 Gap=    -0.003 Goal=   None    Shift=    0.000
 Gap=    -0.058 Goal=   None    Shift=    0.000
 RMSDP=3.54D-02 MaxDP=7.89D+00 DE= 6.62D+01 OVMax= 9.69D-01

 Cycle   6  Pass 1  IDiag  1:
 RMSU=  7.44D-03    CP:  8.93D-01  1.26D-01  1.18D-01  9.71D-02  2.53D-02
 E= -3314.74853159022     Delta-E=      -68.782684227446 Rises=F Damp=F
 DIIS: error= 9.13D-02 at cycle   6 NSaved=   6.
 NSaved= 6 IEnMin= 6 EnMin= -3314.74853159022     IErMin= 6 ErrMin= 9.13D-02
 ErrMax= 9.13D-02  0.00D+00 EMaxC= 1.00D-01 BMatC= 2.86D+01 BMatP= 3.32D+01
 IDIUse=3 WtCom= 8.74D-02 WtEn= 9.13D-01
 EnCoef did   100 forward-backward iterations
 Coeff-Com: -0.530D+00 0.104D+01 0.197D-01 0.209D+00 0.736D-01 0.189D+00
 Coeff-En:   0.252D+00 0.112D-01 0.000D+00 0.332D+00 0.432D-01 0.362D+00
 Coeff:      0.184D+00 0.101D+00 0.172D-02 0.321D+00 0.458D-01 0.347D+00
 Gap=     0.311 Goal=   None    Shift=    0.000
 Gap=    -0.498 Goal=   None    Shift=    0.000
 RMSDP=9.86D-03 MaxDP=1.45D+00 DE=-6.88D+01 OVMax= 8.60D-01

 Cycle   7  Pass 1  IDiag  1:
 RMSU=  6.60D-03    CP:  8.97D-01  6.07D-02  3.07D-02  3.44D-01  2.26D-02
                    CP:  1.15D-01
 E= -3315.29920548180     Delta-E=       -0.550673891581 Rises=F Damp=F
 DIIS: error= 8.38D-02 at cycle   7 NSaved=   7.
 NSaved= 7 IEnMin= 7 EnMin= -3315.29920548180     IErMin= 7 ErrMin= 8.38D-02
 ErrMax= 8.38D-02  0.00D+00 EMaxC= 1.00D-01 BMatC= 2.23D+01 BMatP= 2.86D+01
 IDIUse=3 WtCom= 1.62D-01 WtEn= 8.38D-01
 EnCoef did   100 forward-backward iterations
 Coeff-Com: -0.455D+00 0.878D+00 0.599D-02 0.123D+00 0.674D-02 0.193D+00
 Coeff-Com:  0.248D+00
 Coeff-En:   0.200D+00 0.238D-02 0.000D+00 0.241D+00 0.000D+00 0.300D+00
 Coeff-En:   0.257D+00
 Coeff:      0.937D-01 0.144D+00 0.970D-03 0.222D+00 0.109D-02 0.282D+00
 Coeff:      0.256D+00
 Gap=    -0.185 Goal=   None    Shift=    0.000
 Gap=     0.294 Goal=   None    Shift=    0.000
 RMSDP=6.86D-03 MaxDP=8.49D-01 DE=-5.51D-01 OVMax= 9.07D-01

 Cycle   8  Pass 1  IDiag  1:
 RMSU=  3.86D-03    CP:  8.74D-01 -1.91D-02  3.69D-02  3.11D-01  7.43D-03
                    CP:  2.24D-01  1.73D-01
 E= -3324.04331267126     Delta-E=       -8.744107189465 Rises=F Damp=F
 DIIS: error= 5.22D-02 at cycle   8 NSaved=   8.
 NSaved= 8 IEnMin= 8 EnMin= -3324.04331267126     IErMin= 8 ErrMin= 5.22D-02
 ErrMax= 5.22D-02  0.00D+00 EMaxC= 1.00D-01 BMatC= 5.01D+00 BMatP= 2.23D+01
 IDIUse=3 WtCom= 4.78D-01 WtEn= 5.22D-01
 EnCoef did     5 forward-backward iterations
 Coeff-Com: -0.442D+00 0.778D+00 0.208D-02-0.465D-01 0.581D-02 0.315D-01
 Coeff-Com:  0.146D+00 0.525D+00
 Coeff-En:   0.522D-01 0.000D+00 0.000D+00 0.000D+00 0.000D+00 0.352D-01
 Coeff-En:   0.190D+00 0.723D+00
 Coeff:     -0.184D+00 0.372D+00 0.995D-03-0.222D-01 0.278D-02 0.334D-01
 Coeff:      0.169D+00 0.628D+00
 Gap=     0.661 Goal=   None    Shift=    0.000
 Gap=     0.011 Goal=   None    Shift=    0.000
 RMSDP=4.41D-03 MaxDP=6.90D-01 DE=-8.74D+00 OVMax= 9.01D-01

 Cycle   9  Pass 1  IDiag  1:
 RMSU=  3.64D-03    CP:  8.77D-01  1.16D-02  4.07D-02  3.10D-01  1.17D-02
                    CP:  2.90D-01  2.16D-01  3.84D-01
 E= -3323.33705301366     Delta-E=        0.706259657603 Rises=F Damp=F
 DIIS: error= 5.82D-02 at cycle   9 NSaved=   9.
 NSaved= 9 IEnMin= 8 EnMin= -3324.04331267126     IErMin= 8 ErrMin= 5.22D-02
 ErrMax= 5.82D-02  0.00D+00 EMaxC= 1.00D-01 BMatC= 7.99D+00 BMatP= 5.01D+00
 IDIUse=2 WtCom= 0.00D+00 WtEn= 1.00D+00
 EnCoef did     4 forward-backward iterations
 Coeff-En:   0.502D-01 0.000D+00 0.000D+00 0.000D+00 0.000D+00 0.000D+00
 Coeff-En:   0.595D-02 0.507D+00 0.437D+00
 Coeff:      0.502D-01 0.000D+00 0.000D+00 0.000D+00 0.000D+00 0.000D+00
 Coeff:      0.595D-02 0.507D+00 0.437D+00
 Gap=     0.019 Goal=   None    Shift=    0.000
 Gap=     0.106 Goal=   None    Shift=    0.000
 RMSDP=4.54D-03 MaxDP=7.22D-01 DE= 7.06D-01 OVMax= 8.45D-01

 Cycle  10  Pass 1  IDiag  1:
 RMSU=  3.15D-03    CP:  8.87D-01  8.78D-03  2.44D-02  1.70D-01  1.15D-02
                    CP:  1.97D-01  3.84D-01  3.76D-01  2.58D-01
 E= -3323.21503138386     Delta-E=        0.122021629799 Rises=F Damp=F
 DIIS: error= 9.83D-02 at cycle  10 NSaved=  10.
 NSaved=10 IEnMin= 8 EnMin= -3324.04331267126     IErMin= 8 ErrMin= 5.22D-02
 ErrMax= 9.83D-02  0.00D+00 EMaxC= 1.00D-01 BMatC= 9.56D+00 BMatP= 5.01D+00
 IDIUse=2 WtCom= 0.00D+00 WtEn= 1.00D+00
 EnCoef did     3 forward-backward iterations
 Coeff-En:   0.000D+00 0.000D+00 0.000D+00 0.000D+00 0.000D+00 0.000D+00
 Coeff-En:   0.000D+00 0.438D+00 0.327D+00 0.235D+00
 Coeff:      0.000D+00 0.000D+00 0.000D+00 0.000D+00 0.000D+00 0.000D+00
 Coeff:      0.000D+00 0.438D+00 0.327D+00 0.235D+00
 Gap=    -0.029 Goal=   None    Shift=    0.000
 Gap=     0.149 Goal=   None    Shift=    0.000
 RMSDP=2.94D-03 MaxDP=1.35D-01 DE= 1.22D-01 OVMax= 5.39D-01

 Cycle  11  Pass 1  IDiag  1:
 RMSU=  1.72D-03    CP:  8.78D-01 -5.47D-03  2.76D-02  2.49D-01  6.83D-03
                    CP:  2.25D-01  2.23D-01  5.58D-01  4.22D-01  4.41D-01
 E= -3325.82364144024     Delta-E=       -2.608610056381 Rises=F Damp=F
 DIIS: error= 6.77D-02 at cycle  11 NSaved=  11.
 NSaved=11 IEnMin=11 EnMin= -3325.82364144024     IErMin= 8 ErrMin= 5.22D-02
 ErrMax= 6.77D-02  0.00D+00 EMaxC= 1.00D-01 BMatC= 2.31D+00 BMatP= 5.01D+00
 IDIUse=3 WtCom= 4.78D-01 WtEn= 5.22D-01
 EnCoef did     2 forward-backward iterations
 Coeff-Com: -0.654D-01 0.851D-01 0.277D-02 0.856D-02 0.530D-02 0.190D-01
 Coeff-Com:  0.634D-01 0.295D+00 0.108D+00 0.200D-01 0.458D+00
 Coeff-En:   0.000D+00 0.000D+00 0.000D+00 0.000D+00 0.000D+00 0.000D+00
 Coeff-En:   0.000D+00 0.181D+00 0.100D+00 0.000D+00 0.719D+00
 Coeff:     -0.313D-01 0.407D-01 0.133D-02 0.409D-02 0.253D-02 0.910D-02
 Coeff:      0.303D-01 0.235D+00 0.104D+00 0.955D-02 0.594D+00
 Gap=     0.324 Goal=   None    Shift=    0.000
 Gap=     0.096 Goal=   None    Shift=    0.000
 RMSDP=2.04D-03 MaxDP=3.67D-01 DE=-2.61D+00 OVMax= 3.34D-01

 Cycle  12  Pass 1  IDiag  1:
 RMSU=  1.62D-03    CP:  8.70D-01 -1.13D-02  4.30D-02  2.75D-01  1.05D-02
                    CP:  2.72D-01  2.79D-01  5.45D-01  3.66D-01  2.95D-01
                    CP:  4.81D-01
 E= -3325.83803390114     Delta-E=       -0.014392460904 Rises=F Damp=F
 DIIS: error= 5.43D-02 at cycle  12 NSaved=  12.
 NSaved=12 IEnMin=12 EnMin= -3325.83803390114     IErMin= 8 ErrMin= 5.22D-02
 ErrMax= 5.43D-02  0.00D+00 EMaxC= 1.00D-01 BMatC= 1.68D+00 BMatP= 2.31D+00
 IDIUse=3 WtCom= 4.78D-01 WtEn= 5.22D-01
 EnCoef did     1 forward-backward iterations
 Coeff-Com: -0.285D-02-0.857D-02 0.961D-03-0.603D-02-0.237D-02-0.874D-02
 Coeff-Com:  0.146D-01 0.100D+00-0.744D-02-0.526D-01 0.524D+00 0.449D+00
 Coeff-En:   0.000D+00 0.000D+00 0.000D+00 0.000D+00 0.000D+00 0.000D+00
 Coeff-En:   0.000D+00 0.906D-03 0.000D+00 0.000D+00 0.493D+00 0.506D+00
 Coeff:     -0.136D-02-0.410D-02 0.459D-03-0.288D-02-0.113D-02-0.418D-02
 Coeff:      0.698D-02 0.484D-01-0.356D-02-0.251D-01 0.508D+00 0.479D+00
 Gap=     0.145 Goal=   None    Shift=    0.000
 Gap=    -0.018 Goal=   None    Shift=    0.000
 RMSDP=1.74D-03 MaxDP=1.27D-01 DE=-1.44D-02 OVMax= 6.07D-01

 Cycle  13  Pass 1  IDiag  1:
 RMSU=  1.07D-03    CP:  8.73D-01 -8.55D-03  3.52D-02  2.89D-01  8.04D-03
                    CP:  2.43D-01  2.51D-01  6.32D-01  2.95D-01  2.43D-01
                    CP:  8.56D-01  3.52D-01
 E= -3326.10743555143     Delta-E=       -0.269401650285 Rises=F Damp=F
 DIIS: error= 1.01D-02 at cycle  13 NSaved=  13.
 NSaved=13 IEnMin=13 EnMin= -3326.10743555143     IErMin=13 ErrMin= 1.01D-02
 ErrMax= 1.01D-02  0.00D+00 EMaxC= 1.00D-01 BMatC= 4.32D-01 BMatP= 1.68D+00
 IDIUse=3 WtCom= 8.99D-01 WtEn= 1.01D-01
 EnCoef did     3 forward-backward iterations
 Coeff-Com: -0.838D-02 0.651D-02-0.231D-02-0.803D-02-0.992D-03-0.246D-02
 Coeff-Com: -0.527D-02-0.526D-02 0.447D-02-0.287D-02 0.306D+00 0.332D+00
 Coeff-Com:  0.387D+00
 Coeff-En:   0.000D+00 0.000D+00 0.000D+00 0.000D+00 0.000D+00 0.000D+00
 Coeff-En:   0.000D+00 0.000D+00 0.000D+00 0.000D+00 0.265D+00 0.234D+00
 Coeff-En:   0.501D+00
 Coeff:     -0.754D-02 0.585D-02-0.207D-02-0.722D-02-0.892D-03-0.221D-02
 Coeff:     -0.474D-02-0.473D-02 0.402D-02-0.258D-02 0.301D+00 0.322D+00
 Coeff:      0.398D+00
 Gap=     0.117 Goal=   None    Shift=    0.000
 Gap=     0.056 Goal=   None    Shift=    0.000
 RMSDP=8.31D-04 MaxDP=1.11D-01 DE=-2.69D-01 OVMax= 2.08D-01

 Cycle  14  Pass 1  IDiag  1:
 RMSU=  5.26D-04    CP:  8.72D-01 -1.42D-02  3.40D-02  2.71D-01  8.12D-03
                    CP:  2.40D-01  2.55D-01  6.07D-01  3.41D-01  3.32D-01
                    CP:  8.03D-01  3.24D-01  5.28D-01
 E= -3326.21645286854     Delta-E=       -0.109017317111 Rises=F Damp=F
 DIIS: error= 3.08D-03 at cycle  14 NSaved=  14.
 NSaved=14 IEnMin=14 EnMin= -3326.21645286854     IErMin=14 ErrMin= 3.08D-03
 ErrMax= 3.08D-03  0.00D+00 EMaxC= 1.00D-01 BMatC= 2.40D-02 BMatP= 4.32D-01
 IDIUse=3 WtCom= 9.69D-01 WtEn= 3.08D-02
 Coeff-Com: -0.171D-01 0.258D-01-0.708D-03-0.506D-02 0.510D-03 0.111D-02
 Coeff-Com: -0.135D-02-0.214D-01 0.827D-03 0.104D-02 0.422D-01 0.101D+00
 Coeff-Com:  0.184D+00 0.690D+00
 Coeff-En:   0.000D+00 0.000D+00 0.000D+00 0.000D+00 0.000D+00 0.000D+00
 Coeff-En:   0.000D+00 0.000D+00 0.000D+00 0.000D+00 0.000D+00 0.000D+00
 Coeff-En:   0.000D+00 0.100D+01
 Coeff:     -0.166D-01 0.250D-01-0.687D-03-0.491D-02 0.494D-03 0.108D-02
 Coeff:     -0.131D-02-0.207D-01 0.801D-03 0.101D-02 0.409D-01 0.979D-01
 Coeff:      0.178D+00 0.699D+00
 Gap=     0.109 Goal=   None    Shift=    0.000
 Gap=     0.032 Goal=   None    Shift=    0.000
 RMSDP=3.73D-04 MaxDP=4.64D-02 DE=-1.09D-01 OVMax= 8.94D-02

 Cycle  15  Pass 1  IDiag  1:
 RMSU=  3.23D-04    CP:  8.71D-01 -1.55D-02  3.48D-02  2.67D-01  8.46D-03
                    CP:  2.46D-01  2.49D-01  6.08D-01  3.37D-01  3.14D-01
                    CP:  7.76D-01  3.90D-01  6.19D-01  8.81D-01
 E= -3326.21284921754     Delta-E=        0.003603651003 Rises=F Damp=F
 DIIS: error= 7.63D-03 at cycle  15 NSaved=  15.
 NSaved=15 IEnMin=14 EnMin= -3326.21645286854     IErMin=14 ErrMin= 3.08D-03
 ErrMax= 7.63D-03  0.00D+00 EMaxC= 1.00D-01 BMatC= 5.54D-02 BMatP= 2.40D-02
 IDIUse=3 WtCom= 9.69D-01 WtEn= 3.08D-02
 Coeff-Com: -0.679D-02 0.968D-02 0.504D-03-0.307D-02 0.245D-03-0.198D-03
 Coeff-Com:  0.114D-02-0.167D-01 0.188D-02 0.499D-02 0.921D-02 0.128D-01
 Coeff-Com:  0.168D-01 0.540D+00 0.430D+00
 Coeff-En:   0.000D+00 0.000D+00 0.000D+00 0.000D+00 0.000D+00 0.000D+00
 Coeff-En:   0.000D+00 0.000D+00 0.000D+00 0.000D+00 0.000D+00 0.000D+00
 Coeff-En:   0.000D+00 0.587D+00 0.413D+00
 Coeff:     -0.658D-02 0.938D-02 0.488D-03-0.297D-02 0.238D-03-0.192D-03
 Coeff:      0.111D-02-0.161D-01 0.182D-02 0.483D-02 0.892D-02 0.124D-01
 Coeff:      0.162D-01 0.541D+00 0.429D+00
 Gap=     0.106 Goal=   None    Shift=    0.000
 Gap=     0.039 Goal=   None    Shift=    0.000
 RMSDP=2.10D-04 MaxDP=2.14D-02 DE= 3.60D-03 OVMax= 6.31D-02

 Cycle  16  Pass 1  IDiag  1:
 RMSU=  1.29D-04    CP:  8.72D-01 -1.41D-02  3.46D-02  2.65D-01  8.48D-03
                    CP:  2.47D-01  2.53D-01  6.00D-01  3.50D-01  3.29D-01
                    CP:  7.75D-01  3.81D-01  5.54D-01  1.02D+00  6.96D-01
 E= -3326.22319933101     Delta-E=       -0.010350113474 Rises=F Damp=F
 DIIS: error= 3.04D-03 at cycle  16 NSaved=  16.
 NSaved=16 IEnMin=16 EnMin= -3326.22319933101     IErMin=16 ErrMin= 3.04D-03
 ErrMax= 3.04D-03  0.00D+00 EMaxC= 1.00D-01 BMatC= 7.54D-03 BMatP= 2.40D-02
 IDIUse=3 WtCom= 9.70D-01 WtEn= 3.04D-02
 Coeff-Com: -0.339D-02 0.455D-02 0.361D-03-0.167D-02 0.247D-04-0.136D-03
 Coeff-Com:  0.235D-02-0.723D-02-0.217D-03 0.252D-02 0.172D-01-0.103D-01
 Coeff-Com: -0.402D-01 0.222D+00 0.218D+00 0.596D+00
 Coeff-En:   0.000D+00 0.000D+00 0.000D+00 0.000D+00 0.000D+00 0.000D+00
 Coeff-En:   0.000D+00 0.000D+00 0.000D+00 0.000D+00 0.000D+00 0.000D+00
 Coeff-En:   0.000D+00 0.000D+00 0.000D+00 0.100D+01
 Coeff:     -0.329D-02 0.441D-02 0.350D-03-0.162D-02 0.240D-04-0.132D-03
 Coeff:      0.228D-02-0.701D-02-0.211D-03 0.244D-02 0.166D-01-0.100D-01
 Coeff:     -0.390D-01 0.215D+00 0.211D+00 0.609D+00
 Gap=     0.109 Goal=   None    Shift=    0.000
 Gap=     0.041 Goal=   None    Shift=    0.000
 RMSDP=9.15D-05 MaxDP=1.21D-02 DE=-1.04D-02 OVMax= 1.22D-02

 Cycle  17  Pass 1  IDiag  1:
 RMSU=  7.84D-05    CP:  8.72D-01 -1.43D-02  3.44D-02  2.64D-01  8.41D-03
                    CP:  2.46D-01  2.55D-01  5.97D-01  3.49D-01  3.34D-01
                    CP:  7.78D-01  3.74D-01  5.38D-01  1.06D+00  7.83D-01
                    CP:  9.38D-01
 E= -3326.22441912667     Delta-E=       -0.001219795660 Rises=F Damp=F
 DIIS: error= 1.86D-03 at cycle  17 NSaved=  17.
 NSaved=17 IEnMin=17 EnMin= -3326.22441912667     IErMin=17 ErrMin= 1.86D-03
 ErrMax= 1.86D-03  0.00D+00 EMaxC= 1.00D-01 BMatC= 2.40D-03 BMatP= 7.54D-03
 IDIUse=3 WtCom= 9.81D-01 WtEn= 1.86D-02
 Coeff-Com: -0.268D-03 0.225D-03-0.837D-04-0.736D-03 0.990D-04-0.196D-03
 Coeff-Com:  0.854D-03-0.894D-03-0.588D-03 0.945D-03 0.187D-01-0.100D-01
 Coeff-Com: -0.311D-01-0.726D-02-0.185D-01 0.369D+00 0.679D+00
 Coeff-En:   0.000D+00 0.000D+00 0.000D+00 0.000D+00 0.000D+00 0.000D+00
 Coeff-En:   0.000D+00 0.000D+00 0.000D+00 0.000D+00 0.000D+00 0.000D+00
 Coeff-En:   0.000D+00 0.000D+00 0.000D+00 0.000D+00 0.100D+01
 Coeff:     -0.263D-03 0.220D-03-0.822D-04-0.723D-03 0.971D-04-0.193D-03
 Coeff:      0.838D-03-0.878D-03-0.577D-03 0.928D-03 0.184D-01-0.986D-02
 Coeff:     -0.306D-01-0.712D-02-0.181D-01 0.362D+00 0.685D+00
 Gap=     0.110 Goal=   None    Shift=    0.000
 Gap=     0.042 Goal=   None    Shift=    0.000
 RMSDP=7.21D-05 MaxDP=6.78D-03 DE=-1.22D-03 OVMax= 3.18D-02

 Cycle  18  Pass 1  IDiag  1:
 RMSU=  4.60D-05    CP:  8.72D-01 -1.41D-02  3.42D-02  2.63D-01  8.44D-03
                    CP:  2.46D-01  2.55D-01  5.94D-01  3.52D-01  3.37D-01
                    CP:  7.80D-01  3.73D-01  5.17D-01  1.08D+00  8.27D-01
                    CP:  1.26D+00  1.03D+00
 E= -3326.22488663255     Delta-E=       -0.000467505881 Rises=F Damp=F
 DIIS: error= 1.08D-03 at cycle  18 NSaved=  18.
 NSaved=18 IEnMin=18 EnMin= -3326.22488663255     IErMin=18 ErrMin= 1.08D-03
 ErrMax= 1.08D-03  0.00D+00 EMaxC= 1.00D-01 BMatC= 8.84D-04 BMatP= 2.40D-03
 IDIUse=3 WtCom= 9.89D-01 WtEn= 1.08D-02
 Coeff-Com:  0.152D-03-0.181D-03-0.150D-03-0.173D-03 0.808D-05-0.225D-03
 Coeff-Com:  0.165D-03 0.258D-03-0.113D-02 0.704D-03 0.119D-01-0.489D-02
 Coeff-Com: -0.529D-02-0.277D-01-0.614D-01 0.428D-01 0.465D+00 0.580D+00
 Coeff-En:   0.000D+00 0.000D+00 0.000D+00 0.000D+00 0.000D+00 0.000D+00
 Coeff-En:   0.000D+00 0.000D+00 0.000D+00 0.000D+00 0.000D+00 0.000D+00
 Coeff-En:   0.000D+00 0.000D+00 0.000D+00 0.000D+00 0.000D+00 0.100D+01
 Coeff:      0.150D-03-0.179D-03-0.148D-03-0.171D-03 0.799D-05-0.223D-03
 Coeff:      0.163D-03 0.255D-03-0.111D-02 0.696D-03 0.118D-01-0.484D-02
 Coeff:     -0.523D-02-0.274D-01-0.608D-01 0.423D-01 0.460D+00 0.585D+00
 Gap=     0.112 Goal=   None    Shift=    0.000
 Gap=     0.042 Goal=   None    Shift=    0.000
 RMSDP=3.83D-05 MaxDP=4.62D-03 DE=-4.68D-04 OVMax= 1.24D-02

 Cycle  19  Pass 1  IDiag  1:
 RMSU=  2.69D-05    CP:  8.72D-01 -1.40D-02  3.41D-02  2.63D-01  8.41D-03
                    CP:  2.45D-01  2.56D-01  5.93D-01  3.51D-01  3.39D-01
                    CP:  7.84D-01  3.70D-01  5.13D-01  1.09D+00  8.35D-01
                    CP:  1.33D+00  1.28D+00  1.05D+00
 E= -3326.22508275384     Delta-E=       -0.000196121287 Rises=F Damp=F
 DIIS: error= 5.44D-04 at cycle  19 NSaved=  19.
 NSaved=19 IEnMin=19 EnMin= -3326.22508275384     IErMin=19 ErrMin= 5.44D-04
 ErrMax= 5.44D-04  0.00D+00 EMaxC= 1.00D-01 BMatC= 2.40D-04 BMatP= 8.84D-04
 IDIUse=3 WtCom= 9.95D-01 WtEn= 5.44D-03
 Coeff-Com: -0.778D-04 0.168D-03-0.947D-05 0.101D-03-0.522D-04-0.130D-03
 Coeff-Com: -0.102D-03 0.369D-03-0.892D-03 0.169D-03 0.326D-02-0.114D-02
 Coeff-Com:  0.115D-01 0.144D-01-0.183D-01-0.141D+00 0.287D-01 0.327D+00
 Coeff-Com:  0.776D+00
 Coeff-En:   0.000D+00 0.000D+00 0.000D+00 0.000D+00 0.000D+00 0.000D+00
 Coeff-En:   0.000D+00 0.000D+00 0.000D+00 0.000D+00 0.000D+00 0.000D+00
 Coeff-En:   0.000D+00 0.000D+00 0.000D+00 0.000D+00 0.000D+00 0.000D+00
 Coeff-En:   0.100D+01
 Coeff:     -0.774D-04 0.167D-03-0.942D-05 0.101D-03-0.519D-04-0.129D-03
 Coeff:     -0.102D-03 0.367D-03-0.887D-03 0.168D-03 0.324D-02-0.114D-02
 Coeff:      0.115D-01 0.143D-01-0.182D-01-0.141D+00 0.286D-01 0.325D+00
 Coeff:      0.777D+00
 Gap=     0.114 Goal=   None    Shift=    0.000
 Gap=     0.042 Goal=   None    Shift=    0.000
 RMSDP=3.34D-05 MaxDP=3.15D-03 DE=-1.96D-04 OVMax= 1.68D-02

 Cycle  20  Pass 1  IDiag  1:
 RMSU=  1.80D-05    CP:  8.72D-01 -1.39D-02  3.39D-02  2.63D-01  8.37D-03
                    CP:  2.45D-01  2.56D-01  5.93D-01  3.50D-01  3.41D-01
                    CP:  7.90D-01  3.68D-01  5.07D-01  1.09D+00  8.34D-01
                    CP:  1.40D+00  1.41D+00  1.44D+00  1.25D+00
 E= -3326.22516215384     Delta-E=       -0.000079400004 Rises=F Damp=F
 DIIS: error= 1.14D-04 at cycle  20 NSaved=  20.
 NSaved=20 IEnMin=20 EnMin= -3326.22516215384     IErMin=20 ErrMin= 1.14D-04
 ErrMax= 1.14D-04  0.00D+00 EMaxC= 1.00D-01 BMatC= 6.73D-05 BMatP= 2.40D-04
 IDIUse=3 WtCom= 9.99D-01 WtEn= 1.14D-03
 Coeff-Com: -0.517D-03 0.836D-03 0.314D-04 0.121D-03-0.329D-04-0.611D-04
 Coeff-Com: -0.791D-04 0.387D-03-0.564D-03-0.138D-03-0.616D-06-0.913D-03
 Coeff-Com:  0.925D-02 0.192D-01 0.794D-02-0.964D-01-0.586D-01 0.289D-01
 Coeff-Com:  0.526D+00 0.564D+00
 Coeff-En:   0.000D+00 0.000D+00 0.000D+00 0.000D+00 0.000D+00 0.000D+00
 Coeff-En:   0.000D+00 0.000D+00 0.000D+00 0.000D+00 0.000D+00 0.000D+00
 Coeff-En:   0.000D+00 0.000D+00 0.000D+00 0.000D+00 0.000D+00 0.000D+00
 Coeff-En:   0.000D+00 0.100D+01
 Coeff:     -0.516D-03 0.835D-03 0.314D-04 0.121D-03-0.329D-04-0.611D-04
 Coeff:     -0.790D-04 0.386D-03-0.564D-03-0.138D-03-0.616D-06-0.911D-03
 Coeff:      0.924D-02 0.191D-01 0.793D-02-0.963D-01-0.586D-01 0.288D-01
 Coeff:      0.526D+00 0.565D+00
 Gap=     0.114 Goal=   None    Shift=    0.000
 Gap=     0.043 Goal=   None    Shift=    0.000
 RMSDP=1.58D-05 MaxDP=9.29D-04 DE=-7.94D-05 OVMax= 6.41D-03

 Cycle  21  Pass 1  IDiag  1:
 Restarting incremental Fock formation.
 E= -3326.22518620685     Delta-E=       -0.000024053010 Rises=F Damp=F
 DIIS: error= 1.65D-04 at cycle  21 NSaved=  20.
 NSaved=20 IEnMin=20 EnMin= -3326.22518620685     IErMin=19 ErrMin= 1.14D-04
 ErrMax= 1.65D-04  0.00D+00 EMaxC= 1.00D-01 BMatC= 3.66D-05 BMatP= 6.73D-05
 IDIUse=3 WtCom= 9.99D-01 WtEn= 1.14D-03
 Coeff-Com: -0.513D-03 0.806D-03 0.324D-04 0.922D-04-0.315D-04-0.197D-03
 Coeff-Com:  0.180D-03-0.163D-03-0.942D-04-0.193D-03-0.119D-02 0.377D-02
 Coeff-Com:  0.195D-02 0.136D-01-0.576D-02-0.254D-01-0.172D+00 0.813D-02
 Coeff-Com:  0.221D+00 0.956D+00
 Coeff-En:   0.000D+00 0.000D+00 0.000D+00 0.000D+00 0.000D+00 0.000D+00
 Coeff-En:   0.000D+00 0.000D+00 0.000D+00 0.000D+00 0.000D+00 0.000D+00
 Coeff-En:   0.000D+00 0.000D+00 0.000D+00 0.000D+00 0.000D+00 0.000D+00
 Coeff-En:   0.000D+00 0.100D+01
 Coeff:     -0.513D-03 0.805D-03 0.323D-04 0.921D-04-0.315D-04-0.196D-03
 Coeff:      0.180D-03-0.163D-03-0.941D-04-0.192D-03-0.119D-02 0.376D-02
 Coeff:      0.194D-02 0.136D-01-0.575D-02-0.254D-01-0.171D+00 0.812D-02
 Coeff:      0.220D+00 0.956D+00
 Gap=     0.114 Goal=   None    Shift=    0.000
 Gap=     0.043 Goal=   None    Shift=    0.000
 RMSDP=1.97D-05 MaxDP=1.50D-03 DE=-2.41D-05 OVMax= 9.57D-03

 Cycle  22  Pass 1  IDiag  1:
 RMSU=  1.97D-05    CP:  1.00D+00
 E= -3326.22520377317     Delta-E=       -0.000017566315 Rises=F Damp=F
 DIIS: error= 1.91D-04 at cycle  22 NSaved=  20.
 NSaved=20 IEnMin=20 EnMin= -3326.22520377317     IErMin=18 ErrMin= 1.14D-04
 ErrMax= 1.91D-04  0.00D+00 EMaxC= 1.00D-01 BMatC= 2.74D-05 BMatP= 3.66D-05
 IDIUse=3 WtCom= 9.99D-01 WtEn= 1.14D-03
 Coeff-Com: -0.362D-03 0.565D-03 0.249D-04 0.733D-05-0.113D-03-0.537D-04
 Coeff-Com: -0.993D-04-0.659D-04 0.593D-03-0.875D-03 0.187D-02-0.312D-02
 Coeff-Com:  0.763D-02 0.174D-01-0.140D-01-0.154D+00-0.151D+00-0.116D+00
 Coeff-Com:  0.643D+00 0.768D+00
[...]
 0.00000690,0.00000616,0.00000278,-0.00000392,0.00000136,-0.00000137,0.
 00000262,-0.00000067,0.00000227,-0.00000152,-0.00000045,-0.00000029,0.
 00000002,-0.00000744,0.00000107,0.00000870,-0.00000255,0.00000245,-0.0
 0000574,0.00000373,-0.00000450,0.,0.00000234,0.00000275,0.00000091,-0.
 00000026,0.00000086,-0.00000431,0.00000131,0.00000091,0.00000662,0.000
 00133,0.00000071,-0.00000200,0.00000113,-0.00000169,0.00000150,-0.0000
 0080,-0.00000134,-0.00000131,-0.00000015,-0.00000104,0.00000013,-0.000
 00096,-0.00000111,0.00000076,-0.00000070,0.00000071,-0.00000062,-0.000
 00038,-0.00000075,0.00000103,0.00000026,0.00000107,-0.00002895,0.00020
 447,-0.00038915,0.00028616,-0.00074122,0.00070126,-0.00168415,-0.00511
 734,-0.00005758,-0.01322760,-0.00117399,-0.02682949,-0.02834980,-0.070
 60641,-0.04979670,0.01083041,0.00885746,0.02161860,-0.00033758,-0.0033
 4281,0.00305924,0.00000119,-0.00000969,0.00000178,-0.00000035,-0.00000
 180,0.00000249,0.00000369,-0.00000309,0.00000162,0.00000199,-0.0000023
 2,0.00000294,0.00000214,-0.00000243,0.00000338,-0.00001397,-0.00000862
 ,0.00000624,-0.00000146,0.00000097,0.00000145,-0.00000044,-0.00000072,
 0.00000094,-0.00000019,0.00000046,-0.00000054,-0.00000204,0.00000385,0
 .00000056,-0.00000088,-0.00000094,0.00000265,0.00000223,-0.00000300,-0
 .00000036,-0.00000054,0.,0.00000036,-0.00000078,-0.00000041,-0.0000005
 2,0.00000055,0.00000001,0.00000065,-0.00000033,0.00000009,-0.00000048,
 0.00000018,-0.00000035,-0.00000018,0.00003147,0.00002525,0.00006877,-0
 .00063642,-0.00021554,-0.00122904,0.00083190,0.00122249,0.00033757,0.0
 3130696,0.06953803,0.00052047,-0.00014705,-0.00037547,-0.00056993,-0.0
 0015511,0.00023703,-0.00001226,-0.00024897,-0.00000833,-0.00025074,-0.
 00001851,0.00018174,0.00020952,0.00008109,-0.00011330,-0.00023927,-0.0
 0006268,0.00014376,0.00008118,0.00017935,0.00002311,0.00004923,-0.0000
 5764,-0.00006424,-0.00003019,0.00003277,0.00007466,0.00006838,-0.00009
 137,-0.00001085,0.00023459,0.00040965,-0.00010710,-0.00021788,-0.00036
 113,0.00004996,-0.00020057,0.00013981,-0.00076228,0.00010969,-0.000255
 82,0.00032547,0.00001815,-0.00005479,-0.00005766,-0.00001073,-0.000005
 13,0.00001420,0.00000120,-0.00000351,-0.00000666,0.00000413,0.00000031
 ,0.00000141,0.00000035,0.00000186,0.00000368,-0.00000641,0.00000105,-0
 .00000486,0.00000208,0.00000015,-0.00000255,0.00002513,-0.00000579,0.0
 0000132,-0.00001856,0.00000643,-0.00001662,-0.00000120,0.00001129,0.00
 001137,0.00000524,-0.00000088,0.00000456,-0.00001806,0.00000355,0.0000
 0176,0.00003167,0.00000826,0.00000727,-0.00000802,0.00000320,-0.000009
 28,0.00000381,-0.00000442,-0.00000535,-0.00000673,0.00000040,-0.000003
 18,0.00000277,-0.00000494,-0.00000343,0.00000278,-0.00000448,0.0000006
 4,-0.00000373,-0.00000063,-0.00000527,0.00000085,0.00000220,0.00000450
 ,0.00022705,-0.00006885,-0.00023778,0.00059469,0.00022984,0.00054510,-
 0.00181436,-0.00099867,0.00180683,-0.00224206,0.00149964,-0.00194970,-
 0.11484464,-0.04959316,-0.26677136,-0.00929734,-0.00611706,-0.01356741
 ,-0.00296920,0.00386486,0.00078117,0.00000942,-0.00000540,-0.00001529,
 -0.00001066,0.00002231,0.00000286,0.00000048,0.00001651,0.00000044,-0.
 00000693,0.00000502,0.00000687,-0.00001884,-0.00000635,0.00000371,-0.0
 0000430,-0.00001575,0.00001369,-0.00000205,0.00000106,0.00000267,-0.00
 000008,-0.00000127,-0.00000103,-0.00000072,0.00000069,-0.00000076,-0.0
 0000709,0.00001777,0.00000599,-0.00000387,-0.00000878,0.00000893,0.000
 00915,-0.00001113,-0.00000179,-0.00000311,-0.00000033,0.00000095,-0.00
 000313,-0.00000119,-0.00000191,0.00000195,-0.00000027,0.00000250,-0.00
 000094,-0.00000012,-0.00000149,0.00000036,-0.00000081,-0.00000096,-0.0
 0003628,-0.00000206,0.00000831,-0.00016481,0.00011713,-0.00016454,0.00
 136873,-0.00049030,0.00002487,0.12711647,0.05240032,0.27998438,0.00017
 639,0.00012907,-0.00005567,-0.00000317,-0.00036435,0.00004400,-0.00004
 158,-0.00030196,0.00003691,-0.00028955,-0.00012216,0.00009820,0.000315
 41,0.00016656,-0.00007919,-0.00042735,-0.00014576,0.00023220,0.0001046
 7,0.00032289,0.00004014,0.00011135,-0.00005319,-0.00000156,-0.00014846
 ,0.00016163,0.00009226,-0.00081271,0.00066022,-0.00021195,0.00098992,0
 .00060044,-0.00045231,-0.00161441,0.00005347,0.00212574,-0.00082435,0.
 00046803,-0.00064881,0.00032608,-0.00066777,0.00092076,-0.00007807,-0.
 00064453,-0.00000945,0.00000413,0.00001478,-0.00003833,0.00001014,-0.0
 0002196,-0.00001267,0.00000527,-0.00000181,0.00001110,-0.00000141,0.00
 000653,0.00000742,-0.00000214,-0.00000499,-0.00000073,-0.00000499,-0.0
 0002569,-0.00001028,0.00006340,-0.00000135,0.00003527,-0.00006284,0.00
 002996,-0.00005092,0.00000533,0.00000026,0.00000787,0.00000589,-0.0000
 0760,-0.00000399,-0.00001776,0.00000301,0.00001404,0.00002542,-0.00000
 474,0.00000757,-0.00000255,0.00000555,0.00000321,0.00000077,-0.0000075
 9,-0.00000484,-0.00000239,0.00000095,0.00000158,0.00000039,-0.00000381
 ,-0.00000444,0.00000309,-0.00000205,0.00000300,-0.00000251,-0.00000226
 ,-0.00000563,-0.00000069,0.00001173,0.00001762,-0.00014098,-0.00051599
 ,-0.00050434,0.00319079,-0.00050608,-0.00333050,-0.00093178,0.00051003
 ,-0.00094701,0.00662220,0.00063072,-0.00313983,0.00630029,0.00587237,0
 .00097375,-0.05864264,-0.06767107,-0.02430994,0.00049679,-0.01292368,-
 0.00289570,-0.00000577,-0.00003229,0.00000009,-0.00002660,0.00000245,-
 0.00000105,0.00000863,-0.00000915,-0.00000035,0.00000431,-0.00001136,-
 0.00000415,-0.00002021,-0.00000816,-0.00001528,-0.00014004,-0.00007540
 ,-0.00001973,-0.00000344,0.00000449,-0.00000511,0.00000063,0.00000326,
 0.00000305,0.00000172,0.00000159,0.00000188,-0.00002429,0.00003059,-0.
 00000272,0.00000402,0.00000042,0.00000756,0.00000642,-0.00000722,-0.00
 000583,0.00000107,-0.00000031,-0.00000125,0.00000085,0.00000072,-0.000
 00173,0.00000183,-0.00000161,0.00000057,0.00000193,-0.00000096,0.00000
 111,0.00000025,0.00000124,0.00000122,0.00002292,-0.00003112,-0.0002106
 8,-0.00083455,0.00011559,0.00042341,0.00020484,0.00032581,0.00000081,-
 0.00395020,0.00054190,0.00233779,0.04992520,0.00021497,-0.00009382,-0.
 00037832,0.00003035,-0.00008422,0.00052532,-0.00007246,-0.00005691,-0.
 00012430,-0.00020490,-0.00004438,0.00005962,0.00024636,0.00036258,0.00
 008787,-0.00002327,-0.00002129,-0.00006556,-0.00000023,0.00002782,0.00
 002714,-0.00006761,-0.00002391,0.00001247,-0.00023331,-0.00019704,0.00
 022957,0.00158813,-0.00132686,0.00104941,0.00064353,-0.00058101,0.0013
 8155,0.00061110,-0.00063378,0.00050231,-0.00017950,-0.00019357,-0.0002
 3729,0.00007983,0.00005012,0.00006282,0.00005611,0.00012939,-0.0000613
 5,0.00001300,0.00001219,0.00001834,-0.00001127,0.00000387,-0.00000873,
 -0.00000046,0.00000397,0.00000274,-0.00000324,-0.00000349,-0.00000811,
 -0.00000117,0.00000220,0.00000226,0.00001690,-0.00003689,-0.00002886,-
 0.00001848,0.00003178,0.00000118,0.00000903,-0.00000367,0.00001213,-0.
 00000112,-0.00000064,-0.00000215,-0.00000157,-0.00000216,-0.00000379,-
 0.00000176,-0.00000034,0.00000218,0.00000324,-0.00001107,0.00000242,-0
 .00000068,0.00000286,0.00000293,0.00000402,0.00000089,-0.00000182,0.00
 000149,-0.00000048,0.00000029,-0.00000155,0.00000184,-0.00000005,-0.00
 000068,0.00000107,0.00000006,0.00000050,0.00000189,0.00000223,0.000001
 16,-0.00000573,-0.00000379,-0.00003642,-0.00027895,0.00026592,-0.00069
 084,0.00126661,-0.00056766,0.00032548,0.00069747,0.00032932,0.00061156
 ,-0.00097562,0.00387932,-0.00686420,-0.01621761,-0.00691189,-0.0687318
 8,-0.30797171,-0.06202946,-0.00121255,-0.00201962,-0.00047723,0.000012
 59,0.00000022,-0.00000375,-0.00000724,0.00000871,0.00000010,-0.0000000
 1,0.00000276,0.00000227,-0.00000944,0.00000040,-0.00000118,-0.00000660
 ,-0.00000681,0.00000319,-0.00003968,-0.00002108,-0.00005573,-0.0000039
 5,0.00000065,0.00000525,-0.00000043,-0.00000169,-0.00000220,-0.0000011
 5,0.00000010,-0.00000106,-0.00000343,0.00000324,-0.00000034,0.00000398
 ,0.00000750,0.00000136,0.00000264,-0.00000303,0.00000072,-0.00000036,0
 .00000049,0.00000053,0.00000011,-0.00000077,-0.00000084,-0.00000034,0.
 00000063,0.00000005,-0.00000094,0.00000053,-0.00000049,0.00000038,-0.0
 0000063,-0.00000024,-0.00000349,-0.00000592,-0.00006539,0.00006071,-0.
 00008999,-0.00009008,-0.00020728,-0.00076019,-0.00038241,0.00068344,0.
 00093559,-0.00028809,0.07345534,0.32811363,0.00119587,-0.00052770,-0.0
 0117051,-0.00164006,-0.00004045,0.00048478,0.00010455,-0.00056417,-0.0
 0001653,-0.00082481,-0.00015516,0.00042696,0.00057128,0.00025139,-0.00
 028135,-0.00062299,-0.00013843,0.00034660,0.00024303,0.00045912,-0.000
 01078,0.00020855,-0.00014274,-0.00023524,-0.00009559,0.00005122,0.0002
 4265,-0.00048572,0.00034626,0.00012668,0.00090068,0.00190019,-0.001301
 54,0.00156725,0.00048573,0.00177801,-0.00084111,-0.00025770,-0.0012651
 9,0.00065329,-0.00069243,0.00143902,0.00013723,-0.00074009,-0.00022514
 ,-0.00006226,0.00003193,-0.00004404,0.00002965,-0.00005481,-0.00002344
 ,0.00003701,-0.00000352,0.00003356,-0.00000945,0.00002769,0.00001830,-
 0.00001649,-0.00001066,-0.00002250,-0.00002235,-0.00003475,-0.00001605
 ,0.00017460,-0.00002613,0.00007862,-0.00015239,0.00006729,-0.00012727,
 0.00000632,0.00002074,0.00003357,0.00001426,-0.00001342,-0.00000090,-0
 .00005658,0.00002194,0.00002988,0.00007421,0.00000234,0.00000878,-0.00
 001477,0.00001066,-0.00001373,0.00001086,-0.00001114,-0.00000983,-0.00
 000776,-0.00000168,-0.00000942,0.00001181,-0.00001351,-0.00000906,0.00
 001268,-0.00001535,0.00000133,-0.00001415,-0.00000374,-0.00002426,0.00
 000207,0.00002918,0.00004646,-0.00044262,-0.00130605,-0.00059723,-0.00
 350133,0.00091992,-0.00295896,-0.00036233,0.00032286,-0.00135737,-0.00
 358283,0.00326737,-0.00078388,0.00490479,0.02074065,0.00860953,-0.0240
 1919,-0.06113510,-0.06913277,-0.00620180,-0.02638926,-0.00221885,0.000
 00844,-0.00003270,-0.00001422,-0.00000670,0.00000627,0.00000449,0.0000
 1143,0.00000342,0.00000057,0.00000870,-0.00000772,0.00001537,-0.000009
 47,-0.00002090,0.00000927,-0.00009158,-0.00000763,0.00002897,-0.000007
 45,-0.00000145,-0.00000055,0.00000075,0.00000547,0.00000743,0.00000210
 ,0.00000214,0.00000594,-0.00005946,0.00007426,-0.00000094,-0.00000858,
 -0.00000407,0.00002497,0.00001865,-0.00002727,-0.00000968,0.00000223,-
 0.00000394,-0.00000129,-0.00000106,-0.00000071,-0.00000206,0.00000548,
 -0.00000560,0.00000492,0.00000315,-0.00000373,0.00000210,-0.00000027,0
 .00000190,0.00000212,-0.00029548,-0.00005028,-0.00031858,0.00042509,-0
 .00010247,-0.00011530,0.00016836,0.00092413,0.00024015,0.00226543,-0.0
 0079369,-0.00002132,0.02969546,0.06328203,0.06819079,-0.04148874,-0.00
 929422,-0.04445192,0.00878891,-0.00314570,-0.00572736,-0.00054200,0.00
 250279,0.00188386,0.00115872,0.00007063,-0.00066366,-0.00085373,-0.000
 00313,0.00064186,0.00062489,0.00006390,-0.00051567,-0.00035533,-0.0002
 7525,0.00010926,-0.00005899,-0.00001971,0.00014397,-0.00029769,0.00011
 935,0.00002540,-0.00013693,-0.00069544,-0.00020335,-0.00229472,-0.0002
 1638,0.00456834,-0.00251582,0.00314734,-0.00742185,-0.00239322,-0.0224
 9685,0.02405946,-0.08949522,-0.02068912,0.01114011,0.00125540,0.005840
 04,-0.00183687,-0.00053961,-0.00023296,-0.00052183,0.00016438,-0.00009
 905,-0.00013662,-0.00001020,0.00005238,0.00014031,-0.00004244,0.000055
 79,-0.00000332,0.00007876,-0.00004744,-0.00014010,0.00010983,-0.000863
 78,-0.00025890,0.00050736,0.00046657,0.00044536,-0.00038685,0.00024899
 ,-0.00026032,0.00003813,-0.00006545,-0.00000658,0.00003116,-0.00011551
 ,-0.00020213,-0.00008922,0.00024483,0.00026569,0.00011133,-0.00006693,
 -0.00009579,-0.00002055,0.00003538,0.00003964,0.00006794,-0.00000604,0
 .00000249,0.00007832,-0.00001293,0.00001400,-0.00002695,0.00003710,-0.
 00002576,0.00001475,0.00001590,0.00002527,-0.00000795,0.00000243,-0.00
 001017,0.00000813,0.00000519,0.00009440,0.00126982,-0.00045703,0.00333
 560,-0.00077147,0.00145725,-0.00194866,0.00103430,-0.00078291,0.002392
 82,-0.00073436,-0.00083828,-0.00122194,-0.00032097,0.00027885,-0.00048
 590,-0.00027868,-0.00000231,-0.00073656,-0.00044463,-0.00293386,0.0015
 5857,-0.00008890,-0.00018644,-0.00010417,-0.00005834,0.00006418,0.0000
 7367,-0.00000307,-0.00000849,-0.00000950,-0.00000027,-0.00000172,-0.00
 000588,0.00002181,0.00000094,0.00003401,-0.00000312,0.00003283,-0.0000
 5255,-0.00003186,0.00006687,-0.00002082,0.00000300,0.00004131,0.000031
 72,0.00000979,0.00001096,0.00001971,-0.00059693,0.00007089,-0.00002344
 ,-0.00000641,0.00006163,0.00011622,0.00001143,-0.00003173,-0.00003734,
 0.00003429,-0.00001142,-0.00001092,0.00004654,-0.00001090,0.00000227,-
 0.00000446,-0.00001382,-0.00000569,0.00001636,-0.00000588,0.00001935,0
 .00000649,0.00001208,0.00002406,-0.00010220,0.00024231,-0.00014978,0.0
 0002953,-0.00002587,-0.00000165,0.00001678,-0.00001446,-0.00002964,0.0
 0003167,0.00004847,-0.00001262,0.00011509,-0.00003245,-0.00001865,0.12
 931691,-0.01574300,-0.00051353,-0.00942534,0.00542602,-0.00499865,-0.0
 1113016,0.00102644,0.00126682,0.00013249,0.00163952,-0.00045476,-0.001
 08206,-0.00124096,-0.00011119,0.00093728,0.00139322,0.00011988,-0.0009
 1299,-0.00064235,-0.00091522,0.00008096,-0.00026448,0.00027676,0.00043
 124,0.00001582,-0.00017355,-0.00014164,0.00012606,-0.00029335,-0.00047
 414,-0.00288395,-0.00044144,0.00208934,-0.00191482,0.00077563,-0.00364
 240,-0.00495141,-0.01491808,0.01570057,-0.03096468,-0.00326297,-0.0005
 2461,0.00052085,0.00194298,0.00058858,-0.00016686,0.00008103,-0.000181
 88,0.00023427,0.00006211,-0.00018255,0.00004807,-0.00004796,-0.0000845
 4,-0.00000605,0.00003972,0.00004001,-0.00006001,0.00002445,-0.00011391
 ,-0.00019412,0.00025943,0.00013332,0.00044083,-0.00035973,0.00006708,-
 0.00012577,0.00008272,-0.00018947,-0.00001267,0.00005414,0.00005867,0.
 00001393,0.00008202,0.00012479,0.00003042,-0.00021179,0.00000668,-0.00
 009241,-0.00003251,0.00007028,0.00003353,-0.00008897,-0.00003129,-0.00
 006556,0.00000863,0.00000988,-0.00003305,0.00000600,-0.00001506,0.0000
 5961,-0.00005473,0.00004695,0.00002913,-0.00007378,-0.00001777,-0.0000
 5161,-0.00000188,-0.00004743,-0.00001398,0.00005480,0.00008184,0.00100
 247,-0.00093695,0.00229193,-0.00058413,0.00071270,-0.00162638,0.000910
 83,-0.00052319,0.00201119,-0.00058293,-0.00092375,-0.00094647,-0.00012
 599,0.00038946,-0.00046682,-0.00005299,-0.00025703,-0.00024093,-0.0003
 1578,-0.00125622,0.00124005,-0.00027549,0.00001605,-0.00006942,-0.0000
 1447,-0.00002391,-0.00012263,-0.00001141,-0.00003016,-0.00002558,-0.00
 000998,-0.00000373,-0.00003092,0.00002750,0.00003467,-0.00001481,0.000
 04040,0.00004461,-0.00008385,-0.00002538,-0.00011712,0.00005910,-0.000
 01732,-0.00001712,0.00000727,0.00000597,0.00000024,0.00001510,0.000054
 63,0.00013670,-0.00009825,0.00000546,0.00004508,-0.00013674,-0.0000331
 7,0.00005136,0.00000597,-0.00000886,0.00000493,-0.00000660,-0.00002215
 ,0.00001526,0.00000810,0.00002049,-0.00000459,0.00000155,0.00001315,-0
 .00000338,-0.00000213,-0.00000007,0.00000809,-0.00000401,-0.00005656,0
 .00000534,0.00002399,-0.00000210,-0.00003570,-0.00000377,-0.00001393,-
 0.00000709,0.00000012,0.00000920,0.00003550,0.00003590,0.00004636,0.00
 000390,0.00008408,0.04840629,0.02445305,-0.05176293,-0.00689809,-0.048
 11174,0.01491250,-0.01843828,-0.03986274,-0.00149060,0.00540118,0.0049
 3160,0.00383633,0.00062978,-0.00283906,-0.00262966,0.00087459,0.002110
 25,0.00310921,-0.00016343,-0.00208298,-0.00166986,-0.00181093,0.000348
 72,-0.00097005,0.00064328,0.00049440,-0.00026779,-0.00043866,0.0003424
 1,0.00140109,-0.00265492,-0.00245958,-0.00874523,0.00071877,0.00214300
 ,0.00460128,-0.00108116,0.00139161,0.00869915,0.01847243,-0.01745175,0
 .01607211,-0.00006623,0.00072824,-0.00069196,-0.00301565,0.00149948,0.
 00047189,0.00017697,0.00059347,0.00001583,0.00017721,0.00004277,-0.000
 09686,0.00000699,-0.00024868,0.00007590,-0.00016642,-0.00013941,0.0000
 3336,0.00014082,0.00015543,-0.00013030,0.00057822,0.00029031,-0.000792
 24,-0.00022700,-0.00060800,0.00044698,-0.00035210,0.00042976,-0.000042
 59,0.00006016,-0.00002035,-0.00003049,0.00005949,0.00008902,0.00007886
 ,-0.00009202,-0.00022171,-0.00002234,0.00004936,0.00006852,0.00000825,
 -0.00004665,-0.00003505,-0.00003329,0.00002335,0.00000723,-0.00003571,
 0.00000353,-0.00001947,0.00000173,0.00001942,-0.00001119,-0.00003200,0
 .00003089,-0.00003451,0.00003335,0.00001274,-0.00001242,-0.00005375,-0
 .00002435,-0.00020627,-0.00074998,0.00002843,-0.00248285,0.00041792,-0
 .00107493,0.00113858,-0.00080167,0.00063187,-0.00172190,0.00055374,0.0
 0074531,0.00088492,0.00044779,-0.00035253,0.00035247,-0.00015183,0.000
 19192,0.00049689,-0.00014310,0.00232966,-0.00155464,0.00001597,-0.0004
 3037,-0.00008353,-0.00026203,0.00023976,0.00014179,0.00003953,-0.00001
 168,0.00001190,-0.00000649,-0.00004446,0.00006440,-0.00001773,0.000060
 17,0.00003242,0.00012484,-0.00012479,0.00016662,-0.00000647,-0.0000082
 6,0.00005378,-0.00002637,-0.00005344,-0.00002071,-0.00002730,-0.000023
 24,-0.00001940,0.00034111,-0.00016114,0.00011361,0.00003658,-0.0000510
 0,-0.00006527,-0.00001056,0.00002200,0.00002771,-0.00001603,0.00000158
 ,0.00000546,-0.00002222,-0.00000154,0.00000684,-0.00001231,0.00000709,
 0.00000476,-0.00002274,-0.00000008,-0.00000611,-0.00002157,-0.00002130
 ,-0.00001441,0.00009446,-0.00020677,0.00013248,-0.00004377,0.00000160,
 0.00000545,-0.00004183,0.00000530,0.00005650,0.00002096,-0.00004190,0.
 00000605,-0.00015960,0.00004725,0.00009790,0.01615049,0.00569221,0.100
 86703\\0.00000633,0.00000355,0.00000990,0.00000709,-0.00000662,-0.0000
 0826,-0.00000171,0.00000389,0.00000395,0.00000245,0.00000075,-0.000001
 30,-0.00000483,-0.00000250,-0.00000025,0.00000268,0.00000156,-0.000001
 51,-0.00000091,-0.00000180,0.00000065,0.00000038,0.00000027,0.00000053
 ,-0.00000254,-0.00000196,0.00000034,0.00000378,0.00000474,-0.00000273,
 -0.00000768,-0.00000006,0.00000405,0.00000659,-0.00000316,0.00001175,-
 0.00000185,0.00000894,-0.00001315,-0.00000977,-0.00000525,0.00000797,-
 0.00000343,-0.00001116,-0.00000254,0.00000215,0.00000226,0.00000426,-0
 .00000063,-0.00000029,0.00000020,0.00000066,0.00000151,-0.00000018,-0.
 00000256,-0.00000245,-0.00000294,-0.00000992,0.00001685,0.00000022,-0.
 00000331,0.00000382,-0.00000020,-0.00000089,-0.00000330,0.00000055,0.0
 0000020,-0.00000041,-0.00000137,0.00000572,0.00000320,0.00000812,-0.00
 000294,-0.00000504,-0.00000580,-0.00000196,-0.00000091,-0.00000027,-0.
 00000154,0.00000106,0.00000072,0.00000261,-0.00000063,0.00000147,-0.00
 000189,-0.00000073,-0.00000192,0.00000181,0.00000106,-0.00000080,-0.00
 000009,-0.00000087,0.00000078,-0.00000139,0.00000091,0.00000129,0.0000
 0059,-0.00000294,-0.00000598,0.00001110,-0.00001015,0.00000630,0.00000
 317,0.00000276,-0.00000118,0.00000017,0.00000095,0.00000236,-0.0000023
 1,-0.00000062,-0.00000372,0.00000161,0.00000174,0.00000093,-0.00000018
 ,-0.00000109,-0.00000022,0.00000046,0.00000233,0.00000120,0.00000154,0
 .00000179,-0.00000587,0.00000080,-0.00000128,-0.00000008,0.00000008,-0
 .00000022,-0.00000023,-0.00000073,-0.00000036,0.00000025,0.00000019,-0
 .00000028,0.00000003,0.00000001,0.00000048,0.00000014,0.00000084,-0.00
 000029,0.00000023,-0.00000041,-0.00000026,-0.00000014,-0.00000052,-0.0
 0000004,0.00000002,0.00000069,-0.00000035,0.00000039,0.00000178,-0.000
 00078,-0.00000042,0.00000161,-0.00000108,0.00000046,-0.00000073,0.0000
 0052,-0.00000106,-0.00000040,-0.00000051,-0.00000069,-0.00000129,0.000
 00042,0.00000151,-0.00000118,-0.00000039,-0.00000097,-0.00000059,0.000
 00038,0.00000078,-0.00000043,0.00000056,0.00000061,-0.00000022,0.,-0.0
 0000026,0.00000045,0.00000035,0.00000044,0.00000057,0.00000035,-0.0000
 0008,0.00000017,-0.00000051,-0.00000009,-0.00000043,0.00000005,-0.0000
 0026,0.00000097,0.00000125,-0.00000796\\\@
 The archive entry for this job was punched.


 EVERY WORD THAT YOU WRITE IS A BLOW THAT SMITES THE DEVIL.
     -- ST. BERNARD OF CLAIRVAUX
 Job cpu time:       1 days  5 hours 16 minutes 13.1 seconds.
 Elapsed time:       0 days  0 hours 55 minutes 13.7 seconds.
 File lengths (MBytes):  RWF=   5939 Int=      0 D2E=      0 Chk=     49 Scr=      1
 Normal termination of Gaussian 16 at Fri Mar 28 06:22:37 2025.
