 Entering Gaussian System, Link 0=g16
 Initial command:
 /public/software/apps/Gaussian/g16/l1.exe "/tmp/Gau-70369.inp" -scrdir="/tmp/"
 Entering Link 1 = /public/software/apps/Gaussian/g16/l1.exe PID=     70370.
  
 Copyright (c) 1988-2019, Gaussian, Inc.  All Rights Reserved.
  
 This is part of the Gaussian(R) 16 program.  It is based on
 the Gaussian(R) 09 system (copyright 2009, Gaussian, Inc.),
 the Gaussian(R) 03 system (copyright 2003, Gaussian, Inc.),
 the Gaussian(R) 98 system (copyright 1998, Gaussian, Inc.),
 the Gaussian(R) 94 system (copyright 1995, Gaussian, Inc.),
 the Gaussian 92(TM) system (copyright 1992, Gaussian, Inc.),
 the Gaussian 90(TM) system (copyright 1990, Gaussian, Inc.),
 the Gaussian 88(TM) system (copyright 1988, Gaussian, Inc.),
 the Gaussian 86(TM) system (copyright 1986, Carnegie Mellon
 University), and the Gaussian 82(TM) system (copyright 1983,
 Carnegie Mellon University). Gaussian is a federally registered
 trademark of Gaussian, Inc.
  
 This software contains proprietary and confidential information,
 including trade secrets, belonging to Gaussian, Inc.
  
 This software is provided under written license and may be
 used, copied, transmitted, or stored only in accord with that
 written license.
  
 The following legend is applicable only to US Government
 contracts under FAR:
  
                    RESTRICTED RIGHTS LEGEND
  
 Use, reproduction and disclosure by the US Government is
 subject to restrictions as set forth in subparagraphs (a)
 and (c) of the Commercial Computer Software - Restricted
 Rights clause in FAR 52.227-19.
  
 Gaussian, Inc.
 340 Quinnipiac St., Bldg. 40, Wallingford CT 06492
  
  
 ---------------------------------------------------------------
 Warning -- This program may not be used in any manner that
 competes with the business of Gaussian, Inc. or will provide
 assistance to any competitor of Gaussian, Inc.  The licensee
 of this program is prohibited from giving any competitor of
 Gaussian, Inc. access to this program.  By using this program,
 the user acknowledges that Gaussian, Inc. is engaged in the
 business of creating and licensing software in the field of
 computational chemistry and represents and warrants to the
 licensee that it is not a competitor of Gaussian, Inc. and that
 it will not use this program in any manner prohibited above.
 ---------------------------------------------------------------
  

 Cite this work as:
 Gaussian 16, Revision C.01,
 M. J. Frisch, G. W. Trucks, H. B. Schlegel, G. E. Scuseria, 
 M. A. Robb, J. R. Cheeseman, G. Scalmani, V. Barone, 
 G. A. Petersson, H. Nakatsuji, X. Li, M. Caricato, A. V. Marenich, 
 J. Bloino, B. G. Janesko, R. Gomperts, B. Mennucci, H. P. Hratchian, 
 J. V. Ortiz, A. F. Izmaylov, J. L. Sonnenberg, D. Williams-Young, 
 F. Ding, F. Lipparini, F. Egidi, J. Goings, B. Peng, A. Petrone, 
 T. Henderson, D. Ranasinghe, V. G. Zakrzewski, J. Gao, N. Rega, 
 G. Zheng, W. Liang, M. Hada, M. Ehara, K. Toyota, R. Fukuda, 
 J. Hasegawa, M. Ishida, T. Nakajima, Y. Honda, O. Kitao, H. Nakai, 
 T. Vreven, K. Throssell, J. A. Montgomery, Jr., J. E. Peralta, 
 F. Ogliaro, M. J. Bearpark, J. J. Heyd, E. N. Brothers, K. N. Kudin, 
 V. N. Staroverov, T. A. Keith, R. Kobayashi, J. Normand, 
 K. Raghavachari, A. P. Rendell, J. C. Burant, S. S. Iyengar, 
 J. Tomasi, M. Cossi, J. M. Millam, M. Klene, C. Adamo, R. Cammi, 
 J. W. Ochterski, R. L. Martin, K. Morokuma, O. Farkas, 
 J. B. Foresman, and D. J. Fox, Gaussian, Inc., Wallingford CT, 2019.
 
 ******************************************
 Gaussian 16:  ES64L-G16RevC.01  3-Jul-2019
                28-Mar-2025 
 ******************************************
 %nprocshared=32
 Will use up to   32 processors via shared memory.
 %mem=100GB
 ------------------------------------------
 #p opt freq b3lyp/def2svpp em=gd3bj nosymm
 ------------------------------------------
 1/18=20,19=15,26=3,38=1/1,3;
 2/9=110,12=2,15=1,17=6,18=5,40=1/2;
 3/5=43,7=202,11=2,25=1,30=1,71=1,74=-5,124=41/1,2,3;
 4//1;
 5/5=2,38=5/2;
 6/7=2,8=2,9=2,10=2,28=1/1;
 7/30=1/1,2,3,16;
 1/18=20,19=15,26=3/3(2);
 2/9=110,15=1/2;
 99//99;
 2/9=110,15=1/2;
 3/5=43,7=202,11=2,25=1,30=1,71=1,74=-5,124=41/1,2,3;
 4/5=5,16=3,69=1/1;
 5/5=2,38=5/2;
 7/30=1/1,2,3,16;
 1/18=20,19=15,26=3/3(-5);
 2/9=110,15=1/2;
 6/7=2,8=2,9=2,10=2,19=2,28=1/1;
 99/9=1/99;
 Leave Link    1 at Fri Mar 28 06:08:57 2025, MaxMem= 13421772800 cpu:               1.0 elap:               0.0
 (Enter /public/software/apps/Gaussian/g16/l101.exe)
 ------------------
 $$$$Title####0????
 ------------------
 Symbolic Z-matrix:
 Charge =  0 Multiplicity = 2
 C                     13.53205   0.70064   0.02888 
 C                     12.08245   1.08669  -0.25038 
 C                     11.10989   0.13127   0.45072 
 C                     9.65403   0.52341   0.16995 
 C                     8.67991  -0.44539   0.85937 
 C                     7.20481   0.00356   0.74706 
 C                     6.68161  -0.10418  -0.70393 
 C                     5.20242   0.29353  -0.79548 
 C                     4.34108  -0.56034   0.1533 
 C                     2.87455  -0.18141   0.05529 
 C                     2.43166   1.11156   0.39133 
 C                     1.07831   1.4458    0.29539 
 C                     0.1386    0.49468  -0.13286 
 C                    -1.29555   0.85606  -0.24246 
 C                    -1.66306   2.02215  -0.92794 
 C                    -3.00851   2.39187  -1.04341 
 C                    -3.35582   3.57127  -1.72212 
 C                    -4.69331   3.95445  -1.82885 
 C                    -5.69406   3.1696   -1.25694 
 C                    -5.36546   1.99278  -0.58033 
 C                    -4.02004   1.57838  -0.47257 
 C                    -3.65443   0.38484   0.19987 
 C                    -4.67377  -0.52235   0.79324 
 C                    -4.76951  -0.60668   2.19462 
 O                    -3.90156   0.1211    3.00239 
 C                    -5.73094  -1.42375   2.79112 
 C                    -6.60183  -2.17748   2.00642 
 C                    -6.51005  -2.1356    0.60886 
 C                    -7.37638  -2.91311  -0.17587 
 C                    -7.27709  -2.88933  -1.56771 
 C                    -6.31187  -2.09614  -2.18799 
 C                    -5.44309  -1.31524  -1.42215 
 C                    -5.53441  -1.3122   -0.01365 
 C                    -2.29415   0.04935   0.33449 
 O                    -1.93848  -1.08059   1.06791 
 C                     0.57913  -0.79352  -0.47641 
 C                     1.93249  -1.12858  -0.38129 
 C                     4.85191  -0.44425   1.60124 
 C                     6.3287   -0.84765   1.69144 
 H                     13.73643  -0.32607  -0.34283 
 H                     14.21188   1.40825  -0.4908 
 H                     13.7399   0.74449   1.11928 
 H                     11.90873   1.06001  -1.34831 
 H                     11.91163   2.12529   0.10804 
 H                     11.28754  -0.90569   0.08894 
 H                     11.29459   0.15972   1.54739 
 H                     9.47538   1.55638   0.5415 
 H                     9.48724   0.50569  -0.92779 
 H                     8.79907  -1.46374   0.42737 
 H                     8.95313  -0.50294   1.93659 
 H                     7.13316   1.06536   1.07536 
 H                     7.25594   0.57287  -1.36982 
 H                     6.80819  -1.144    -1.07886 
 H                     5.10448   1.37292  -0.5472 
 H                     4.85453   0.15022  -1.84189 
 H                     4.46021  -1.62391  -0.15678 
 H                     3.1313    1.86471   0.72929 
 H                     0.76201   2.4454    0.56733 
 H                    -0.89518   2.64184  -1.37814 
 H                    -2.59235   4.19878  -2.16671 
 H                    -4.95433   4.86545  -2.3518 
 H                    -6.72944   3.47522  -1.33605 
 H                    -6.16991   1.41764  -0.14157 
 H                    -5.80167  -1.47584   3.87023 
 H                    -7.34065  -2.80331   2.49307 
 H                    -8.12731  -3.54212   0.28752 
 H                    -7.94686  -3.49219  -2.16733 
 H                    -6.23466  -2.08759  -3.26762 
 H                    -4.70158  -0.72175  -1.94034 
 H                    -0.12289  -1.53699  -0.83328 
 H                     2.24357  -2.12938  -0.65375 
 H                     4.25462  -1.11164   2.26021 
 H                     4.73916   0.59683   1.97488 
 H                     6.43192  -1.92619   1.43721 
 H                     6.66792  -0.71139   2.74159 
 Cu                   -2.21554  -0.88317   3.00065 
 
 ITRead=  0  0  0  0  0  0  0  0  0  0  0  0  0  0  0  0  0  0  0  0
 ITRead=  0  0  0  0  0  0  0  0  0  0  0  0  0  0  0  0  0  0  0  0
 ITRead=  0  0  0  0  0  0  0  0  0  0  0  0  0  0  0  0  0  0  0  0
 ITRead=  0  0  0  0  0  0  0  0  0  0  0  0  0  0  0  0
 MicOpt= -1 -1 -1 -1 -1 -1 -1 -1 -1 -1 -1 -1 -1 -1 -1 -1 -1 -1 -1 -1
 MicOpt= -1 -1 -1 -1 -1 -1 -1 -1 -1 -1 -1 -1 -1 -1 -1 -1 -1 -1 -1 -1
 MicOpt= -1 -1 -1 -1 -1 -1 -1 -1 -1 -1 -1 -1 -1 -1 -1 -1 -1 -1 -1 -1
 MicOpt= -1 -1 -1 -1 -1 -1 -1 -1 -1 -1 -1 -1 -1 -1 -1 -1
 NAtoms=     76 NQM=       76 NQMF=       0 NMMI=      0 NMMIF=      0
                NMic=       0 NMicF=      0.
                    Isotopes and Nuclear Properties:
 (Nuclear quadrupole moments (NQMom) in fm**2, nuclear magnetic moments (NMagM)
  in nuclear magnetons)

  Atom         1           2           3           4           5           6           7           8           9          10
 IAtWgt=          12          12          12          12          12          12          12          12          12          12
 AtmWgt=  12.0000000  12.0000000  12.0000000  12.0000000  12.0000000  12.0000000  12.0000000  12.0000000  12.0000000  12.0000000
 NucSpn=           0           0           0           0           0           0           0           0           0           0
 AtZEff=  -0.0000000  -0.0000000  -0.0000000  -0.0000000  -0.0000000  -0.0000000  -0.0000000  -0.0000000  -0.0000000  -0.0000000
 NQMom=    0.0000000   0.0000000   0.0000000   0.0000000   0.0000000   0.0000000   0.0000000   0.0000000   0.0000000   0.0000000
 NMagM=    0.0000000   0.0000000   0.0000000   0.0000000   0.0000000   0.0000000   0.0000000   0.0000000   0.0000000   0.0000000
 AtZNuc=   6.0000000   6.0000000   6.0000000   6.0000000   6.0000000   6.0000000   6.0000000   6.0000000   6.0000000   6.0000000

  Atom        11          12          13          14          15          16          17          18          19          20
 IAtWgt=          12          12          12          12          12          12          12          12          12          12
 AtmWgt=  12.0000000  12.0000000  12.0000000  12.0000000  12.0000000  12.0000000  12.0000000  12.0000000  12.0000000  12.0000000
 NucSpn=           0           0           0           0           0           0           0           0           0           0
 AtZEff=  -0.0000000  -0.0000000  -0.0000000  -0.0000000  -0.0000000  -0.0000000  -0.0000000  -0.0000000  -0.0000000  -0.0000000
 NQMom=    0.0000000   0.0000000   0.0000000   0.0000000   0.0000000   0.0000000   0.0000000   0.0000000   0.0000000   0.0000000
 NMagM=    0.0000000   0.0000000   0.0000000   0.0000000   0.0000000   0.0000000   0.0000000   0.0000000   0.0000000   0.0000000
 AtZNuc=   6.0000000   6.0000000   6.0000000   6.0000000   6.0000000   6.0000000   6.0000000   6.0000000   6.0000000   6.0000000

  Atom        21          22          23          24          25          26          27          28          29          30
 IAtWgt=          12          12          12          12          16          12          12          12          12          12
 AtmWgt=  12.0000000  12.0000000  12.0000000  12.0000000  15.9949146  12.0000000  12.0000000  12.0000000  12.0000000  12.0000000
 NucSpn=           0           0           0           0           0           0           0           0           0           0
 AtZEff=  -0.0000000  -0.0000000  -0.0000000  -0.0000000  -0.0000000  -0.0000000  -0.0000000  -0.0000000  -0.0000000  -0.0000000
 NQMom=    0.0000000   0.0000000   0.0000000   0.0000000   0.0000000   0.0000000   0.0000000   0.0000000   0.0000000   0.0000000
 NMagM=    0.0000000   0.0000000   0.0000000   0.0000000   0.0000000   0.0000000   0.0000000   0.0000000   0.0000000   0.0000000
 AtZNuc=   6.0000000   6.0000000   6.0000000   6.0000000   8.0000000   6.0000000   6.0000000   6.0000000   6.0000000   6.0000000

  Atom        31          32          33          34          35          36          37          38          39          40
 IAtWgt=          12          12          12          12          16          12          12          12          12           1
 AtmWgt=  12.0000000  12.0000000  12.0000000  12.0000000  15.9949146  12.0000000  12.0000000  12.0000000  12.0000000   1.0078250
 NucSpn=           0           0           0           0           0           0           0           0           0           1
 AtZEff=  -0.0000000  -0.0000000  -0.0000000  -0.0000000  -0.0000000  -0.0000000  -0.0000000  -0.0000000  -0.0000000  -0.0000000
 NQMom=    0.0000000   0.0000000   0.0000000   0.0000000   0.0000000   0.0000000   0.0000000   0.0000000   0.0000000   0.0000000
 NMagM=    0.0000000   0.0000000   0.0000000   0.0000000   0.0000000   0.0000000   0.0000000   0.0000000   0.0000000   2.7928460
 AtZNuc=   6.0000000   6.0000000   6.0000000   6.0000000   8.0000000   6.0000000   6.0000000   6.0000000   6.0000000   1.0000000

  Atom        41          42          43          44          45          46          47          48          49          50
 IAtWgt=           1           1           1           1           1           1           1           1           1           1
 AtmWgt=   1.0078250   1.0078250   1.0078250   1.0078250   1.0078250   1.0078250   1.0078250   1.0078250   1.0078250   1.0078250
 NucSpn=           1           1           1           1           1           1           1           1           1           1
 AtZEff=  -0.0000000  -0.0000000  -0.0000000  -0.0000000  -0.0000000  -0.0000000  -0.0000000  -0.0000000  -0.0000000  -0.0000000
 NQMom=    0.0000000   0.0000000   0.0000000   0.0000000   0.0000000   0.0000000   0.0000000   0.0000000   0.0000000   0.0000000
 NMagM=    2.7928460   2.7928460   2.7928460   2.7928460   2.7928460   2.7928460   2.7928460   2.7928460   2.7928460   2.7928460
 AtZNuc=   1.0000000   1.0000000   1.0000000   1.0000000   1.0000000   1.0000000   1.0000000   1.0000000   1.0000000   1.0000000

  Atom        51          52          53          54          55          56          57          58          59          60
 IAtWgt=           1           1           1           1           1           1           1           1           1           1
 AtmWgt=   1.0078250   1.0078250   1.0078250   1.0078250   1.0078250   1.0078250   1.0078250   1.0078250   1.0078250   1.0078250
 NucSpn=           1           1           1           1           1           1           1           1           1           1
 AtZEff=  -0.0000000  -0.0000000  -0.0000000  -0.0000000  -0.0000000  -0.0000000  -0.0000000  -0.0000000  -0.0000000  -0.0000000
 NQMom=    0.0000000   0.0000000   0.0000000   0.0000000   0.0000000   0.0000000   0.0000000   0.0000000   0.0000000   0.0000000
 NMagM=    2.7928460   2.7928460   2.7928460   2.7928460   2.7928460   2.7928460   2.7928460   2.7928460   2.7928460   2.7928460
 AtZNuc=   1.0000000   1.0000000   1.0000000   1.0000000   1.0000000   1.0000000   1.0000000   1.0000000   1.0000000   1.0000000

  Atom        61          62          63          64          65          66          67          68          69          70
 IAtWgt=           1           1           1           1           1           1           1           1           1           1
 AtmWgt=   1.0078250   1.0078250   1.0078250   1.0078250   1.0078250   1.0078250   1.0078250   1.0078250   1.0078250   1.0078250
 NucSpn=           1           1           1           1           1           1           1           1           1           1
 AtZEff=  -0.0000000  -0.0000000  -0.0000000  -0.0000000  -0.0000000  -0.0000000  -0.0000000  -0.0000000  -0.0000000  -0.0000000
 NQMom=    0.0000000   0.0000000   0.0000000   0.0000000   0.0000000   0.0000000   0.0000000   0.0000000   0.0000000   0.0000000
 NMagM=    2.7928460   2.7928460   2.7928460   2.7928460   2.7928460   2.7928460   2.7928460   2.7928460   2.7928460   2.7928460
 AtZNuc=   1.0000000   1.0000000   1.0000000   1.0000000   1.0000000   1.0000000   1.0000000   1.0000000   1.0000000   1.0000000

  Atom        71          72          73          74          75          76
 IAtWgt=           1           1           1           1           1          63
 AtmWgt=   1.0078250   1.0078250   1.0078250   1.0078250   1.0078250  62.9295992
 NucSpn=           1           1           1           1           1           3
 AtZEff=  -0.0000000  -0.0000000  -0.0000000  -0.0000000  -0.0000000  -0.0000000
 NQMom=    0.0000000   0.0000000   0.0000000   0.0000000   0.0000000 -22.0000000
 NMagM=    2.7928460   2.7928460   2.7928460   2.7928460   2.7928460   2.2233000
 AtZNuc=   1.0000000   1.0000000   1.0000000   1.0000000   1.0000000  29.0000000
 Leave Link  101 at Fri Mar 28 06:08:57 2025, MaxMem= 13421772800 cpu:               4.7 elap:               0.2
 (Enter /public/software/apps/Gaussian/g16/l103.exe)

 GradGradGradGradGradGradGradGradGradGradGradGradGradGradGradGradGradGrad
 Berny optimization.
 Initialization pass.
                           ----------------------------
                           !    Initial Parameters    !
                           ! (Angstroms and Degrees)  !
 --------------------------                            --------------------------
 ! Name  Definition              Value          Derivative Info.                !
 --------------------------------------------------------------------------------
 ! R1    R(1,2)                  1.5259         estimate D2E/DX2                !
 ! R2    R(1,40)                 1.1109         estimate D2E/DX2                !
 ! R3    R(1,41)                 1.1104         estimate D2E/DX2                !
 ! R4    R(1,42)                 1.1109         estimate D2E/DX2                !
 ! R5    R(2,3)                  1.5331         estimate D2E/DX2                !
 ! R6    R(2,43)                 1.1119         estimate D2E/DX2                !
 ! R7    R(2,44)                 1.1119         estimate D2E/DX2                !
 ! R8    R(3,4)                  1.5337         estimate D2E/DX2                !
 ! R9    R(3,45)                 1.1125         estimate D2E/DX2                !
 ! R10   R(3,46)                 1.1125         estimate D2E/DX2                !
 ! R11   R(4,5)                  1.5371         estimate D2E/DX2                !
 ! R12   R(4,47)                 1.1122         estimate D2E/DX2                !
 ! R13   R(4,48)                 1.1105         estimate D2E/DX2                !
 ! R14   R(5,6)                  1.546          estimate D2E/DX2                !
 ! R15   R(5,49)                 1.1126         estimate D2E/DX2                !
 ! R16   R(5,50)                 1.1128         estimate D2E/DX2                !
 ! R17   R(6,7)                  1.5462         estimate D2E/DX2                !
 ! R18   R(6,39)                 1.544          estimate D2E/DX2                !
 ! R19   R(6,51)                 1.1137         estimate D2E/DX2                !
 ! R20   R(7,8)                  1.5345         estimate D2E/DX2                !
 ! R21   R(7,52)                 1.1098         estimate D2E/DX2                !
 ! R22   R(7,53)                 1.1126         estimate D2E/DX2                !
 ! R23   R(8,9)                  1.5399         estimate D2E/DX2                !
 ! R24   R(8,54)                 1.1119         estimate D2E/DX2                !
 ! R25   R(8,55)                 1.112          estimate D2E/DX2                !
 ! R26   R(9,10)                 1.5179         estimate D2E/DX2                !
 ! R27   R(9,38)                 1.5398         estimate D2E/DX2                !
 ! R28   R(9,56)                 1.1142         estimate D2E/DX2                !
 ! R29   R(10,11)                1.4074         estimate D2E/DX2                !
 ! R30   R(10,37)                1.4054         estimate D2E/DX2                !
 ! R31   R(11,12)                1.3973         estimate D2E/DX2                !
 ! R32   R(11,57)                1.0821         estimate D2E/DX2                !
 ! R33   R(12,13)                1.404          estimate D2E/DX2                !
 ! R34   R(12,58)                1.0831         estimate D2E/DX2                !
 ! R35   R(13,14)                1.483          estimate D2E/DX2                !
 ! R36   R(13,36)                1.4041         estimate D2E/DX2                !
 ! R37   R(14,15)                1.4017         estimate D2E/DX2                !
 ! R38   R(14,34)                1.4074         estimate D2E/DX2                !
 ! R39   R(15,16)                1.4001         estimate D2E/DX2                !
 ! R40   R(15,59)                1.0846         estimate D2E/DX2                !
 ! R41   R(16,17)                1.4044         estimate D2E/DX2                !
 ! R42   R(16,21)                1.418          estimate D2E/DX2                !
 ! R43   R(17,18)                1.3954         estimate D2E/DX2                !
 ! R44   R(17,60)                1.0837         estimate D2E/DX2                !
 ! R45   R(18,19)                1.3945         estimate D2E/DX2                !
 ! R46   R(18,61)                1.0824         estimate D2E/DX2                !
 ! R47   R(19,20)                1.3967         estimate D2E/DX2                !
 ! R48   R(19,62)                1.0824         estimate D2E/DX2                !
 ! R49   R(20,21)                1.4119         estimate D2E/DX2                !
 ! R50   R(20,63)                1.0819         estimate D2E/DX2                !
 ! R51   R(21,22)                1.4179         estimate D2E/DX2                !
 ! R52   R(22,23)                1.488          estimate D2E/DX2                !
 ! R53   R(22,34)                1.4075         estimate D2E/DX2                !
 ! R54   R(23,24)                1.4072         estimate D2E/DX2                !
 ! R55   R(23,33)                1.4197         estimate D2E/DX2                !
 ! R56   R(24,25)                1.3912         estimate D2E/DX2                !
 ! R57   R(24,26)                1.3956         estimate D2E/DX2                !
 ! R58   R(25,76)                1.9625         estimate D2E/DX2                !
 ! R59   R(26,27)                1.3937         estimate D2E/DX2                !
 ! R60   R(26,64)                1.0827         estimate D2E/DX2                !
 ! R61   R(27,28)                1.4012         estimate D2E/DX2                !
 ! R62   R(27,65)                1.0837         estimate D2E/DX2                !
 ! R63   R(28,29)                1.4039         estimate D2E/DX2                !
 ! R64   R(28,33)                1.4203         estimate D2E/DX2                !
 ! R65   R(29,30)                1.3956         estimate D2E/DX2                !
 ! R66   R(29,66)                1.0836         estimate D2E/DX2                !
 ! R67   R(30,31)                1.3948         estimate D2E/DX2                !
 ! R68   R(30,67)                1.0824         estimate D2E/DX2                !
 ! R69   R(31,32)                1.3968         estimate D2E/DX2                !
 ! R70   R(31,68)                1.0824         estimate D2E/DX2                !
 ! R71   R(32,33)                1.4115         estimate D2E/DX2                !
 ! R72   R(32,69)                1.0819         estimate D2E/DX2                !
 ! R73   R(34,35)                1.3933         estimate D2E/DX2                !
 ! R74   R(35,76)                1.9624         estimate D2E/DX2                !
 ! R75   R(36,37)                1.3975         estimate D2E/DX2                !
 ! R76   R(36,70)                1.083          estimate D2E/DX2                !
 ! R77   R(37,71)                1.0829         estimate D2E/DX2                !
 ! R78   R(38,39)                1.5336         estimate D2E/DX2                !
 ! R79   R(38,72)                1.1119         estimate D2E/DX2                !
 ! R80   R(38,73)                1.1118         estimate D2E/DX2                !
 ! R81   R(39,74)                1.1129         estimate D2E/DX2                !
 ! R82   R(39,75)                1.112          estimate D2E/DX2                !
 ! A1    A(2,1,40)             110.327          estimate D2E/DX2                !
 ! A2    A(2,1,41)             109.558          estimate D2E/DX2                !
 ! A3    A(2,1,42)             110.3281         estimate D2E/DX2                !
 ! A4    A(40,1,41)            108.6466         estimate D2E/DX2                !
 ! A5    A(40,1,42)            109.2983         estimate D2E/DX2                !
 ! A6    A(41,1,42)            108.643          estimate D2E/DX2                !
 ! A7    A(1,2,3)              111.1804         estimate D2E/DX2                !
 ! A8    A(1,2,43)             108.8483         estimate D2E/DX2                !
 ! A9    A(1,2,44)             108.8613         estimate D2E/DX2                !
 ! A10   A(3,2,43)             109.7245         estimate D2E/DX2                !
 ! A11   A(3,2,44)             109.7096         estimate D2E/DX2                !
 ! A12   A(43,2,44)            108.4638         estimate D2E/DX2                !
 ! A13   A(2,3,4)              111.0473         estimate D2E/DX2                !
 ! A14   A(2,3,45)             109.3218         estimate D2E/DX2                !
 ! A15   A(2,3,46)             109.2417         estimate D2E/DX2                !
 ! A16   A(4,3,45)             109.2913         estimate D2E/DX2                !
 ! A17   A(4,3,46)             109.3619         estimate D2E/DX2                !
 ! A18   A(45,3,46)            108.5352         estimate D2E/DX2                !
 ! A19   A(3,4,5)              110.9967         estimate D2E/DX2                !
 ! A20   A(3,4,47)             109.1959         estimate D2E/DX2                !
 ! A21   A(3,4,48)             108.6309         estimate D2E/DX2                !
 ! A22   A(5,4,47)             109.4956         estimate D2E/DX2                !
 ! A23   A(5,4,48)             109.7625         estimate D2E/DX2                !
 ! A24   A(47,4,48)            108.7191         estimate D2E/DX2                !
 ! A25   A(4,5,6)              112.8957         estimate D2E/DX2                !
 ! A26   A(4,5,49)             109.5637         estimate D2E/DX2                !
 ! A27   A(4,5,50)             108.1295         estimate D2E/DX2                !
 ! A28   A(6,5,49)             109.8636         estimate D2E/DX2                !
 ! A29   A(6,5,50)             108.6389         estimate D2E/DX2                !
 ! A30   A(49,5,50)            107.5917         estimate D2E/DX2                !
 ! A31   A(5,6,7)              111.765          estimate D2E/DX2                !
 ! A32   A(5,6,39)             109.6866         estimate D2E/DX2                !
 ! A33   A(5,6,51)             108.4719         estimate D2E/DX2                !
 ! A34   A(7,6,39)             110.0939         estimate D2E/DX2                !
 ! A35   A(7,6,51)             108.7412         estimate D2E/DX2                !
 ! A36   A(39,6,51)            107.9865         estimate D2E/DX2                !
 ! A37   A(6,7,8)              111.3535         estimate D2E/DX2                !
 ! A38   A(6,7,52)             110.2087         estimate D2E/DX2                !
 ! A39   A(6,7,53)             110.0518         estimate D2E/DX2                !
 ! A40   A(8,7,52)             107.7553         estimate D2E/DX2                !
 ! A41   A(8,7,53)             109.3781         estimate D2E/DX2                !
 ! A42   A(52,7,53)            108.0046         estimate D2E/DX2                !
 ! A43   A(7,8,9)              111.0226         estimate D2E/DX2                !
 ! A44   A(7,8,54)             108.8562         estimate D2E/DX2                !
 ! A45   A(7,8,55)             108.9247         estimate D2E/DX2                !
 ! A46   A(9,8,54)             110.576          estimate D2E/DX2                !
 ! A47   A(9,8,55)             109.4719         estimate D2E/DX2                !
 ! A48   A(54,8,55)            107.9188         estimate D2E/DX2                !
 ! A49   A(8,9,10)             111.2373         estimate D2E/DX2                !
 ! A50   A(8,9,38)             110.6105         estimate D2E/DX2                !
 ! A51   A(8,9,56)             107.339          estimate D2E/DX2                !
 ! A52   A(10,9,38)            111.2494         estimate D2E/DX2                !
 ! A53   A(10,9,56)            108.8828         estimate D2E/DX2                !
 ! A54   A(38,9,56)            107.3482         estimate D2E/DX2                !
 ! A55   A(9,10,11)            121.1963         estimate D2E/DX2                !
 ! A56   A(9,10,37)            119.9637         estimate D2E/DX2                !
 ! A57   A(11,10,37)           118.8398         estimate D2E/DX2                !
 ! A58   A(10,11,12)           120.5401         estimate D2E/DX2                !
 ! A59   A(10,11,57)           120.6977         estimate D2E/DX2                !
 ! A60   A(12,11,57)           118.7622         estimate D2E/DX2                !
 ! A61   A(11,12,13)           120.4757         estimate D2E/DX2                !
 ! A62   A(11,12,58)           119.1009         estimate D2E/DX2                !
 ! A63   A(13,12,58)           120.4194         estimate D2E/DX2                !
 ! A64   A(12,13,14)           120.3139         estimate D2E/DX2                !
 ! A65   A(12,13,36)           119.0885         estimate D2E/DX2                !
 ! A66   A(14,13,36)           120.589          estimate D2E/DX2                !
 ! A67   A(13,14,15)           119.4994         estimate D2E/DX2                !
 ! A68   A(13,14,34)           121.0756         estimate D2E/DX2                !
 ! A69   A(15,14,34)           119.4246         estimate D2E/DX2                !
 ! A70   A(14,15,16)           120.7963         estimate D2E/DX2                !
 ! A71   A(14,15,59)           119.5176         estimate D2E/DX2                !
 ! A72   A(16,15,59)           119.6854         estimate D2E/DX2                !
 ! A73   A(15,16,17)           119.953          estimate D2E/DX2                !
 ! A74   A(15,16,21)           120.0525         estimate D2E/DX2                !
 ! A75   A(17,16,21)           119.9943         estimate D2E/DX2                !
 ! A76   A(16,17,18)           120.3066         estimate D2E/DX2                !
 ! A77   A(16,17,60)           120.6865         estimate D2E/DX2                !
 ! A78   A(18,17,60)           119.0064         estimate D2E/DX2                !
 ! A79   A(17,18,19)           120.1296         estimate D2E/DX2                !
 ! A80   A(17,18,61)           119.9486         estimate D2E/DX2                !
 ! A81   A(19,18,61)           119.9209         estimate D2E/DX2                !
 ! A82   A(18,19,20)           120.2693         estimate D2E/DX2                !
 ! A83   A(18,19,62)           119.8393         estimate D2E/DX2                !
 ! A84   A(20,19,62)           119.8912         estimate D2E/DX2                !
 ! A85   A(19,20,21)           120.5621         estimate D2E/DX2                !
 ! A86   A(19,20,63)           117.9991         estimate D2E/DX2                !
 ! A87   A(21,20,63)           121.4381         estimate D2E/DX2                !
 ! A88   A(16,21,20)           118.7272         estimate D2E/DX2                !
 ! A89   A(16,21,22)           119.3335         estimate D2E/DX2                !
 ! A90   A(20,21,22)           121.9358         estimate D2E/DX2                !
 ! A91   A(21,22,23)           121.7149         estimate D2E/DX2                !
 ! A92   A(21,22,34)           119.6839         estimate D2E/DX2                !
 ! A93   A(23,22,34)           118.5935         estimate D2E/DX2                !
 ! A94   A(22,23,24)           118.7034         estimate D2E/DX2                !
 ! A95   A(22,23,33)           121.858          estimate D2E/DX2                !
 ! A96   A(24,23,33)           119.4336         estimate D2E/DX2                !
 ! A97   A(23,24,25)           120.2932         estimate D2E/DX2                !
 ! A98   A(23,24,26)           120.5045         estimate D2E/DX2                !
 ! A99   A(25,24,26)           119.2018         estimate D2E/DX2                !
 ! A100  A(24,25,76)           105.5323         estimate D2E/DX2                !
 ! A101  A(24,26,27)           120.4279         estimate D2E/DX2                !
 ! A102  A(24,26,64)           119.9454         estimate D2E/DX2                !
 ! A103  A(27,26,64)           119.6266         estimate D2E/DX2                !
 ! A104  A(26,27,28)           120.2972         estimate D2E/DX2                !
 ! A105  A(26,27,65)           119.0458         estimate D2E/DX2                !
 ! A106  A(28,27,65)           120.653          estimate D2E/DX2                !
 ! A107  A(27,28,29)           120.0359         estimate D2E/DX2                !
 ! A108  A(27,28,33)           119.9649         estimate D2E/DX2                !
 ! A109  A(29,28,33)           119.998          estimate D2E/DX2                !
 ! A110  A(28,29,30)           120.2742         estimate D2E/DX2                !
 ! A111  A(28,29,66)           120.6692         estimate D2E/DX2                !
 ! A112  A(30,29,66)           119.0561         estimate D2E/DX2                !
 ! A113  A(29,30,31)           120.1605         estimate D2E/DX2                !
 ! A114  A(29,30,67)           119.9325         estimate D2E/DX2                !
 ! A115  A(31,30,67)           119.9061         estimate D2E/DX2                !
 ! A116  A(30,31,32)           120.2986         estimate D2E/DX2                !
 ! A117  A(30,31,68)           119.8285         estimate D2E/DX2                !
 ! A118  A(32,31,68)           119.8727         estimate D2E/DX2                !
 ! A119  A(31,32,33)           120.5368         estimate D2E/DX2                !
 ! A120  A(31,32,69)           118.0567         estimate D2E/DX2                !
 ! A121  A(33,32,69)           121.4059         estimate D2E/DX2                !
 ! A122  A(23,33,28)           119.3292         estimate D2E/DX2                !
 ! A123  A(23,33,32)           121.9468         estimate D2E/DX2                !
 ! A124  A(28,33,32)           118.7214         estimate D2E/DX2                !
 ! A125  A(14,34,22)           120.6563         estimate D2E/DX2                !
 ! A126  A(14,34,35)           119.9679         estimate D2E/DX2                !
 ! A127  A(22,34,35)           119.3656         estimate D2E/DX2                !
 ! A128  A(34,35,76)           113.629          estimate D2E/DX2                !
 ! A129  A(13,36,37)           120.4744         estimate D2E/DX2                !
 ! A130  A(13,36,70)           120.4675         estimate D2E/DX2                !
 ! A131  A(37,36,70)           119.0516         estimate D2E/DX2                !
 ! A132  A(10,37,36)           120.5785         estimate D2E/DX2                !
 ! A133  A(10,37,71)           120.561          estimate D2E/DX2                !
 ! A134  A(36,37,71)           118.86           estimate D2E/DX2                !
 ! A135  A(9,38,39)            110.7903         estimate D2E/DX2                !
 ! A136  A(9,38,72)            109.5011         estimate D2E/DX2                !
 ! A137  A(9,38,73)            110.6687         estimate D2E/DX2                !
 ! A138  A(39,38,72)           108.9374         estimate D2E/DX2                !
 ! A139  A(39,38,73)           108.9172         estimate D2E/DX2                !
 ! A140  A(72,38,73)           107.9618         estimate D2E/DX2                !
 ! A141  A(6,39,38)            111.4339         estimate D2E/DX2                !
 ! A142  A(6,39,74)            109.994          estimate D2E/DX2                !
 ! A143  A(6,39,75)            109.6934         estimate D2E/DX2                !
 ! A144  A(38,39,74)           109.3179         estimate D2E/DX2                !
 ! A145  A(38,39,75)           108.4869         estimate D2E/DX2                !
 ! A146  A(74,39,75)           107.8309         estimate D2E/DX2                !
 ! A147  A(25,76,35)           100.0            estimate D2E/DX2                !
 ! D1    D(40,1,2,3)            60.4097         estimate D2E/DX2                !
 ! D2    D(40,1,2,43)          -60.5698         estimate D2E/DX2                !
 ! D3    D(40,1,2,44)         -178.6208         estimate D2E/DX2                !
 ! D4    D(41,1,2,3)           179.9769         estimate D2E/DX2                !
 ! D5    D(41,1,2,43)           58.9975         estimate D2E/DX2                !
 ! D6    D(41,1,2,44)          -59.0536         estimate D2E/DX2                !
 ! D7    D(42,1,2,3)           -60.4596         estimate D2E/DX2                !
 ! D8    D(42,1,2,43)          178.561          estimate D2E/DX2                !
 ! D9    D(42,1,2,44)           60.5099         estimate D2E/DX2                !
 ! D10   D(1,2,3,4)            179.9052         estimate D2E/DX2                !
 ! D11   D(1,2,3,45)           -59.4283         estimate D2E/DX2                !
 ! D12   D(1,2,3,46)            59.2034         estimate D2E/DX2                !
 ! D13   D(43,2,3,4)           -59.6312         estimate D2E/DX2                !
 ! D14   D(43,2,3,45)           61.0352         estimate D2E/DX2                !
 ! D15   D(43,2,3,46)          179.6669         estimate D2E/DX2                !
 ! D16   D(44,2,3,4)            59.4353         estimate D2E/DX2                !
 ! D17   D(44,2,3,45)         -179.8983         estimate D2E/DX2                !
 ! D18   D(44,2,3,46)          -61.2666         estimate D2E/DX2                !
 ! D19   D(2,3,4,5)            179.3085         estimate D2E/DX2                !
 ! D20   D(2,3,4,47)           -59.8852         estimate D2E/DX2                !
 ! D21   D(2,3,4,48)            58.5388         estimate D2E/DX2                !
 ! D22   D(45,3,4,5)            58.6241         estimate D2E/DX2                !
 ! D23   D(45,3,4,47)          179.4304         estimate D2E/DX2                !
 ! D24   D(45,3,4,48)          -62.1457         estimate D2E/DX2                !
 ! D25   D(46,3,4,5)           -60.0606         estimate D2E/DX2                !
 ! D26   D(46,3,4,47)           60.7457         estimate D2E/DX2                !
 ! D27   D(46,3,4,48)          179.1696         estimate D2E/DX2                !
 ! D28   D(3,4,5,6)            173.1374         estimate D2E/DX2                !
 ! D29   D(3,4,5,49)           -64.0752         estimate D2E/DX2                !
 ! D30   D(3,4,5,50)            52.9163         estimate D2E/DX2                !
 ! D31   D(47,4,5,6)            52.5082         estimate D2E/DX2                !
 ! D32   D(47,4,5,49)          175.2956         estimate D2E/DX2                !
 ! D33   D(47,4,5,50)          -67.7128         estimate D2E/DX2                !
 ! D34   D(48,4,5,6)           -66.7634         estimate D2E/DX2                !
 ! D35   D(48,4,5,49)           56.0239         estimate D2E/DX2                !
 ! D36   D(48,4,5,50)          173.0155         estimate D2E/DX2                !
 ! D37   D(4,5,6,7)             68.9858         estimate D2E/DX2                !
 ! D38   D(4,5,6,39)          -168.6195         estimate D2E/DX2                !
 ! D39   D(4,5,6,51)           -50.8901         estimate D2E/DX2                !
 ! D40   D(49,5,6,7)           -53.6342         estimate D2E/DX2                !
 ! D41   D(49,5,6,39)           68.7604         estimate D2E/DX2                !
 ! D42   D(49,5,6,51)         -173.5102         estimate D2E/DX2                !
 ! D43   D(50,5,6,7)          -171.0855         estimate D2E/DX2                !
 ! D44   D(50,5,6,39)          -48.6908         estimate D2E/DX2                !
 ! D45   D(50,5,6,51)           69.0386         estimate D2E/DX2                !
 ! D46   D(5,6,7,8)            177.8764         estimate D2E/DX2                !
 ! D47   D(5,6,7,52)           -62.5975         estimate D2E/DX2                !
 ! D48   D(5,6,7,53)            56.4136         estimate D2E/DX2                !
 ! D49   D(39,6,7,8)            55.715          estimate D2E/DX2                !
 ! D50   D(39,6,7,52)          175.2412         estimate D2E/DX2                !
 ! D51   D(39,6,7,53)          -65.7478         estimate D2E/DX2                !
 ! D52   D(51,6,7,8)           -62.4061         estimate D2E/DX2                !
 ! D53   D(51,6,7,52)           57.1201         estimate D2E/DX2                !
 ! D54   D(51,6,7,53)          176.1312         estimate D2E/DX2                !
 ! D55   D(5,6,39,38)         -179.4279         estimate D2E/DX2                !
 ! D56   D(5,6,39,74)          -58.027          estimate D2E/DX2                !
 ! D57   D(5,6,39,75)           60.4184         estimate D2E/DX2                !
 ! D58   D(7,6,39,38)          -56.0448         estimate D2E/DX2                !
 ! D59   D(7,6,39,74)           65.356          estimate D2E/DX2                !
 ! D60   D(7,6,39,75)         -176.1985         estimate D2E/DX2                !
 ! D61   D(51,6,39,38)          62.5405         estimate D2E/DX2                !
 ! D62   D(51,6,39,74)        -176.0587         estimate D2E/DX2                !
 ! D63   D(51,6,39,75)         -57.6132         estimate D2E/DX2                !
 ! D64   D(6,7,8,9)            -56.4146         estimate D2E/DX2                !
 ! D65   D(6,7,8,54)            65.531          estimate D2E/DX2                !
 ! D66   D(6,7,8,55)          -177.0309         estimate D2E/DX2                !
 ! D67   D(52,7,8,9)          -177.3881         estimate D2E/DX2                !
 ! D68   D(52,7,8,54)          -55.4424         estimate D2E/DX2                !
 ! D69   D(52,7,8,55)           61.9956         estimate D2E/DX2                !
 ! D70   D(53,7,8,9)            65.4397         estimate D2E/DX2                !
 ! D71   D(53,7,8,54)         -172.6147         estimate D2E/DX2                !
 ! D72   D(53,7,8,55)          -55.1766         estimate D2E/DX2                !
 ! D73   D(7,8,9,10)          -179.3681         estimate D2E/DX2                !
 ! D74   D(7,8,9,38)            56.4668         estimate D2E/DX2                !
 ! D75   D(7,8,9,56)           -60.3508         estimate D2E/DX2                !
 ! D76   D(54,8,9,10)           59.6943         estimate D2E/DX2                !
 ! D77   D(54,8,9,38)          -64.4707         estimate D2E/DX2                !
 ! D78   D(54,8,9,56)          178.7117         estimate D2E/DX2                !
 ! D79   D(55,8,9,10)          -59.0759         estimate D2E/DX2                !
 ! D80   D(55,8,9,38)          176.7591         estimate D2E/DX2                !
 ! D81   D(55,8,9,56)           59.9414         estimate D2E/DX2                !
 ! D82   D(8,9,10,11)          -62.0331         estimate D2E/DX2                !
 ! D83   D(8,9,10,37)          117.7782         estimate D2E/DX2                !
 ! D84   D(38,9,10,11)          61.7694         estimate D2E/DX2                !
 ! D85   D(38,9,10,37)        -118.4193         estimate D2E/DX2                !
 ! D86   D(56,9,10,11)         179.8774         estimate D2E/DX2                !
 ! D87   D(56,9,10,37)          -0.3113         estimate D2E/DX2                !
 ! D88   D(8,9,38,39)          -56.6153         estimate D2E/DX2                !
 ! D89   D(8,9,38,72)         -176.7955         estimate D2E/DX2                !
 ! D90   D(8,9,38,73)           64.3065         estimate D2E/DX2                !
 ! D91   D(10,9,38,39)         179.2266         estimate D2E/DX2                !
 ! D92   D(10,9,38,72)          59.0464         estimate D2E/DX2                !
 ! D93   D(10,9,38,73)         -59.8516         estimate D2E/DX2                !
 ! D94   D(56,9,38,39)          60.1966         estimate D2E/DX2                !
 ! D95   D(56,9,38,72)         -59.9836         estimate D2E/DX2                !
 ! D96   D(56,9,38,73)        -178.8816         estimate D2E/DX2                !
 ! D97   D(9,10,11,12)         179.9683         estimate D2E/DX2                !
 ! D98   D(9,10,11,57)          -0.085          estimate D2E/DX2                !
 ! D99   D(37,10,11,12)          0.1549         estimate D2E/DX2                !
 ! D100  D(37,10,11,57)       -179.8984         estimate D2E/DX2                !
 ! D101  D(9,10,37,36)        -179.9963         estimate D2E/DX2                !
 ! D102  D(9,10,37,71)          -0.2561         estimate D2E/DX2                !
 ! D103  D(11,10,37,36)         -0.1805         estimate D2E/DX2                !
 ! D104  D(11,10,37,71)        179.5597         estimate D2E/DX2                !
 ! D105  D(10,11,12,13)          0.2545         estimate D2E/DX2                !
 ! D106  D(10,11,12,58)        179.5251         estimate D2E/DX2                !
 ! D107  D(57,11,12,13)       -179.6933         estimate D2E/DX2                !
 ! D108  D(57,11,12,58)         -0.4226         estimate D2E/DX2                !
 ! D109  D(11,12,13,14)       -179.5706         estimate D2E/DX2                !
 ! D110  D(11,12,13,36)         -0.6323         estimate D2E/DX2                !
 ! D111  D(58,12,13,14)          1.1684         estimate D2E/DX2                !
 ! D112  D(58,12,13,36)       -179.8933         estimate D2E/DX2                !
 ! D113  D(12,13,14,15)         49.551          estimate D2E/DX2                !
 ! D114  D(12,13,14,34)       -130.2406         estimate D2E/DX2                !
 ! D115  D(36,13,14,15)       -129.3712         estimate D2E/DX2                !
 ! D116  D(36,13,14,34)         50.8371         estimate D2E/DX2                !
 ! D117  D(12,13,36,37)          0.6068         estimate D2E/DX2                !
 ! D118  D(12,13,36,70)       -178.4547         estimate D2E/DX2                !
 ! D119  D(14,13,36,37)        179.5421         estimate D2E/DX2                !
 ! D120  D(14,13,36,70)          0.4806         estimate D2E/DX2                !
 ! D121  D(13,14,15,16)       -179.7508         estimate D2E/DX2                !
 ! D122  D(13,14,15,59)          0.5634         estimate D2E/DX2                !
 ! D123  D(34,14,15,16)          0.0443         estimate D2E/DX2                !
 ! D124  D(34,14,15,59)       -179.6415         estimate D2E/DX2                !
 ! D125  D(13,14,34,22)       -178.5878         estimate D2E/DX2                !
 ! D126  D(13,14,34,35)          2.5845         estimate D2E/DX2                !
 ! D127  D(15,14,34,22)          1.6205         estimate D2E/DX2                !
 ! D128  D(15,14,34,35)       -177.2073         estimate D2E/DX2                !
 ! D129  D(14,15,16,17)        179.335          estimate D2E/DX2                !
 ! D130  D(14,15,16,21)         -0.4942         estimate D2E/DX2                !
 ! D131  D(59,15,16,17)         -0.9796         estimate D2E/DX2                !
 ! D132  D(59,15,16,21)        179.1911         estimate D2E/DX2                !
 ! D133  D(15,16,17,18)       -179.2906         estimate D2E/DX2                !
 ! D134  D(15,16,17,60)          0.4667         estimate D2E/DX2                !
 ! D135  D(21,16,17,18)          0.5388         estimate D2E/DX2                !
 ! D136  D(21,16,17,60)       -179.7039         estimate D2E/DX2                !
 ! D137  D(15,16,21,20)        178.6306         estimate D2E/DX2                !
 ! D138  D(15,16,21,22)         -0.6962         estimate D2E/DX2                !
 ! D139  D(17,16,21,20)         -1.1986         estimate D2E/DX2                !
 ! D140  D(17,16,21,22)        179.4746         estimate D2E/DX2                !
 ! D141  D(16,17,18,19)          0.2353         estimate D2E/DX2                !
 ! D142  D(16,17,18,61)        179.8968         estimate D2E/DX2                !
 ! D143  D(60,17,18,19)       -179.5261         estimate D2E/DX2                !
 ! D144  D(60,17,18,61)          0.1354         estimate D2E/DX2                !
 ! D145  D(17,18,19,20)         -0.3294         estimate D2E/DX2                !
 ! D146  D(17,18,19,62)        179.5324         estimate D2E/DX2                !
 ! D147  D(61,18,19,20)       -179.991          estimate D2E/DX2                !
 ! D148  D(61,18,19,62)         -0.1292         estimate D2E/DX2                !
 ! D149  D(18,19,20,21)         -0.3564         estimate D2E/DX2                !
 ! D150  D(18,19,20,63)        179.3528         estimate D2E/DX2                !
 ! D151  D(62,19,20,21)        179.7819         estimate D2E/DX2                !
 ! D152  D(62,19,20,63)         -0.5089         estimate D2E/DX2                !
 ! D153  D(19,20,21,16)          1.1118         estimate D2E/DX2                !
 ! D154  D(19,20,21,22)       -179.5798         estimate D2E/DX2                !
 ! D155  D(63,20,21,16)       -178.5873         estimate D2E/DX2                !
 ! D156  D(63,20,21,22)          0.7211         estimate D2E/DX2                !
 ! D157  D(16,21,22,23)       -178.6971         estimate D2E/DX2                !
 ! D158  D(16,21,22,34)          2.3272         estimate D2E/DX2                !
 ! D159  D(20,21,22,23)          1.9985         estimate D2E/DX2                !
 ! D160  D(20,21,22,34)       -176.9771         estimate D2E/DX2                !
 ! D161  D(21,22,23,24)       -109.7985         estimate D2E/DX2                !
 ! D162  D(21,22,23,33)         71.0187         estimate D2E/DX2                !
 ! D163  D(34,22,23,24)         69.188          estimate D2E/DX2                !
 ! D164  D(34,22,23,33)       -109.9948         estimate D2E/DX2                !
 ! D165  D(21,22,34,14)         -2.8098         estimate D2E/DX2                !
 ! D166  D(21,22,34,35)        176.0249         estimate D2E/DX2                !
 ! D167  D(23,22,34,14)        178.1826         estimate D2E/DX2                !
 ! D168  D(23,22,34,35)         -2.9827         estimate D2E/DX2                !
 ! D169  D(22,23,24,25)         -1.6229         estimate D2E/DX2                !
 ! D170  D(22,23,24,26)        178.6272         estimate D2E/DX2                !
 ! D171  D(33,23,24,25)        177.5802         estimate D2E/DX2                !
 ! D172  D(33,23,24,26)         -2.1697         estimate D2E/DX2                !
 ! D173  D(22,23,33,28)       -178.4903         estimate D2E/DX2                !
 ! D174  D(22,23,33,32)          2.1176         estimate D2E/DX2                !
 ! D175  D(24,23,33,28)          2.3327         estimate D2E/DX2                !
 ! D176  D(24,23,33,32)       -177.0594         estimate D2E/DX2                !
 ! D177  D(23,24,25,76)        -78.6482         estimate D2E/DX2                !
 ! D178  D(26,24,25,76)        101.105          estimate D2E/DX2                !
 ! D179  D(23,24,26,27)          0.6013         estimate D2E/DX2                !
 ! D180  D(23,24,26,64)       -179.5204         estimate D2E/DX2                !
 ! D181  D(25,24,26,27)       -179.1513         estimate D2E/DX2                !
 ! D182  D(25,24,26,64)          0.7269         estimate D2E/DX2                !
 ! D183  D(24,25,76,35)         52.0991         estimate D2E/DX2                !
 ! D184  D(24,26,27,28)          0.8037         estimate D2E/DX2                !
 ! D185  D(24,26,27,65)       -179.9191         estimate D2E/DX2                !
 ! D186  D(64,26,27,28)       -179.0749         estimate D2E/DX2                !
 ! D187  D(64,26,27,65)          0.2023         estimate D2E/DX2                !
 ! D188  D(26,27,28,29)        179.0043         estimate D2E/DX2                !
 ! D189  D(26,27,28,33)         -0.6088         estimate D2E/DX2                !
 ! D190  D(65,27,28,29)         -0.2612         estimate D2E/DX2                !
 ! D191  D(65,27,28,33)       -179.8743         estimate D2E/DX2                !
 ! D192  D(27,28,29,30)       -179.1116         estimate D2E/DX2                !
 ! D193  D(27,28,29,66)          0.6329         estimate D2E/DX2                !
 ! D194  D(33,28,29,30)          0.5014         estimate D2E/DX2                !
 ! D195  D(33,28,29,66)       -179.7541         estimate D2E/DX2                !
 ! D196  D(27,28,33,23)         -0.9634         estimate D2E/DX2                !
 ! D197  D(27,28,33,32)        178.4484         estimate D2E/DX2                !
 ! D198  D(29,28,33,23)        179.4233         estimate D2E/DX2                !
 ! D199  D(29,28,33,32)         -1.1649         estimate D2E/DX2                !
 ! D200  D(28,29,30,31)          0.2586         estimate D2E/DX2                !
 ! D201  D(28,29,30,67)        179.9048         estimate D2E/DX2                !
 ! D202  D(66,29,30,31)       -179.49           estimate D2E/DX2                !
 ! D203  D(66,29,30,67)          0.1562         estimate D2E/DX2                !
 ! D204  D(29,30,31,32)         -0.3367         estimate D2E/DX2                !
 ! D205  D(29,30,31,68)        179.5323         estimate D2E/DX2                !
 ! D206  D(67,30,31,32)       -179.9829         estimate D2E/DX2                !
 ! D207  D(67,30,31,68)         -0.1139         estimate D2E/DX2                !
 ! D208  D(30,31,32,33)         -0.3524         estimate D2E/DX2                !
 ! D209  D(30,31,32,69)        179.3722         estimate D2E/DX2                !
 ! D210  D(68,31,32,33)        179.7787         estimate D2E/DX2                !
 ! D211  D(68,31,32,69)         -0.4967         estimate D2E/DX2                !
 ! D212  D(31,32,33,23)       -179.5106         estimate D2E/DX2                !
 ! D213  D(31,32,33,28)          1.0937         estimate D2E/DX2                !
 ! D214  D(69,32,33,23)          0.7742         estimate D2E/DX2                !
 ! D215  D(69,32,33,28)       -178.6214         estimate D2E/DX2                !
 ! D216  D(14,34,35,76)        108.058          estimate D2E/DX2                !
 ! D217  D(22,34,35,76)        -70.785          estimate D2E/DX2                !
 ! D218  D(34,35,76,25)         38.7668         estimate D2E/DX2                !
 ! D219  D(13,36,37,10)         -0.2029         estimate D2E/DX2                !
 ! D220  D(13,36,37,71)       -179.9475         estimate D2E/DX2                !
 ! D221  D(70,36,37,10)        178.8717         estimate D2E/DX2                !
 ! D222  D(70,36,37,71)         -0.8728         estimate D2E/DX2                !
 ! D223  D(9,38,39,6)           56.9139         estimate D2E/DX2                !
 ! D224  D(9,38,39,74)         -64.8795         estimate D2E/DX2                !
 ! D225  D(9,38,39,75)         177.7764         estimate D2E/DX2                !
 ! D226  D(72,38,39,6)         177.4298         estimate D2E/DX2                !
 ! D227  D(72,38,39,74)         55.6364         estimate D2E/DX2                !
 ! D228  D(72,38,39,75)        -61.7078         estimate D2E/DX2                !
 ! D229  D(73,38,39,6)         -65.039          estimate D2E/DX2                !
 ! D230  D(73,38,39,74)        173.1676         estimate D2E/DX2                !
 ! D231  D(73,38,39,75)         55.8234         estimate D2E/DX2                !
 --------------------------------------------------------------------------------
 Trust Radius=3.00D-01 FncErr=1.00D-07 GrdErr=1.00D-06 EigMax=2.50D+02 EigMin=1.00D-04
 Number of steps in this run=    456 maximum allowed number of steps=    456.
 GradGradGradGradGradGradGradGradGradGradGradGradGradGradGradGradGradGrad

 Leave Link  103 at Fri Mar 28 06:08:57 2025, MaxMem= 13421772800 cpu:               0.8 elap:               0.0
 (Enter /public/software/apps/Gaussian/g16/l202.exe)
 Symmetry turned off by external request.
 Stoichiometry    C37H36CuO2(2)
 Framework group  C1[X(C37H36CuO2)]
 Deg. of freedom   222
 Full point group                 C1      NOp   1
                          Input orientation:                          
 ---------------------------------------------------------------------
 Center     Atomic      Atomic             Coordinates (Angstroms)
 Number     Number       Type             X           Y           Z
 ---------------------------------------------------------------------
      1          6           0       13.532046    0.700643    0.028879
      2          6           0       12.082452    1.086692   -0.250378
      3          6           0       11.109891    0.131265    0.450716
      4          6           0        9.654032    0.523408    0.169948
      5          6           0        8.679911   -0.445392    0.859368
      6          6           0        7.204813    0.003561    0.747059
      7          6           0        6.681613   -0.104180   -0.703927
      8          6           0        5.202417    0.293528   -0.795478
      9          6           0        4.341076   -0.560338    0.153295
     10          6           0        2.874554   -0.181410    0.055288
     11          6           0        2.431657    1.111561    0.391327
     12          6           0        1.078315    1.445799    0.295388
     13          6           0        0.138599    0.494684   -0.132862
     14          6           0       -1.295547    0.856061   -0.242464
     15          6           0       -1.663062    2.022146   -0.927936
     16          6           0       -3.008507    2.391874   -1.043413
     17          6           0       -3.355821    3.571270   -1.722120
     18          6           0       -4.693311    3.954445   -1.828850
     19          6           0       -5.694063    3.169598   -1.256945
     20          6           0       -5.365458    1.992775   -0.580333
     21          6           0       -4.020035    1.578381   -0.472567
     22          6           0       -3.654432    0.384844    0.199870
     23          6           0       -4.673766   -0.522351    0.793240
     24          6           0       -4.769512   -0.606681    2.194624
     25          8           0       -3.901560    0.121096    3.002387
     26          6           0       -5.730942   -1.423745    2.791124
     27          6           0       -6.601834   -2.177483    2.006416
     28          6           0       -6.510046   -2.135596    0.608856
     29          6           0       -7.376375   -2.913112   -0.175873
     30          6           0       -7.277090   -2.889334   -1.567711
     31          6           0       -6.311874   -2.096137   -2.187985
     32          6           0       -5.443091   -1.315239   -1.422146
     33          6           0       -5.534407   -1.312195   -0.013652
     34          6           0       -2.294155    0.049346    0.334489
     35          8           0       -1.938482   -1.080590    1.067914
     36          6           0        0.579133   -0.793524   -0.476405
     37          6           0        1.932489   -1.128575   -0.381285
     38          6           0        4.851907   -0.444246    1.601244
     39          6           0        6.328701   -0.847649    1.691444
     40          1           0       13.736434   -0.326073   -0.342829
     41          1           0       14.211880    1.408247   -0.490796
     42          1           0       13.739897    0.744494    1.119275
     43          1           0       11.908732    1.060007   -1.348305
     44          1           0       11.911626    2.125292    0.108037
     45          1           0       11.287540   -0.905693    0.088944
     46          1           0       11.294593    0.159718    1.547385
     47          1           0        9.475377    1.556384    0.541502
     48          1           0        9.487238    0.505689   -0.927788
     49          1           0        8.799069   -1.463736    0.427368
     50          1           0        8.953131   -0.502944    1.936590
     51          1           0        7.133157    1.065358    1.075359
     52          1           0        7.255942    0.572865   -1.369818
     53          1           0        6.808189   -1.144003   -1.078855
     54          1           0        5.104479    1.372921   -0.547201
     55          1           0        4.854529    0.150222   -1.841887
     56          1           0        4.460212   -1.623908   -0.156779
     57          1           0        3.131301    1.864709    0.729292
     58          1           0        0.762013    2.445402    0.567329
     59          1           0       -0.895184    2.641839   -1.378142
     60          1           0       -2.592347    4.198782   -2.166710
     61          1           0       -4.954325    4.865453   -2.351804
     62          1           0       -6.729437    3.475224   -1.336045
     63          1           0       -6.169910    1.417640   -0.141567
     64          1           0       -5.801672   -1.475840    3.870228
     65          1           0       -7.340647   -2.803306    2.493067
     66          1           0       -8.127306   -3.542120    0.287516
     67          1           0       -7.946862   -3.492187   -2.167328
     68          1           0       -6.234658   -2.087586   -3.267620
     69          1           0       -4.701577   -0.721753   -1.940335
     70          1           0       -0.122891   -1.536986   -0.833279
     71          1           0        2.243573   -2.129383   -0.653745
     72          1           0        4.254621   -1.111636    2.260212
     73          1           0        4.739157    0.596834    1.974881
     74          1           0        6.431921   -1.926191    1.437208
     75          1           0        6.667919   -0.711391    2.741593
     76         29           0       -2.215541   -0.883169    3.000646
 ---------------------------------------------------------------------
 Rotational constants (GHZ):           0.1894912           0.0252367           0.0240322
 Leave Link  202 at Fri Mar 28 06:08:57 2025, MaxMem= 13421772800 cpu:               0.3 elap:               0.0
 (Enter /public/software/apps/Gaussian/g16/l301.exe)
 Standard basis: def2SVPP (5D, 7F)
 Ernie: Thresh=  0.10000D-02 Tol=  0.10000D-05 Strict=F.
   642 basis functions,  1190 primitive gaussians,   683 cartesian basis functions
   152 alpha electrons      151 beta electrons
       nuclear repulsion energy      4627.6045501211 Hartrees.
 IExCor=  402 DFT=T Ex+Corr=B3LYP ExCW=0 ScaHFX=  0.200000
 ScaDFX=  0.800000  0.720000  1.000000  0.810000 ScalE2=  1.000000  1.000000
 IRadAn=      5 IRanWt=     -1 IRanGd=            0 ICorTp=0 IEmpDi=141
 NAtoms=   76 NActive=   76 NUniq=   76 SFac= 1.00D+00 NAtFMM=   60 NAOKFM=T Big=T
 Integral buffers will be    131072 words long.
 Raffenetti 2 integral format.
 Two-electron integral symmetry is turned off.
 R6Disp:  Grimme-D3(BJ) Dispersion energy=       -0.1858176490 Hartrees.
 Nuclear repulsion after empirical dispersion term =     4627.4187324720 Hartrees.
 Leave Link  301 at Fri Mar 28 06:08:57 2025, MaxMem= 13421772800 cpu:               0.6 elap:               0.0
 (Enter /public/software/apps/Gaussian/g16/l302.exe)
 NPDir=0 NMtPBC=     1 NCelOv=     1 NCel=       1 NClECP=     1 NCelD=      1
         NCelK=      1 NCelE2=     1 NClLst=     1 CellRange=     0.0.
 One-electron integrals computed using PRISM.
   1 Symmetry operations used in ECPInt.
 ECPInt:  NShTT=   50086 NPrTT=  205775 LenC2=   34327 LenP2D=   87613.
 LDataN:  DoStor=T MaxTD1= 4 Len=   56
 NBasis=   642 RedAO= T EigKep=  1.74D-04  NBF=   642
 NBsUse=   642 1.00D-06 EigRej= -1.00D+00 NBFU=   642
 Precomputing XC quadrature grid using
 IXCGrd= 4 IRadAn=           5 IRanWt=          -1 IRanGd=           0 AccXCQ= 0.00D+00.
 Generated NRdTot=       0 NPtTot=           0 NUsed=           0 NTot=          32
 NSgBfM=   624   624   624   624   624 MxSgAt=    76 MxSgA2=    76.
 Leave Link  302 at Fri Mar 28 06:08:58 2025, MaxMem= 13421772800 cpu:              29.8 elap:               1.0
 (Enter /public/software/apps/Gaussian/g16/l303.exe)
 DipDrv:  MaxL=1.
 Leave Link  303 at Fri Mar 28 06:08:58 2025, MaxMem= 13421772800 cpu:               2.4 elap:               0.1
 (Enter /public/software/apps/Gaussian/g16/l401.exe)
 ExpMin= 3.30D-02 ExpMax= 7.64D+04 ExpMxC= 1.15D+04 IAcc=3 IRadAn=         5 AccDes= 0.00D+00
 Harris functional with IExCor=  402 and IRadAn=       5 diagonalized for initial guess.
 HarFok:  IExCor=  402 AccDes= 0.00D+00 IRadAn=         5 IDoV= 1 UseB2=F ITyADJ=14
 ICtDFT=  3500011 ScaDFX=  1.000000  1.000000  1.000000  1.000000
 FoFCou: FMM=F IPFlag=           0 FMFlag=      100000 FMFlg1=        2001
         NFxFlg=           0 DoJE=T BraDBF=F KetDBF=T FulRan=T
         wScrn=  0.000000 ICntrl=       500 IOpCl=  0 I1Cent=   200000004 NGrid=           0
         NMat0=    1 NMatS0=      1 NMatT0=    0 NMatD0=    1 NMtDS0=    0 NMtDT0=    0
 Symmetry not used in FoFCou.
 Harris En= -3221.65024702543    
 JPrj=0 DoOrth=F DoCkMO=F.
 Initial guess <Sx>= 0.0000 <Sy>= 0.0000 <Sz>= 0.5000 <S**2>= 0.7500 S= 0.5000
 Leave Link  401 at Fri Mar 28 06:09:00 2025, MaxMem= 13421772800 cpu:              57.6 elap:               1.9
 (Enter /public/software/apps/Gaussian/g16/l502.exe)
 Two-electron integral symmetry not used.
 UHF open shell SCF:
 Using DIIS extrapolation, IDIIS=  1040.
 NGot= 13421772800 LenX= 13420810281 LenY= 13420343109
 Requested convergence on RMS density matrix=1.00D-08 within 128 cycles.
 Requested convergence on MAX density matrix=1.00D-06.
 Requested convergence on             energy=1.00D-06.
 No special actions if energy rises.
 Fock matrices will be formed incrementally for  20 cycles.

 Cycle   1  Pass 1  IDiag  1:
 FoFJK:  IHMeth= 1 ICntrl=       0 DoSepK=F KAlg= 0 I1Cent=           0 FoldK=F
 IRaf= 800000000 NMat=       1 IRICut=       1 DoRegI=T DoRafI=F ISym2E= 0 IDoP0=0 IntGTp=1.
 FoFCou: FMM=T IPFlag=           0 FMFlag=      100000 FMFlg1=        2001
         NFxFlg=           0 DoJE=F BraDBF=F KetDBF=F FulRan=T
         wScrn=  0.000000 ICntrl=         0 IOpCl=  1 I1Cent=           0 NGrid=           0
         NMat0=    1 NMatS0=      1 NMatT0=    0 NMatD0=    1 NMtDS0=    0 NMtDT0=    0
 Symmetry not used in FoFCou.
 FMM levels:  10  Number of levels for PrismC:   9
 E= -3206.15213419603    
 DIIS: error= 3.51D-01 at cycle   1 NSaved=   1.
 NSaved= 1 IEnMin= 1 EnMin= -3206.15213419603     IErMin= 1 ErrMin= 3.51D-01
 ErrMax= 3.51D-01  0.00D+00 EMaxC= 1.00D-01 BMatC= 6.28D+01 BMatP= 6.28D+01
 IDIUse=3 WtCom= 0.00D+00 WtEn= 1.00D+00
 Coeff-Com:  0.100D+01
 Coeff-En:   0.100D+01
 Coeff:      0.100D+01
 Gap=     0.111 Goal=   None    Shift=    0.000
 Gap=     0.589 Goal=   None    Shift=    0.000
 GapD=    0.111 DampG=1.000 DampE=0.125 DampFc=0.1250 IDamp=-1.
 Damping current iteration by 1.25D-01
 RMSDP=4.71D-02 MaxDP=8.83D+00              OVMax= 9.84D-01

 Cycle   2  Pass 1  IDiag  1:
 RMSU=  5.88D-03    CP:  1.02D+00
 E= -3211.30110785168     Delta-E=       -5.148973655647 Rises=F Damp=T
 DIIS: error= 2.34D-01 at cycle   2 NSaved=   2.
 NSaved= 2 IEnMin= 2 EnMin= -3211.30110785168     IErMin= 2 ErrMin= 2.34D-01
 ErrMax= 2.34D-01  0.00D+00 EMaxC= 1.00D-01 BMatC= 2.40D+01 BMatP= 6.28D+01
 IDIUse=3 WtCom= 0.00D+00 WtEn= 1.00D+00
 Coeff-Com: -0.124D+01 0.224D+01
 Coeff-En:   0.000D+00 0.100D+01
 Coeff:      0.000D+00 0.100D+01
 Gap=     0.229 Goal=   None    Shift=    0.000
 Gap=     0.014 Goal=   None    Shift=    0.000
 RMSDP=1.39D-02 MaxDP=3.44D+00 DE=-5.15D+00 OVMax= 9.59D-01

 Cycle   3  Pass 1  IDiag  1:
 RMSU=  1.17D-02    CP:  9.47D-01  2.27D+00
 E= -3193.84608152469     Delta-E=       17.455026326986 Rises=F Damp=F
 DIIS: error= 2.64D-01 at cycle   3 NSaved=   3.
 NSaved= 3 IEnMin= 2 EnMin= -3211.30110785168     IErMin= 2 ErrMin= 2.34D-01
 ErrMax= 2.64D-01  0.00D+00 EMaxC= 1.00D-01 BMatC= 7.61D+01 BMatP= 2.40D+01
 IDIUse=2 WtCom= 0.00D+00 WtEn= 1.00D+00
 EnCoef did   100 forward-backward iterations
 Coeff-En:   0.578D+00 0.265D-01 0.395D+00
 Coeff:      0.578D+00 0.265D-01 0.395D+00
 Gap=    -0.205 Goal=   None    Shift=    0.000
 Gap=    -0.038 Goal=   None    Shift=    0.000
 RMSDP=1.76D-02 MaxDP=4.29D+00 DE= 1.75D+01 OVMax= 9.87D-01

 Cycle   4  Pass 1  IDiag  1:
 RMSU=  6.30D-03    CP:  8.93D-01  1.06D-01  1.22D-01
 E= -3211.03245697692     Delta-E=      -17.186375452233 Rises=F Damp=F
 DIIS: error= 1.32D-01 at cycle   4 NSaved=   4.
 NSaved= 4 IEnMin= 2 EnMin= -3211.30110785168     IErMin= 4 ErrMin= 1.32D-01
 ErrMax= 1.32D-01  0.00D+00 EMaxC= 1.00D-01 BMatC= 2.47D+01 BMatP= 2.40D+01
 IDIUse=3 WtCom= 0.00D+00 WtEn= 1.00D+00
 EnCoef did   100 forward-backward iterations
 Coeff-Com: -0.774D+00 0.151D+01 0.878D-01 0.173D+00
 Coeff-En:   0.427D+00 0.163D-01 0.211D+00 0.346D+00
 Coeff:      0.427D+00 0.163D-01 0.211D+00 0.346D+00
 Gap=    -0.280 Goal=   None    Shift=    0.000
 Gap=     0.138 Goal=   None    Shift=    0.000
 RMSDP=9.98D-03 MaxDP=1.51D+00 DE=-1.72D+01 OVMax= 9.87D-01

 Cycle   5  Pass 1  IDiag  1:
 RMSU=  8.56D-03    CP:  9.01D-01  1.72D-01  2.39D-01  2.19D-01
 E= -3203.29783857472     Delta-E=        7.734618402198 Rises=F Damp=F
 DIIS: error= 1.13D-01 at cycle   5 NSaved=   5.
 NSaved= 5 IEnMin= 2 EnMin= -3211.30110785168     IErMin= 5 ErrMin= 1.13D-01
 ErrMax= 1.13D-01  0.00D+00 EMaxC= 1.00D-01 BMatC= 3.30D+01 BMatP= 2.40D+01
 IDIUse=2 WtCom= 0.00D+00 WtEn= 1.00D+00
 EnCoef did   100 forward-backward iterations
 Coeff-En:   0.246D+00 0.831D-02 0.000D+00 0.459D+00 0.287D+00
 Coeff:      0.246D+00 0.831D-02 0.000D+00 0.459D+00 0.287D+00
 Gap=    -0.131 Goal=   None    Shift=    0.000
 Gap=     0.378 Goal=   None    Shift=    0.000
 RMSDP=8.18D-03 MaxDP=1.58D+00 DE= 7.73D+00 OVMax= 9.76D-01

 Cycle   6  Pass 1  IDiag  1:
 RMSU=  4.22D-03    CP:  8.98D-01  9.35D-02  1.87D-01  3.08D-01  1.90D-01
 E= -3218.88492463081     Delta-E=      -15.587086056087 Rises=F Damp=F
 DIIS: error= 3.97D-02 at cycle   6 NSaved=   6.
 NSaved= 6 IEnMin= 6 EnMin= -3218.88492463081     IErMin= 6 ErrMin= 3.97D-02
 ErrMax= 3.97D-02  0.00D+00 EMaxC= 1.00D-01 BMatC= 6.91D+00 BMatP= 2.40D+01
 IDIUse=3 WtCom= 6.03D-01 WtEn= 3.97D-01
 EnCoef did   100 forward-backward iterations
 Coeff-Com: -0.450D+00 0.879D+00-0.223D-01 0.969D-01 0.122D+00 0.375D+00
 Coeff-En:   0.170D+00 0.413D-02 0.000D+00 0.185D+00 0.871D-01 0.554D+00
 Coeff:     -0.204D+00 0.531D+00-0.135D-01 0.132D+00 0.108D+00 0.446D+00
 Gap=     0.097 Goal=   None    Shift=    0.000
 Gap=    -0.075 Goal=   None    Shift=    0.000
 RMSDP=5.08D-03 MaxDP=1.07D+00 DE=-1.56D+01 OVMax= 5.39D-01

 Cycle   7  Pass 1  IDiag  1:
 RMSU=  3.88D-03    CP:  8.98D-01  7.35D-03  1.04D-01  4.21D-01  1.84D-01
                    CP:  2.89D-01
 E= -3220.09249251277     Delta-E=       -1.207567881957 Rises=F Damp=F
 DIIS: error= 6.93D-02 at cycle   7 NSaved=   7.
 NSaved= 7 IEnMin= 7 EnMin= -3220.09249251277     IErMin= 6 ErrMin= 3.97D-02
 ErrMax= 6.93D-02  0.00D+00 EMaxC= 1.00D-01 BMatC= 5.30D+00 BMatP= 6.91D+00
 IDIUse=3 WtCom= 6.03D-01 WtEn= 3.97D-01
 EnCoef did     3 forward-backward iterations
 Coeff-Com: -0.362D+00 0.694D+00-0.162D-01-0.123D-01 0.650D-02 0.320D+00
 Coeff-Com:  0.370D+00
 Coeff-En:   0.715D-01 0.000D+00 0.000D+00 0.000D+00 0.000D+00 0.333D+00
 Coeff-En:   0.595D+00
 Coeff:     -0.190D+00 0.418D+00-0.976D-02-0.741D-02 0.391D-02 0.325D+00
 Coeff:      0.459D+00
 Gap=     0.224 Goal=   None    Shift=    0.000
 Gap=     0.017 Goal=   None    Shift=    0.000
 RMSDP=3.43D-03 MaxDP=3.47D-01 DE=-1.21D+00 OVMax= 5.83D-01

 Cycle   8  Pass 1  IDiag  1:
 RMSU=  2.23D-03    CP:  8.89D-01 -2.14D-02  1.05D-01  4.19D-01  1.05D-01
                    CP:  4.30D-01  3.74D-01
 E= -3221.06776990100     Delta-E=       -0.975277388230 Rises=F Damp=F
 DIIS: error= 2.51D-02 at cycle   8 NSaved=   8.
 NSaved= 8 IEnMin= 8 EnMin= -3221.06776990100     IErMin= 8 ErrMin= 2.51D-02
 ErrMax= 2.51D-02  0.00D+00 EMaxC= 1.00D-01 BMatC= 1.42D+00 BMatP= 5.30D+00
 IDIUse=3 WtCom= 7.49D-01 WtEn= 2.51D-01
 Coeff-Com: -0.189D+00 0.371D+00-0.251D-02-0.777D-01-0.294D-01 0.158D+00
 Coeff-Com:  0.302D+00 0.467D+00
 Coeff-En:   0.000D+00 0.000D+00 0.000D+00 0.000D+00 0.000D+00 0.000D+00
 Coeff-En:   0.187D+00 0.813D+00
 Coeff:     -0.141D+00 0.278D+00-0.188D-02-0.582D-01-0.221D-01 0.118D+00
 Coeff:      0.273D+00 0.554D+00
 Gap=     0.151 Goal=   None    Shift=    0.000
 Gap=     0.025 Goal=   None    Shift=    0.000
 RMSDP=2.29D-03 MaxDP=3.60D-01 DE=-9.75D-01 OVMax= 8.25D-01

 Cycle   9  Pass 1  IDiag  1:
 RMSU=  1.50D-03    CP:  8.92D-01  4.73D-04  1.11D-01  3.80D-01  1.38D-01
                    CP:  4.49D-01  6.08D-01  3.68D-01
 E= -3220.98659276211     Delta-E=        0.081177138892 Rises=F Damp=F
 DIIS: error= 2.66D-02 at cycle   9 NSaved=   9.
 NSaved= 9 IEnMin= 8 EnMin= -3221.06776990100     IErMin= 8 ErrMin= 2.51D-02
 ErrMax= 2.66D-02  0.00D+00 EMaxC= 1.00D-01 BMatC= 1.54D+00 BMatP= 1.42D+00
 IDIUse=3 WtCom= 7.49D-01 WtEn= 2.51D-01
 Coeff-Com: -0.121D+00 0.227D+00 0.547D-03-0.440D-01-0.409D-02 0.109D-01
 Coeff-Com: -0.103D-01 0.476D+00 0.465D+00
 Coeff-En:   0.000D+00 0.000D+00 0.000D+00 0.000D+00 0.000D+00 0.000D+00
 Coeff-En:   0.000D+00 0.542D+00 0.458D+00
 Coeff:     -0.910D-01 0.170D+00 0.410D-03-0.330D-01-0.307D-02 0.820D-02
 Coeff:     -0.774D-02 0.493D+00 0.463D+00
 Gap=     0.265 Goal=   None    Shift=    0.000
 Gap=     0.010 Goal=   None    Shift=    0.000
 RMSDP=1.86D-03 MaxDP=2.99D-01 DE= 8.12D-02 OVMax= 5.62D-01

 Cycle  10  Pass 1  IDiag  1:
 RMSU=  9.62D-04    CP:  8.91D-01 -3.62D-03  1.08D-01  3.96D-01  1.16D-01
                    CP:  4.49D-01  4.43D-01  7.36D-01  2.12D-01
 E= -3221.30391515703     Delta-E=       -0.317322394919 Rises=F Damp=F
 DIIS: error= 1.13D-02 at cycle  10 NSaved=  10.
 NSaved=10 IEnMin=10 EnMin= -3221.30391515703     IErMin=10 ErrMin= 1.13D-02
 ErrMax= 1.13D-02  0.00D+00 EMaxC= 1.00D-01 BMatC= 3.10D-01 BMatP= 1.42D+00
 IDIUse=3 WtCom= 8.87D-01 WtEn= 1.13D-01
 EnCoef did     6 forward-backward iterations
 Coeff-Com: -0.616D-01 0.119D+00-0.493D-03-0.266D-01 0.102D-02-0.133D-01
 Coeff-Com: -0.798D-01 0.222D+00 0.384D+00 0.456D+00
 Coeff-En:   0.000D+00 0.000D+00 0.000D+00 0.000D+00 0.000D+00 0.000D+00
 Coeff-En:   0.000D+00 0.102D-01 0.193D+00 0.797D+00
 Coeff:     -0.546D-01 0.105D+00-0.437D-03-0.236D-01 0.906D-03-0.118D-01
 Coeff:     -0.707D-01 0.198D+00 0.362D+00 0.495D+00
 Gap=     0.129 Goal=   None    Shift=    0.000
 Gap=     0.036 Goal=   None    Shift=    0.000
 RMSDP=8.52D-04 MaxDP=6.03D-02 DE=-3.17D-01 OVMax= 2.55D-01

 Cycle  11  Pass 1  IDiag  1:
 RMSU=  6.41D-04    CP:  8.92D-01 -5.96D-03  1.12D-01  3.88D-01  1.19D-01
                    CP:  4.68D-01  4.29D-01  7.30D-01  3.26D-01  4.60D-01
 E= -3221.36465559911     Delta-E=       -0.060740442079 Rises=F Damp=F
 DIIS: error= 9.20D-03 at cycle  11 NSaved=  11.
 NSaved=11 IEnMin=11 EnMin= -3221.36465559911     IErMin=11 ErrMin= 9.20D-03
 ErrMax= 9.20D-03  0.00D+00 EMaxC= 1.00D-01 BMatC= 9.68D-02 BMatP= 3.10D-01
 IDIUse=3 WtCom= 9.08D-01 WtEn= 9.20D-02
 Coeff-Com: -0.105D-01 0.268D-01-0.162D-02-0.110D-01-0.414D-03-0.215D-01
 Coeff-Com: -0.616D-01-0.111D+00 0.111D+00 0.356D+00 0.724D+00
 Coeff-En:   0.000D+00 0.000D+00 0.000D+00 0.000D+00 0.000D+00 0.000D+00
 Coeff-En:   0.000D+00 0.000D+00 0.000D+00 0.131D+00 0.869D+00
 Coeff:     -0.954D-02 0.244D-01-0.147D-02-0.995D-02-0.376D-03-0.195D-01
 Coeff:     -0.560D-01-0.101D+00 0.101D+00 0.335D+00 0.737D+00
 Gap=     0.111 Goal=   None    Shift=    0.000
 Gap=     0.033 Goal=   None    Shift=    0.000
 RMSDP=4.94D-04 MaxDP=5.58D-02 DE=-6.07D-02 OVMax= 1.37D-01

 Cycle  12  Pass 1  IDiag  1:
 RMSU=  3.84D-04    CP:  8.93D-01 -2.69D-03  1.10D-01  3.79D-01  1.24D-01
                    CP:  4.54D-01  4.73D-01  6.62D-01  4.03D-01  5.89D-01
                    CP:  8.77D-01
 E= -3221.38352532496     Delta-E=       -0.018869725850 Rises=F Damp=F
 DIIS: error= 2.19D-03 at cycle  12 NSaved=  12.
 NSaved=12 IEnMin=12 EnMin= -3221.38352532496     IErMin=12 ErrMin= 2.19D-03
 ErrMax= 2.19D-03  0.00D+00 EMaxC= 1.00D-01 BMatC= 2.36D-02 BMatP= 9.68D-02
 IDIUse=3 WtCom= 9.78D-01 WtEn= 2.19D-02
 Coeff-Com: -0.803D-02 0.164D-01-0.452D-03-0.315D-02-0.123D-02-0.525D-02
 Coeff-Com: -0.192D-01-0.708D-01 0.125D-01 0.137D+00 0.450D+00 0.493D+00
 Coeff-En:   0.000D+00 0.000D+00 0.000D+00 0.000D+00 0.000D+00 0.000D+00
 Coeff-En:   0.000D+00 0.000D+00 0.000D+00 0.000D+00 0.214D+00 0.786D+00
 Coeff:     -0.786D-02 0.161D-01-0.442D-03-0.308D-02-0.121D-02-0.514D-02
 Coeff:     -0.188D-01-0.692D-01 0.122D-01 0.134D+00 0.445D+00 0.499D+00
 Gap=     0.111 Goal=   None    Shift=    0.000
 Gap=     0.037 Goal=   None    Shift=    0.000
 RMSDP=2.52D-04 MaxDP=2.62D-02 DE=-1.89D-02 OVMax= 4.60D-02

 Cycle  13  Pass 1  IDiag  1:
 RMSU=  2.00D-04    CP:  8.92D-01 -5.04D-03  1.12D-01  3.78D-01  1.21D-01
                    CP:  4.61D-01  4.53D-01  6.67D-01  3.87D-01  5.76D-01
                    CP:  9.66D-01  7.23D-01
 E= -3221.38958570240     Delta-E=       -0.006060377445 Rises=F Damp=F
 DIIS: error= 9.32D-04 at cycle  13 NSaved=  13.
 NSaved=13 IEnMin=13 EnMin= -3221.38958570240     IErMin=13 ErrMin= 9.32D-04
 ErrMax= 9.32D-04  0.00D+00 EMaxC= 1.00D-01 BMatC= 3.89D-03 BMatP= 2.36D-02
 IDIUse=3 WtCom= 9.91D-01 WtEn= 9.32D-03
 Coeff-Com: -0.567D-02 0.969D-02 0.172D-03 0.684D-03-0.730D-03-0.470D-03
 Coeff-Com: -0.921D-02-0.181D-01-0.183D-02 0.493D-01 0.129D+00 0.291D+00
 Coeff-Com:  0.556D+00
 Coeff-En:   0.000D+00 0.000D+00 0.000D+00 0.000D+00 0.000D+00 0.000D+00
 Coeff-En:   0.000D+00 0.000D+00 0.000D+00 0.000D+00 0.000D+00 0.160D-01
 Coeff-En:   0.984D+00
 Coeff:     -0.562D-02 0.960D-02 0.171D-03 0.677D-03-0.723D-03-0.466D-03
 Coeff:     -0.913D-02-0.179D-01-0.182D-02 0.488D-01 0.127D+00 0.289D+00
 Coeff:      0.560D+00
 Gap=     0.110 Goal=   None    Shift=    0.000
 Gap=     0.039 Goal=   None    Shift=    0.000
 RMSDP=1.14D-04 MaxDP=1.12D-02 DE=-6.06D-03 OVMax= 5.30D-02

 Cycle  14  Pass 1  IDiag  1:
 RMSU=  9.32D-05    CP:  8.92D-01 -3.40D-03  1.11D-01  3.80D-01  1.20D-01
                    CP:  4.57D-01  4.50D-01  6.67D-01  3.86D-01  5.81D-01
                    CP:  9.47D-01  8.68D-01  1.11D+00
 E= -3221.39089720994     Delta-E=       -0.001311507541 Rises=F Damp=F
 DIIS: error= 8.78D-04 at cycle  14 NSaved=  14.
 NSaved=14 IEnMin=14 EnMin= -3221.39089720994     IErMin=14 ErrMin= 8.78D-04
 ErrMax= 8.78D-04  0.00D+00 EMaxC= 1.00D-01 BMatC= 1.21D-03 BMatP= 3.89D-03
 IDIUse=3 WtCom= 9.91D-01 WtEn= 8.78D-03
 Coeff-Com: -0.365D-02 0.587D-02 0.135D-03 0.136D-02-0.490D-03 0.153D-02
 Coeff-Com: -0.600D-02-0.568D-03 0.287D-03 0.326D-01 0.189D-01 0.783D-01
 Coeff-Com:  0.284D+00 0.587D+00
 Coeff-En:   0.000D+00 0.000D+00 0.000D+00 0.000D+00 0.000D+00 0.000D+00
 Coeff-En:   0.000D+00 0.000D+00 0.000D+00 0.000D+00 0.000D+00 0.000D+00
 Coeff-En:   0.000D+00 0.100D+01
 Coeff:     -0.362D-02 0.582D-02 0.133D-03 0.135D-02-0.486D-03 0.151D-02
 Coeff:     -0.595D-02-0.563D-03 0.284D-03 0.323D-01 0.188D-01 0.776D-01
 Coeff:      0.282D+00 0.591D+00
 Gap=     0.109 Goal=   None    Shift=    0.000
 Gap=     0.040 Goal=   None    Shift=    0.000
 RMSDP=8.18D-05 MaxDP=7.59D-03 DE=-1.31D-03 OVMax= 4.25D-02

 Cycle  15  Pass 1  IDiag  1:
 RMSU=  4.49D-05    CP:  8.92D-01 -3.70D-03  1.12D-01  3.80D-01  1.20D-01
                    CP:  4.58D-01  4.45D-01  6.64D-01  3.85D-01  5.84D-01
                    CP:  9.35D-01  9.17D-01  1.37D+00  1.33D+00
 E= -3221.39146937815     Delta-E=       -0.000572168205 Rises=F Damp=F
 DIIS: error= 4.69D-04 at cycle  15 NSaved=  15.
 NSaved=15 IEnMin=15 EnMin= -3221.39146937815     IErMin=15 ErrMin= 4.69D-04
 ErrMax= 4.69D-04  0.00D+00 EMaxC= 1.00D-01 BMatC= 6.03D-04 BMatP= 1.21D-03
 IDIUse=3 WtCom= 9.95D-01 WtEn= 4.69D-03
 Coeff-Com:  0.863D-03-0.138D-02-0.272D-04 0.631D-03-0.496D-03 0.141D-02
[...]
 00264179,0.00246985,-0.00260488,0.00011245,-0.00033634,0.00024546,0.00
 013910,-0.00040660,-0.00031693,0.00006653,-0.00022190,0.00001850,-0.00
 004726,-0.00003294,-0.00001545,-0.00025323,-0.00003069,0.00007297,0.00
 000972,0.00000489,0.00000490,0.00000438,-0.00000560,0.00000314,-0.0000
 0066,0.00000444,-0.00000200,-0.00000039,0.00000084,-0.00000082,0.00000
 024,-0.00000100,0.00000030,0.00000024,0.00000012,0.00000003,-0.0000016
 5,0.00000125,-0.00000077,-0.00000057,-0.00000089,-0.00000131,0.0000015
 9,0.00000148,0.00000019,0.00000122,0.00000089,-0.00000073,0.00000076,0
 .00000045,0.00000089,-0.00000040,-0.00000028,0.00000136,-0.00000031,0.
 ,0.00000142,0.00000399,0.00000203,0.00000797,-0.00001119,-0.00001101,0
 .00001073,0.00009042,-0.00042206,0.00008987,-0.00017508,0.00029796,0.0
 0092231,-0.00490600,0.02569136,0.05273423,0.00000211,0.00000464,-0.000
 00470,0.00001350,-0.00001220,0.00000320,0.00000123,0.00002939,-0.00003
 389,0.00015105,-0.00004836,-0.00009768,0.00111840,0.00030700,0.0015234
 7,0.00517162,0.00558289,0.01694453,-0.00232530,-0.00178370,0.00230760,
 -0.00027441,-0.00007195,0.00033683,-0.00608947,0.00255186,0.00145562,0
 .00030656,-0.00050533,-0.00171600,-0.00025599,-0.00000748,0.00001740,0
 .00002925,0.00002410,0.00008048,-0.00009600,0.00000195,-0.00000223,0.0
 0018329,0.00003716,-0.00002419,-0.00001331,-0.00003164,0.00000718,0.00
 000809,0.00002551,0.00000478,0.00002061,-0.00001842,0.00000625,-0.0000
 1291,-0.00001604,0.00000882,-0.00002531,-0.00000035,0.00000125,-0.0000
 1787,0.00000539,0.00000018,0.00000444,-0.00001769,0.00002341,-0.000178
 81,-0.00002780,-0.00000701,-0.00004805,-0.00005003,0.00013909,0.000010
 73,-0.00004824,-0.00018675,0.00008277,0.00007495,0.00017779,0.00004061
 ,0.00005271,-0.00002556,-0.00001510,-0.00001642,-0.00008290,0.00000365
 ,0.00000747,0.00006561,-0.00000143,-0.00000948,-0.00008162,-0.00003338
 ,-0.00002293,0.00003455,0.00001487,0.00001200,0.00001724,-0.00001827,-
 0.00001646,-0.00000278,-0.00000923,0.00002235,-0.00000857,0.00013013,-
 0.00006447,-0.00000357,-0.00012313,0.00013517,-0.00002997,-0.00003035,
 -0.00008017,0.00014150,-0.00039886,0.00020715,0.00002077,-0.01134109,-
 0.00851923,-0.03035196,-0.07503427,-0.02087558,-0.07749028,-0.00000050
 ,0.00000025,0.00000014,0.00000233,-0.00000060,-0.00000004,-0.00000058,
 -0.00000020,-0.00000032,0.00000485,0.00000112,-0.00000584,0.00000102,0
 .00000322,-0.00000006,-0.00000091,-0.00000203,-0.00000106,-0.00001637,
 -0.00000322,-0.00001449,0.00000662,0.00002495,-0.00000156,0.00006251,0
 .00003032,-0.00002988,-0.00006310,0.00001570,-0.00001206,-0.00036156,-
 0.00024278,-0.00016223,0.00056342,0.00020596,-0.00063421,0.00042374,-0
 .00005341,0.00114551,-0.00008504,-0.00005122,-0.00019894,0.00009954,0.
 00004168,-0.00005448,0.00012995,0.00002052,-0.00010836,0.00016485,-0.0
 0002622,0.00037173,0.00004144,0.00004093,-0.00004771,-0.00003296,0.000
 02801,-0.00000382,0.00000420,-0.00001554,0.00000540,0.00000278,-0.0000
 0229,0.00000167,-0.00000187,0.00000461,-0.00000215,-0.00000127,-0.0000
 0073,-0.00000071,0.00000680,-0.00000532,0.00000286,0.00000260,0.000001
 87,0.00000478,-0.00000507,-0.00000593,-0.00000068,-0.00000391,-0.00000
 366,0.00000261,-0.00000261,-0.00000209,-0.00000308,0.00000141,0.000000
 64,-0.00000565,0.00000168,-0.00000010,-0.00000526,-0.00003699,-0.00000
 342,-0.00002526,0.00002949,-0.00000111,-0.00005866,0.00103707,-0.00057
 334,0.00037688,0.00127495,0.00024840,0.00024835,0.00092366,0.00040177,
 0.00336463,0.08489810,0.00000012,0.00000313,-0.00000608,0.00001549,-0.
 00000062,0.00001278,0.00000019,0.00001209,-0.00006833,0.00022497,-0.00
 005658,0.00008788,0.00057386,0.00004283,-0.00017679,0.00482311,0.00323
 926,0.01570536,-0.00201982,-0.00097896,0.00136992,-0.00017831,-0.00008
 269,-0.00022594,0.00137898,-0.00010814,-0.00031250,0.00003368,0.000486
 09,0.00022224,-0.00004287,0.00001877,-0.00001990,-0.00002050,0.0000208
 4,-0.00000548,0.00002404,0.00000066,0.00000732,0.00000136,0.00000521,0
 .00000087,0.00000855,-0.00000677,0.00000119,-0.00000680,0.00000155,-0.
 00000192,0.00000674,-0.00000407,0.00000140,-0.00000533,-0.00000180,0.0
 0000147,-0.00000017,0.00000246,-0.00000160,-0.00000052,-0.00000203,0.0
 0000112,0.00000123,0.00000152,0.00000142,-0.00001693,-0.00000176,-0.00
 000004,-0.00000390,-0.00000441,0.00001204,0.00000047,-0.00000320,-0.00
 001526,0.00000689,0.00000444,0.00001505,0.00000363,0.00000449,-0.00000
 261,-0.00000115,-0.00000157,-0.00000738,0.00000021,0.00000054,0.000005
 90,-0.00000015,-0.00000070,-0.00000713,-0.00000277,-0.00000185,0.00000
 321,0.00000130,0.00000106,0.00000130,-0.00000163,-0.00000118,-0.000000
 29,-0.00000027,0.00000121,-0.00000072,0.00001685,-0.00000893,0.0000015
 7,-0.00001505,0.00001413,-0.00000375,0.00000482,0.00001643,-0.00003480
 ,0.00011303,-0.00005383,-0.00000454,0.00363679,0.00128449,0.00893580,-
 0.02136534,-0.06503392,-0.05955961,0.00000082,-0.00000217,-0.00000184,
 0.00000235,-0.00000083,0.00000160,0.00000092,0.00000276,0.00000153,-0.
 00000075,-0.00000320,0.00000271,-0.00000215,-0.00000542,0.00000167,0.0
 0000336,-0.00000926,-0.00000582,0.00000099,0.00001407,0.00000663,-0.00
 000234,-0.00004363,0.00002368,0.00000611,-0.00003008,0.00000623,-0.000
 07214,0.00001112,-0.00010365,0.00009832,0.00024153,-0.00019610,0.00067
 990,0.00071382,-0.00008179,0.00010382,0.00040779,0.00078492,-0.0000134
 7,0.00032913,0.00038460,0.00000050,-0.00001078,-0.00003233,0.00002172,
 -0.00001607,-0.00005047,0.00015632,0.00041303,0.00036407,-0.00000344,-
 0.00002989,0.00001134,-0.00000477,0.00000127,0.00000210,0.00000029,-0.
 00000150,0.00000225,-0.00000010,-0.00000051,0.00000055,0.00000012,0.00
 000017,0.00000003,-0.00000006,0.00000003,0.00000007,0.00000055,-0.0000
 0046,0.00000021,0.00000017,0.00000039,0.00000051,-0.00000062,-0.000000
 56,-0.00000012,-0.00000043,-0.00000034,0.00000027,-0.00000018,-0.00000
 017,-0.00000031,0.00000026,0.00000002,-0.00000029,0.00000006,-0.000000
 15,-0.00000061,0.00000578,-0.00000261,0.00000002,0.00000984,0.00000489
 ,0.00001868,-0.00039512,0.00009433,-0.00028975,-0.00041424,0.00057966,
 0.00050210,-0.01045623,-0.00627018,-0.02780940,0.02307910,0.06480176,-
 0.00000123,-0.00000069,-0.00000700,0.00000507,-0.00000524,0.00000310,0
 .00001036,0.00000541,-0.00002834,0.00021536,0.00022060,0.00043826,-0.0
 0178359,-0.00034106,0.00018996,-0.00745101,-0.00638531,-0.02158808,0.0
 0399268,0.00353843,-0.00168327,0.00053132,-0.00018672,0.00044917,-0.00
 022754,0.00040672,0.00161554,0.00018767,-0.00010262,-0.00007798,-0.000
 11427,-0.00003021,-0.00002489,0.00002167,0.00001393,0.00000611,-0.0000
 1438,-0.00002101,0.00000214,0.00008212,0.00002296,-0.00000790,0.000008
 77,-0.00002137,0.00000646,-0.00000732,0.00001340,0.00000032,0.00001859
 ,-0.00001308,0.00000551,-0.00001339,-0.00000916,0.00000661,-0.00001099
 ,0.00000393,-0.00000159,-0.00000817,-0.00000060,0.00000191,0.00000343,
 -0.00000494,0.00001152,-0.00009945,-0.00001489,-0.00000278,-0.00002650
 ,-0.00002783,0.00007704,0.00000370,-0.00002630,-0.00010358,0.00004683,
 0.00004167,0.00009918,0.00002292,0.00002939,-0.00001442,-0.00000820,-0
 .00000903,-0.00004622,0.00000181,0.00000388,0.00003665,-0.00000101,-0.
 00000499,-0.00004479,-0.00001802,-0.00001205,0.00001954,0.00000806,0.0
 0000676,0.00000863,-0.00000990,-0.00000824,-0.00000146,-0.00000468,0.0
 0001093,-0.00000503,0.00007828,-0.00004173,0.00000065,-0.00007425,0.00
 008027,-0.00001868,-0.00003045,0.00000129,0.00000278,-0.00003286,0.000
 09320,-0.00003373,-0.00014852,-0.00006476,-0.00084826,-0.07705695,-0.0
 5734331,-0.25860564,0.00000058,0.00000122,-0.00000255,-0.00000132,-0.0
 0000244,0.00000258,0.00000651,0.00000326,0.00000605,-0.00000936,0.0000
 0066,0.00001810,-0.00000296,-0.00000065,-0.00000413,0.00000365,-0.0000
 0148,-0.00000074,0.00006010,0.00001330,0.00003706,-0.00002149,-0.00001
 068,-0.00004817,-0.00022266,-0.00008193,0.00025874,0.00001292,0.000081
 56,0.00005453,0.00108014,-0.00001811,0.00081941,-0.00022034,0.00040479
 ,0.00088004,-0.00071189,-0.00018408,-0.00148580,0.00007801,-0.00005993
 ,0.00034572,-0.00005530,0.00006329,-0.00001614,-0.00011707,-0.00003692
 ,0.00001456,0.00008064,-0.00000406,0.00008129,0.00001826,-0.00001908,-
 0.00001053,-0.00001499,0.00001285,-0.00000126,0.00000243,-0.00001008,0
 .00000309,0.00000116,-0.00000236,0.00000051,-0.00000072,0.00000210,-0.
 00000155,-0.00000089,-0.00000042,-0.00000053,0.00000369,-0.00000319,0.
 00000135,0.00000154,0.00000102,0.00000283,-0.00000295,-0.00000347,-0.0
 0000043,-0.00000223,-0.00000216,0.00000158,-0.00000120,-0.00000120,-0.
 00000179,0.00000125,0.00000025,-0.00000252,0.00000086,-0.00000057,-0.0
 0000350,-0.00000918,-0.00000304,-0.00000672,0.00001311,0.00000714,-0.0
 0000232,-0.00042057,0.00000094,0.00063626,-0.00014747,0.00041790,0.000
 29334,-0.00022514,-0.00091352,-0.00152732,0.08273440,0.06052921,0.2798
 4980,0.00000039,0.00000133,-0.00000106,0.00000016,-0.00000249,0.000003
 56,-0.00000006,0.00000279,-0.00000191,0.00000224,-0.00000365,0.0000050
 7,0.00000091,0.00000428,-0.00000877,0.00000589,-0.00000777,0.00001834,
 0.00000517,-0.00000277,0.00000903,-0.00002070,0.00001085,-0.00001919,0
 .00001705,-0.00004103,-0.00003918,-0.00010094,-0.00022946,-0.00007609,
 -0.00031019,0.00020174,-0.00004176,0.00017543,0.00013665,-0.00031312,-
 0.00002478,-0.00016771,-0.00000618,0.00117208,-0.00017078,0.00071782,-
 0.00024830,-0.00035551,-0.00009030,-0.00022384,-0.00013078,0.00000963,
 0.00007808,0.00018932,-0.00007383,0.00023583,-0.00004151,-0.00001993,-
 0.00009525,-0.00039503,-0.00006287,-0.00010230,0.00027973,0.00021845,-
 0.00000911,0.00059384,-0.00002684,-0.00206597,-0.00034320,-0.00323794,
 0.00104193,0.00369701,0.01000970,-0.03614212,-0.01337128,-0.02808370,-
 0.07291329,0.04174642,0.02456117,0.00654357,0.00428592,0.00097637,-0.0
 0108472,-0.00115867,-0.00534540,0.00150558,0.00153615,0.00350042,-0.00
 094819,-0.00119029,-0.00417448,-0.00131501,-0.00079931,0.00240245,0.00
 054156,0.00074102,0.00090476,-0.00008158,-0.00034761,0.00065040,-0.003
 21061,-0.00183869,-0.00141429,0.00276005,-0.00086330,-0.00361819,-0.00
 890276,0.00789757,0.02695453,-0.00018339,0.00037581,0.00012049,0.00006
 701,-0.00013873,0.00002418,-0.00007579,-0.00001431,0.00010058,-0.00000
 425,0.00000270,-0.00004830,-0.00000034,-0.00000032,0.00000076,0.000002
 47,0.00000094,-0.00000113,-0.00000066,-0.00000072,-0.00000019,0.000000
 14,-0.00000039,-0.00000201,0.00000028,0.00000102,0.00000032,-0.0000000
 5,0.00000043,0.00000040,-0.00000100,-0.00000060,-0.00000169,0.00000051
 ,0.00000145,0.00000070,0.00000101,-0.00000047,-0.00000436,0.00000046,0
 .00000041,0.00000106,-0.00000491,-0.00000083,-0.00000387,0.00000070,0.
 00000147,-0.00000139,-0.00000246,0.00000307,-0.00000763,-0.00000406,0.
 00000066,0.00000022,0.00000758,0.00000799,0.00000178,0.00000687,-0.000
 00223,-0.00001780,-0.00001286,0.00001150,0.00000007,-0.00003807,-0.000
 01995,0.00005228,0.00002620,-0.00001400,0.00006537,0.00002219,-0.00011
 899,0.00005195,-0.00002635,-0.00000387,0.00004010,0.00002543,0.0000123
 2,0.00005633,0.00003021,-0.00003671,-0.00001567,0.00010462,0.00002415,
 0.00012949,-0.00035283,-0.00021229,0.00019605,0.00011819,0.00022488,0.
 00016549,-0.00001067,-0.00005321,-0.00000773,0.00000817,-0.00003814,0.
 00003383,0.00005759,0.00004592,-0.00003088,0.00007356,-0.00013044,-0.0
 0007535,-0.00001612,-0.00022624,-0.00022543,-0.00002847,0.00003050,0.0
 0005644,0.00001624,0.00004156,-0.00003406,0.00000040,-0.00000640,0.000
 00608,0.00000216,0.00000016,0.00000372,-0.00002064,-0.00000006,-0.0000
 0749,0.11392470,-0.00000060,0.00000216,-0.00000076,0.00000062,0.000000
 99,0.00000217,-0.00000219,0.00000549,-0.00000071,0.00000248,0.00000124
 ,0.00000220,-0.00000301,0.00000968,0.00000062,0.00000346,-0.00000117,-
 0.00000055,-0.00000305,0.00001658,-0.00000524,0.00001533,-0.00000785,0
 .00001950,-0.00002669,0.00003633,0.00000691,0.00000567,-0.00002766,0.0
 0001701,-0.00012093,-0.00006176,-0.00008228,0.00003565,-0.00001972,-0.
 00016559,-0.00003801,0.00006900,-0.00012553,0.00032284,-0.00103082,0.0
 0097374,0.00030258,-0.00072658,0.00017805,-0.00032338,0.00020744,-0.00
 015720,0.00053074,-0.00044495,0.00015257,-0.00047383,-0.00015850,0.000
 12088,-0.00007190,0.00022829,-0.00012500,-0.00000217,-0.00022652,-0.00
 001862,0.00037627,-0.00030084,0.00014466,0.00010443,-0.00005213,0.0018
 0227,-0.00079007,-0.00037477,-0.00168586,0.00350655,0.00282492,0.00500
 004,0.03465330,-0.01538269,-0.00653344,-0.00224190,-0.00161097,-0.0016
 2553,-0.00016667,-0.00032190,0.00072576,-0.00024723,-0.00029946,-0.000
 24358,0.00012579,0.00009893,0.00021606,-0.00000846,-0.00004508,-0.0001
 7339,0.00008792,-0.00007553,-0.00005165,-0.00008037,-0.00009763,-0.000
 24684,0.00059573,0.00061277,0.00005296,-0.00031913,-0.00214307,0.00850
 607,0.00392463,-0.00209702,-0.02001371,0.00002621,0.00014146,0.0000412
 0,0.00003632,0.00000300,0.00005770,0.00002995,0.00001987,-0.00002705,-
 0.00000925,0.00001770,0.00001048,0.00000073,-0.00000259,-0.00000025,0.
 00000104,0.00000041,0.00000017,0.00000006,0.00000049,-0.00000002,-0.00
 000021,0.00000054,-0.00000045,0.00000012,-0.00000320,-0.00000021,0.000
 00180,-0.00000444,-0.00000087,0.00000042,0.00000072,0.,-0.00000051,-0.
 00000533,0.00000003,-0.00000099,0.00000070,0.00000040,0.00000243,-0.00
 000739,-0.00000323,0.00000152,0.00000169,0.00000104,-0.00000278,-0.000
 01184,0.00000141,0.00000741,0.00000054,-0.00000082,0.00000575,-0.00001
 194,-0.00000018,-0.00000596,-0.00001581,0.00000127,-0.00000351,0.00000
 097,-0.00000004,0.00002132,-0.00003372,-0.00001352,-0.00001124,-0.0000
 0199,0.00001579,-0.00002164,-0.00010663,0.00007182,0.00001294,-0.00004
 328,0.00008106,-0.00000739,-0.00000620,0.00001047,-0.00000532,0.000008
 05,0.00000638,0.00001814,0.00001307,0.00002201,0.00002077,-0.00000257,
 0.00001066,0.00007402,0.00024544,0.00007170,-0.00017552,-0.00008002,-0
 .00011447,-0.00002467,0.00000395,0.00000791,-0.00001966,0.00001923,-0.
 00001210,-0.00002068,0.00000891,-0.00002199,-0.00003809,0.00005540,-0.
 00002927,-0.00001777,0.00002663,-0.00010796,0.00006629,-0.00004077,-0.
 00003409,-0.00000916,0.00001956,0.00000623,-0.00001529,-0.00003359,0.0
 0000739,0.00001344,-0.00001868,-0.00000916,0.00000640,0.00000383,0.000
 00220,-0.03963187,0.02123065,0.00000105,-0.00000350,0.00000508,-0.0000
 0141,0.00000656,-0.00000353,0.00000670,-0.00000732,0.00000864,-0.00000
 492,0.00001209,0.00000022,0.00001093,-0.00000878,0.00000038,-0.0000002
 9,0.00001944,0.00002055,0.00001432,-0.00002222,0.00002823,-0.00004995,
 0.00003288,-0.00007253,0.00008591,-0.00009275,-0.00000888,-0.00006601,
 -0.00020131,-0.00013425,-0.00029442,0.00001465,-0.00005431,0.00005318,
 0.00019777,0.00008883,0.00124027,-0.00048279,-0.00017970,-0.00220879,-
 0.00519239,0.00435167,-0.00380582,0.00246129,-0.00128242,0.00130133,-0
 .00265020,0.00123629,-0.00250683,0.00240556,-0.00097684,0.00221867,0.0
 0004420,-0.00027940,0.00050895,-0.00078791,0.00009434,0.00089102,-0.00
 026293,0.00040292,0.00015142,0.00390238,-0.00251013,0.00606411,-0.0078
 0694,0.00088475,-0.00307730,0.00192587,0.00013278,-0.01237275,-0.00019
 563,-0.00395109,0.01807099,-0.00699862,-0.00298509,0.00083560,0.000607
 29,0.00079275,-0.00013506,0.00017716,-0.00113134,0.00036978,0.00046300
 ,0.00040966,-0.00019193,-0.00036051,-0.00089769,-0.00036513,-0.0002290
 2,0.00054406,0.00007457,0.00037202,0.00025270,-0.00000666,-0.00036578,
 0.00013696,-0.00070056,-0.00075025,-0.00087200,-0.00915327,0.03298982,
 -0.03451535,0.02758340,-0.03215497,-0.08144893,-0.00001500,0.00093657,
 0.00022826,0.00023295,-0.00029397,0.00011121,-0.00009888,-0.00000254,0
 .00011776,0.00001535,-0.00001115,-0.00004740,-0.00000011,0.00000146,-0
 .00000006,-0.00000457,-0.00000059,0.00000163,-0.00000113,-0.00000006,-
 0.00000375,-0.00000023,-0.00000109,-0.00000314,0.00000010,-0.00000050,
 0.00000106,-0.00000126,0.00000172,0.00000094,-0.00000480,-0.00000101,-
 0.00000589,0.00000072,-0.00000080,0.00000137,0.00000410,-0.00000191,-0
 .00000997,-0.00000116,0.00000158,0.00000433,-0.00001395,-0.00000226,-0
 .00001373,0.00000236,-0.00000242,-0.00000269,-0.00003185,-0.00000391,0
 .00000232,-0.00000756,0.00000819,-0.00000619,0.00001034,0.00001122,0.0
 0000383,0.00001073,0.00000201,-0.00002593,-0.00001900,0.00001854,-0.00
 000063,-0.00006992,-0.00004730,0.00001721,0.00003411,-0.00004486,-0.00
 001001,0.00006685,-0.00038161,0.00011633,-0.00000446,0.00004358,0.0000
 1752,0.00004387,0.00001078,0.00004612,-0.00002310,-0.00005963,0.000029
 58,0.00002671,0.00009327,0.00013833,0.00007045,-0.00014698,-0.00007350
 ,0.00006375,0.00006203,0.00006353,0.00002461,-0.00001744,-0.00000947,0
 .00002889,-0.00002415,0.00002551,-0.00000288,0.00002893,0.00000563,0.0
 0008015,-0.00011264,0.00001101,0.00000987,-0.00048490,-0.00038392,-0.0
 0002649,0.00005020,0.00005030,0.00001890,0.00003080,-0.00000724,0.0000
 0480,-0.00000066,0.00000847,-0.00000458,0.00000670,0.00001101,-0.00005
 035,-0.00000566,-0.00002827,-0.02490940,0.01328233,0.12153124\\-0.0000
 0479,0.00000251,-0.00000226,0.00000483,-0.00000593,0.00000680,-0.00000
 381,0.00000631,-0.00000701,0.00000242,-0.00000851,0.00000769,-0.000001
 65,0.00000762,-0.00000529,0.00000709,-0.00000342,-0.00000066,-0.000007
 34,0.00000352,0.00000038,0.00000623,-0.00000265,0.00000269,-0.00000403
 ,-0.00000090,-0.00000070,0.00000392,0.00000393,-0.00000025,0.00000178,
 -0.00000023,0.00000058,-0.00000222,0.00000142,0.00000002,-0.00000925,-
 0.00000216,-0.00000156,0.00001218,0.00000920,-0.00000128,-0.00000070,-
 0.00000069,-0.00000069,-0.00000745,-0.00000206,0.00000381,0.00000348,0
 .00000181,-0.00000110,0.00000052,0.00000177,0.00000053,0.00000022,-0.0
 0000204,0.00000093,-0.00000882,0.00000223,0.00000124,0.00001074,-0.000
 00008,0.00000051,0.00000596,0.00001283,-0.00000081,-0.00000765,-0.0000
 0593,-0.00002421,0.00001299,-0.00000047,0.00000977,-0.00001393,0.00001
 206,0.00001643,-0.00000752,-0.00000630,-0.00000316,-0.00000136,0.00000
 009,0.00000363,0.00000422,0.00000077,-0.00000945,-0.00000150,-0.000000
 02,0.00000607,0.00000041,0.00000082,-0.00000292,0.00000025,0.00000125,
 0.00000004,0.00000296,0.00000036,-0.00000988,-0.00000163,-0.00000284,0
 .00001827,-0.00001579,-0.00000738,0.00001023,0.00001680,-0.00001559,-0
 .00001478,0.00000609,-0.00000306,0.00000234,-0.00000515,-0.00000125,-0
 .00000053,0.00000526,-0.00000373,-0.00000014,-0.00000702,0.00000237,-0
 .00000067,0.00000057,-0.00000058,0.00000029,0.00000060,0.00000009,0.00
 000030,0.00000062,-0.00000057,0.00000088,-0.00000089,0.00000180,-0.000
 00159,-0.00000062,0.00000155,-0.00000101,0.00000076,-0.00000176,0.0000
 0112,0.00000079,-0.00000192,0.00000184,-0.00000042,0.00000169,-0.00000
 119,-0.00000095,0.00000194,-0.00000200,0.00000090,-0.00000160,0.000001
 02,0.00000017,-0.00000085,0.00000145,-0.00000074,-0.00000004,-0.000000
 13,0.00000157,-0.00000029,-0.00000138,0.00000149,-0.00000038,-0.000000
 48,-0.00000063,0.00000095,-0.00000019,-0.00000090,0.00000144,-0.000001
 10,0.00000025,0.00000014,-0.00000030,-0.00000117,-0.00000002,0.0000001
 8,0.00000213,-0.00000061,0.00000138,-0.00000071,0.00000040,0.00000103,
 -0.00000049,-0.00000038,0.00000125,-0.00000101,-0.00000052,0.00000112,
 0.00000066,0.00000140,0.00000040,0.00000120,0.00000239,-0.00000021,0.0
 0000216,0.00000198,0.00000020,0.00000078,-0.00000047,-0.00000134,0.000
 00086,0.00000016,-0.00000172,0.00000079,0.00000144,-0.00000117,-0.0000
 0126,-0.00000011,-0.00000033,-0.00000096,-0.00000071,0.00000143,-0.000
 00053,0.00000143,-0.00000044,0.00000060,0.00000080,-0.00000005,-0.0000
 0109,0.00000005,0.00000114,-0.00000130,0.00000010,0.00000033,0.0000009
 2,-0.00000116,-0.00000019,0.00000066,-0.00000184,0.00000099,-0.0000015
 8,-0.00000153,-0.00000613\\\@
 The archive entry for this job was punched.


 What some people mistake for the high cost
 of living is really the cost of living high.
                              -- Doug Larson
 Job cpu time:       0 days 19 hours 13 minutes 37.8 seconds.
 Elapsed time:       0 days  0 hours 36 minutes 15.0 seconds.
 File lengths (MBytes):  RWF=   6911 Int=      0 D2E=      0 Chk=     50 Scr=      1
 Normal termination of Gaussian 16 at Fri Mar 28 07:12:37 2025.
