 Entering Gaussian System, Link 0=g16
 Initial command:
 /public/software/apps/Gaussian/g16/l1.exe "/tmp/Gau-6192.inp" -scrdir="/tmp/"
 Entering Link 1 = /public/software/apps/Gaussian/g16/l1.exe PID=      6193.
  
 Copyright (c) 1988-2019, Gaussian, Inc.  All Rights Reserved.
  
 This is part of the Gaussian(R) 16 program.  It is based on
 the Gaussian(R) 09 system (copyright 2009, Gaussian, Inc.),
 the Gaussian(R) 03 system (copyright 2003, Gaussian, Inc.),
 the Gaussian(R) 98 system (copyright 1998, Gaussian, Inc.),
 the Gaussian(R) 94 system (copyright 1995, Gaussian, Inc.),
 the Gaussian 92(TM) system (copyright 1992, Gaussian, Inc.),
 the Gaussian 90(TM) system (copyright 1990, Gaussian, Inc.),
 the Gaussian 88(TM) system (copyright 1988, Gaussian, Inc.),
 the Gaussian 86(TM) system (copyright 1986, Carnegie Mellon
 University), and the Gaussian 82(TM) system (copyright 1983,
 Carnegie Mellon University). Gaussian is a federally registered
 trademark of Gaussian, Inc.
  
 This software contains proprietary and confidential information,
 including trade secrets, belonging to Gaussian, Inc.
  
 This software is provided under written license and may be
 used, copied, transmitted, or stored only in accord with that
 written license.
  
 The following legend is applicable only to US Government
 contracts under FAR:
  
                    RESTRICTED RIGHTS LEGEND
  
 Use, reproduction and disclosure by the US Government is
 subject to restrictions as set forth in subparagraphs (a)
 and (c) of the Commercial Computer Software - Restricted
 Rights clause in FAR 52.227-19.
  
 Gaussian, Inc.
 340 Quinnipiac St., Bldg. 40, Wallingford CT 06492
  
  
 ---------------------------------------------------------------
 Warning -- This program may not be used in any manner that
 competes with the business of Gaussian, Inc. or will provide
 assistance to any competitor of Gaussian, Inc.  The licensee
 of this program is prohibited from giving any competitor of
 Gaussian, Inc. access to this program.  By using this program,
 the user acknowledges that Gaussian, Inc. is engaged in the
 business of creating and licensing software in the field of
 computational chemistry and represents and warrants to the
 licensee that it is not a competitor of Gaussian, Inc. and that
 it will not use this program in any manner prohibited above.
 ---------------------------------------------------------------
  

 Cite this work as:
 Gaussian 16, Revision C.01,
 M. J. Frisch, G. W. Trucks, H. B. Schlegel, G. E. Scuseria, 
 M. A. Robb, J. R. Cheeseman, G. Scalmani, V. Barone, 
 G. A. Petersson, H. Nakatsuji, X. Li, M. Caricato, A. V. Marenich, 
 J. Bloino, B. G. Janesko, R. Gomperts, B. Mennucci, H. P. Hratchian, 
 J. V. Ortiz, A. F. Izmaylov, J. L. Sonnenberg, D. Williams-Young, 
 F. Ding, F. Lipparini, F. Egidi, J. Goings, B. Peng, A. Petrone, 
 T. Henderson, D. Ranasinghe, V. G. Zakrzewski, J. Gao, N. Rega, 
 G. Zheng, W. Liang, M. Hada, M. Ehara, K. Toyota, R. Fukuda, 
 J. Hasegawa, M. Ishida, T. Nakajima, Y. Honda, O. Kitao, H. Nakai, 
 T. Vreven, K. Throssell, J. A. Montgomery, Jr., J. E. Peralta, 
 F. Ogliaro, M. J. Bearpark, J. J. Heyd, E. N. Brothers, K. N. Kudin, 
 V. N. Staroverov, T. A. Keith, R. Kobayashi, J. Normand, 
 K. Raghavachari, A. P. Rendell, J. C. Burant, S. S. Iyengar, 
 J. Tomasi, M. Cossi, J. M. Millam, M. Klene, C. Adamo, R. Cammi, 
 J. W. Ochterski, R. L. Martin, K. Morokuma, O. Farkas, 
 J. B. Foresman, and D. J. Fox, Gaussian, Inc., Wallingford CT, 2019.
 
 ******************************************
 Gaussian 16:  ES64L-G16RevC.01  3-Jul-2019
                28-Mar-2025 
 ******************************************
 %nprocshared=32
 Will use up to   32 processors via shared memory.
 %mem=100GB
 ------------------------------------------
 #p opt freq b3lyp/def2svpp em=gd3bj nosymm
 ------------------------------------------
 1/18=20,19=15,26=3,38=1/1,3;
 2/9=110,12=2,15=1,17=6,18=5,40=1/2;
 3/5=43,7=202,11=2,25=1,30=1,71=1,74=-5,124=41/1,2,3;
 4//1;
 5/5=2,38=5/2;
 6/7=2,8=2,9=2,10=2,28=1/1;
 7/30=1/1,2,3,16;
 1/18=20,19=15,26=3/3(2);
 2/9=110,15=1/2;
 99//99;
 2/9=110,15=1/2;
 3/5=43,7=202,11=2,25=1,30=1,71=1,74=-5,124=41/1,2,3;
 4/5=5,16=3,69=1/1;
 5/5=2,38=5/2;
 7/30=1/1,2,3,16;
 1/18=20,19=15,26=3/3(-5);
 2/9=110,15=1/2;
 6/7=2,8=2,9=2,10=2,19=2,28=1/1;
 99/9=1/99;
 Leave Link    1 at Fri Mar 28 05:46:10 2025, MaxMem= 13421772800 cpu:               1.8 elap:               0.1
 (Enter /public/software/apps/Gaussian/g16/l101.exe)
 ------------------
 $$$$Title####0????
 ------------------
 Symbolic Z-matrix:
 Charge =  0 Multiplicity = 2
 O                     3.75392  -0.51996   2.74842 
 C                     4.83262   0.02506   2.05932 
 C                     5.97868   0.38995   2.76723 
 C                     7.06745   0.95437   2.10518 
 C                     7.01624   1.177     0.72274 
 C                     8.10813   1.76495   0.06474 
 C                     8.05522   2.0059   -1.30887 
 C                     6.9138    1.66846  -2.0361 
 C                     5.81921   1.08119  -1.39724 
 C                     5.85563   0.815    -0.01162 
 C                     4.76456   0.21005   0.66601 
 C                     3.53538  -0.22147  -0.05294 
 C                     2.3426    0.49379   0.16305 
 O                     2.32985   1.53937   1.08377 
 C                     1.16363   0.14583  -0.52183 
 C                    -0.09143   0.90808  -0.32091 
 C                    -0.1004    2.32032  -0.43223 
 C                    -1.28884   3.04603  -0.25498 
 C                    -2.45732   2.34199   0.02829 
 C                    -2.46533   0.96385   0.13385 
 C                    -1.29381   0.22493  -0.03921 
 C                    -3.85008   0.45942   0.43887 
 C                    -3.93041  -0.34862   1.70648 
 C                    -3.57737   0.03207   3.0037 
 C                    -3.73461  -0.89963   4.04295 
 C                    -4.23728  -2.18859   3.77529 
 C                    -4.58701  -2.55732   2.46607 
 C                    -4.4232   -1.61617   1.44939 
 C                    -4.69597  -1.72538   0.02785 
 C                    -5.19424  -2.8016   -0.70685 
 C                    -5.3601   -2.64026  -2.09205 
 C                    -5.02799  -1.41947  -2.71263 
 C                    -4.52726  -0.34912  -1.95339 
 C                    -4.36877  -0.52386  -0.57622 
 C                    -4.63176   1.74465   0.49071 
 C                    -5.99512   1.92386   0.7383 
 C                    -6.51129   3.23018   0.73773 
 C                    -5.6664    4.33091   0.49199 
 C                    -4.29788   4.13513   0.24465 
 C                    -3.80658   2.82943   0.25008 
 C                     1.17417  -0.94531  -1.40152 
 C                     2.34153  -1.69094  -1.60438 
 C                     2.32853  -2.78976  -2.47882 
 C                     3.48377  -3.54745  -2.67462 
 C                     4.65847  -3.22026  -1.99815 
 C                     4.68847  -2.12932  -1.12656 
 C                     3.53538  -1.34008  -0.92433 
 H                     6.02426   0.23656   3.838 
 H                     7.94648   1.22817   2.67673 
 H                     9.00047   2.04187   0.61367 
 H                     8.89959   2.46108  -1.81027 
 H                     6.87562   1.86473  -3.09991 
 H                     4.94872   0.84365  -1.99426 
 H                     0.80953   2.85615  -0.67192 
 H                    -1.29404   4.12445  -0.34273 
 H                    -1.31661  -0.85398   0.0531 
 H                    -3.19035   1.02284   3.20369 
 H                    -3.46736  -0.62577   5.05523 
 H                    -4.35409  -2.89903   4.58325 
 H                    -4.97241  -3.54623   2.25588 
 H                    -5.44651  -3.73773  -0.22649 
 H                    -5.74454  -3.45887  -2.68643 
 H                    -5.15871  -1.30578  -3.78085 
 H                    -4.26893   0.58996  -2.42537 
 H                    -6.63968   1.07501   0.92643 
 H                    -7.5644    3.39194   0.9272 
 H                    -6.07437   5.33328   0.49382 
 H                    -3.64556   4.97738   0.05546 
 H                     0.26731  -1.21152  -1.93374 
 H                     1.42365  -3.06497  -3.00777 
 H                     3.46678  -4.39419  -3.34864 
 H                     5.54988  -3.81578  -2.14774 
 H                     5.61615  -1.91514  -0.61276 
 Cu                    2.24997   0.73466   2.87186 
 
 ITRead=  0  0  0  0  0  0  0  0  0  0  0  0  0  0  0  0  0  0  0  0
 ITRead=  0  0  0  0  0  0  0  0  0  0  0  0  0  0  0  0  0  0  0  0
 ITRead=  0  0  0  0  0  0  0  0  0  0  0  0  0  0  0  0  0  0  0  0
 ITRead=  0  0  0  0  0  0  0  0  0  0  0  0  0  0
 MicOpt= -1 -1 -1 -1 -1 -1 -1 -1 -1 -1 -1 -1 -1 -1 -1 -1 -1 -1 -1 -1
 MicOpt= -1 -1 -1 -1 -1 -1 -1 -1 -1 -1 -1 -1 -1 -1 -1 -1 -1 -1 -1 -1
 MicOpt= -1 -1 -1 -1 -1 -1 -1 -1 -1 -1 -1 -1 -1 -1 -1 -1 -1 -1 -1 -1
 MicOpt= -1 -1 -1 -1 -1 -1 -1 -1 -1 -1 -1 -1 -1 -1
 NAtoms=     74 NQM=       74 NQMF=       0 NMMI=      0 NMMIF=      0
                NMic=       0 NMicF=      0.
                    Isotopes and Nuclear Properties:
 (Nuclear quadrupole moments (NQMom) in fm**2, nuclear magnetic moments (NMagM)
  in nuclear magnetons)

  Atom         1           2           3           4           5           6           7           8           9          10
 IAtWgt=          16          12          12          12          12          12          12          12          12          12
 AtmWgt=  15.9949146  12.0000000  12.0000000  12.0000000  12.0000000  12.0000000  12.0000000  12.0000000  12.0000000  12.0000000
 NucSpn=           0           0           0           0           0           0           0           0           0           0
 AtZEff=  -0.0000000  -0.0000000  -0.0000000  -0.0000000  -0.0000000  -0.0000000  -0.0000000  -0.0000000  -0.0000000  -0.0000000
 NQMom=    0.0000000   0.0000000   0.0000000   0.0000000   0.0000000   0.0000000   0.0000000   0.0000000   0.0000000   0.0000000
 NMagM=    0.0000000   0.0000000   0.0000000   0.0000000   0.0000000   0.0000000   0.0000000   0.0000000   0.0000000   0.0000000
 AtZNuc=   8.0000000   6.0000000   6.0000000   6.0000000   6.0000000   6.0000000   6.0000000   6.0000000   6.0000000   6.0000000

  Atom        11          12          13          14          15          16          17          18          19          20
 IAtWgt=          12          12          12          16          12          12          12          12          12          12
 AtmWgt=  12.0000000  12.0000000  12.0000000  15.9949146  12.0000000  12.0000000  12.0000000  12.0000000  12.0000000  12.0000000
 NucSpn=           0           0           0           0           0           0           0           0           0           0
 AtZEff=  -0.0000000  -0.0000000  -0.0000000  -0.0000000  -0.0000000  -0.0000000  -0.0000000  -0.0000000  -0.0000000  -0.0000000
 NQMom=    0.0000000   0.0000000   0.0000000   0.0000000   0.0000000   0.0000000   0.0000000   0.0000000   0.0000000   0.0000000
 NMagM=    0.0000000   0.0000000   0.0000000   0.0000000   0.0000000   0.0000000   0.0000000   0.0000000   0.0000000   0.0000000
 AtZNuc=   6.0000000   6.0000000   6.0000000   8.0000000   6.0000000   6.0000000   6.0000000   6.0000000   6.0000000   6.0000000

  Atom        21          22          23          24          25          26          27          28          29          30
 IAtWgt=          12          12          12          12          12          12          12          12          12          12
 AtmWgt=  12.0000000  12.0000000  12.0000000  12.0000000  12.0000000  12.0000000  12.0000000  12.0000000  12.0000000  12.0000000
 NucSpn=           0           0           0           0           0           0           0           0           0           0
 AtZEff=  -0.0000000  -0.0000000  -0.0000000  -0.0000000  -0.0000000  -0.0000000  -0.0000000  -0.0000000  -0.0000000  -0.0000000
 NQMom=    0.0000000   0.0000000   0.0000000   0.0000000   0.0000000   0.0000000   0.0000000   0.0000000   0.0000000   0.0000000
 NMagM=    0.0000000   0.0000000   0.0000000   0.0000000   0.0000000   0.0000000   0.0000000   0.0000000   0.0000000   0.0000000
 AtZNuc=   6.0000000   6.0000000   6.0000000   6.0000000   6.0000000   6.0000000   6.0000000   6.0000000   6.0000000   6.0000000

  Atom        31          32          33          34          35          36          37          38          39          40
 IAtWgt=          12          12          12          12          12          12          12          12          12          12
 AtmWgt=  12.0000000  12.0000000  12.0000000  12.0000000  12.0000000  12.0000000  12.0000000  12.0000000  12.0000000  12.0000000
 NucSpn=           0           0           0           0           0           0           0           0           0           0
 AtZEff=  -0.0000000  -0.0000000  -0.0000000  -0.0000000  -0.0000000  -0.0000000  -0.0000000  -0.0000000  -0.0000000  -0.0000000
 NQMom=    0.0000000   0.0000000   0.0000000   0.0000000   0.0000000   0.0000000   0.0000000   0.0000000   0.0000000   0.0000000
 NMagM=    0.0000000   0.0000000   0.0000000   0.0000000   0.0000000   0.0000000   0.0000000   0.0000000   0.0000000   0.0000000
 AtZNuc=   6.0000000   6.0000000   6.0000000   6.0000000   6.0000000   6.0000000   6.0000000   6.0000000   6.0000000   6.0000000

  Atom        41          42          43          44          45          46          47          48          49          50
 IAtWgt=          12          12          12          12          12          12          12           1           1           1
 AtmWgt=  12.0000000  12.0000000  12.0000000  12.0000000  12.0000000  12.0000000  12.0000000   1.0078250   1.0078250   1.0078250
 NucSpn=           0           0           0           0           0           0           0           1           1           1
 AtZEff=  -0.0000000  -0.0000000  -0.0000000  -0.0000000  -0.0000000  -0.0000000  -0.0000000  -0.0000000  -0.0000000  -0.0000000
 NQMom=    0.0000000   0.0000000   0.0000000   0.0000000   0.0000000   0.0000000   0.0000000   0.0000000   0.0000000   0.0000000
 NMagM=    0.0000000   0.0000000   0.0000000   0.0000000   0.0000000   0.0000000   0.0000000   2.7928460   2.7928460   2.7928460
 AtZNuc=   6.0000000   6.0000000   6.0000000   6.0000000   6.0000000   6.0000000   6.0000000   1.0000000   1.0000000   1.0000000

  Atom        51          52          53          54          55          56          57          58          59          60
 IAtWgt=           1           1           1           1           1           1           1           1           1           1
 AtmWgt=   1.0078250   1.0078250   1.0078250   1.0078250   1.0078250   1.0078250   1.0078250   1.0078250   1.0078250   1.0078250
 NucSpn=           1           1           1           1           1           1           1           1           1           1
 AtZEff=  -0.0000000  -0.0000000  -0.0000000  -0.0000000  -0.0000000  -0.0000000  -0.0000000  -0.0000000  -0.0000000  -0.0000000
 NQMom=    0.0000000   0.0000000   0.0000000   0.0000000   0.0000000   0.0000000   0.0000000   0.0000000   0.0000000   0.0000000
 NMagM=    2.7928460   2.7928460   2.7928460   2.7928460   2.7928460   2.7928460   2.7928460   2.7928460   2.7928460   2.7928460
 AtZNuc=   1.0000000   1.0000000   1.0000000   1.0000000   1.0000000   1.0000000   1.0000000   1.0000000   1.0000000   1.0000000

  Atom        61          62          63          64          65          66          67          68          69          70
 IAtWgt=           1           1           1           1           1           1           1           1           1           1
 AtmWgt=   1.0078250   1.0078250   1.0078250   1.0078250   1.0078250   1.0078250   1.0078250   1.0078250   1.0078250   1.0078250
 NucSpn=           1           1           1           1           1           1           1           1           1           1
 AtZEff=  -0.0000000  -0.0000000  -0.0000000  -0.0000000  -0.0000000  -0.0000000  -0.0000000  -0.0000000  -0.0000000  -0.0000000
 NQMom=    0.0000000   0.0000000   0.0000000   0.0000000   0.0000000   0.0000000   0.0000000   0.0000000   0.0000000   0.0000000
 NMagM=    2.7928460   2.7928460   2.7928460   2.7928460   2.7928460   2.7928460   2.7928460   2.7928460   2.7928460   2.7928460
 AtZNuc=   1.0000000   1.0000000   1.0000000   1.0000000   1.0000000   1.0000000   1.0000000   1.0000000   1.0000000   1.0000000

  Atom        71          72          73          74
 IAtWgt=           1           1           1          63
 AtmWgt=   1.0078250   1.0078250   1.0078250  62.9295992
 NucSpn=           1           1           1           3
 AtZEff=  -0.0000000  -0.0000000  -0.0000000  -0.0000000
 NQMom=    0.0000000   0.0000000   0.0000000 -22.0000000
 NMagM=    2.7928460   2.7928460   2.7928460   2.2233000
 AtZNuc=   1.0000000   1.0000000   1.0000000  29.0000000
 Leave Link  101 at Fri Mar 28 05:46:10 2025, MaxMem= 13421772800 cpu:               3.4 elap:               0.1
 (Enter /public/software/apps/Gaussian/g16/l103.exe)

 GradGradGradGradGradGradGradGradGradGradGradGradGradGradGradGradGradGrad
 Berny optimization.
 Initialization pass.
                           ----------------------------
                           !    Initial Parameters    !
                           ! (Angstroms and Degrees)  !
 --------------------------                            --------------------------
 ! Name  Definition              Value          Derivative Info.                !
 --------------------------------------------------------------------------------
 ! R1    R(1,2)                  1.3912         estimate D2E/DX2                !
 ! R2    R(1,74)                 1.9624         estimate D2E/DX2                !
 ! R3    R(2,3)                  1.3956         estimate D2E/DX2                !
 ! R4    R(2,11)                 1.4072         estimate D2E/DX2                !
 ! R5    R(3,4)                  1.3937         estimate D2E/DX2                !
 ! R6    R(3,48)                 1.0827         estimate D2E/DX2                !
 ! R7    R(4,5)                  1.4012         estimate D2E/DX2                !
 ! R8    R(4,49)                 1.0837         estimate D2E/DX2                !
 ! R9    R(5,6)                  1.4039         estimate D2E/DX2                !
 ! R10   R(5,10)                 1.4203         estimate D2E/DX2                !
 ! R11   R(6,7)                  1.3956         estimate D2E/DX2                !
 ! R12   R(6,50)                 1.0836         estimate D2E/DX2                !
 ! R13   R(7,8)                  1.3948         estimate D2E/DX2                !
 ! R14   R(7,51)                 1.0824         estimate D2E/DX2                !
 ! R15   R(8,9)                  1.3968         estimate D2E/DX2                !
 ! R16   R(8,52)                 1.0824         estimate D2E/DX2                !
 ! R17   R(9,10)                 1.4114         estimate D2E/DX2                !
 ! R18   R(9,53)                 1.0819         estimate D2E/DX2                !
 ! R19   R(10,11)                1.4197         estimate D2E/DX2                !
 ! R20   R(11,12)                1.4879         estimate D2E/DX2                !
 ! R21   R(12,13)                1.4075         estimate D2E/DX2                !
 ! R22   R(12,47)                1.418          estimate D2E/DX2                !
 ! R23   R(13,14)                1.3932         estimate D2E/DX2                !
 ! R24   R(13,15)                1.4072         estimate D2E/DX2                !
 ! R25   R(14,74)                1.9624         estimate D2E/DX2                !
 ! R26   R(15,16)                1.4821         estimate D2E/DX2                !
 ! R27   R(15,41)                1.4016         estimate D2E/DX2                !
 ! R28   R(16,17)                1.4167         estimate D2E/DX2                !
 ! R29   R(16,21)                1.4113         estimate D2E/DX2                !
 ! R30   R(17,18)                1.4037         estimate D2E/DX2                !
 ! R31   R(17,54)                1.0828         estimate D2E/DX2                !
 ! R32   R(18,19)                1.3933         estimate D2E/DX2                !
 ! R33   R(18,55)                1.082          estimate D2E/DX2                !
 ! R34   R(19,20)                1.3822         estimate D2E/DX2                !
 ! R35   R(19,40)                1.4517         estimate D2E/DX2                !
 ! R36   R(20,21)                1.3959         estimate D2E/DX2                !
 ! R37   R(20,22)                1.505          estimate D2E/DX2                !
 ! R38   R(21,56)                1.0831         estimate D2E/DX2                !
 ! R39   R(22,23)                1.5054         estimate D2E/DX2                !
 ! R40   R(22,34)                1.5054         estimate D2E/DX2                !
 ! R41   R(22,35)                1.5052         estimate D2E/DX2                !
 ! R42   R(23,24)                1.3973         estimate D2E/DX2                !
 ! R43   R(23,28)                1.3841         estimate D2E/DX2                !
 ! R44   R(24,25)                1.4046         estimate D2E/DX2                !
 ! R45   R(24,57)                1.0823         estimate D2E/DX2                !
 ! R46   R(25,26)                1.4092         estimate D2E/DX2                !
 ! R47   R(25,58)                1.0822         estimate D2E/DX2                !
 ! R48   R(26,27)                1.4044         estimate D2E/DX2                !
 ! R49   R(26,59)                1.0822         estimate D2E/DX2                !
 ! R50   R(27,28)                1.3951         estimate D2E/DX2                !
 ! R51   R(27,60)                1.082          estimate D2E/DX2                !
 ! R52   R(28,29)                1.4516         estimate D2E/DX2                !
 ! R53   R(29,30)                1.3951         estimate D2E/DX2                !
 ! R54   R(29,34)                1.3841         estimate D2E/DX2                !
 ! R55   R(30,31)                1.4044         estimate D2E/DX2                !
 ! R56   R(30,61)                1.082          estimate D2E/DX2                !
 ! R57   R(31,32)                1.4092         estimate D2E/DX2                !
 ! R58   R(31,62)                1.0822         estimate D2E/DX2                !
 ! R59   R(32,33)                1.4046         estimate D2E/DX2                !
 ! R60   R(32,63)                1.0822         estimate D2E/DX2                !
 ! R61   R(33,34)                1.3972         estimate D2E/DX2                !
 ! R62   R(33,64)                1.0823         estimate D2E/DX2                !
 ! R63   R(35,36)                1.3972         estimate D2E/DX2                !
 ! R64   R(35,40)                1.384          estimate D2E/DX2                !
 ! R65   R(36,37)                1.4046         estimate D2E/DX2                !
 ! R66   R(36,65)                1.0823         estimate D2E/DX2                !
 ! R67   R(37,38)                1.4092         estimate D2E/DX2                !
 ! R68   R(37,66)                1.0822         estimate D2E/DX2                !
 ! R69   R(38,39)                1.4044         estimate D2E/DX2                !
 ! R70   R(38,67)                1.0822         estimate D2E/DX2                !
 ! R71   R(39,40)                1.3951         estimate D2E/DX2                !
 ! R72   R(39,68)                1.082          estimate D2E/DX2                !
 ! R73   R(41,42)                1.3999         estimate D2E/DX2                !
 ! R74   R(41,69)                1.0847         estimate D2E/DX2                !
 ! R75   R(42,43)                1.4044         estimate D2E/DX2                !
 ! R76   R(42,47)                1.418          estimate D2E/DX2                !
 ! R77   R(43,44)                1.3954         estimate D2E/DX2                !
 ! R78   R(43,70)                1.0837         estimate D2E/DX2                !
 ! R79   R(44,45)                1.3945         estimate D2E/DX2                !
 ! R80   R(44,71)                1.0824         estimate D2E/DX2                !
 ! R81   R(45,46)                1.3967         estimate D2E/DX2                !
 ! R82   R(45,72)                1.0824         estimate D2E/DX2                !
 ! R83   R(46,47)                1.4119         estimate D2E/DX2                !
 ! R84   R(46,73)                1.0819         estimate D2E/DX2                !
 ! A1    A(2,1,74)             112.0187         estimate D2E/DX2                !
 ! A2    A(1,2,3)              119.2023         estimate D2E/DX2                !
 ! A3    A(1,2,11)             120.2939         estimate D2E/DX2                !
 ! A4    A(3,2,11)             120.5033         estimate D2E/DX2                !
 ! A5    A(2,3,4)              120.4284         estimate D2E/DX2                !
 ! A6    A(2,3,48)             119.9471         estimate D2E/DX2                !
 ! A7    A(4,3,48)             119.6244         estimate D2E/DX2                !
 ! A8    A(3,4,5)              120.2966         estimate D2E/DX2                !
 ! A9    A(3,4,49)             119.0441         estimate D2E/DX2                !
 ! A10   A(5,4,49)             120.6553         estimate D2E/DX2                !
 ! A11   A(4,5,6)              120.0359         estimate D2E/DX2                !
 ! A12   A(4,5,10)             119.9658         estimate D2E/DX2                !
 ! A13   A(6,5,10)             119.9971         estimate D2E/DX2                !
 ! A14   A(5,6,7)              120.2741         estimate D2E/DX2                !
 ! A15   A(5,6,50)             120.6679         estimate D2E/DX2                !
 ! A16   A(7,6,50)             119.0575         estimate D2E/DX2                !
 ! A17   A(6,7,8)              120.1605         estimate D2E/DX2                !
 ! A18   A(6,7,51)             119.9321         estimate D2E/DX2                !
 ! A19   A(8,7,51)             119.9064         estimate D2E/DX2                !
 ! A20   A(7,8,9)              120.2982         estimate D2E/DX2                !
 ! A21   A(7,8,52)             119.8278         estimate D2E/DX2                !
 ! A22   A(9,8,52)             119.8738         estimate D2E/DX2                !
 ! A23   A(8,9,10)             120.5357         estimate D2E/DX2                !
 ! A24   A(8,9,53)             118.0605         estimate D2E/DX2                !
 ! A25   A(10,9,53)            121.4032         estimate D2E/DX2                !
 ! A26   A(5,10,9)             118.724          estimate D2E/DX2                !
 ! A27   A(5,10,11)            119.3283         estimate D2E/DX2                !
 ! A28   A(9,10,11)            121.945          estimate D2E/DX2                !
 ! A29   A(2,11,10)            119.4351         estimate D2E/DX2                !
 ! A30   A(2,11,12)            118.7016         estimate D2E/DX2                !
 ! A31   A(10,11,12)           121.8583         estimate D2E/DX2                !
 ! A32   A(11,12,13)           118.5915         estimate D2E/DX2                !
 ! A33   A(11,12,47)           121.7167         estimate D2E/DX2                !
 ! A34   A(13,12,47)           119.6831         estimate D2E/DX2                !
 ! A35   A(12,13,14)           119.3763         estimate D2E/DX2                !
 ! A36   A(12,13,15)           120.6428         estimate D2E/DX2                !
 ! A37   A(14,13,15)           119.97           estimate D2E/DX2                !
 ! A38   A(13,14,74)           107.144          estimate D2E/DX2                !
 ! A39   A(13,15,16)           121.0868         estimate D2E/DX2                !
 ! A40   A(13,15,41)           119.4505         estimate D2E/DX2                !
 ! A41   A(16,15,41)           119.4612         estimate D2E/DX2                !
 ! A42   A(15,16,17)           120.4915         estimate D2E/DX2                !
 ! A43   A(15,16,21)           119.9718         estimate D2E/DX2                !
 ! A44   A(17,16,21)           119.5275         estimate D2E/DX2                !
 ! A45   A(16,17,18)           120.7174         estimate D2E/DX2                !
 ! A46   A(16,17,54)           120.3564         estimate D2E/DX2                !
 ! A47   A(18,17,54)           118.9189         estimate D2E/DX2                !
 ! A48   A(17,18,19)           118.3246         estimate D2E/DX2                !
 ! A49   A(17,18,55)           120.6039         estimate D2E/DX2                !
 ! A50   A(19,18,55)           121.0705         estimate D2E/DX2                !
 ! A51   A(18,19,20)           121.6152         estimate D2E/DX2                !
 ! A52   A(18,19,40)           129.858          estimate D2E/DX2                !
 ! A53   A(20,19,40)           108.5261         estimate D2E/DX2                !
 ! A54   A(19,20,21)           120.8957         estimate D2E/DX2                !
 ! A55   A(19,20,22)           110.7934         estimate D2E/DX2                !
 ! A56   A(21,20,22)           128.3107         estimate D2E/DX2                !
 ! A57   A(16,21,20)           118.9175         estimate D2E/DX2                !
 ! A58   A(16,21,56)           121.1398         estimate D2E/DX2                !
 ! A59   A(20,21,56)           119.9399         estimate D2E/DX2                !
 ! A60   A(20,22,23)           113.5574         estimate D2E/DX2                !
 ! A61   A(20,22,34)           113.5332         estimate D2E/DX2                !
 ! A62   A(20,22,35)           101.4566         estimate D2E/DX2                !
 ! A63   A(23,22,34)           101.4668         estimate D2E/DX2                !
 ! A64   A(23,22,35)           113.6793         estimate D2E/DX2                !
 ! A65   A(34,22,35)           113.7035         estimate D2E/DX2                !
 ! A66   A(22,23,24)           128.4641         estimate D2E/DX2                !
 ! A67   A(22,23,28)           110.7423         estimate D2E/DX2                !
 ! A68   A(24,23,28)           120.793          estimate D2E/DX2                !
 ! A69   A(23,24,25)           118.549          estimate D2E/DX2                !
 ! A70   A(23,24,57)           120.7517         estimate D2E/DX2                !
 ! A71   A(25,24,57)           120.6993         estimate D2E/DX2                !
 ! A72   A(24,25,26)           120.4073         estimate D2E/DX2                !
 ! A73   A(24,25,58)           119.7749         estimate D2E/DX2                !
 ! A74   A(26,25,58)           119.8178         estimate D2E/DX2                !
 ! A75   A(25,26,27)           120.4018         estimate D2E/DX2                !
 ! A76   A(25,26,59)           119.8127         estimate D2E/DX2                !
 ! A77   A(27,26,59)           119.7855         estimate D2E/DX2                !
 ! A78   A(26,27,28)           118.2298         estimate D2E/DX2                !
 ! A79   A(26,27,60)           120.649          estimate D2E/DX2                !
 ! A80   A(28,27,60)           121.1211         estimate D2E/DX2                !
 ! A81   A(23,28,27)           121.619          estimate D2E/DX2                !
 ! A82   A(23,28,29)           108.525          estimate D2E/DX2                !
 ! A83   A(27,28,29)           129.8558         estimate D2E/DX2                !
 ! A84   A(28,29,30)           129.8575         estimate D2E/DX2                !
 ! A85   A(28,29,34)           108.5224         estimate D2E/DX2                !
 ! A86   A(30,29,34)           121.6197         estimate D2E/DX2                !
 ! A87   A(29,30,31)           118.2283         estimate D2E/DX2                !
 ! A88   A(29,30,61)           121.1244         estimate D2E/DX2                !
 ! A89   A(31,30,61)           120.6473         estimate D2E/DX2                !
 ! A90   A(30,31,32)           120.4015         estimate D2E/DX2                !
 ! A91   A(30,31,62)           119.7864         estimate D2E/DX2                !
 ! A92   A(32,31,62)           119.8121         estimate D2E/DX2                !
 ! A93   A(31,32,33)           120.4081         estimate D2E/DX2                !
 ! A94   A(31,32,63)           119.818          estimate D2E/DX2                !
 ! A95   A(33,32,63)           119.7739         estimate D2E/DX2                !
 ! A96   A(32,33,34)           118.5494         estimate D2E/DX2                !
 ! A97   A(32,33,64)           120.7021         estimate D2E/DX2                !
 ! A98   A(34,33,64)           120.7485         estimate D2E/DX2                !
 ! A99   A(22,34,29)           110.7433         estimate D2E/DX2                !
 ! A100  A(22,34,33)           128.4625         estimate D2E/DX2                !
 ! A101  A(29,34,33)           120.793          estimate D2E/DX2                !
 ! A102  A(22,35,36)           128.4902         estimate D2E/DX2                !
 ! A103  A(22,35,40)           110.7092         estimate D2E/DX2                !
 ! A104  A(36,35,40)           120.8006         estimate D2E/DX2                !
 ! A105  A(35,36,37)           118.5421         estimate D2E/DX2                !
 ! A106  A(35,36,65)           120.7519         estimate D2E/DX2                !
 ! A107  A(37,36,65)           120.706          estimate D2E/DX2                !
 ! A108  A(36,37,38)           120.4104         estimate D2E/DX2                !
 ! A109  A(36,37,66)           119.773          estimate D2E/DX2                !
 ! A110  A(38,37,66)           119.8166         estimate D2E/DX2                !
 ! A111  A(37,38,39)           120.4018         estimate D2E/DX2                !
 ! A112  A(37,38,67)           119.8128         estimate D2E/DX2                !
 ! A113  A(39,38,67)           119.7854         estimate D2E/DX2                !
 ! A114  A(38,39,40)           118.2262         estimate D2E/DX2                !
 ! A115  A(38,39,68)           120.6482         estimate D2E/DX2                !
 ! A116  A(40,39,68)           121.1257         estimate D2E/DX2                !
 ! A117  A(19,40,35)           108.5146         estimate D2E/DX2                !
 ! A118  A(19,40,39)           129.8664         estimate D2E/DX2                !
 ! A119  A(35,40,39)           121.619          estimate D2E/DX2                !
 ! A120  A(15,41,42)           120.7869         estimate D2E/DX2                !
 ! A121  A(15,41,69)           119.5203         estimate D2E/DX2                !
 ! A122  A(42,41,69)           119.6924         estimate D2E/DX2                !
 ! A123  A(41,42,43)           119.9499         estimate D2E/DX2                !
 ! A124  A(41,42,47)           120.0497         estimate D2E/DX2                !
 ! A125  A(43,42,47)           120.0            estimate D2E/DX2                !
 ! A126  A(42,43,44)           120.3038         estimate D2E/DX2                !
 ! A127  A(42,43,70)           120.6887         estimate D2E/DX2                !
 ! A128  A(44,43,70)           119.007          estimate D2E/DX2                !
 ! A129  A(43,44,45)           120.1287         estimate D2E/DX2                !
 ! A130  A(43,44,71)           119.946          estimate D2E/DX2                !
 ! A131  A(45,44,71)           119.9245         estimate D2E/DX2                !
 ! A132  A(44,45,46)           120.2713         estimate D2E/DX2                !
 ! A133  A(44,45,72)           119.8417         estimate D2E/DX2                !
 ! A134  A(46,45,72)           119.8869         estimate D2E/DX2                !
 ! A135  A(45,46,47)           120.5619         estimate D2E/DX2                !
 ! A136  A(45,46,73)           117.9973         estimate D2E/DX2                !
 ! A137  A(47,46,73)           121.4401         estimate D2E/DX2                !
 ! A138  A(12,47,42)           119.3346         estimate D2E/DX2                !
 ! A139  A(12,47,46)           121.9383         estimate D2E/DX2                !
 ! A140  A(42,47,46)           118.7234         estimate D2E/DX2                !
 ! A141  A(1,74,14)             100.0           estimate D2E/DX2                !
 ! D1    D(74,1,2,3)           107.7981         estimate D2E/DX2                !
 ! D2    D(74,1,2,11)          -71.9557         estimate D2E/DX2                !
 ! D3    D(2,1,74,14)           39.09           estimate D2E/DX2                !
 ! D4    D(1,2,3,4)           -179.157          estimate D2E/DX2                !
 ! D5    D(1,2,3,48)             0.7189         estimate D2E/DX2                !
 ! D6    D(11,2,3,4)             0.5964         estimate D2E/DX2                !
 ! D7    D(11,2,3,48)         -179.5278         estimate D2E/DX2                !
 ! D8    D(1,2,11,10)          177.593          estimate D2E/DX2                !
 ! D9    D(1,2,11,12)           -1.6155         estimate D2E/DX2                !
 ! D10   D(3,2,11,10)           -2.1576         estimate D2E/DX2                !
 ! D11   D(3,2,11,12)          178.6339         estimate D2E/DX2                !
 ! D12   D(2,3,4,5)              0.7997         estimate D2E/DX2                !
 ! D13   D(2,3,4,49)          -179.9222         estimate D2E/DX2                !
 ! D14   D(48,3,4,5)          -179.0766         estimate D2E/DX2                !
 ! D15   D(48,3,4,49)            0.2016         estimate D2E/DX2                !
 ! D16   D(3,4,5,6)            179.0121         estimate D2E/DX2                !
 ! D17   D(3,4,5,10)            -0.6032         estimate D2E/DX2                !
 ! D18   D(49,4,5,6)            -0.2543         estimate D2E/DX2                !
 ! D19   D(49,4,5,10)         -179.8696         estimate D2E/DX2                !
 ! D20   D(4,5,6,7)           -179.1119         estimate D2E/DX2                !
 ! D21   D(4,5,6,50)             0.6234         estimate D2E/DX2                !
 ! D22   D(10,5,6,7)             0.5033         estimate D2E/DX2                !
 ! D23   D(10,5,6,50)         -179.7615         estimate D2E/DX2                !
 ! D24   D(4,5,10,9)           178.4546         estimate D2E/DX2                !
 ! D25   D(4,5,10,11)           -0.9618         estimate D2E/DX2                !
 ! D26   D(6,5,10,9)            -1.1608         estimate D2E/DX2                !
 ! D27   D(6,5,10,11)          179.4228         estimate D2E/DX2                !
 ! D28   D(5,6,7,8)              0.2542         estimate D2E/DX2                !
 ! D29   D(5,6,7,51)           179.8923         estimate D2E/DX2                !
 ! D30   D(50,6,7,8)          -179.4853         estimate D2E/DX2                !
 ! D31   D(50,6,7,51)            0.1528         estimate D2E/DX2                !
 ! D32   D(6,7,8,9)             -0.3357         estimate D2E/DX2                !
 ! D33   D(6,7,8,52)           179.5288         estimate D2E/DX2                !
 ! D34   D(51,7,8,9)          -179.9739         estimate D2E/DX2                !
 ! D35   D(51,7,8,52)           -0.1094         estimate D2E/DX2                !
 ! D36   D(7,8,9,10)            -0.3472         estimate D2E/DX2                !
 ! D37   D(7,8,9,53)           179.3776         estimate D2E/DX2                !
 ! D38   D(52,8,9,10)          179.7883         estimate D2E/DX2                !
 ! D39   D(52,8,9,53)           -0.4869         estimate D2E/DX2                !
 ! D40   D(8,9,10,5)             1.0862         estimate D2E/DX2                !
 ! D41   D(8,9,10,11)         -179.5135         estimate D2E/DX2                !
 ! D42   D(53,9,10,5)         -178.6293         estimate D2E/DX2                !
 ! D43   D(53,9,10,11)           0.7711         estimate D2E/DX2                !
 ! D44   D(5,10,11,2)            2.3223         estimate D2E/DX2                !
 ! D45   D(5,10,11,12)        -178.4951         estimate D2E/DX2                !
 ! D46   D(9,10,11,2)         -177.0745         estimate D2E/DX2                !
 ! D47   D(9,10,11,12)           2.108          estimate D2E/DX2                !
 ! D48   D(2,11,12,13)          69.1613         estimate D2E/DX2                !
 ! D49   D(2,11,12,47)        -109.7631         estimate D2E/DX2                !
 ! D50   D(10,11,12,13)       -110.0271         estimate D2E/DX2                !
 ! D51   D(10,11,12,47)         71.0485         estimate D2E/DX2                !
 ! D52   D(11,12,13,14)         -2.9401         estimate D2E/DX2                !
 ! D53   D(11,12,13,15)        178.2624         estimate D2E/DX2                !
 ! D54   D(47,12,13,14)        176.0067         estimate D2E/DX2                !
 ! D55   D(47,12,13,15)         -2.7907         estimate D2E/DX2                !
 ! D56   D(11,12,47,42)       -178.7589         estimate D2E/DX2                !
 ! D57   D(11,12,47,46)          1.9593         estimate D2E/DX2                !
 ! D58   D(13,12,47,42)          2.3282         estimate D2E/DX2                !
 ! D59   D(13,12,47,46)       -176.9537         estimate D2E/DX2                !
 ! D60   D(12,13,14,74)        -77.6103         estimate D2E/DX2                !
 ! D61   D(15,13,14,74)        101.1953         estimate D2E/DX2                !
 ! D62   D(12,13,15,16)       -178.8479         estimate D2E/DX2                !
 ! D63   D(12,13,15,41)          1.5966         estimate D2E/DX2                !
 ! D64   D(14,13,15,16)          2.3618         estimate D2E/DX2                !
 ! D65   D(14,13,15,41)       -177.1937         estimate D2E/DX2                !
 ! D66   D(13,14,74,1)          51.9855         estimate D2E/DX2                !
 ! D67   D(13,15,16,17)         50.9455         estimate D2E/DX2                !
 ! D68   D(13,15,16,21)       -130.156          estimate D2E/DX2                !
 ! D69   D(41,15,16,17)       -129.4991         estimate D2E/DX2                !
 ! D70   D(41,15,16,21)         49.3995         estimate D2E/DX2                !
 ! D71   D(13,15,41,42)          0.0532         estimate D2E/DX2                !
 ! D72   D(13,15,41,69)       -179.7            estimate D2E/DX2                !
 ! D73   D(16,15,41,42)       -179.5095         estimate D2E/DX2                !
 ! D74   D(16,15,41,69)          0.7372         estimate D2E/DX2                !
 ! D75   D(15,16,17,18)        179.4117         estimate D2E/DX2                !
 ! D76   D(15,16,17,54)          0.4052         estimate D2E/DX2                !
 ! D77   D(21,16,17,18)          0.5083         estimate D2E/DX2                !
 ! D78   D(21,16,17,54)       -178.4983         estimate D2E/DX2                !
 ! D79   D(15,16,21,20)       -179.4137         estimate D2E/DX2                !
 ! D80   D(15,16,21,56)          1.1911         estimate D2E/DX2                !
 ! D81   D(17,16,21,20)         -0.5045         estimate D2E/DX2                !
 ! D82   D(17,16,21,56)       -179.8996         estimate D2E/DX2                !
 ! D83   D(16,17,18,19)         -0.207          estimate D2E/DX2                !
 ! D84   D(16,17,18,55)       -179.8545         estimate D2E/DX2                !
 ! D85   D(54,17,18,19)        178.8136         estimate D2E/DX2                !
 ! D86   D(54,17,18,55)         -0.8339         estimate D2E/DX2                !
 ! D87   D(17,18,19,20)         -0.0941         estimate D2E/DX2                !
 ! D88   D(17,18,19,40)       -179.7325         estimate D2E/DX2                !
 ! D89   D(55,18,19,20)        179.5517         estimate D2E/DX2                !
 ! D90   D(55,18,19,40)         -0.0867         estimate D2E/DX2                !
 ! D91   D(18,19,20,21)          0.0909         estimate D2E/DX2                !
 ! D92   D(18,19,20,22)       -179.7698         estimate D2E/DX2                !
 ! D93   D(40,19,20,21)        179.7982         estimate D2E/DX2                !
 ! D94   D(40,19,20,22)         -0.0626         estimate D2E/DX2                !
 ! D95   D(18,19,40,35)        179.7013         estimate D2E/DX2                !
 ! D96   D(18,19,40,39)         -0.2708         estimate D2E/DX2                !
 ! D97   D(20,19,40,35)          0.0261         estimate D2E/DX2                !
 ! D98   D(20,19,40,39)       -179.946          estimate D2E/DX2                !
 ! D99   D(19,20,21,16)          0.2128         estimate D2E/DX2                !
 ! D100  D(19,20,21,56)        179.6154         estimate D2E/DX2                !
 ! D101  D(22,20,21,16)       -179.9531         estimate D2E/DX2                !
 ! D102  D(22,20,21,56)         -0.5505         estimate D2E/DX2                !
 ! D103  D(19,20,22,23)       -122.3005         estimate D2E/DX2                !
 ! D104  D(19,20,22,34)        122.4583         estimate D2E/DX2                !
 ! D105  D(19,20,22,35)          0.0705         estimate D2E/DX2                !
 ! D106  D(21,20,22,23)         57.8518         estimate D2E/DX2                !
 ! D107  D(21,20,22,34)        -57.3894         estimate D2E/DX2                !
 ! D108  D(21,20,22,35)       -179.7772         estimate D2E/DX2                !
 ! D109  D(20,22,23,24)         57.6333         estimate D2E/DX2                !
 ! D110  D(20,22,23,28)       -122.086          estimate D2E/DX2                !
 ! D111  D(34,22,23,24)        179.8347         estimate D2E/DX2                !
 ! D112  D(34,22,23,28)          0.1154         estimate D2E/DX2                !
 ! D113  D(35,22,23,24)        -57.6953         estimate D2E/DX2                !
 ! D114  D(35,22,23,28)        122.5854         estimate D2E/DX2                !
 ! D115  D(20,22,34,29)        122.0924         estimate D2E/DX2                !
 ! D116  D(20,22,34,33)        -57.5048         estimate D2E/DX2                !
 ! D117  D(23,22,34,29)         -0.1257         estimate D2E/DX2                !
 ! D118  D(23,22,34,33)       -179.7229         estimate D2E/DX2                !
 ! D119  D(35,22,34,29)       -122.579          estimate D2E/DX2                !
 ! D120  D(35,22,34,33)         57.8238         estimate D2E/DX2                !
 ! D121  D(20,22,35,36)        179.9533         estimate D2E/DX2                !
 ! D122  D(20,22,35,40)         -0.054          estimate D2E/DX2                !
 ! D123  D(23,22,35,36)        -57.7599         estimate D2E/DX2                !
 ! D124  D(23,22,35,40)        122.2328         estimate D2E/DX2                !
 ! D125  D(34,22,35,36)         57.6831         estimate D2E/DX2                !
 ! D126  D(34,22,35,40)       -122.3242         estimate D2E/DX2                !
 ! D127  D(22,23,24,25)       -179.756          estimate D2E/DX2                !
 ! D128  D(22,23,24,57)          0.1907         estimate D2E/DX2                !
 ! D129  D(28,23,24,25)         -0.0616         estimate D2E/DX2                !
 ! D130  D(28,23,24,57)        179.8851         estimate D2E/DX2                !
 ! D131  D(22,23,28,27)        179.7821         estimate D2E/DX2                !
 ! D132  D(22,23,28,29)         -0.0674         estimate D2E/DX2                !
 ! D133  D(24,23,28,27)          0.0379         estimate D2E/DX2                !
 ! D134  D(24,23,28,29)       -179.8115         estimate D2E/DX2                !
 ! D135  D(23,24,25,26)          0.0391         estimate D2E/DX2                !
 ! D136  D(23,24,25,58)        179.9988         estimate D2E/DX2                !
 ! D137  D(57,24,25,26)       -179.9076         estimate D2E/DX2                !
 ! D138  D(57,24,25,58)          0.0521         estimate D2E/DX2                !
 ! D139  D(24,25,26,27)          0.0072         estimate D2E/DX2                !
 ! D140  D(24,25,26,59)        179.9716         estimate D2E/DX2                !
 ! D141  D(58,25,26,27)       -179.9524         estimate D2E/DX2                !
 ! D142  D(58,25,26,59)          0.012          estimate D2E/DX2                !
 ! D143  D(25,26,27,28)         -0.0315         estimate D2E/DX2                !
 ! D144  D(25,26,27,60)        179.9392         estimate D2E/DX2                !
 ! D145  D(59,26,27,28)       -179.9959         estimate D2E/DX2                !
 ! D146  D(59,26,27,60)         -0.0252         estimate D2E/DX2                !
 ! D147  D(26,27,28,23)          0.0094         estimate D2E/DX2                !
 ! D148  D(26,27,28,29)        179.8234         estimate D2E/DX2                !
 ! D149  D(60,27,28,23)       -179.9612         estimate D2E/DX2                !
 ! D150  D(60,27,28,29)         -0.1471         estimate D2E/DX2                !
 ! D151  D(23,28,29,30)        179.7442         estimate D2E/DX2                !
 ! D152  D(23,28,29,34)         -0.0163         estimate D2E/DX2                !
 ! D153  D(27,28,29,30)         -0.0887         estimate D2E/DX2                !
 ! D154  D(27,28,29,34)       -179.8493         estimate D2E/DX2                !
 ! D155  D(28,29,30,31)       -179.7359         estimate D2E/DX2                !
 ! D156  D(28,29,30,61)          0.2036         estimate D2E/DX2                !
 ! D157  D(34,29,30,31)         -0.0025         estimate D2E/DX2                !
 ! D158  D(34,29,30,61)        179.9369         estimate D2E/DX2                !
 ! D159  D(28,29,34,22)          0.0936         estimate D2E/DX2                !
 ! D160  D(28,29,34,33)        179.7264         estimate D2E/DX2                !
 ! D161  D(30,29,34,22)       -179.6906         estimate D2E/DX2                !
 ! D162  D(30,29,34,33)         -0.0577         estimate D2E/DX2                !
 ! D163  D(29,30,31,32)          0.0362         estimate D2E/DX2                !
 ! D164  D(29,30,31,62)        179.9841         estimate D2E/DX2                !
 ! D165  D(61,30,31,32)       -179.9035         estimate D2E/DX2                !
 ! D166  D(61,30,31,62)          0.0443         estimate D2E/DX2                !
 ! D167  D(30,31,32,33)         -0.0109         estimate D2E/DX2                !
 ! D168  D(30,31,32,63)        179.9439         estimate D2E/DX2                !
 ! D169  D(62,31,32,33)       -179.9587         estimate D2E/DX2                !
 ! D170  D(62,31,32,63)         -0.0039         estimate D2E/DX2                !
 ! D171  D(31,32,33,34)         -0.0479         estimate D2E/DX2                !
 ! D172  D(31,32,33,64)        179.8859         estimate D2E/DX2                !
 ! D173  D(63,32,33,34)        179.9973         estimate D2E/DX2                !
 ! D174  D(63,32,33,64)         -0.0689         estimate D2E/DX2                !
 ! D175  D(32,33,34,22)        179.6434         estimate D2E/DX2                !
 ! D176  D(32,33,34,29)          0.0819         estimate D2E/DX2                !
 ! D177  D(64,33,34,22)         -0.2903         estimate D2E/DX2                !
 ! D178  D(64,33,34,29)       -179.8518         estimate D2E/DX2                !
 ! D179  D(22,35,36,37)        179.9966         estimate D2E/DX2                !
 ! D180  D(22,35,36,65)         -0.005          estimate D2E/DX2                !
 ! D181  D(40,35,36,37)          0.0045         estimate D2E/DX2                !
 ! D182  D(40,35,36,65)       -179.9971         estimate D2E/DX2                !
 ! D183  D(22,35,40,19)          0.0206         estimate D2E/DX2                !
 ! D184  D(22,35,40,39)        179.9954         estimate D2E/DX2                !
 ! D185  D(36,35,40,19)       -179.986          estimate D2E/DX2                !
 ! D186  D(36,35,40,39)         -0.0112         estimate D2E/DX2                !
 ! D187  D(35,36,37,38)          0.0008         estimate D2E/DX2                !
 ! D188  D(35,36,37,66)        179.9995         estimate D2E/DX2                !
 ! D189  D(65,36,37,38)       -179.9975         estimate D2E/DX2                !
 ! D190  D(65,36,37,66)          0.0011         estimate D2E/DX2                !
 ! D191  D(36,37,38,39)          0.0003         estimate D2E/DX2                !
 ! D192  D(36,37,38,67)        179.9989         estimate D2E/DX2                !
 ! D193  D(66,37,38,39)       -179.9984         estimate D2E/DX2                !
 ! D194  D(66,37,38,67)          0.0002         estimate D2E/DX2                !
 ! D195  D(37,38,39,40)         -0.0065         estimate D2E/DX2                !
 ! D196  D(37,38,39,68)        179.9977         estimate D2E/DX2                !
 ! D197  D(67,38,39,40)        179.9948         estimate D2E/DX2                !
 ! D198  D(67,38,39,68)         -0.0009         estimate D2E/DX2                !
 ! D199  D(38,39,40,19)        179.9809         estimate D2E/DX2                !
 ! D200  D(38,39,40,35)          0.012          estimate D2E/DX2                !
 ! D201  D(68,39,40,19)         -0.0233         estimate D2E/DX2                !
 ! D202  D(68,39,40,35)       -179.9922         estimate D2E/DX2                !
 ! D203  D(15,41,42,43)        179.3087         estimate D2E/DX2                !
 ! D204  D(15,41,42,47)         -0.4836         estimate D2E/DX2                !
 ! D205  D(69,41,42,43)         -0.9385         estimate D2E/DX2                !
 ! D206  D(69,41,42,47)        179.2692         estimate D2E/DX2                !
 ! D207  D(41,42,43,44)       -179.255          estimate D2E/DX2                !
 ! D208  D(41,42,43,70)          0.4941         estimate D2E/DX2                !
 ! D209  D(47,42,43,44)          0.5375         estimate D2E/DX2                !
 ! D210  D(47,42,43,70)       -179.7135         estimate D2E/DX2                !
 ! D211  D(41,42,47,12)         -0.7116         estimate D2E/DX2                !
 ! D212  D(41,42,47,46)        178.5934         estimate D2E/DX2                !
 ! D213  D(43,42,47,12)        179.4962         estimate D2E/DX2                !
 ! D214  D(43,42,47,46)         -1.1988         estimate D2E/DX2                !
 ! D215  D(42,43,44,45)          0.2376         estimate D2E/DX2                !
 ! D216  D(42,43,44,71)        179.896          estimate D2E/DX2                !
 ! D217  D(70,43,44,45)       -179.5156         estimate D2E/DX2                !
 ! D218  D(70,43,44,71)          0.1427         estimate D2E/DX2                !
 ! D219  D(43,44,45,46)         -0.3312         estimate D2E/DX2                !
 ! D220  D(43,44,45,72)        179.533          estimate D2E/DX2                !
 ! D221  D(71,44,45,46)       -179.9897         estimate D2E/DX2                !
 ! D222  D(71,44,45,72)         -0.1254         estimate D2E/DX2                !
 ! D223  D(44,45,46,47)         -0.3561         estimate D2E/DX2                !
 ! D224  D(44,45,46,73)        179.3441         estimate D2E/DX2                !
 ! D225  D(72,45,46,47)        179.7797         estimate D2E/DX2                !
 ! D226  D(72,45,46,73)         -0.5201         estimate D2E/DX2                !
 ! D227  D(45,46,47,12)       -179.6015         estimate D2E/DX2                !
 ! D228  D(45,46,47,42)          1.1125         estimate D2E/DX2                !
 ! D229  D(73,46,47,12)          0.7088         estimate D2E/DX2                !
 ! D230  D(73,46,47,42)       -178.5773         estimate D2E/DX2                !
 --------------------------------------------------------------------------------
 Trust Radius=3.00D-01 FncErr=1.00D-07 GrdErr=1.00D-06 EigMax=2.50D+02 EigMin=1.00D-04
 Number of steps in this run=    444 maximum allowed number of steps=    444.
 GradGradGradGradGradGradGradGradGradGradGradGradGradGradGradGradGradGrad

 Leave Link  103 at Fri Mar 28 05:46:10 2025, MaxMem= 13421772800 cpu:               0.8 elap:               0.0
 (Enter /public/software/apps/Gaussian/g16/l202.exe)
 Symmetry turned off by external request.
 Stoichiometry    C45H26CuO2(2)
 Framework group  C1[X(C45H26CuO2)]
 Deg. of freedom   216
 Full point group                 C1      NOp   1
                          Input orientation:                          
 ---------------------------------------------------------------------
 Center     Atomic      Atomic             Coordinates (Angstroms)
 Number     Number       Type             X           Y           Z
 ---------------------------------------------------------------------
      1          8           0        3.753923   -0.519964    2.748419
      2          6           0        4.832620    0.025057    2.059320
      3          6           0        5.978678    0.389946    2.767234
      4          6           0        7.067455    0.954371    2.105184
      5          6           0        7.016240    1.177001    0.722738
      6          6           0        8.108133    1.764949    0.064739
      7          6           0        8.055220    2.005897   -1.308869
      8          6           0        6.913798    1.668456   -2.036104
      9          6           0        5.819212    1.081190   -1.397243
     10          6           0        5.855628    0.814996   -0.011616
     11          6           0        4.764559    0.210047    0.666007
     12          6           0        3.535382   -0.221468   -0.052937
     13          6           0        2.342596    0.493785    0.163053
     14          8           0        2.329845    1.539366    1.083771
     15          6           0        1.163629    0.145828   -0.521831
     16          6           0       -0.091433    0.908076   -0.320905
     17          6           0       -0.100395    2.320323   -0.432230
     18          6           0       -1.288841    3.046025   -0.254979
     19          6           0       -2.457317    2.341991    0.028286
     20          6           0       -2.465332    0.963851    0.133845
     21          6           0       -1.293814    0.224934   -0.039206
     22          6           0       -3.850077    0.459421    0.438870
     23          6           0       -3.930408   -0.348623    1.706481
     24          6           0       -3.577374    0.032074    3.003698
     25          6           0       -3.734614   -0.899628    4.042948
     26          6           0       -4.237282   -2.188590    3.775285
     27          6           0       -4.587007   -2.557321    2.466067
     28          6           0       -4.423202   -1.616169    1.449386
     29          6           0       -4.695972   -1.725382    0.027846
     30          6           0       -5.194239   -2.801602   -0.706852
     31          6           0       -5.360104   -2.640257   -2.092054
     32          6           0       -5.027986   -1.419466   -2.712625
     33          6           0       -4.527260   -0.349117   -1.953392
     34          6           0       -4.368774   -0.523863   -0.576220
     35          6           0       -4.631764    1.744649    0.490709
     36          6           0       -5.995117    1.923858    0.738304
     37          6           0       -6.511293    3.230178    0.737732
     38          6           0       -5.666402    4.330907    0.491994
     39          6           0       -4.297884    4.135130    0.244647
     40          6           0       -3.806581    2.829428    0.250076
     41          6           0        1.174168   -0.945311   -1.401518
     42          6           0        2.341533   -1.690937   -1.604384
     43          6           0        2.328531   -2.789755   -2.478819
     44          6           0        3.483770   -3.547454   -2.674624
     45          6           0        4.658469   -3.220262   -1.998145
     46          6           0        4.688474   -2.129319   -1.126559
     47          6           0        3.535377   -1.340081   -0.924326
     48          1           0        6.024257    0.236556    3.838000
     49          1           0        7.946477    1.228165    2.676728
     50          1           0        9.000470    2.041871    0.613671
     51          1           0        8.899589    2.461081   -1.810272
     52          1           0        6.875623    1.864730   -3.099907
     53          1           0        4.948721    0.843649   -1.994255
     54          1           0        0.809526    2.856148   -0.671915
     55          1           0       -1.294042    4.124447   -0.342732
     56          1           0       -1.316612   -0.853981    0.053098
     57          1           0       -3.190345    1.022837    3.203693
     58          1           0       -3.467364   -0.625765    5.055226
     59          1           0       -4.354087   -2.899034    4.583253
     60          1           0       -4.972408   -3.546231    2.255875
     61          1           0       -5.446507   -3.737725   -0.226492
     62          1           0       -5.744542   -3.458870   -2.686434
     63          1           0       -5.158708   -1.305775   -3.780853
     64          1           0       -4.268927    0.589962   -2.425371
     65          1           0       -6.639678    1.075006    0.926429
     66          1           0       -7.564397    3.391938    0.927198
     67          1           0       -6.074368    5.333282    0.493815
     68          1           0       -3.645562    4.977384    0.055458
     69          1           0        0.267309   -1.211519   -1.933743
     70          1           0        1.423650   -3.064974   -3.007774
     71          1           0        3.466781   -4.394195   -3.348643
     72          1           0        5.549876   -3.815776   -2.147737
     73          1           0        5.616145   -1.915135   -0.612755
     74         29           0        2.249971    0.734663    2.871860
 ---------------------------------------------------------------------
 Rotational constants (GHZ):           0.1130497           0.0343263           0.0324615
 Leave Link  202 at Fri Mar 28 05:46:10 2025, MaxMem= 13421772800 cpu:               0.6 elap:               0.0
 (Enter /public/software/apps/Gaussian/g16/l301.exe)
 Standard basis: def2SVPP (5D, 7F)
 Ernie: Thresh=  0.10000D-02 Tol=  0.10000D-05 Strict=F.
   734 basis functions,  1350 primitive gaussians,   783 cartesian basis functions
   171 alpha electrons      170 beta electrons
       nuclear repulsion energy      6072.6158317026 Hartrees.
 IExCor=  402 DFT=T Ex+Corr=B3LYP ExCW=0 ScaHFX=  0.200000
 ScaDFX=  0.800000  0.720000  1.000000  0.810000 ScalE2=  1.000000  1.000000
 IRadAn=      5 IRanWt=     -1 IRanGd=            0 ICorTp=0 IEmpDi=141
 NAtoms=   74 NActive=   74 NUniq=   74 SFac= 1.00D+00 NAtFMM=   60 NAOKFM=T Big=T
 Integral buffers will be    131072 words long.
 Raffenetti 2 integral format.
 Two-electron integral symmetry is turned off.
 R6Disp:  Grimme-D3(BJ) Dispersion energy=       -0.2182153149 Hartrees.
 Nuclear repulsion after empirical dispersion term =     6072.3976163877 Hartrees.
 Leave Link  301 at Fri Mar 28 05:46:10 2025, MaxMem= 13421772800 cpu:               0.6 elap:               0.0
 (Enter /public/software/apps/Gaussian/g16/l302.exe)
 NPDir=0 NMtPBC=     1 NCelOv=     1 NCel=       1 NClECP=     1 NCelD=      1
         NCelK=      1 NCelE2=     1 NClLst=     1 CellRange=     0.0.
 One-electron integrals computed using PRISM.
   1 Symmetry operations used in ECPInt.
 ECPInt:  NShTT=   59340 NPrTT=  243285 LenC2=   45674 LenP2D=  113534.
 LDataN:  DoStor=T MaxTD1= 4 Len=   56
 NBasis=   734 RedAO= T EigKep=  1.72D-04  NBF=   734
 NBsUse=   734 1.00D-06 EigRej= -1.00D+00 NBFU=   734
 Precomputing XC quadrature grid using
 IXCGrd= 4 IRadAn=           5 IRanWt=          -1 IRanGd=           0 AccXCQ= 0.00D+00.
 Generated NRdTot=       0 NPtTot=           0 NUsed=           0 NTot=          32
 NSgBfM=   757   757   757   757   757 MxSgAt=    74 MxSgA2=    74.
 Leave Link  302 at Fri Mar 28 05:46:11 2025, MaxMem= 13421772800 cpu:              31.6 elap:               1.0
 (Enter /public/software/apps/Gaussian/g16/l303.exe)
 DipDrv:  MaxL=1.
 Leave Link  303 at Fri Mar 28 05:46:11 2025, MaxMem= 13421772800 cpu:               3.8 elap:               0.1
 (Enter /public/software/apps/Gaussian/g16/l401.exe)
 ExpMin= 3.30D-02 ExpMax= 7.64D+04 ExpMxC= 1.15D+04 IAcc=3 IRadAn=         5 AccDes= 0.00D+00
 Harris functional with IExCor=  402 and IRadAn=       5 diagonalized for initial guess.
 HarFok:  IExCor=  402 AccDes= 0.00D+00 IRadAn=         5 IDoV= 1 UseB2=F ITyADJ=14
 ICtDFT=  3500011 ScaDFX=  1.000000  1.000000  1.000000  1.000000
 FoFCou: FMM=F IPFlag=           0 FMFlag=      100000 FMFlg1=        2001
         NFxFlg=           0 DoJE=T BraDBF=F KetDBF=T FulRan=T
         wScrn=  0.000000 ICntrl=       500 IOpCl=  0 I1Cent=   200000004 NGrid=           0
         NMat0=    1 NMatS0=      1 NMatT0=    0 NMatD0=    1 NMtDS0=    0 NMtDT0=    0
 Symmetry not used in FoFCou.
 Harris En= -3520.30191653587    
 JPrj=0 DoOrth=F DoCkMO=F.
 Initial guess <Sx>= 0.0000 <Sy>= 0.0000 <Sz>= 0.5000 <S**2>= 0.7500 S= 0.5000
 Leave Link  401 at Fri Mar 28 05:46:14 2025, MaxMem= 13421772800 cpu:              70.8 elap:               2.2
 (Enter /public/software/apps/Gaussian/g16/l502.exe)
 Two-electron integral symmetry not used.
 UHF open shell SCF:
 Using DIIS extrapolation, IDIIS=  1040.
 NGot= 13421772800 LenX= 13420513489 LenY= 13419899617
 Requested convergence on RMS density matrix=1.00D-08 within 128 cycles.
 Requested convergence on MAX density matrix=1.00D-06.
 Requested convergence on             energy=1.00D-06.
 No special actions if energy rises.
 Fock matrices will be formed incrementally for  20 cycles.

 Cycle   1  Pass 1  IDiag  1:
 FoFJK:  IHMeth= 1 ICntrl=       0 DoSepK=F KAlg= 0 I1Cent=           0 FoldK=F
 IRaf= 890000000 NMat=       1 IRICut=       1 DoRegI=T DoRafI=F ISym2E= 0 IDoP0=0 IntGTp=1.
 FoFCou: FMM=T IPFlag=           0 FMFlag=      100000 FMFlg1=        2001
         NFxFlg=           0 DoJE=F BraDBF=F KetDBF=F FulRan=T
         wScrn=  0.000000 ICntrl=         0 IOpCl=  1 I1Cent=           0 NGrid=           0
         NMat0=    1 NMatS0=      1 NMatT0=    0 NMatD0=    1 NMtDS0=    0 NMtDT0=    0
 Symmetry not used in FoFCou.
 FMM levels:  10  Number of levels for PrismC:   9
 E= -3486.12393537337    
 DIIS: error= 3.78D-01 at cycle   1 NSaved=   1.
 NSaved= 1 IEnMin= 1 EnMin= -3486.12393537337     IErMin= 1 ErrMin= 3.78D-01
 ErrMax= 3.78D-01  0.00D+00 EMaxC= 1.00D-01 BMatC= 7.90D+01 BMatP= 7.90D+01
 IDIUse=3 WtCom= 0.00D+00 WtEn= 1.00D+00
 Coeff-Com:  0.100D+01
 Coeff-En:   0.100D+01
 Coeff:      0.100D+01
 Gap=     0.455 Goal=   None    Shift=    0.000
 Gap=    -3.577 Goal=   None    Shift=    0.000
 GapD=   -3.577 DampG=0.250 DampE=0.125 DampFc=0.1250 IDamp=-1.
 Damping current iteration by 1.25D-01
 RMSDP=3.29D-01 MaxDP=7.88D+01              OVMax= 9.95D-01

 Cycle   2  Pass 1  IDiag  1:
 RMSU=  4.08D-02    CP:  1.29D+00
 E= -3496.75718921056     Delta-E=      -10.633253837190 Rises=F Damp=T
 DIIS: error= 2.65D-01 at cycle   2 NSaved=   2.
 NSaved= 2 IEnMin= 2 EnMin= -3496.75718921056     IErMin= 2 ErrMin= 2.65D-01
 ErrMax= 2.65D-01  0.00D+00 EMaxC= 1.00D-01 BMatC= 3.37D+01 BMatP= 7.90D+01
 IDIUse=3 WtCom= 0.00D+00 WtEn= 1.00D+00
 Coeff-Com: -0.103D+01 0.203D+01
 Coeff-En:   0.000D+00 0.100D+01
 Coeff:      0.000D+00 0.100D+01
 Gap=    -0.738 Goal=   None    Shift=    0.000
 Gap=     0.006 Goal=   None    Shift=    0.000
 RMSDP=4.18D-02 MaxDP=8.10D+00 DE=-1.06D+01 OVMax= 9.82D-01

 Cycle   3  Pass 1  IDiag  1:
 RMSU=  2.90D-02    CP:  9.39D-01  2.77D-01
 E= -3384.60168862279     Delta-E=      112.155500587776 Rises=F Damp=F
 DIIS: error= 1.46D-01 at cycle   3 NSaved=   3.
 NSaved= 3 IEnMin= 2 EnMin= -3496.75718921056     IErMin= 3 ErrMin= 1.46D-01
 ErrMax= 1.46D-01  0.00D+00 EMaxC= 1.00D-01 BMatC= 1.63D+02 BMatP= 3.37D+01
 IDIUse=2 WtCom= 0.00D+00 WtEn= 1.00D+00
 Coeff-En:   0.000D+00 0.808D+00 0.192D+00
 Coeff:      0.000D+00 0.808D+00 0.192D+00
 Gap=     0.973 Goal=   None    Shift=    0.000
 Gap=    -0.155 Goal=   None    Shift=    0.000
 RMSDP=7.98D-02 MaxDP=1.93D+01 DE= 1.12D+02 OVMax= 9.72D-01

 Cycle   4  Pass 1  IDiag  1:
 RMSU=  7.65D-02    CP:  1.15D+00  3.31D-01  2.36D-01
 E= -3305.55546944031     Delta-E=       79.046219182475 Rises=F Damp=F
 DIIS: error= 1.77D-01 at cycle   4 NSaved=   4.
 NSaved= 4 IEnMin= 2 EnMin= -3496.75718921056     IErMin= 3 ErrMin= 1.46D-01
 ErrMax= 1.77D-01  0.00D+00 EMaxC= 1.00D-01 BMatC= 2.80D+02 BMatP= 3.37D+01
 IDIUse=2 WtCom= 0.00D+00 WtEn= 1.00D+00
 EnCoef did    11 forward-backward iterations
 Coeff-En:   0.578D+00 0.396D-02 0.257D+00 0.161D+00
 Coeff:      0.578D+00 0.396D-02 0.257D+00 0.161D+00
 Gap=    -0.239 Goal=   None    Shift=    0.000
 Gap=    -0.526 Goal=   None    Shift=    0.000
 RMSDP=7.70D-02 MaxDP=1.92D+01 DE= 7.90D+01 OVMax= 9.85D-01

 Cycle   5  Pass 1  IDiag  1:
 RMSU=  8.32D-03    CP:  9.01D-01  3.45D-02  1.65D-01  1.44D-02
 E= -3500.13548862263     Delta-E=     -194.580019182316 Rises=F Damp=F
 DIIS: error= 1.42D-01 at cycle   5 NSaved=   5.
 NSaved= 5 IEnMin= 5 EnMin= -3500.13548862263     IErMin= 5 ErrMin= 1.42D-01
 ErrMax= 1.42D-01  0.00D+00 EMaxC= 1.00D-01 BMatC= 4.75D+01 BMatP= 3.37D+01
 IDIUse=2 WtCom= 0.00D+00 WtEn= 1.00D+00
 EnCoef did   100 forward-backward iterations
 Coeff-En:   0.396D+00 0.168D-01 0.505D-01 0.649D-02 0.530D+00
 Coeff:      0.396D+00 0.168D-01 0.505D-01 0.649D-02 0.530D+00
 Gap=     0.970 Goal=   None    Shift=    0.000
 Gap=     0.869 Goal=   None    Shift=    0.000
 RMSDP=8.18D-02 MaxDP=1.53D+01 DE=-1.95D+02 OVMax= 9.89D-01

 Cycle   6  Pass 1  IDiag  1:
 RMSU=  7.89D-02    CP:  1.03D+00  1.82D-02  2.06D-01  2.40D-01 -5.49D-01
 E= -3365.29182903736     Delta-E=      134.843659585273 Rises=F Damp=F
 DIIS: error= 1.53D-01 at cycle   6 NSaved=   6.
 NSaved= 6 IEnMin= 5 EnMin= -3500.13548862263     IErMin= 5 ErrMin= 1.42D-01
 ErrMax= 1.53D-01  0.00D+00 EMaxC= 1.00D-01 BMatC= 3.15D+02 BMatP= 3.37D+01
 IDIUse=2 WtCom= 0.00D+00 WtEn= 1.00D+00
 EnCoef did   100 forward-backward iterations
 Coeff-En:   0.295D+00 0.124D-01 0.000D+00 0.000D+00 0.588D+00 0.105D+00
 Coeff:      0.295D+00 0.124D-01 0.000D+00 0.000D+00 0.588D+00 0.105D+00
 Gap=    -0.106 Goal=   None    Shift=    0.000
 Gap=    -0.181 Goal=   None    Shift=    0.000
 RMSDP=8.07D-02 MaxDP=1.52D+01 DE= 1.35D+02 OVMax= 9.62D-01

 Cycle   7  Pass 1  IDiag  1:
 RMSU=  6.69D-03    CP:  8.84D-01  6.52D-03  9.83D-02  6.27D-03  1.84D-01
                    CP:  9.68D-03
 E= -3496.68225816196     Delta-E=     -131.390429124605 Rises=F Damp=F
 DIIS: error= 9.55D-02 at cycle   7 NSaved=   7.
 NSaved= 7 IEnMin= 5 EnMin= -3500.13548862263     IErMin= 7 ErrMin= 9.55D-02
 ErrMax= 9.55D-02  0.00D+00 EMaxC= 1.00D-01 BMatC= 5.19D+01 BMatP= 3.37D+01
 IDIUse=2 WtCom= 0.00D+00 WtEn= 1.00D+00
 EnCoef did   100 forward-backward iterations
 Coeff-En:   0.260D+00 0.139D-02 0.000D+00 0.711D-02 0.423D+00 0.000D+00
 Coeff-En:   0.309D+00
 Coeff:      0.260D+00 0.139D-02 0.000D+00 0.711D-02 0.423D+00 0.000D+00
 Coeff:      0.309D+00
 Gap=    -0.214 Goal=   None    Shift=    0.000
 Gap=    -0.453 Goal=   None    Shift=    0.000
 RMSDP=1.47D-02 MaxDP=2.23D+00 DE=-1.31D+02 OVMax= 9.89D-01

 Cycle   8  Pass 1  IDiag  1:
 RMSU=  1.36D-02    CP:  8.69D-01  2.26D-02  4.70D-02  4.50D-02  2.59D-01
                    CP:  1.15D-02  3.45D-01
 E= -3478.43026873318     Delta-E=       18.251989428780 Rises=F Damp=F
 DIIS: error= 8.73D-02 at cycle   8 NSaved=   8.
 NSaved= 8 IEnMin= 5 EnMin= -3500.13548862263     IErMin= 8 ErrMin= 8.73D-02
 ErrMax= 8.73D-02  0.00D+00 EMaxC= 1.00D-01 BMatC= 6.99D+01 BMatP= 3.37D+01
 IDIUse=2 WtCom= 0.00D+00 WtEn= 1.00D+00
 EnCoef did   100 forward-backward iterations
 Coeff-En:   0.232D+00 0.424D-03 0.000D+00 0.216D-02 0.381D+00 0.000D+00
 Coeff-En:   0.283D+00 0.101D+00
 Coeff:      0.232D+00 0.424D-03 0.000D+00 0.216D-02 0.381D+00 0.000D+00
 Coeff:      0.283D+00 0.101D+00
 Gap=     0.262 Goal=   None    Shift=    0.000
 Gap=     0.089 Goal=   None    Shift=    0.000
 RMSDP=1.38D-02 MaxDP=2.31D+00 DE= 1.83D+01 OVMax= 9.50D-01

 Cycle   9  Pass 1  IDiag  1:
 RMSU=  3.90D-03    CP:  8.65D-01 -2.82D-03  2.82D-02  3.95D-03  2.26D-01
                    CP:  2.12D-03  2.86D-01  6.22D-02
 E= -3519.42992652419     Delta-E=      -40.999657791008 Rises=F Damp=F
 DIIS: error= 5.61D-02 at cycle   9 NSaved=   9.
 NSaved= 9 IEnMin= 9 EnMin= -3519.42992652419     IErMin= 9 ErrMin= 5.61D-02
 ErrMax= 5.61D-02  0.00D+00 EMaxC= 1.00D-01 BMatC= 2.44D+00 BMatP= 3.37D+01
 IDIUse=3 WtCom= 4.39D-01 WtEn= 5.61D-01
 Coeff-Com: -0.142D+00 0.315D+00 0.176D-01-0.150D-01-0.631D-01-0.264D-02
 Coeff-Com:  0.104D-03-0.302D-01 0.920D+00
 Coeff-En:   0.507D-01 0.000D+00 0.000D+00 0.000D+00 0.000D+00 0.000D+00
 Coeff-En:   0.000D+00 0.000D+00 0.949D+00
 Coeff:     -0.339D-01 0.139D+00 0.772D-02-0.660D-02-0.277D-01-0.116D-02
 Coeff:      0.459D-04-0.133D-01 0.936D+00
 Gap=     0.315 Goal=   None    Shift=    0.000
 Gap=    -0.066 Goal=   None    Shift=    0.000
 RMSDP=4.36D-03 MaxDP=2.49D-01 DE=-4.10D+01 OVMax= 9.80D-01

 Cycle  10  Pass 1  IDiag  1:
 RMSU=  4.03D-03    CP:  8.72D-01 -5.06D-03  3.16D-02 -8.69D-04  1.65D-01
                    CP:  3.18D-04  2.30D-01  2.10D-02  6.48D-01
 E= -3514.78384084898     Delta-E=        4.646085675207 Rises=F Damp=F
 DIIS: error= 4.47D-02 at cycle  10 NSaved=  10.
 NSaved=10 IEnMin= 9 EnMin= -3519.42992652419     IErMin=10 ErrMin= 4.47D-02
 ErrMax= 4.47D-02  0.00D+00 EMaxC= 1.00D-01 BMatC= 9.21D+00 BMatP= 2.44D+00
 IDIUse=2 WtCom= 0.00D+00 WtEn= 1.00D+00
 EnCoef did     7 forward-backward iterations
 Coeff-En:   0.302D-01 0.000D+00 0.000D+00 0.000D+00 0.000D+00 0.000D+00
 Coeff-En:   0.000D+00 0.000D+00 0.841D+00 0.128D+00
 Coeff:      0.302D-01 0.000D+00 0.000D+00 0.000D+00 0.000D+00 0.000D+00
 Coeff:      0.000D+00 0.000D+00 0.841D+00 0.128D+00
 Gap=     0.029 Goal=   None    Shift=    0.000
 Gap=    -0.142 Goal=   None    Shift=    0.000
 RMSDP=4.13D-03 MaxDP=4.12D-01 DE= 4.65D+00 OVMax= 9.76D-01

 Cycle  11  Pass 1  IDiag  1:
 RMSU=  3.01D-03    CP:  8.80D-01  8.50D-03  1.29D-02 -1.55D-03  1.74D-01
                    CP:  2.10D-04  1.63D-01  2.00D-02  5.71D-01  3.42D-01
 E= -3513.28034581625     Delta-E=        1.503495032737 Rises=F Damp=F
 DIIS: error= 2.53D-01 at cycle  11 NSaved=  11.
 NSaved=11 IEnMin= 9 EnMin= -3519.42992652419     IErMin=10 ErrMin= 4.47D-02
 ErrMax= 2.53D-01  0.00D+00 EMaxC= 1.00D-01 BMatC= 3.08D+01 BMatP= 2.44D+00
 IDIUse=2 WtCom= 0.00D+00 WtEn= 1.00D+00
 EnCoef did     3 forward-backward iterations
 Coeff-En:   0.000D+00 0.000D+00 0.000D+00 0.000D+00 0.000D+00 0.000D+00
 Coeff-En:   0.000D+00 0.000D+00 0.794D+00 0.793D-01 0.126D+00
 Coeff:      0.000D+00 0.000D+00 0.000D+00 0.000D+00 0.000D+00 0.000D+00
 Coeff:      0.000D+00 0.000D+00 0.794D+00 0.793D-01 0.126D+00
 Gap=     0.181 Goal=   None    Shift=    0.000
 Gap=     0.023 Goal=   None    Shift=    0.000
 RMSDP=2.79D-03 MaxDP=4.02D-01 DE= 1.50D+00 OVMax= 9.24D-01

 Cycle  12  Pass 1  IDiag  1:
 RMSU=  1.52D-03    CP:  8.67D-01 -3.54D-03  2.03D-02 -3.65D-04  2.08D-01
                    CP:  9.89D-04  2.40D-01  3.21D-02  7.76D-01  3.84D-01
                    CP:  3.28D-01
 E= -3519.74788012741     Delta-E=       -6.467534311161 Rises=F Damp=F
 DIIS: error= 1.68D-02 at cycle  12 NSaved=  12.
 NSaved=12 IEnMin=12 EnMin= -3519.74788012741     IErMin=12 ErrMin= 1.68D-02
 ErrMax= 1.68D-02  0.00D+00 EMaxC= 1.00D-01 BMatC= 1.04D+00 BMatP= 2.44D+00
 IDIUse=3 WtCom= 8.32D-01 WtEn= 1.68D-01
 EnCoef did     3 forward-backward iterations
 Coeff-Com:  0.610D-02-0.403D-02 0.332D-03-0.471D-03-0.280D-01-0.102D-02
 Coeff-Com: -0.189D-01 0.330D-02 0.458D+00 0.107D-01 0.393D-01 0.535D+00
 Coeff-En:   0.000D+00 0.000D+00 0.000D+00 0.000D+00 0.000D+00 0.000D+00
 Coeff-En:   0.000D+00 0.000D+00 0.365D+00 0.000D+00 0.162D-01 0.619D+00
 Coeff:      0.507D-02-0.335D-02 0.276D-03-0.392D-03-0.233D-01-0.847D-03
 Coeff:     -0.157D-01 0.275D-02 0.442D+00 0.892D-02 0.354D-01 0.549D+00
 Gap=     0.145 Goal=   None    Shift=    0.000
 Gap=    -0.002 Goal=   None    Shift=    0.000
 RMSDP=1.84D-03 MaxDP=2.11D-01 DE=-6.47D+00 OVMax= 5.31D-01

 Cycle  13  Pass 1  IDiag  1:
 RMSU=  1.22D-03    CP:  8.67D-01 -7.09D-04  1.76D-02  2.28D-03  2.01D-01
                    CP:  7.05D-04  2.32D-01  4.94D-02  9.18D-01  2.28D-01
                    CP:  2.54D-01  3.29D-01
 E= -3519.91345895745     Delta-E=       -0.165578830045 Rises=F Damp=F
 DIIS: error= 2.46D-02 at cycle  13 NSaved=  13.
 NSaved=13 IEnMin=13 EnMin= -3519.91345895745     IErMin=12 ErrMin= 1.68D-02
 ErrMax= 2.46D-02  0.00D+00 EMaxC= 1.00D-01 BMatC= 7.04D-01 BMatP= 1.04D+00
 IDIUse=3 WtCom= 8.32D-01 WtEn= 1.68D-01
 EnCoef did     4 forward-backward iterations
 Coeff-Com: -0.111D-02 0.261D-02-0.544D-03-0.666D-03-0.593D-02 0.221D-03
 Coeff-Com: -0.128D-02 0.170D-02 0.243D+00-0.187D-01-0.626D-02 0.433D+00
 Coeff-Com:  0.354D+00
 Coeff-En:   0.000D+00 0.000D+00 0.000D+00 0.000D+00 0.000D+00 0.000D+00
 Coeff-En:   0.000D+00 0.000D+00 0.112D+00 0.000D+00 0.000D+00 0.320D+00
 Coeff-En:   0.568D+00
 Coeff:     -0.927D-03 0.217D-02-0.452D-03-0.554D-03-0.493D-02 0.184D-03
 Coeff:     -0.106D-02 0.141D-02 0.221D+00-0.156D-01-0.521D-02 0.414D+00
 Coeff:      0.390D+00
 Gap=     0.144 Goal=   None    Shift=    0.000
 Gap=     0.037 Goal=   None    Shift=    0.000
 RMSDP=8.11D-04 MaxDP=1.13D-01 DE=-1.66D-01 OVMax= 2.27D-01

 Cycle  14  Pass 1  IDiag  1:
 RMSU=  4.90D-04    CP:  8.63D-01 -4.69D-03  1.95D-02  1.05D-03  2.00D-01
                    CP:  1.17D-03  2.48D-01  4.55D-02  8.77D-01  2.49D-01
                    CP:  2.48D-01  5.25D-01  5.98D-01
 E= -3520.05609046670     Delta-E=       -0.142631509247 Rises=F Damp=F
 DIIS: error= 3.87D-03 at cycle  14 NSaved=  14.
 NSaved=14 IEnMin=14 EnMin= -3520.05609046670     IErMin=14 ErrMin= 3.87D-03
 ErrMax= 3.87D-03  0.00D+00 EMaxC= 1.00D-01 BMatC= 2.35D-02 BMatP= 7.04D-01
 IDIUse=3 WtCom= 9.61D-01 WtEn= 3.87D-02
 Coeff-Com: -0.342D-02 0.394D-02-0.275D-03 0.536D-03-0.848D-03 0.104D-03
 Coeff-Com: -0.656D-03-0.841D-03 0.110D+00-0.103D-01-0.657D-02 0.175D+00
 Coeff-Com:  0.133D+00 0.600D+00
 Coeff-En:   0.000D+00 0.000D+00 0.000D+00 0.000D+00 0.000D+00 0.000D+00
 Coeff-En:   0.000D+00 0.000D+00 0.000D+00 0.000D+00 0.000D+00 0.000D+00
 Coeff-En:   0.000D+00 0.100D+01
 Coeff:     -0.328D-02 0.379D-02-0.265D-03 0.515D-03-0.815D-03 0.100D-03
 Coeff:     -0.630D-03-0.809D-03 0.106D+00-0.992D-02-0.632D-02 0.168D+00
 Coeff:      0.128D+00 0.615D+00
 Gap=     0.118 Goal=   None    Shift=    0.000
 Gap=     0.036 Goal=   None    Shift=    0.000
 RMSDP=2.42D-04 MaxDP=2.50D-02 DE=-1.43D-01 OVMax= 4.91D-02

 Cycle  15  Pass 1  IDiag  1:
 RMSU=  2.27D-04    CP:  8.64D-01 -4.35D-03  1.97D-02  1.15D-03  2.03D-01
                    CP:  1.10D-03  2.45D-01  4.49D-02  8.75D-01  2.48D-01
                    CP:  2.49D-01  5.25D-01  6.16D-01  8.54D-01
 E= -3520.05721196192     Delta-E=       -0.001121495226 Rises=F Damp=F
 DIIS: error= 4.81D-03 at cycle  15 NSaved=  15.
 NSaved=15 IEnMin=15 EnMin= -3520.05721196192     IErMin=14 ErrMin= 3.87D-03
 ErrMax= 4.81D-03  0.00D+00 EMaxC= 1.00D-01 BMatC= 2.80D-02 BMatP= 2.35D-02
 IDIUse=3 WtCom= 9.61D-01 WtEn= 3.87D-02
 Coeff-Com: -0.623D-02 0.861D-02 0.635D-04 0.347D-04-0.941D-04-0.776D-04
 Coeff-Com: -0.639D-03-0.290D-03 0.418D-01-0.450D-02-0.245D-02 0.188D-01
 Coeff-Com: -0.793D-01 0.397D+00 0.627D+00
 Coeff-En:   0.000D+00 0.000D+00 0.000D+00 0.000D+00 0.000D+00 0.000D+00
 Coeff-En:   0.000D+00 0.000D+00 0.000D+00 0.000D+00 0.000D+00 0.000D+00
 Coeff-En:   0.000D+00 0.426D+00 0.574D+00
 Coeff:     -0.599D-02 0.828D-02 0.611D-04 0.334D-04-0.905D-04-0.746D-04
 Coeff:     -0.614D-03-0.279D-03 0.402D-01-0.432D-02-0.235D-02 0.181D-01
 Coeff:     -0.762D-01 0.398D+00 0.625D+00
 Gap=     0.108 Goal=   None    Shift=    0.000
 Gap=     0.038 Goal=   None    Shift=    0.000
 RMSDP=2.19D-04 MaxDP=2.79D-02 DE=-1.12D-03 OVMax= 6.19D-02

 Cycle  16  Pass 1  IDiag  1:
 RMSU=  1.47D-04    CP:  8.63D-01 -4.98D-03  2.04D-02  1.02D-03  2.05D-01
                    CP:  1.22D-03  2.49D-01  4.50D-02  8.72D-01  2.40D-01
                    CP:  2.34D-01  5.32D-01  5.39D-01  1.06D+00  8.45D-01
 E= -3520.06322252709     Delta-E=       -0.006010565163 Rises=F Damp=F
 DIIS: error= 2.32D-03 at cycle  16 NSaved=  16.
 NSaved=16 IEnMin=16 EnMin= -3520.06322252709     IErMin=16 ErrMin= 2.32D-03
 ErrMax= 2.32D-03  0.00D+00 EMaxC= 1.00D-01 BMatC= 6.71D-03 BMatP= 2.35D-02
 IDIUse=3 WtCom= 9.77D-01 WtEn= 2.32D-02
 Coeff-Com: -0.585D-02 0.887D-02 0.115D-03 0.683D-04-0.337D-03-0.845D-04
 Coeff-Com: -0.787D-03-0.122D-04 0.709D-02-0.756D-02 0.161D-03 0.467D-03
[...]
 .00000445,-0.00000080,-0.00000056,-0.00000017,-0.00000029,0.00000065,-
 0.00000158,-0.00000030,0.00000224,0.00000207,-0.00000045,-0.00000171,0
 .00000262,0.,0.00000473,-0.00000075,-0.00000038,0.00007335,0.00047296,
 -0.00039665,-0.00003414,-0.00010186,-0.00071841,-0.00321220,-0.0031537
 7,0.00225537,-0.01190396,0.00858524,0.00487842,0.01681568,-0.02343121,
 -0.04710315,0.01457949,-0.01009725,0.00265231,-0.00239853,-0.00595297,
 0.00410540,0.00000506,-0.00000008,-0.00000619,-0.00000507,-0.00000886,
 -0.00000099,-0.00000412,-0.00000457,-0.00000250,-0.00000063,0.00000235
 ,0.00000137,0.00000051,0.00000948,-0.00000396,-0.00001069,0.00002237,-
 0.00000246,0.00000431,0.00000021,0.00000616,0.00000063,-0.00000024,-0.
 00000013,0.00000041,0.00000064,0.00000087,0.00000029,0.00000022,0.0000
 0074,0.00000054,-0.00000055,-0.00000047,0.00000127,0.00000030,-0.00000
 099,0.00000157,0.00000049,0.00000024,0.00000144,0.00000076,-0.00000020
 ,0.00000067,-0.00000027,0.00000038,0.00000012,-0.00000004,-0.00000040,
 0.00000004,0.00000053,-0.00000035,0.00000079,0.00000008,0.00000010,0.0
 0000010,0.,0.00000019,0.00000006,0.00000003,0.00000017,-0.00000006,0.0
 0000046,0.00000016,0.00002916,-0.00004719,0.00003892,-0.00061833,0.000
 29424,0.00023371,0.00130153,0.00152508,-0.00167036,-0.01646538,0.02938
 452,0.03888214,-0.00078167,-0.00035413,0.00101508,0.00019636,0.0003628
 8,-0.00099701,-0.00036181,-0.00023531,-0.00011046,0.00004765,0.0002467
 8,-0.00075750,0.00031529,-0.00007695,0.00062779,-0.00001578,0.00014016
 ,-0.00044856,0.00022429,0.00005549,0.00021933,-0.00006271,-0.00003849,
 0.00008732,0.00010794,-0.00015403,-0.00034925,0.00028653,-0.00128300,-
 0.00025257,0.00069528,-0.00036482,0.00111829,0.00134807,-0.00183629,-0
 .00024422,-0.00094014,0.00084291,0.00003905,0.00042419,-0.00110671,-0.
 00039760,-0.00047234,-0.00022320,-0.00000606,0.00007970,0.00000644,-0.
 00000617,-0.00002802,-0.00000778,0.00002779,0.00000050,0.00003414,0.00
 002101,0.00000110,0.00003871,-0.00000521,0.00003036,-0.00005623,0.0000
 0072,-0.00006580,-0.00000922,-0.00000787,-0.00000644,0.00000160,0.0000
 0291,0.00000556,-0.00000653,0.00000983,0.00000091,0.00000032,-0.000004
 17,0.00000189,-0.00000063,0.00000502,0.00000118,0.00000113,-0.00000017
 ,0.00000025,0.00000015,-0.00000095,-0.00000032,0.00000013,-0.00000343,
 0.00000064,0.00000118,0.00000167,0.00000032,-0.00000009,0.00000135,0.0
 0000116,0.00000159,0.00000039,-0.00000019,-0.00000054,-0.00000241,0.00
 000149,0.00000301,0.00000277,0.00000147,-0.00000848,-0.00001186,0.0000
 1792,-0.00000601,-0.00000232,-0.00000798,-0.00000101,0.00000108,0.0000
 0662,-0.00001189,-0.00000083,0.00001081,0.00000999,-0.00000108,-0.0000
 0086,0.00000959,0.00000067,-0.00000415,0.00000156,-0.00000389,-0.00101
 566,-0.00043613,-0.00058484,-0.00142997,0.00396910,0.00048997,0.000018
 52,0.00079108,0.00065240,0.00208874,0.00101537,-0.00113571,0.00360049,
 0.00207058,0.00063055,-0.26670699,-0.06229809,-0.11058401,-0.01753062,
 -0.00775143,-0.01124848,-0.00002531,-0.00001584,0.00000549,0.00000722,
 0.00001341,-0.00000686,0.00000247,-0.00000461,0.00000624,-0.00000319,-
 0.00000387,-0.00000627,-0.00001171,-0.00000268,-0.00001913,-0.00006187
 ,0.00009009,-0.00007977,-0.00001775,0.00004244,-0.00005437,-0.00000034
 ,-0.00000348,-0.00000176,0.00000500,0.00001001,-0.00000579,-0.00000172
 ,0.00000122,0.00000367,-0.00000101,-0.00000016,-0.00000123,-0.00000028
 ,0.00000169,-0.00000067,-0.00000036,0.00000143,0.00000024,-0.00000045,
 0.00000125,-0.00000019,0.,0.00000140,0.00000084,0.,0.00000024,0.000001
 75,-0.00000129,-0.00000029,-0.00000302,0.00000147,0.00000159,-0.000000
 33,0.00000239,-0.00000041,-0.00000029,0.00000221,-0.00000259,-0.000000
 41,-0.00000273,0.00000131,-0.00000045,-0.00026769,0.00023408,0.0000143
 1,-0.00011027,-0.00018788,0.00016094,0.00004538,0.00013885,0.00011851,
 0.00042610,-0.00097527,0.00108638,0.27982289,0.00020673,0.00020768,-0.
 00048480,0.00026269,-0.00038342,0.00054181,0.00021675,0.00031365,0.000
 17510,-0.00001132,-0.00011335,0.00046923,0.00011584,0.00009186,-0.0003
 2976,-0.00008117,-0.00010976,0.00061973,-0.00028475,-0.00008751,-0.000
 26850,0.00007562,0.00013929,-0.00018430,-0.00018079,-0.00029184,-0.000
 05725,-0.00039437,-0.00242795,0.00018385,0.00015641,-0.00121303,-0.002
 06131,-0.00170046,0.00002532,0.00136824,0.00042001,-0.00107200,-0.0000
 0846,-0.00034525,0.00125238,0.00054895,0.00063297,0.00042576,0.0003073
 3,-0.00000452,-0.00003246,-0.00002167,0.00001074,0.00001726,-0.0000081
 4,-0.00000944,-0.00002781,-0.00000540,-0.00000290,-0.00001189,0.000004
 10,-0.00000647,0.00003349,0.00000437,0.00003421,0.00001639,-0.00000289
 ,0.00000657,-0.00000413,-0.00000316,-0.00000634,0.00001195,-0.00001397
 ,-0.00000110,-0.00000140,0.00000475,-0.00000112,-0.00000023,-0.0000048
 0,0.00000003,-0.00000068,0.00000035,0.00000053,-0.00000016,0.00000156,
 -0.00000036,-0.00000142,0.00000070,-0.00000106,-0.00000088,-0.00000477
 ,-0.00000070,0.00000128,-0.00000174,-0.00000240,-0.00000231,0.00000104
 ,-0.00000065,0.00000225,0.00000579,-0.00000333,-0.00000323,-0.00000429
 ,-0.00000221,0.00000999,0.00001721,-0.00002863,0.00000483,0.00000502,0
 .00001228,0.00000065,-0.00000113,-0.00001074,0.00001483,0.00000156,-0.
 00001057,-0.00001194,0.00000166,-0.00000352,-0.00000782,0.00000009,0.0
 0001993,-0.00000414,-0.00000230,0.00109779,-0.00000921,0.00010522,0.00
 266089,-0.00046201,-0.00232726,0.00101395,-0.00130333,-0.00011865,0.00
 127308,-0.00168766,-0.00557350,-0.02323961,-0.00210652,-0.01202864,-0.
 06346140,-0.07258538,-0.04159493,0.01570541,0.00876626,0.00785555,0.00
 002683,0.00001130,0.00001928,0.00000355,-0.00001153,0.00001382,0.00000
 724,0.00000953,-0.00000492,0.00000841,0.00001545,-0.00000379,0.0000158
 2,-0.00000841,0.00000640,0.00001315,-0.00001182,0.00010211,0.00001972,
 -0.00004152,0.00003623,-0.00000178,0.00000592,0.00000219,0.00000049,-0
 .00000899,-0.00000428,0.00000170,-0.00000104,-0.00000510,0.00000053,0.
 00000102,0.00000286,-0.00000104,-0.00000281,0.00000216,-0.00000022,-0.
 00000185,-0.00000113,0.00000061,-0.00000228,0.,0.00000097,-0.00000165,
 -0.00000109,0.00000140,-0.00000061,-0.00000145,0.00000263,-0.00000101,
 0.00000371,-0.00000201,-0.00000222,0.00000007,-0.00000330,0.00000061,0
 .00000019,-0.00000284,0.00000344,0.00000034,0.00000340,-0.00000205,-0.
 00000017,0.00023053,-0.00015591,-0.00006232,-0.00019581,-0.00021027,0.
 00043019,-0.00102155,-0.00023969,-0.00049556,-0.00057141,-0.00038559,0
 .00272809,0.06732914,0.07366815,0.00049542,0.00030073,-0.00047214,-0.0
 0003578,-0.00074837,0.00060679,0.00003190,0.00016550,-0.00004209,-0.00
 009502,-0.00007187,0.00021414,0.00018222,-0.00000810,-0.00002236,-0.00
 007518,-0.00000800,0.00007635,0.00000237,0.00001091,-0.00010104,0.0001
 4485,-0.00001018,-0.00013537,-0.00000420,0.00010823,-0.00009632,-0.000
 03234,-0.00057414,0.00005463,0.00013777,-0.00130079,-0.00060637,-0.000
 18746,0.00063232,-0.00192276,0.00035802,0.00019962,-0.00010287,-0.0001
 2076,0.00015584,0.00003292,0.00010164,0.00004086,-0.00013033,-0.000012
 08,-0.00001577,0.00002932,-0.00000578,0.00000209,-0.00000956,-0.000000
 36,-0.00001410,-0.00001025,-0.00000409,-0.00001512,0.00000241,-0.00000
 593,0.00002999,-0.00000482,0.00001236,0.00001137,0.00000591,0.00000437
 ,-0.00000084,-0.00000124,-0.00000396,0.00000366,-0.00000627,-0.0000013
 2,-0.00000025,0.00000250,-0.00000196,0.00000088,-0.00000313,-0.0000014
 0,-0.00000037,-0.00000038,-0.00000040,0.00000044,0.00000064,0.00000033
 ,0.00000013,0.00000241,-0.00000036,-0.00000070,-0.00000037,-0.00000039
 ,0.00000066,-0.00000118,-0.00000080,-0.00000021,-0.00000024,-0.0000002
 3,0.00000018,0.00000213,-0.00000157,-0.00000282,-0.00000119,-0.0000009
 0,0.00000644,0.00000709,-0.00001371,0.00000212,0.00000151,0.00000625,0
 .00000111,-0.00000063,-0.00000532,0.00000830,0.00000050,-0.00000678,-0
 .00000648,0.00000053,-0.00000142,-0.00000599,-0.00000022,0.00000780,-0
 .00000017,0.00000050,0.00024063,0.00001609,0.00014246,-0.00031648,-0.0
 0251218,0.00317181,0.00046027,0.00041790,-0.00013616,-0.00037307,-0.00
 578825,0.00434678,-0.01517325,-0.00439186,-0.00271598,-0.11078697,-0.0
 4063261,-0.09707798,0.00328358,0.00093228,0.00500250,0.00000392,-0.000
 00216,-0.00000790,-0.00000357,0.00001149,-0.00001076,-0.00000463,-0.00
 000779,-0.00000565,-0.00001175,0.00000732,-0.00000034,-0.00000881,0.00
 001973,-0.00000031,-0.00008485,-0.00000150,-0.00002786,0.00000197,-0.0
 0001621,0.00002174,-0.00000147,0.00000386,0.00000141,0.00000167,0.0000
 0251,0.00000247,0.00000153,-0.00000131,-0.00000207,0.00000143,-0.00000
 013,0.00000018,0.00000077,-0.00000100,0.00000038,0.00000053,-0.0000011
 3,-0.00000025,0.00000063,-0.00000079,0.00000025,0.00000010,-0.00000124
 ,-0.00000069,0.00000009,-0.00000024,-0.00000155,0.00000115,0.00000024,
 0.00000222,-0.00000072,-0.00000121,0.00000033,-0.00000178,0.00000036,0
 .00000032,-0.00000168,0.00000201,0.00000047,0.00000198,-0.00000058,0.0
 0000042,0.00003059,-0.00011548,0.00012694,0.00017829,0.00047003,-0.000
 72154,-0.00063403,-0.00019041,-0.00012025,0.00140672,0.00264975,-0.003
 09816,0.12104362,0.05022248,0.09361205,-0.04303760,0.05263850,-0.01630
 074,-0.03624638,-0.00324861,0.02413951,0.00645970,0.00155020,-0.000112
 37,-0.00154429,-0.00131601,0.00468153,0.00177978,0.00120236,-0.0030961
 0,-0.00126689,-0.00119048,0.00371908,-0.00136451,-0.00006926,-0.002278
 26,0.00076035,0.00057618,-0.00075734,-0.00018562,-0.00024787,-0.000538
 98,-0.00317331,-0.00075107,0.00110770,0.00185245,0.00417075,-0.0085208
 8,-0.00168967,-0.00036883,0.00236662,0.00189036,-0.00112198,0.00173749
 ,-0.00371114,0.00922156,-0.01598333,0.00076652,-0.00088853,-0.00127463
 ,-0.00006558,-0.00011134,0.00002078,-0.00001802,0.00043787,-0.00009689
 ,0.00003791,-0.00015050,-0.00006809,-0.00014150,-0.00025532,0.00004086
 ,-0.00022637,0.00033163,0.00005791,0.00019571,0.00000919,0.00034026,-0
 .00000735,0.00001405,-0.00006813,0.00002857,0.00008361,-0.00010402,0.0
 0003668,-0.00008562,-0.00001760,0.00006203,-0.00001503,0.00003343,0.00
 001106,-0.00003570,0.00002557,0.00000792,0.00000726,0.00001818,-0.0000
 0983,-0.00000452,-0.00001218,-0.00000314,0.00002273,-0.00006202,-0.000
 00364,-0.00001306,0.00000915,-0.00000813,-0.00001985,0.00001189,0.0000
 0463,0.00001601,0.00003443,-0.00000123,0.00000977,-0.00001973,-0.00000
 885,-0.00001757,0.00005754,-0.00006291,0.00005451,0.00003334,0.0000228
 6,-0.00000744,0.00000392,-0.00001903,0.00004608,0.00000691,-0.00005389
 ,-0.00003535,0.00001128,0.00003418,-0.00004123,0.00000211,-0.00005716,
 0.00000581,0.00004685,-0.00046980,-0.00026993,0.00006415,-0.00020498,-
 0.00012066,-0.00003333,0.00012152,0.00012853,0.00009911,0.00019131,-0.
 00012880,-0.00000056,-0.00020833,-0.00033024,0.00002362,-0.00001676,0.
 00026415,-0.00016626,0.00030063,0.00046136,0.00008023,-0.00033510,-0.0
 0000170,-0.00022017,0.00011410,0.00018670,-0.00009612,-0.00003227,-0.0
 0003906,0.00000115,-0.00000712,-0.00002748,-0.00003292,0.00005956,0.00
 002404,0.00003746,0.00001918,-0.00012829,0.00005386,-0.00009599,-0.000
 21863,0.00024440,0.00000350,0.00001761,-0.00004077,0.00001106,-0.00003
 954,-0.00007547,-0.00005319,0.00007355,-0.00001590,-0.00004204,-0.0000
 0771,0.00004706,-0.00000992,0.00000387,0.00000129,0.00000280,0.0000084
 3,0.00000661,-0.00000119,-0.00000451,-0.00000739,0.00000486,0.00000283
 ,0.00000650,0.00000498,-0.00000130,0.00000686,0.00000325,-0.00000761,0
 .00000554,-0.00001149,-0.00000110,-0.00000435,-0.00000043,-0.00000006,
 -0.00000438,-0.00000312,0.00000063,-0.00000413,0.00000242,0.00000036,-
 0.00000732,-0.00001090,-0.00012369,-0.00008740,-0.00002288,0.00000989,
 -0.00003970,0.00002870,0.00001346,-0.00005319,0.00001600,-0.00004072,0
 .00000455,0.00010708,0.00000660,-0.00012223,0.07948986,0.04518213,-0.0
 4609739,0.01025712,0.01494711,0.00358809,-0.01237826,-0.00476577,-0.00
 150098,0.00147161,0.00023555,0.00028108,-0.00217959,-0.00086258,-0.000
 58503,0.00118739,0.00053759,0.00042176,-0.00132503,0.00037024,-0.00004
 243,0.00084970,-0.00016564,-0.00025270,0.00026583,-0.00007023,-0.00005
 701,0.00039763,0.00170808,0.00057561,-0.00025414,-0.00179916,-0.001264
 27,0.00450308,0.00113054,-0.00105571,-0.00293432,-0.00123978,0.0034885
 8,-0.00463206,0.00542364,-0.01529465,0.03565298,-0.00077161,-0.0011989
 1,-0.00139286,0.00013756,0.00002952,0.00013715,0.00011378,0.00008732,-
 0.00001632,0.00003827,0.00000031,-0.00006253,0.00006296,0.00000318,-0.
 00002468,-0.00007386,-0.00007694,0.00004984,-0.00003666,-0.00003417,0.
 00003008,-0.00001731,-0.00002577,-0.00000345,0.00001228,0.00002270,-0.
 00004941,0.00004766,0.00003056,0.00000411,0.00004574,-0.00002426,0.000
 02484,0.00002215,-0.00003121,0.00001222,0.00000845,-0.00001880,-0.0000
 0127,-0.00000623,-0.00000953,-0.00002090,-0.00000463,0.00000086,-0.000
 03295,0.00000373,-0.00000978,0.00000322,-0.00000032,-0.00001877,0.0000
 0199,0.00000840,0.00000950,0.00001239,0.00000260,0.00000664,-0.0000180
 8,0.00000945,-0.00000022,0.00004089,-0.00000507,0.00003750,0.00000760,
 -0.00000834,-0.00002124,0.00000184,0.00000709,-0.00001481,-0.00000218,
 0.00002027,-0.00000500,-0.00000835,0.00001547,0.00004051,-0.00001094,-
 0.00001034,-0.00003208,-0.00000812,-0.00016195,-0.00026010,-0.00007679
 ,-0.00013263,-0.00004306,-0.00001064,0.00012500,-0.00024544,-0.0000813
 7,-0.00030217,-0.00003650,-0.00010503,0.00010007,0.00022415,0.00012308
 ,0.00002671,-0.00037680,-0.00001010,0.00036629,-0.00011965,0.00017566,
 0.00026789,0.00019836,0.00003459,-0.00023131,-0.00008595,0.00013696,-0
 .00000981,0.00002269,-0.00000691,-0.00000827,0.00002907,0.00002232,-0.
 00003633,0.00000858,0.00001121,-0.00002189,0.00008858,0.00001718,-0.00
 000026,0.00002936,0.00008092,0.00004794,-0.00005915,0.00003954,-0.0000
 6025,-0.00006596,-0.00005190,-0.00002276,0.00002538,0.00000216,-0.0000
 3079,0.00001736,0.00002086,-0.00002142,-0.00000233,0.00000713,-0.00001
 138,0.00000134,0.00000115,-0.00000914,-0.00000406,-0.00000302,-0.00000
 248,0.00000313,0.00000270,-0.00000179,0.00000087,0.00000516,-0.0000035
 4,-0.00000268,0.00000360,-0.00000916,0.00000187,0.00000005,0.00000309,
 -0.00000274,0.00000116,0.00001001,-0.00000772,0.00000263,-0.00000375,-
 0.00001915,0.00001205,-0.00000336,-0.00004876,-0.00007465,-0.00000035,
 -0.00000027,0.00000057,-0.00000574,0.00000620,0.00000629,0.00001218,0.
 00001675,-0.00002820,-0.00000798,0.00000221,0.00001287,-0.06011388,0.0
 5975238,-0.01063207,0.00889222,-0.00129670,0.01254321,-0.00309720,-0.0
 0469420,-0.00132228,-0.00051246,0.00090560,0.00006892,-0.00010387,-0.0
 0118401,-0.00054699,-0.00038940,0.00036083,0.00034009,0.00038414,-0.00
 084164,0.00038368,0.00002289,0.00057654,-0.00019207,-0.00037032,0.0002
 0332,0.00009748,0.00031361,0.00020137,0.00101806,0.00060834,-0.0007838
 5,0.00219728,-0.00289888,0.00000366,-0.00312749,0.00907486,0.00164222,
 -0.00117138,-0.02977336,-0.03892737,-0.01299648,0.04788845,-0.07366767
 ,0.00359562,0.00353198,0.00462769,-0.00103952,0.00094544,-0.00008477,-
 0.00023829,-0.00095504,0.00011213,-0.00020479,0.00031831,0.00015525,0.
 00026478,0.00017450,-0.00013886,0.00010345,-0.00019237,-0.00001224,-0.
 00005272,-0.00013110,0.00007461,-0.00004794,0.00003680,0.00003962,0.00
 003892,-0.00012996,0.00014028,0.00000740,0.00008741,-0.00002466,-0.000
 02084,-0.00000283,0.00004029,-0.00000526,0.00003227,-0.00002632,-0.000
 00980,-0.00000590,-0.00001980,0.00000357,0.00000510,-0.00001681,0.0000
 0775,-0.00001138,0.00005840,-0.00000143,0.00000912,0.00000147,0.000010
 48,0.00002956,-0.00000668,-0.00000693,-0.00002044,-0.00004377,0.000017
 97,0.00001235,0.00003336,0.00003574,-0.00005367,-0.00013778,0.00022191
 ,0.00000819,-0.00004581,-0.00008516,0.00001858,0.00001098,0.00007531,-
 0.00008852,-0.00001618,0.00004729,0.00005129,-0.00001471,0.00003856,0.
 00000748,-0.00001571,-0.00021596,0.00006739,0.00000665,0.00284774,-0.0
 0343875,-0.00162239,-0.00040733,0.00278829,0.00155210,0.00167715,-0.00
 302945,-0.00128153,-0.00215491,0.00069467,-0.00026649,-0.00024583,0.00
 089773,0.00019466,-0.00081323,0.00048343,0.00044421,-0.00122746,-0.003
 43036,-0.00303684,0.00000146,0.00019450,-0.00005563,-0.00010666,-0.000
 04903,0.00006854,-0.00002196,0.00002711,-0.00000867,-0.00002206,0.0000
 3259,0.00003108,-0.00000888,-0.00002734,0.00000818,-0.00004321,0.00014
 151,0.00003503,0.00015081,0.00049327,-0.00032328,0.00001283,-0.0000485
 8,0.00005283,-0.00003978,0.00002841,-0.00000939,0.00002382,-0.00003528
 ,0.00005312,0.00002640,0.00000894,-0.00005107,0.00001028,0.00001256,-0
 .00000844,0.00000077,0.00000513,-0.00000378,0.00000342,0.00001477,0.00
 000245,0.00000123,0.00000731,0.00000293,-0.00000315,0.00000112,0.00000
 577,-0.00001460,0.00000851,-0.00002362,0.00001701,0.00001002,0.0000025
 2,0.00001579,-0.00000362,0.00000262,0.00001820,-0.00001630,0.00000451,
 -0.00001876,0.00001226,0.00001453,0.00004768,0.00036009,0.00015434,-0.
 00001288,-0.00004272,0.00001342,-0.00004433,-0.00000048,0.00004264,0.0
 0004599,0.00004533,0.00003084,-0.00004981,-0.00010193,0.00012559,0.011
 13417,-0.02982729,0.11665453\\0.00000218,0.00001503,0.00000285,-0.0000
 1495,-0.00001200,0.00000525,0.00001267,0.00000402,-0.00000286,-0.00000
 526,-0.00000384,0.00000410,0.00000845,0.00000341,0.00000106,-0.0000025
 5,-0.00000206,-0.00000254,0.00000267,0.00000081,0.00000157,-0.00000351
 ,-0.00000149,-0.00000085,0.00000295,0.00000124,-0.00000604,-0.00000842
 ,-0.00000241,0.00000633,0.00000937,0.00000470,-0.00001005,-0.00000142,
 0.00000234,-0.00000121,0.00000111,-0.00002223,0.00001344,-0.00000159,0
 .00004079,-0.00000182,0.00001704,-0.00001076,-0.00000572,-0.00002158,-
 0.00000579,0.00000437,0.00000114,0.00001014,-0.00000145,0.00001128,0.0
 0000027,-0.00000005,-0.00000256,-0.00001172,-0.00000034,-0.00000970,0.
 00000842,0.00000062,0.00001267,-0.00000094,-0.00000040,0.00000243,0.00
 000128,0.00000239,0.00000133,0.00000310,0.00000092,0.00000014,-0.00000
 034,0.00000025,0.00000071,0.00000113,0.00000131,-0.00000064,-0.0000015
 3,-0.00000058,0.00000094,0.00000170,0.00000228,-0.00000226,-0.00000530
 ,-0.00000528,-0.00000020,-0.00000299,0.00000658,0.00000019,0.00000138,
 -0.00000294,-0.00000055,-0.00000152,0.00000096,0.00000012,0.00000116,-
 0.00000125,0.00000019,0.00000037,0.00000076,0.00000028,0.00000185,-0.0
 0000384,-0.00000297,-0.00000113,0.00000045,0.00000002,0.00000037,0.000
 00046,-0.00000142,-0.00000106,0.00000053,0.00000159,0.00000115,0.00000
 023,-0.00000222,-0.00000010,0.00000099,0.00000394,0.00000468,-0.000000
 52,-0.00000275,0.00000067,0.00000003,-0.00000271,-0.00000151,-0.000003
 10,0.00000966,-0.00000410,-0.00000061,-0.00000898,-0.00000012,-0.00000
 329,0.00000639,0.00000430,0.00000518,0.00000469,-0.00000923,-0.0000054
 3,-0.00001427,0.00000820,0.00000160,-0.00000151,0.00000017,0.00000023,
 0.00000069,0.00000200,-0.00000091,0.00000027,-0.00000002,0.00000174,-0
 .00000026,-0.00000045,-0.00000005,0.00000030,0.00000031,0.00000046,-0.
 00000104,0.00000033,0.00000238,0.00000114,-0.00000180,0.00000085,-0.00
 000345,0.00000040,0.00000016,0.00000244,-0.00000052,-0.00000088,-0.000
 00010,0.00000040,-0.00000091,-0.00000012,-0.00000087,-0.00000006,0.000
 00030,0.00000010,-0.00000008,-0.00000016,-0.00000031,-0.00000073,0.,-0
 .00000009,0.00000077,0.00000001,0.00000063,-0.00000012,-0.00000032,-0.
 00000042,0.00000034,0.00000010,0.00000052,0.00000105,0.00000062,-0.000
 00058,0.00000012,0.00000048,0.00000056,0.00000032,-0.00000027,-0.00000
 036,0.00000044,0.00000069,-0.00000016,0.00000021,-0.00000196,0.0000013
 9,0.00000114,-0.00000241,0.00000179,0.00000028,-0.00000028,0.00000045,
 0.00000008,-0.00000083,0.00000032,-0.00000090,-0.00000119,0.00000181,0
 .00000086,0.00000319,-0.00002594,-0.00001111\\\@
 The archive entry for this job was punched.


 WHEN YOU REACH FOR THE STARS, YOU MAY NOT QUITE GET ONE,
 BUT YOU WON'T COME UP WITH A HANDFUL OF MUD, EITHER.

                                         -- LEO BURNETT (AD AGENCY HEAD)
 Job cpu time:       1 days  9 hours 58 minutes 37.0 seconds.
 Elapsed time:       0 days  1 hours  4 minutes  1.4 seconds.
 File lengths (MBytes):  RWF=   8743 Int=      0 D2E=      0 Chk=     64 Scr=      1
 Normal termination of Gaussian 16 at Fri Mar 28 07:27:16 2025.
