 Entering Gaussian System, Link 0=g16
 Initial command:
 /public/software/apps/Gaussian/g16/l1.exe "/tmp/Gau-86236.inp" -scrdir="/tmp/"
 Entering Link 1 = /public/software/apps/Gaussian/g16/l1.exe PID=     86237.
  
 Copyright (c) 1988-2019, Gaussian, Inc.  All Rights Reserved.
  
 This is part of the Gaussian(R) 16 program.  It is based on
 the Gaussian(R) 09 system (copyright 2009, Gaussian, Inc.),
 the Gaussian(R) 03 system (copyright 2003, Gaussian, Inc.),
 the Gaussian(R) 98 system (copyright 1998, Gaussian, Inc.),
 the Gaussian(R) 94 system (copyright 1995, Gaussian, Inc.),
 the Gaussian 92(TM) system (copyright 1992, Gaussian, Inc.),
 the Gaussian 90(TM) system (copyright 1990, Gaussian, Inc.),
 the Gaussian 88(TM) system (copyright 1988, Gaussian, Inc.),
 the Gaussian 86(TM) system (copyright 1986, Carnegie Mellon
 University), and the Gaussian 82(TM) system (copyright 1983,
 Carnegie Mellon University). Gaussian is a federally registered
 trademark of Gaussian, Inc.
  
 This software contains proprietary and confidential information,
 including trade secrets, belonging to Gaussian, Inc.
  
 This software is provided under written license and may be
 used, copied, transmitted, or stored only in accord with that
 written license.
  
 The following legend is applicable only to US Government
 contracts under FAR:
  
                    RESTRICTED RIGHTS LEGEND
  
 Use, reproduction and disclosure by the US Government is
 subject to restrictions as set forth in subparagraphs (a)
 and (c) of the Commercial Computer Software - Restricted
 Rights clause in FAR 52.227-19.
  
 Gaussian, Inc.
 340 Quinnipiac St., Bldg. 40, Wallingford CT 06492
  
  
 ---------------------------------------------------------------
 Warning -- This program may not be used in any manner that
 competes with the business of Gaussian, Inc. or will provide
 assistance to any competitor of Gaussian, Inc.  The licensee
 of this program is prohibited from giving any competitor of
 Gaussian, Inc. access to this program.  By using this program,
 the user acknowledges that Gaussian, Inc. is engaged in the
 business of creating and licensing software in the field of
 computational chemistry and represents and warrants to the
 licensee that it is not a competitor of Gaussian, Inc. and that
 it will not use this program in any manner prohibited above.
 ---------------------------------------------------------------
  

 Cite this work as:
 Gaussian 16, Revision C.01,
 M. J. Frisch, G. W. Trucks, H. B. Schlegel, G. E. Scuseria, 
 M. A. Robb, J. R. Cheeseman, G. Scalmani, V. Barone, 
 G. A. Petersson, H. Nakatsuji, X. Li, M. Caricato, A. V. Marenich, 
 J. Bloino, B. G. Janesko, R. Gomperts, B. Mennucci, H. P. Hratchian, 
 J. V. Ortiz, A. F. Izmaylov, J. L. Sonnenberg, D. Williams-Young, 
 F. Ding, F. Lipparini, F. Egidi, J. Goings, B. Peng, A. Petrone, 
 T. Henderson, D. Ranasinghe, V. G. Zakrzewski, J. Gao, N. Rega, 
 G. Zheng, W. Liang, M. Hada, M. Ehara, K. Toyota, R. Fukuda, 
 J. Hasegawa, M. Ishida, T. Nakajima, Y. Honda, O. Kitao, H. Nakai, 
 T. Vreven, K. Throssell, J. A. Montgomery, Jr., J. E. Peralta, 
 F. Ogliaro, M. J. Bearpark, J. J. Heyd, E. N. Brothers, K. N. Kudin, 
 V. N. Staroverov, T. A. Keith, R. Kobayashi, J. Normand, 
 K. Raghavachari, A. P. Rendell, J. C. Burant, S. S. Iyengar, 
 J. Tomasi, M. Cossi, J. M. Millam, M. Klene, C. Adamo, R. Cammi, 
 J. W. Ochterski, R. L. Martin, K. Morokuma, O. Farkas, 
 J. B. Foresman, and D. J. Fox, Gaussian, Inc., Wallingford CT, 2019.
 
 ******************************************
 Gaussian 16:  ES64L-G16RevC.01  3-Jul-2019
                28-Mar-2025 
 ******************************************
 %nprocshared=32
 Will use up to   32 processors via shared memory.
 %mem=100GB
 ------------------------------------------
 #p opt freq b3lyp/def2svpp em=gd3bj nosymm
 ------------------------------------------
 1/18=20,19=15,26=3,38=1/1,3;
 2/9=110,12=2,15=1,17=6,18=5,40=1/2;
 3/5=43,7=202,11=2,25=1,30=1,71=1,74=-5,124=41/1,2,3;
 4//1;
 5/5=2,38=5/2;
 6/7=2,8=2,9=2,10=2,28=1/1;
 7/30=1/1,2,3,16;
 1/18=20,19=15,26=3/3(2);
 2/9=110,15=1/2;
 99//99;
 2/9=110,15=1/2;
 3/5=43,7=202,11=2,25=1,30=1,71=1,74=-5,124=41/1,2,3;
 4/5=5,16=3,69=1/1;
 5/5=2,38=5/2;
 7/30=1/1,2,3,16;
 1/18=20,19=15,26=3/3(-5);
 2/9=110,15=1/2;
 6/7=2,8=2,9=2,10=2,19=2,28=1/1;
 99/9=1/99;
 Leave Link    1 at Fri Mar 28 06:37:58 2025, MaxMem= 13421772800 cpu:               1.7 elap:               0.1
 (Enter /public/software/apps/Gaussian/g16/l101.exe)
 ------------------
 $$$$Title####0????
 ------------------
 Symbolic Z-matrix:
 Charge =  0 Multiplicity = 2
 C                     10.75704   1.95338   1.86216 
 O                     10.10473   2.26018   0.63424 
 C                     8.74372   2.03223   0.38211 
 C                     8.23194   2.38232  -0.87163 
 C                     6.88298   2.1752   -1.17283 
 C                     6.01712   1.6118   -0.21886 
 C                     4.58297   1.39127  -0.53677 
 C                     3.58923   1.65764   0.42177 
 C                     2.24003   1.44956   0.1228 
 C                     1.85677   0.96559  -1.13834 
 C                     0.42553   0.752    -1.46175 
 C                    -0.10619   1.30314  -2.63571 
 C                    -1.46112   1.14553  -2.95156 
 C                    -1.98199   1.72947  -4.11773 
 C                    -3.33581   1.59534  -4.42818 
 C                    -4.18195   0.88446  -3.57768 
 C                    -3.67929   0.29637  -2.41485 
 C                    -2.31004   0.40677  -2.08885 
 C                    -1.76635  -0.18991  -0.92337 
 C                    -2.59903  -1.01264  -0.00406 
 C                    -2.89807  -0.50106   1.27259 
 O                    -2.35955   0.72386   1.66082 
 C                    -3.71113  -1.22593   2.1638 
 C                    -4.05623  -0.68246   3.49984 
 C                    -4.57516   0.61832   3.6312 
 C                    -4.90733   1.12212   4.89258 
 C                    -4.72932   0.33289   6.03158 
 C                    -4.22149  -0.96307   5.91115 
 C                    -3.88834  -1.47159   4.65193 
 C                    -4.1973   -2.48453   1.78386 
 C                    -3.88179  -3.02696   0.53222 
 C                    -4.36579  -4.29622   0.17584 
 C                    -4.04259  -4.85069  -1.0632 
 C                    -3.23157  -4.14853  -1.95416 
 C                    -2.74393  -2.88427  -1.61578 
 C                    -3.07046  -2.2977   -0.37369 
 C                    -0.40762   0.0021   -0.61072 
 O                     0.11425  -0.57188   0.54653 
 C                     2.84642   0.70677  -2.09995 
 C                     4.19584   0.91497  -1.80192 
 C                     6.53239   1.26062   1.04159 
 C                     7.88225   1.46751   1.34071 
 H                     10.69162   0.86398   2.06749 
 H                     10.29599   2.52767   2.69334 
 H                     11.82669   2.2367    1.78511 
 H                     8.88364   2.82112  -1.61663 
 H                     6.51368   2.47263  -2.14624 
 H                     3.85355   2.04801   1.39652 
 H                     1.49309   1.68401   0.87121 
 H                     0.5346    1.88186  -3.29208 
 H                    -1.34278   2.29338  -4.78686 
 H                    -3.73139   2.04906  -5.32774 
 H                    -5.23289   0.79     -3.81904 
 H                    -4.36998  -0.23796  -1.77611 
 H                    -4.73702   1.23715   2.75732 
 H                    -5.30709   2.12356   4.98641 
 H                    -4.98734   0.72452   7.00703 
 H                    -4.08486  -1.57394   6.79413 
 H                    -3.48861  -2.47544   4.57706 
 H                    -4.82877  -3.04199   2.46708 
 H                    -4.99067  -4.86122   0.85746 
 H                    -4.41729  -5.83015  -1.33115 
 H                    -2.97733  -4.58643  -2.91084 
 H                    -2.109    -2.37699  -2.32991 
 H                     2.57494   0.32824  -3.07784 
 H                     4.93821   0.68488  -2.55577 
 H                     5.89499   0.80879   1.79132 
 H                     8.24582   1.18189   2.31832 
 Cu                   -0.41552   0.98808   1.61294 
 
 ITRead=  0  0  0  0  0  0  0  0  0  0  0  0  0  0  0  0  0  0  0  0
 ITRead=  0  0  0  0  0  0  0  0  0  0  0  0  0  0  0  0  0  0  0  0
 ITRead=  0  0  0  0  0  0  0  0  0  0  0  0  0  0  0  0  0  0  0  0
 ITRead=  0  0  0  0  0  0  0  0  0
 MicOpt= -1 -1 -1 -1 -1 -1 -1 -1 -1 -1 -1 -1 -1 -1 -1 -1 -1 -1 -1 -1
 MicOpt= -1 -1 -1 -1 -1 -1 -1 -1 -1 -1 -1 -1 -1 -1 -1 -1 -1 -1 -1 -1
 MicOpt= -1 -1 -1 -1 -1 -1 -1 -1 -1 -1 -1 -1 -1 -1 -1 -1 -1 -1 -1 -1
 MicOpt= -1 -1 -1 -1 -1 -1 -1 -1 -1
 NAtoms=     69 NQM=       69 NQMF=       0 NMMI=      0 NMMIF=      0
                NMic=       0 NMicF=      0.
                    Isotopes and Nuclear Properties:
 (Nuclear quadrupole moments (NQMom) in fm**2, nuclear magnetic moments (NMagM)
  in nuclear magnetons)

  Atom         1           2           3           4           5           6           7           8           9          10
 IAtWgt=          12          16          12          12          12          12          12          12          12          12
 AtmWgt=  12.0000000  15.9949146  12.0000000  12.0000000  12.0000000  12.0000000  12.0000000  12.0000000  12.0000000  12.0000000
 NucSpn=           0           0           0           0           0           0           0           0           0           0
 AtZEff=  -0.0000000  -0.0000000  -0.0000000  -0.0000000  -0.0000000  -0.0000000  -0.0000000  -0.0000000  -0.0000000  -0.0000000
 NQMom=    0.0000000   0.0000000   0.0000000   0.0000000   0.0000000   0.0000000   0.0000000   0.0000000   0.0000000   0.0000000
 NMagM=    0.0000000   0.0000000   0.0000000   0.0000000   0.0000000   0.0000000   0.0000000   0.0000000   0.0000000   0.0000000
 AtZNuc=   6.0000000   8.0000000   6.0000000   6.0000000   6.0000000   6.0000000   6.0000000   6.0000000   6.0000000   6.0000000

  Atom        11          12          13          14          15          16          17          18          19          20
 IAtWgt=          12          12          12          12          12          12          12          12          12          12
 AtmWgt=  12.0000000  12.0000000  12.0000000  12.0000000  12.0000000  12.0000000  12.0000000  12.0000000  12.0000000  12.0000000
 NucSpn=           0           0           0           0           0           0           0           0           0           0
 AtZEff=  -0.0000000  -0.0000000  -0.0000000  -0.0000000  -0.0000000  -0.0000000  -0.0000000  -0.0000000  -0.0000000  -0.0000000
 NQMom=    0.0000000   0.0000000   0.0000000   0.0000000   0.0000000   0.0000000   0.0000000   0.0000000   0.0000000   0.0000000
 NMagM=    0.0000000   0.0000000   0.0000000   0.0000000   0.0000000   0.0000000   0.0000000   0.0000000   0.0000000   0.0000000
 AtZNuc=   6.0000000   6.0000000   6.0000000   6.0000000   6.0000000   6.0000000   6.0000000   6.0000000   6.0000000   6.0000000

  Atom        21          22          23          24          25          26          27          28          29          30
 IAtWgt=          12          16          12          12          12          12          12          12          12          12
 AtmWgt=  12.0000000  15.9949146  12.0000000  12.0000000  12.0000000  12.0000000  12.0000000  12.0000000  12.0000000  12.0000000
 NucSpn=           0           0           0           0           0           0           0           0           0           0
 AtZEff=  -0.0000000  -0.0000000  -0.0000000  -0.0000000  -0.0000000  -0.0000000  -0.0000000  -0.0000000  -0.0000000  -0.0000000
 NQMom=    0.0000000   0.0000000   0.0000000   0.0000000   0.0000000   0.0000000   0.0000000   0.0000000   0.0000000   0.0000000
 NMagM=    0.0000000   0.0000000   0.0000000   0.0000000   0.0000000   0.0000000   0.0000000   0.0000000   0.0000000   0.0000000
 AtZNuc=   6.0000000   8.0000000   6.0000000   6.0000000   6.0000000   6.0000000   6.0000000   6.0000000   6.0000000   6.0000000

  Atom        31          32          33          34          35          36          37          38          39          40
 IAtWgt=          12          12          12          12          12          12          12          16          12          12
 AtmWgt=  12.0000000  12.0000000  12.0000000  12.0000000  12.0000000  12.0000000  12.0000000  15.9949146  12.0000000  12.0000000
 NucSpn=           0           0           0           0           0           0           0           0           0           0
 AtZEff=  -0.0000000  -0.0000000  -0.0000000  -0.0000000  -0.0000000  -0.0000000  -0.0000000  -0.0000000  -0.0000000  -0.0000000
 NQMom=    0.0000000   0.0000000   0.0000000   0.0000000   0.0000000   0.0000000   0.0000000   0.0000000   0.0000000   0.0000000
 NMagM=    0.0000000   0.0000000   0.0000000   0.0000000   0.0000000   0.0000000   0.0000000   0.0000000   0.0000000   0.0000000
 AtZNuc=   6.0000000   6.0000000   6.0000000   6.0000000   6.0000000   6.0000000   6.0000000   8.0000000   6.0000000   6.0000000

  Atom        41          42          43          44          45          46          47          48          49          50
 IAtWgt=          12          12           1           1           1           1           1           1           1           1
 AtmWgt=  12.0000000  12.0000000   1.0078250   1.0078250   1.0078250   1.0078250   1.0078250   1.0078250   1.0078250   1.0078250
 NucSpn=           0           0           1           1           1           1           1           1           1           1
 AtZEff=  -0.0000000  -0.0000000  -0.0000000  -0.0000000  -0.0000000  -0.0000000  -0.0000000  -0.0000000  -0.0000000  -0.0000000
 NQMom=    0.0000000   0.0000000   0.0000000   0.0000000   0.0000000   0.0000000   0.0000000   0.0000000   0.0000000   0.0000000
 NMagM=    0.0000000   0.0000000   2.7928460   2.7928460   2.7928460   2.7928460   2.7928460   2.7928460   2.7928460   2.7928460
 AtZNuc=   6.0000000   6.0000000   1.0000000   1.0000000   1.0000000   1.0000000   1.0000000   1.0000000   1.0000000   1.0000000

  Atom        51          52          53          54          55          56          57          58          59          60
 IAtWgt=           1           1           1           1           1           1           1           1           1           1
 AtmWgt=   1.0078250   1.0078250   1.0078250   1.0078250   1.0078250   1.0078250   1.0078250   1.0078250   1.0078250   1.0078250
 NucSpn=           1           1           1           1           1           1           1           1           1           1
 AtZEff=  -0.0000000  -0.0000000  -0.0000000  -0.0000000  -0.0000000  -0.0000000  -0.0000000  -0.0000000  -0.0000000  -0.0000000
 NQMom=    0.0000000   0.0000000   0.0000000   0.0000000   0.0000000   0.0000000   0.0000000   0.0000000   0.0000000   0.0000000
 NMagM=    2.7928460   2.7928460   2.7928460   2.7928460   2.7928460   2.7928460   2.7928460   2.7928460   2.7928460   2.7928460
 AtZNuc=   1.0000000   1.0000000   1.0000000   1.0000000   1.0000000   1.0000000   1.0000000   1.0000000   1.0000000   1.0000000

  Atom        61          62          63          64          65          66          67          68          69
 IAtWgt=           1           1           1           1           1           1           1           1          63
 AtmWgt=   1.0078250   1.0078250   1.0078250   1.0078250   1.0078250   1.0078250   1.0078250   1.0078250  62.9295992
 NucSpn=           1           1           1           1           1           1           1           1           3
 AtZEff=  -0.0000000  -0.0000000  -0.0000000  -0.0000000  -0.0000000  -0.0000000  -0.0000000  -0.0000000  -0.0000000
 NQMom=    0.0000000   0.0000000   0.0000000   0.0000000   0.0000000   0.0000000   0.0000000   0.0000000 -22.0000000
 NMagM=    2.7928460   2.7928460   2.7928460   2.7928460   2.7928460   2.7928460   2.7928460   2.7928460   2.2233000
 AtZNuc=   1.0000000   1.0000000   1.0000000   1.0000000   1.0000000   1.0000000   1.0000000   1.0000000  29.0000000
 Leave Link  101 at Fri Mar 28 06:37:58 2025, MaxMem= 13421772800 cpu:               3.7 elap:               0.1
 (Enter /public/software/apps/Gaussian/g16/l103.exe)

 GradGradGradGradGradGradGradGradGradGradGradGradGradGradGradGradGradGrad
 Berny optimization.
 Initialization pass.
                           ----------------------------
                           !    Initial Parameters    !
                           ! (Angstroms and Degrees)  !
 --------------------------                            --------------------------
 ! Name  Definition              Value          Derivative Info.                !
 --------------------------------------------------------------------------------
 ! R1    R(1,2)                  1.4239         estimate D2E/DX2                !
 ! R2    R(1,43)                 1.1105         estimate D2E/DX2                !
 ! R3    R(1,44)                 1.1105         estimate D2E/DX2                !
 ! R4    R(1,45)                 1.1092         estimate D2E/DX2                !
 ! R5    R(2,3)                  1.4028         estimate D2E/DX2                !
 ! R6    R(3,4)                  1.3987         estimate D2E/DX2                !
 ! R7    R(3,42)                 1.4071         estimate D2E/DX2                !
 ! R8    R(4,5)                  1.3976         estimate D2E/DX2                !
 ! R9    R(4,46)                 1.0827         estimate D2E/DX2                !
 ! R10   R(5,6)                  1.4061         estimate D2E/DX2                !
 ! R11   R(5,47)                 1.0828         estimate D2E/DX2                !
 ! R12   R(6,7)                  1.4854         estimate D2E/DX2                !
 ! R13   R(6,41)                 1.4063         estimate D2E/DX2                !
 ! R14   R(7,8)                  1.4061         estimate D2E/DX2                !
 ! R15   R(7,40)                 1.4062         estimate D2E/DX2                !
 ! R16   R(8,9)                  1.3975         estimate D2E/DX2                !
 ! R17   R(8,48)                 1.0828         estimate D2E/DX2                !
 ! R18   R(9,10)                 1.4041         estimate D2E/DX2                !
 ! R19   R(9,49)                 1.0831         estimate D2E/DX2                !
 ! R20   R(10,11)                1.4828         estimate D2E/DX2                !
 ! R21   R(10,39)                1.4039         estimate D2E/DX2                !
 ! R22   R(11,12)                1.4017         estimate D2E/DX2                !
 ! R23   R(11,37)                1.4074         estimate D2E/DX2                !
 ! R24   R(12,13)                1.4002         estimate D2E/DX2                !
 ! R25   R(12,50)                1.0846         estimate D2E/DX2                !
 ! R26   R(13,14)                1.4044         estimate D2E/DX2                !
 ! R27   R(13,18)                1.418          estimate D2E/DX2                !
 ! R28   R(14,15)                1.3954         estimate D2E/DX2                !
 ! R29   R(14,51)                1.0837         estimate D2E/DX2                !
 ! R30   R(15,16)                1.3945         estimate D2E/DX2                !
 ! R31   R(15,52)                1.0824         estimate D2E/DX2                !
 ! R32   R(16,17)                1.3967         estimate D2E/DX2                !
 ! R33   R(16,53)                1.0824         estimate D2E/DX2                !
 ! R34   R(17,18)                1.4118         estimate D2E/DX2                !
 ! R35   R(17,54)                1.0819         estimate D2E/DX2                !
 ! R36   R(18,19)                1.4177         estimate D2E/DX2                !
 ! R37   R(19,20)                1.4884         estimate D2E/DX2                !
 ! R38   R(19,37)                1.4074         estimate D2E/DX2                !
 ! R39   R(20,21)                1.4075         estimate D2E/DX2                !
 ! R40   R(20,36)                1.4178         estimate D2E/DX2                !
 ! R41   R(21,22)                1.3933         estimate D2E/DX2                !
 ! R42   R(21,23)                1.4074         estimate D2E/DX2                !
 ! R43   R(22,69)                1.9625         estimate D2E/DX2                !
 ! R44   R(23,24)                1.4831         estimate D2E/DX2                !
 ! R45   R(23,30)                1.4017         estimate D2E/DX2                !
 ! R46   R(24,25)                1.4066         estimate D2E/DX2                !
 ! R47   R(24,29)                1.4065         estimate D2E/DX2                !
 ! R48   R(25,26)                1.3983         estimate D2E/DX2                !
 ! R49   R(25,55)                1.083          estimate D2E/DX2                !
 ! R50   R(26,27)                1.3971         estimate D2E/DX2                !
 ! R51   R(26,56)                1.0824         estimate D2E/DX2                !
 ! R52   R(27,28)                1.3971         estimate D2E/DX2                !
 ! R53   R(27,57)                1.0823         estimate D2E/DX2                !
 ! R54   R(28,29)                1.3983         estimate D2E/DX2                !
 ! R55   R(28,58)                1.0824         estimate D2E/DX2                !
 ! R56   R(29,59)                1.0831         estimate D2E/DX2                !
 ! R57   R(30,31)                1.4001         estimate D2E/DX2                !
 ! R58   R(30,60)                1.0846         estimate D2E/DX2                !
 ! R59   R(31,32)                1.4044         estimate D2E/DX2                !
 ! R60   R(31,36)                1.418          estimate D2E/DX2                !
 ! R61   R(32,33)                1.3954         estimate D2E/DX2                !
 ! R62   R(32,61)                1.0837         estimate D2E/DX2                !
 ! R63   R(33,34)                1.3945         estimate D2E/DX2                !
 ! R64   R(33,62)                1.0824         estimate D2E/DX2                !
 ! R65   R(34,35)                1.3967         estimate D2E/DX2                !
 ! R66   R(34,63)                1.0824         estimate D2E/DX2                !
 ! R67   R(35,36)                1.4119         estimate D2E/DX2                !
 ! R68   R(35,64)                1.0819         estimate D2E/DX2                !
 ! R69   R(37,38)                1.3932         estimate D2E/DX2                !
 ! R70   R(38,69)                1.9625         estimate D2E/DX2                !
 ! R71   R(39,40)                1.3975         estimate D2E/DX2                !
 ! R72   R(39,65)                1.0832         estimate D2E/DX2                !
 ! R73   R(40,66)                1.0828         estimate D2E/DX2                !
 ! R74   R(41,42)                1.398          estimate D2E/DX2                !
 ! R75   R(41,67)                1.0828         estimate D2E/DX2                !
 ! R76   R(42,68)                1.0814         estimate D2E/DX2                !
 ! A1    A(2,1,43)             110.1103         estimate D2E/DX2                !
 ! A2    A(2,1,44)             110.1103         estimate D2E/DX2                !
 ! A3    A(2,1,45)             109.0772         estimate D2E/DX2                !
 ! A4    A(43,1,44)            110.1491         estimate D2E/DX2                !
 ! A5    A(43,1,45)            108.6766         estimate D2E/DX2                !
 ! A6    A(44,1,45)            108.6791         estimate D2E/DX2                !
 ! A7    A(1,2,3)              124.3646         estimate D2E/DX2                !
 ! A8    A(2,3,4)              118.3872         estimate D2E/DX2                !
 ! A9    A(2,3,42)             122.463          estimate D2E/DX2                !
 ! A10   A(4,3,42)             119.1498         estimate D2E/DX2                !
 ! A11   A(3,4,5)              120.6136         estimate D2E/DX2                !
 ! A12   A(3,4,46)             119.866          estimate D2E/DX2                !
 ! A13   A(5,4,46)             119.5201         estimate D2E/DX2                !
 ! A14   A(4,5,6)              120.498          estimate D2E/DX2                !
 ! A15   A(4,5,47)             118.8317         estimate D2E/DX2                !
 ! A16   A(6,5,47)             120.6611         estimate D2E/DX2                !
 ! A17   A(5,6,7)              120.5846         estimate D2E/DX2                !
 ! A18   A(5,6,41)             118.8506         estimate D2E/DX2                !
 ! A19   A(7,6,41)             120.5648         estimate D2E/DX2                !
 ! A20   A(6,7,8)              120.5507         estimate D2E/DX2                !
 ! A21   A(6,7,40)             120.5735         estimate D2E/DX2                !
 ! A22   A(8,7,40)             118.8757         estimate D2E/DX2                !
 ! A23   A(7,8,9)              120.547          estimate D2E/DX2                !
 ! A24   A(7,8,48)             120.627          estimate D2E/DX2                !
 ! A25   A(9,8,48)             118.8123         estimate D2E/DX2                !
 ! A26   A(8,9,10)             120.4629         estimate D2E/DX2                !
 ! A27   A(8,9,49)             119.0623         estimate D2E/DX2                !
 ! A28   A(10,9,49)            120.4655         estimate D2E/DX2                !
 ! A29   A(9,10,11)            120.5977         estimate D2E/DX2                !
 ! A30   A(9,10,39)            119.0991         estimate D2E/DX2                !
 ! A31   A(11,10,39)           120.2947         estimate D2E/DX2                !
 ! A32   A(10,11,12)           119.485          estimate D2E/DX2                !
 ! A33   A(10,11,37)           121.082          estimate D2E/DX2                !
 ! A34   A(12,11,37)           119.4328         estimate D2E/DX2                !
 ! A35   A(11,12,13)           120.7818         estimate D2E/DX2                !
 ! A36   A(11,12,50)           119.5087         estimate D2E/DX2                !
 ! A37   A(13,12,50)           119.687          estimate D2E/DX2                !
 ! A38   A(12,13,14)           119.9623         estimate D2E/DX2                !
 ! A39   A(12,13,18)           120.0488         estimate D2E/DX2                !
 ! A40   A(14,13,18)           119.9866         estimate D2E/DX2                !
 ! A41   A(13,14,15)           120.3055         estimate D2E/DX2                !
 ! A42   A(13,14,51)           120.6865         estimate D2E/DX2                !
 ! A43   A(15,14,51)           119.0075         estimate D2E/DX2                !
 ! A44   A(14,15,16)           120.1317         estimate D2E/DX2                !
 ! A45   A(14,15,52)           119.9461         estimate D2E/DX2                !
 ! A46   A(16,15,52)           119.9212         estimate D2E/DX2                !
 ! A47   A(15,16,17)           120.268          estimate D2E/DX2                !
 ! A48   A(15,16,53)           119.8415         estimate D2E/DX2                !
 ! A49   A(17,16,53)           119.8904         estimate D2E/DX2                !
 ! A50   A(16,17,18)           120.5553         estimate D2E/DX2                !
 ! A51   A(16,17,54)           118.0163         estimate D2E/DX2                !
 ! A52   A(18,17,54)           121.4279         estimate D2E/DX2                !
 ! A53   A(13,18,17)           118.7421         estimate D2E/DX2                !
 ! A54   A(13,18,19)           119.3297         estimate D2E/DX2                !
 ! A55   A(17,18,19)           121.9266         estimate D2E/DX2                !
 ! A56   A(18,19,20)           121.7253         estimate D2E/DX2                !
 ! A57   A(18,19,37)           119.6984         estimate D2E/DX2                !
 ! A58   A(20,19,37)           118.5742         estimate D2E/DX2                !
 ! A59   A(19,20,21)           118.5674         estimate D2E/DX2                !
 ! A60   A(19,20,36)           121.7348         estimate D2E/DX2                !
 ! A61   A(21,20,36)           119.6865         estimate D2E/DX2                !
 ! A62   A(20,21,22)           119.3526         estimate D2E/DX2                !
 ! A63   A(20,21,23)           120.6588         estimate D2E/DX2                !
 ! A64   A(22,21,23)           119.9771         estimate D2E/DX2                !
 ! A65   A(21,22,69)           119.6337         estimate D2E/DX2                !
 ! A66   A(21,23,24)           121.0749         estimate D2E/DX2                !
 ! A67   A(21,23,30)           119.4183         estimate D2E/DX2                !
 ! A68   A(24,23,30)           119.5061         estimate D2E/DX2                !
 ! A69   A(23,24,25)           120.5872         estimate D2E/DX2                !
 ! A70   A(23,24,29)           120.3016         estimate D2E/DX2                !
 ! A71   A(25,24,29)           119.1033         estimate D2E/DX2                !
 ! A72   A(24,25,26)           120.3359         estimate D2E/DX2                !
 ! A73   A(24,25,55)           120.5449         estimate D2E/DX2                !
 ! A74   A(26,25,55)           119.1128         estimate D2E/DX2                !
 ! A75   A(25,26,27)           120.1079         estimate D2E/DX2                !
 ! A76   A(25,26,56)           119.9543         estimate D2E/DX2                !
 ! A77   A(27,26,56)           119.9373         estimate D2E/DX2                !
 ! A78   A(26,27,28)           120.0031         estimate D2E/DX2                !
 ! A79   A(26,27,57)           119.998          estimate D2E/DX2                !
 ! A80   A(28,27,57)           119.9987         estimate D2E/DX2                !
 ! A81   A(27,28,29)           120.104          estimate D2E/DX2                !
 ! A82   A(27,28,58)           119.9403         estimate D2E/DX2                !
 ! A83   A(29,28,58)           119.9557         estimate D2E/DX2                !
 ! A84   A(24,29,28)           120.343          estimate D2E/DX2                !
 ! A85   A(24,29,59)           120.4932         estimate D2E/DX2                !
 ! A86   A(28,29,59)           119.1597         estimate D2E/DX2                !
 ! A87   A(23,30,31)           120.798          estimate D2E/DX2                !
 ! A88   A(23,30,60)           119.5182         estimate D2E/DX2                !
 ! A89   A(31,30,60)           119.6832         estimate D2E/DX2                !
 ! A90   A(30,31,32)           119.9556         estimate D2E/DX2                !
 ! A91   A(30,31,36)           120.0528         estimate D2E/DX2                !
 ! A92   A(32,31,36)           119.9913         estimate D2E/DX2                !
 ! A93   A(31,32,33)           120.3069         estimate D2E/DX2                !
 ! A94   A(31,32,61)           120.6864         estimate D2E/DX2                !
 ! A95   A(33,32,61)           119.0062         estimate D2E/DX2                !
 ! A96   A(32,33,34)           120.1294         estimate D2E/DX2                !
 ! A97   A(32,33,62)           119.9481         estimate D2E/DX2                !
 ! A98   A(34,33,62)           119.9216         estimate D2E/DX2                !
 ! A99   A(33,34,35)           120.2692         estimate D2E/DX2                !
 ! A100  A(33,34,63)           119.8415         estimate D2E/DX2                !
 ! A101  A(35,34,63)           119.8892         estimate D2E/DX2                !
 ! A102  A(34,35,36)           120.5605         estimate D2E/DX2                !
 ! A103  A(34,35,64)           117.9967         estimate D2E/DX2                !
 ! A104  A(36,35,64)           121.4421         estimate D2E/DX2                !
 ! A105  A(20,36,31)           119.3284         estimate D2E/DX2                !
 ! A106  A(20,36,35)           121.9367         estimate D2E/DX2                !
 ! A107  A(31,36,35)           118.731          estimate D2E/DX2                !
 ! A108  A(11,37,19)           120.6553         estimate D2E/DX2                !
 ! A109  A(11,37,38)           120.0034         estimate D2E/DX2                !
 ! A110  A(19,37,38)           119.3371         estimate D2E/DX2                !
 ! A111  A(37,38,69)            91.3043         estimate D2E/DX2                !
 ! A112  A(10,39,40)           120.471          estimate D2E/DX2                !
 ! A113  A(10,39,65)           120.4053         estimate D2E/DX2                !
 ! A114  A(40,39,65)           119.1169         estimate D2E/DX2                !
 ! A115  A(7,40,39)            120.5409         estimate D2E/DX2                !
 ! A116  A(7,40,66)            120.6395         estimate D2E/DX2                !
 ! A117  A(39,40,66)           118.8091         estimate D2E/DX2                !
 ! A118  A(6,41,42)            120.5716         estimate D2E/DX2                !
 ! A119  A(6,41,67)            120.6047         estimate D2E/DX2                !
 ! A120  A(42,41,67)           118.8146         estimate D2E/DX2                !
 ! A121  A(3,42,41)            120.3164         estimate D2E/DX2                !
 ! A122  A(3,42,68)            121.0662         estimate D2E/DX2                !
 ! A123  A(41,42,68)           118.6171         estimate D2E/DX2                !
 ! A124  A(22,69,38)           100.0            estimate D2E/DX2                !
 ! D1    D(43,1,2,3)            60.8629         estimate D2E/DX2                !
 ! D2    D(44,1,2,3)           -60.7861         estimate D2E/DX2                !
 ! D3    D(45,1,2,3)          -179.9631         estimate D2E/DX2                !
 ! D4    D(1,2,3,4)            179.9887         estimate D2E/DX2                !
 ! D5    D(1,2,3,42)            -0.0088         estimate D2E/DX2                !
 ! D6    D(2,3,4,5)            179.9793         estimate D2E/DX2                !
 ! D7    D(2,3,4,46)            -0.2284         estimate D2E/DX2                !
 ! D8    D(42,3,4,5)            -0.0231         estimate D2E/DX2                !
 ! D9    D(42,3,4,46)          179.7692         estimate D2E/DX2                !
 ! D10   D(2,3,42,41)          179.9677         estimate D2E/DX2                !
 ! D11   D(2,3,42,68)           -0.2409         estimate D2E/DX2                !
 ! D12   D(4,3,42,41)           -0.0298         estimate D2E/DX2                !
 ! D13   D(4,3,42,68)          179.7616         estimate D2E/DX2                !
 ! D14   D(3,4,5,6)              0.05           estimate D2E/DX2                !
 ! D15   D(3,4,5,47)           178.9543         estimate D2E/DX2                !
 ! D16   D(46,4,5,6)          -179.743          estimate D2E/DX2                !
 ! D17   D(46,4,5,47)           -0.8387         estimate D2E/DX2                !
 ! D18   D(4,5,6,7)            179.9783         estimate D2E/DX2                !
 ! D19   D(4,5,6,41)            -0.0235         estimate D2E/DX2                !
 ! D20   D(47,5,6,7)             1.0942         estimate D2E/DX2                !
 ! D21   D(47,5,6,41)         -178.9076         estimate D2E/DX2                !
 ! D22   D(5,6,7,8)           -139.4258         estimate D2E/DX2                !
 ! D23   D(5,6,7,40)            40.4589         estimate D2E/DX2                !
 ! D24   D(41,6,7,8)            40.576          estimate D2E/DX2                !
 ! D25   D(41,6,7,40)         -139.5393         estimate D2E/DX2                !
 ! D26   D(5,6,41,42)           -0.0293         estimate D2E/DX2                !
 ! D27   D(5,6,41,67)         -178.9177         estimate D2E/DX2                !
 ! D28   D(7,6,41,42)          179.9689         estimate D2E/DX2                !
 ! D29   D(7,6,41,67)            1.0805         estimate D2E/DX2                !
 ! D30   D(6,7,8,9)           -179.9713         estimate D2E/DX2                !
 ! D31   D(6,7,8,48)             1.3844         estimate D2E/DX2                !
 ! D32   D(40,7,8,9)             0.1421         estimate D2E/DX2                !
 ! D33   D(40,7,8,48)         -178.5022         estimate D2E/DX2                !
 ! D34   D(6,7,40,39)          179.9519         estimate D2E/DX2                !
 ! D35   D(6,7,40,66)            1.1388         estimate D2E/DX2                !
 ! D36   D(8,7,40,39)           -0.1616         estimate D2E/DX2                !
 ! D37   D(8,7,40,66)         -178.9747         estimate D2E/DX2                !
 ! D38   D(7,8,9,10)             0.2731         estimate D2E/DX2                !
 ! D39   D(7,8,9,49)          -178.6185         estimate D2E/DX2                !
 ! D40   D(48,8,9,10)          178.9417         estimate D2E/DX2                !
 ! D41   D(48,8,9,49)            0.0501         estimate D2E/DX2                !
 ! D42   D(8,9,10,11)         -179.6041         estimate D2E/DX2                !
 ! D43   D(8,9,10,39)           -0.6624         estimate D2E/DX2                !
 ! D44   D(49,9,10,11)          -0.7281         estimate D2E/DX2                !
 ! D45   D(49,9,10,39)         178.2135         estimate D2E/DX2                !
 ! D46   D(9,10,11,12)         128.8235         estimate D2E/DX2                !
 ! D47   D(9,10,11,37)         -51.3261         estimate D2E/DX2                !
 ! D48   D(39,10,11,12)        -50.1055         estimate D2E/DX2                !
 ! D49   D(39,10,11,37)        129.7449         estimate D2E/DX2                !
 ! D50   D(9,10,39,40)           0.643          estimate D2E/DX2                !
 ! D51   D(9,10,39,65)         179.6852         estimate D2E/DX2                !
 ! D52   D(11,10,39,40)        179.5879         estimate D2E/DX2                !
 ! D53   D(11,10,39,65)         -1.3698         estimate D2E/DX2                !
 ! D54   D(10,11,12,13)       -178.4594         estimate D2E/DX2                !
 ! D55   D(10,11,12,50)         -0.1906         estimate D2E/DX2                !
 ! D56   D(37,11,12,13)          1.6877         estimate D2E/DX2                !
 ! D57   D(37,11,12,50)        179.9565         estimate D2E/DX2                !
 ! D58   D(10,11,37,19)        179.7098         estimate D2E/DX2                !
 ! D59   D(10,11,37,38)         -1.0384         estimate D2E/DX2                !
 ! D60   D(12,11,37,19)         -0.4397         estimate D2E/DX2                !
 ! D61   D(12,11,37,38)        178.8121         estimate D2E/DX2                !
 ! D62   D(11,12,13,14)        178.6243         estimate D2E/DX2                !
 ! D63   D(11,12,13,18)         -0.8209         estimate D2E/DX2                !
 ! D64   D(50,12,13,14)          0.3585         estimate D2E/DX2                !
 ! D65   D(50,12,13,18)       -179.0866         estimate D2E/DX2                !
 ! D66   D(12,13,14,15)       -178.9514         estimate D2E/DX2                !
 ! D67   D(12,13,14,51)          0.7753         estimate D2E/DX2                !
 ! D68   D(18,13,14,15)          0.494          estimate D2E/DX2                !
 ! D69   D(18,13,14,51)       -179.7792         estimate D2E/DX2                !
 ! D70   D(12,13,18,17)        178.2669         estimate D2E/DX2                !
 ! D71   D(12,13,18,19)         -1.2834         estimate D2E/DX2                !
 ! D72   D(14,13,18,17)         -1.178          estimate D2E/DX2                !
 ! D73   D(14,13,18,19)        179.2716         estimate D2E/DX2                !
 ! D74   D(13,14,15,16)          0.2847         estimate D2E/DX2                !
 ! D75   D(13,14,15,52)        179.908          estimate D2E/DX2                !
 ! D76   D(51,14,15,16)       -179.4466         estimate D2E/DX2                !
 ! D77   D(51,14,15,52)          0.1767         estimate D2E/DX2                !
 ! D78   D(14,15,16,17)         -0.3596         estimate D2E/DX2                !
 ! D79   D(14,15,16,53)        179.5159         estimate D2E/DX2                !
 ! D80   D(52,15,16,17)       -179.983          estimate D2E/DX2                !
 ! D81   D(52,15,16,53)         -0.1075         estimate D2E/DX2                !
 ! D82   D(15,16,17,18)         -0.35           estimate D2E/DX2                !
 ! D83   D(15,16,17,54)        179.3791         estimate D2E/DX2                !
 ! D84   D(53,16,17,18)        179.7746         estimate D2E/DX2                !
 ! D85   D(53,16,17,54)         -0.4964         estimate D2E/DX2                !
 ! D86   D(16,17,18,13)          1.1102         estimate D2E/DX2                !
 ! D87   D(16,17,18,19)       -179.3516         estimate D2E/DX2                !
 ! D88   D(54,17,18,13)       -178.6095         estimate D2E/DX2                !
 ! D89   D(54,17,18,19)          0.9287         estimate D2E/DX2                !
 ! D90   D(13,18,19,20)       -178.0195         estimate D2E/DX2                !
 ! D91   D(13,18,19,37)          2.5018         estimate D2E/DX2                !
 ! D92   D(17,18,19,20)          2.445          estimate D2E/DX2                !
 ! D93   D(17,18,19,37)       -177.0337         estimate D2E/DX2                !
 ! D94   D(18,19,20,21)       -110.3479         estimate D2E/DX2                !
 ! D95   D(18,19,20,36)         70.8791         estimate D2E/DX2                !
 ! D96   D(37,19,20,21)         69.1365         estimate D2E/DX2                !
 ! D97   D(37,19,20,36)       -109.6364         estimate D2E/DX2                !
 ! D98   D(18,19,37,11)         -1.6552         estimate D2E/DX2                !
 ! D99   D(18,19,37,38)        179.0881         estimate D2E/DX2                !
 ! D100  D(20,19,37,11)        178.8496         estimate D2E/DX2                !
 ! D101  D(20,19,37,38)         -0.4071         estimate D2E/DX2                !
 ! D102  D(19,20,21,22)         -2.9349         estimate D2E/DX2                !
 ! D103  D(19,20,21,23)        178.2972         estimate D2E/DX2                !
 ! D104  D(36,20,21,22)        175.8639         estimate D2E/DX2                !
 ! D105  D(36,20,21,23)         -2.904          estimate D2E/DX2                !
 ! D106  D(19,20,36,31)       -178.794          estimate D2E/DX2                !
 ! D107  D(19,20,36,35)          1.9318         estimate D2E/DX2                !
 ! D108  D(21,20,36,31)          2.4465         estimate D2E/DX2                !
 ! D109  D(21,20,36,35)       -176.8277         estimate D2E/DX2                !
 ! D110  D(20,21,22,69)        -55.7819         estimate D2E/DX2                !
 ! D111  D(23,21,22,69)        122.9946         estimate D2E/DX2                !
 ! D112  D(20,21,23,24)       -178.6595         estimate D2E/DX2                !
 ! D113  D(20,21,23,30)          1.6266         estimate D2E/DX2                !
 ! D114  D(22,21,23,24)          2.5802         estimate D2E/DX2                !
 ! D115  D(22,21,23,30)       -177.1337         estimate D2E/DX2                !
 ! D116  D(21,22,69,38)         13.6592         estimate D2E/DX2                !
 ! D117  D(21,23,24,25)         50.7338         estimate D2E/DX2                !
 ! D118  D(21,23,24,29)       -130.299          estimate D2E/DX2                !
 ! D119  D(30,23,24,25)       -129.5525         estimate D2E/DX2                !
 ! D120  D(30,23,24,29)         49.4147         estimate D2E/DX2                !
 ! D121  D(21,23,30,31)          0.1006         estimate D2E/DX2                !
 ! D122  D(21,23,30,60)       -179.6435         estimate D2E/DX2                !
 ! D123  D(24,23,30,31)       -179.6178         estimate D2E/DX2                !
 ! D124  D(24,23,30,60)          0.6381         estimate D2E/DX2                !
 ! D125  D(23,24,25,26)        179.5607         estimate D2E/DX2                !
 ! D126  D(23,24,25,55)          0.498          estimate D2E/DX2                !
 ! D127  D(29,24,25,26)          0.5813         estimate D2E/DX2                !
 ! D128  D(29,24,25,55)       -178.4815         estimate D2E/DX2                !
 ! D129  D(23,24,29,28)       -179.5896         estimate D2E/DX2                !
 ! D130  D(23,24,29,59)          1.1549         estimate D2E/DX2                !
 ! D131  D(25,24,29,28)         -0.6072         estimate D2E/DX2                !
 ! D132  D(25,24,29,59)       -179.8626         estimate D2E/DX2                !
 ! D133  D(24,25,26,27)         -0.2102         estimate D2E/DX2                !
 ! D134  D(24,25,26,56)       -179.9415         estimate D2E/DX2                !
 ! D135  D(55,25,26,27)        178.8659         estimate D2E/DX2                !
 ! D136  D(55,25,26,56)         -0.8654         estimate D2E/DX2                !
 ! D137  D(25,26,27,28)         -0.1429         estimate D2E/DX2                !
 ! D138  D(25,26,27,57)       -179.9796         estimate D2E/DX2                !
 ! D139  D(56,26,27,28)        179.5885         estimate D2E/DX2                !
 ! D140  D(56,26,27,57)         -0.2483         estimate D2E/DX2                !
 ! D141  D(26,27,28,29)          0.117          estimate D2E/DX2                !
 ! D142  D(26,27,28,58)       -179.9431         estimate D2E/DX2                !
 ! D143  D(57,27,28,29)        179.9537         estimate D2E/DX2                !
 ! D144  D(57,27,28,58)         -0.1063         estimate D2E/DX2                !
 ! D145  D(27,28,29,24)          0.2622         estimate D2E/DX2                !
 ! D146  D(27,28,29,59)        179.5275         estimate D2E/DX2                !
 ! D147  D(58,28,29,24)       -179.6778         estimate D2E/DX2                !
 ! D148  D(58,28,29,59)         -0.4125         estimate D2E/DX2                !
 ! D149  D(23,30,31,32)        179.2655         estimate D2E/DX2                !
 ! D150  D(23,30,31,36)         -0.5241         estimate D2E/DX2                !
 ! D151  D(60,30,31,32)         -0.9908         estimate D2E/DX2                !
 ! D152  D(60,30,31,36)        179.2197         estimate D2E/DX2                !
 ! D153  D(30,31,32,33)       -179.2255         estimate D2E/DX2                !
 ! D154  D(30,31,32,61)          0.5125         estimate D2E/DX2                !
 ! D155  D(36,31,32,33)          0.5642         estimate D2E/DX2                !
 ! D156  D(36,31,32,61)       -179.6979         estimate D2E/DX2                !
 ! D157  D(30,31,36,20)         -0.7544         estimate D2E/DX2                !
 ! D158  D(30,31,36,35)        178.5431         estimate D2E/DX2                !
 ! D159  D(32,31,36,20)        179.4561         estimate D2E/DX2                !
 ! D160  D(32,31,36,35)         -1.2464         estimate D2E/DX2                !
 ! D161  D(31,32,33,34)          0.2423         estimate D2E/DX2                !
 ! D162  D(31,32,33,62)        179.887          estimate D2E/DX2                !
 ! D163  D(61,32,33,34)       -179.5            estimate D2E/DX2                !
 ! D164  D(61,32,33,62)          0.1446         estimate D2E/DX2                !
 ! D165  D(32,33,34,35)         -0.3459         estimate D2E/DX2                !
 ! D166  D(32,33,34,63)        179.5137         estimate D2E/DX2                !
 ! D167  D(62,33,34,35)       -179.9906         estimate D2E/DX2                !
 ! D168  D(62,33,34,63)         -0.1311         estimate D2E/DX2                !
 ! D169  D(33,34,35,36)         -0.3632         estimate D2E/DX2                !
 ! D170  D(33,34,35,64)        179.3322         estimate D2E/DX2                !
 ! D171  D(63,34,35,36)        179.7773         estimate D2E/DX2                !
 ! D172  D(63,34,35,64)         -0.5273         estimate D2E/DX2                !
 ! D173  D(34,35,36,20)       -179.5712         estimate D2E/DX2                !
 ! D174  D(34,35,36,31)          1.1505         estimate D2E/DX2                !
 ! D175  D(64,35,36,20)          0.7441         estimate D2E/DX2                !
 ! D176  D(64,35,36,31)       -178.5343         estimate D2E/DX2                !
 ! D177  D(11,37,38,69)         93.5403         estimate D2E/DX2                !
 ! D178  D(19,37,38,69)        -87.1981         estimate D2E/DX2                !
 ! D179  D(37,38,69,22)         72.3038         estimate D2E/DX2                !
 ! D180  D(10,39,40,7)          -0.234          estimate D2E/DX2                !
 ! D181  D(10,39,40,66)        178.6005         estimate D2E/DX2                !
 ! D182  D(65,39,40,7)        -179.2885         estimate D2E/DX2                !
 ! D183  D(65,39,40,66)         -0.4539         estimate D2E/DX2                !
 ! D184  D(6,41,42,3)            0.0562         estimate D2E/DX2                !
 ! D185  D(6,41,42,68)        -179.7402         estimate D2E/DX2                !
 ! D186  D(67,41,42,3)         178.9643         estimate D2E/DX2                !
 ! D187  D(67,41,42,68)         -0.8321         estimate D2E/DX2                !
 --------------------------------------------------------------------------------
 Trust Radius=3.00D-01 FncErr=1.00D-07 GrdErr=1.00D-06 EigMax=2.50D+02 EigMin=1.00D-04
 Number of steps in this run=    397 maximum allowed number of steps=    414.
 GradGradGradGradGradGradGradGradGradGradGradGradGradGradGradGradGradGrad

 Leave Link  103 at Fri Mar 28 06:37:58 2025, MaxMem= 13421772800 cpu:               0.4 elap:               0.0
 (Enter /public/software/apps/Gaussian/g16/l202.exe)
 Symmetry turned off by external request.
 Stoichiometry    C39H26CuO3(2)
 Framework group  C1[X(C39H26CuO3)]
 Deg. of freedom   201
 Full point group                 C1      NOp   1
                          Input orientation:                          
 ---------------------------------------------------------------------
 Center     Atomic      Atomic             Coordinates (Angstroms)
 Number     Number       Type             X           Y           Z
 ---------------------------------------------------------------------
      1          6           0       10.757045    1.953380    1.862161
      2          8           0       10.104731    2.260181    0.634238
      3          6           0        8.743721    2.032229    0.382108
      4          6           0        8.231942    2.382320   -0.871630
      5          6           0        6.882976    2.175203   -1.172832
      6          6           0        6.017117    1.611802   -0.218863
      7          6           0        4.582970    1.391268   -0.536768
      8          6           0        3.589233    1.657635    0.421766
      9          6           0        2.240029    1.449559    0.122795
     10          6           0        1.856774    0.965593   -1.138335
     11          6           0        0.425529    0.752004   -1.461745
     12          6           0       -0.106186    1.303139   -2.635707
     13          6           0       -1.461122    1.145528   -2.951563
     14          6           0       -1.981991    1.729470   -4.117732
     15          6           0       -3.335810    1.595344   -4.428179
     16          6           0       -4.181954    0.884455   -3.577675
     17          6           0       -3.679285    0.296374   -2.414854
     18          6           0       -2.310039    0.406769   -2.088853
     19          6           0       -1.766351   -0.189911   -0.923371
     20          6           0       -2.599026   -1.012637   -0.004063
     21          6           0       -2.898071   -0.501064    1.272588
     22          8           0       -2.359548    0.723864    1.660823
     23          6           0       -3.711134   -1.225925    2.163800
     24          6           0       -4.056228   -0.682463    3.499842
     25          6           0       -4.575163    0.618315    3.631199
     26          6           0       -4.907331    1.122118    4.892577
     27          6           0       -4.729322    0.332886    6.031578
     28          6           0       -4.221486   -0.963069    5.911150
     29          6           0       -3.888340   -1.471587    4.651933
     30          6           0       -4.197298   -2.484528    1.783857
     31          6           0       -3.881791   -3.026959    0.532221
     32          6           0       -4.365790   -4.296215    0.175842
     33          6           0       -4.042586   -4.850688   -1.063197
     34          6           0       -3.231573   -4.148528   -1.954157
     35          6           0       -2.743926   -2.884266   -1.615779
     36          6           0       -3.070465   -2.297702   -0.373694
     37          6           0       -0.407615    0.002101   -0.610715
     38          8           0        0.114253   -0.571880    0.546530
     39          6           0        2.846415    0.706774   -2.099947
     40          6           0        4.195842    0.914969   -1.801916
     41          6           0        6.532386    1.260616    1.041588
     42          6           0        7.882252    1.467512    1.340711
     43          1           0       10.691616    0.863983    2.067486
     44          1           0       10.295990    2.527673    2.693338
     45          1           0       11.826692    2.236697    1.785109
     46          1           0        8.883644    2.821120   -1.616631
     47          1           0        6.513677    2.472627   -2.146245
     48          1           0        3.853550    2.048010    1.396517
     49          1           0        1.493091    1.684006    0.871209
     50          1           0        0.534595    1.881861   -3.292083
     51          1           0       -1.342781    2.293380   -4.786860
     52          1           0       -3.731392    2.049062   -5.327738
     53          1           0       -5.232891    0.789999   -3.819037
     54          1           0       -4.369976   -0.237956   -1.776106
     55          1           0       -4.737018    1.237152    2.757320
     56          1           0       -5.307089    2.123557    4.986414
     57          1           0       -4.987335    0.724521    7.007034
     58          1           0       -4.084858   -1.573941    6.794128
     59          1           0       -3.488610   -2.475435    4.577061
     60          1           0       -4.828770   -3.041989    2.467078
     61          1           0       -4.990670   -4.861223    0.857463
     62          1           0       -4.417288   -5.830154   -1.331152
     63          1           0       -2.977328   -4.586425   -2.910843
     64          1           0       -2.109004   -2.376995   -2.329912
     65          1           0        2.574936    0.328244   -3.077837
     66          1           0        4.938210    0.684878   -2.555771
     67          1           0        5.894990    0.808785    1.791320
     68          1           0        8.245819    1.181893    2.318318
     69         29           0       -0.415518    0.988084    1.612937
 ---------------------------------------------------------------------
 Rotational constants (GHZ):           0.1089420           0.0349889           0.0301579
 Leave Link  202 at Fri Mar 28 06:37:58 2025, MaxMem= 13421772800 cpu:               0.6 elap:               0.0
 (Enter /public/software/apps/Gaussian/g16/l301.exe)
 Standard basis: def2SVPP (5D, 7F)
 Ernie: Thresh=  0.10000D-02 Tol=  0.10000D-05 Strict=F.
   664 basis functions,  1225 primitive gaussians,   708 cartesian basis functions
   157 alpha electrons      156 beta electrons
       nuclear repulsion energy      5115.7299343514 Hartrees.
 IExCor=  402 DFT=T Ex+Corr=B3LYP ExCW=0 ScaHFX=  0.200000
 ScaDFX=  0.800000  0.720000  1.000000  0.810000 ScalE2=  1.000000  1.000000
 IRadAn=      5 IRanWt=     -1 IRanGd=            0 ICorTp=0 IEmpDi=141
 NAtoms=   69 NActive=   69 NUniq=   69 SFac= 1.00D+00 NAtFMM=   60 NAOKFM=T Big=T
 Integral buffers will be    131072 words long.
 Raffenetti 2 integral format.
 Two-electron integral symmetry is turned off.
 R6Disp:  Grimme-D3(BJ) Dispersion energy=       -0.1880914880 Hartrees.
 Nuclear repulsion after empirical dispersion term =     5115.5418428634 Hartrees.
 Leave Link  301 at Fri Mar 28 06:37:58 2025, MaxMem= 13421772800 cpu:               0.6 elap:               0.0
 (Enter /public/software/apps/Gaussian/g16/l302.exe)
 NPDir=0 NMtPBC=     1 NCelOv=     1 NCel=       1 NClECP=     1 NCelD=      1
         NCelK=      1 NCelE2=     1 NClLst=     1 CellRange=     0.0.
 One-electron integrals computed using PRISM.
   1 Symmetry operations used in ECPInt.
 ECPInt:  NShTT=   49455 NPrTT=  203230 LenC2=   36190 LenP2D=   91029.
 LDataN:  DoStor=T MaxTD1= 4 Len=   56
 NBasis=   664 RedAO= T EigKep=  1.65D-04  NBF=   664
 NBsUse=   664 1.00D-06 EigRej= -1.00D+00 NBFU=   664
 Precomputing XC quadrature grid using
 IXCGrd= 4 IRadAn=           5 IRanWt=          -1 IRanGd=           0 AccXCQ= 0.00D+00.
 Generated NRdTot=       0 NPtTot=           0 NUsed=           0 NTot=          32
 NSgBfM=   669   669   669   669   669 MxSgAt=    69 MxSgA2=    69.
 Leave Link  302 at Fri Mar 28 06:37:59 2025, MaxMem= 13421772800 cpu:              25.9 elap:               0.8
 (Enter /public/software/apps/Gaussian/g16/l303.exe)
 DipDrv:  MaxL=1.
 Leave Link  303 at Fri Mar 28 06:37:59 2025, MaxMem= 13421772800 cpu:               3.0 elap:               0.1
 (Enter /public/software/apps/Gaussian/g16/l401.exe)
 ExpMin= 3.30D-02 ExpMax= 7.64D+04 ExpMxC= 1.15D+04 IAcc=3 IRadAn=         5 AccDes= 0.00D+00
 Harris functional with IExCor=  402 and IRadAn=       5 diagonalized for initial guess.
 HarFok:  IExCor=  402 AccDes= 0.00D+00 IRadAn=         5 IDoV= 1 UseB2=F ITyADJ=14
 ICtDFT=  3500011 ScaDFX=  1.000000  1.000000  1.000000  1.000000
 FoFCou: FMM=F IPFlag=           0 FMFlag=      100000 FMFlg1=        2001
         NFxFlg=           0 DoJE=T BraDBF=F KetDBF=T FulRan=T
         wScrn=  0.000000 ICntrl=       500 IOpCl=  0 I1Cent=   200000004 NGrid=           0
         NMat0=    1 NMatS0=      1 NMatT0=    0 NMatD0=    1 NMtDS0=    0 NMtDT0=    0
 Symmetry not used in FoFCou.
 Harris En= -3366.91154394833    
 JPrj=0 DoOrth=F DoCkMO=F.
 Initial guess <Sx>= 0.0000 <Sy>= 0.0000 <Sz>= 0.5000 <S**2>= 0.7500 S= 0.5000
 Leave Link  401 at Fri Mar 28 06:38:01 2025, MaxMem= 13421772800 cpu:              57.1 elap:               1.8
 (Enter /public/software/apps/Gaussian/g16/l502.exe)
 Two-electron integral symmetry not used.
 UHF open shell SCF:
 Using DIIS extrapolation, IDIIS=  1040.
 NGot= 13421772800 LenX= 13420740184 LenY= 13420238212
 Requested convergence on RMS density matrix=1.00D-08 within 128 cycles.
 Requested convergence on MAX density matrix=1.00D-06.
 Requested convergence on             energy=1.00D-06.
 No special actions if energy rises.
 Fock matrices will be formed incrementally for  20 cycles.

 Cycle   1  Pass 1  IDiag  1:
 FoFJK:  IHMeth= 1 ICntrl=       0 DoSepK=F KAlg= 0 I1Cent=           0 FoldK=F
 IRaf= 850000000 NMat=       1 IRICut=       1 DoRegI=T DoRafI=F ISym2E= 0 IDoP0=0 IntGTp=1.
 FoFCou: FMM=T IPFlag=           0 FMFlag=      100000 FMFlg1=        2001
         NFxFlg=           0 DoJE=F BraDBF=F KetDBF=F FulRan=T
         wScrn=  0.000000 ICntrl=         0 IOpCl=  1 I1Cent=           0 NGrid=           0
         NMat0=    1 NMatS0=      1 NMatT0=    0 NMatD0=    1 NMtDS0=    0 NMtDT0=    0
 Symmetry not used in FoFCou.
 FMM levels:  10  Number of levels for PrismC:   9
 E= -3348.69854678531    
 DIIS: error= 2.22D-01 at cycle   1 NSaved=   1.
 NSaved= 1 IEnMin= 1 EnMin= -3348.69854678531     IErMin= 1 ErrMin= 2.22D-01
 ErrMax= 2.22D-01  0.00D+00 EMaxC= 1.00D-01 BMatC= 8.30D+01 BMatP= 8.30D+01
 IDIUse=3 WtCom= 0.00D+00 WtEn= 1.00D+00
 Coeff-Com:  0.100D+01
 Coeff-En:   0.100D+01
 Coeff:      0.100D+01
 Gap=    -0.406 Goal=   None    Shift=    0.000
 Gap=     0.141 Goal=   None    Shift=    0.000
 GapD=   -0.406 DampG=0.250 DampE=0.125 DampFc=0.1250 IDamp=-1.
 Damping current iteration by 1.25D-01
 RMSDP=1.09D-01 MaxDP=2.57D+01              OVMax= 9.90D-01

 Cycle   2  Pass 1  IDiag  1:
 RMSU=  1.37D-02    CP:  1.04D+00
 E= -3354.56986150254     Delta-E=       -5.871314717235 Rises=F Damp=T
 DIIS: error= 1.47D-01 at cycle   2 NSaved=   2.
 NSaved= 2 IEnMin= 2 EnMin= -3354.56986150254     IErMin= 2 ErrMin= 1.47D-01
 ErrMax= 1.47D-01  0.00D+00 EMaxC= 1.00D-01 BMatC= 3.15D+01 BMatP= 8.30D+01
 IDIUse=3 WtCom= 0.00D+00 WtEn= 1.00D+00
 Coeff-Com: -0.121D+01 0.221D+01
 Coeff-En:   0.000D+00 0.100D+01
 Coeff:      0.000D+00 0.100D+01
 Gap=     0.095 Goal=   None    Shift=    0.000
 Gap=    -0.047 Goal=   None    Shift=    0.000
 RMSDP=2.02D-02 MaxDP=4.00D+00 DE=-5.87D+00 OVMax= 9.13D-01

 Cycle   3  Pass 1  IDiag  1:
 RMSU=  2.01D-02    CP:  9.37D-01  9.77D-01
 E= -3321.83199633141     Delta-E=       32.737865171137 Rises=F Damp=F
 DIIS: error= 1.68D-01 at cycle   3 NSaved=   3.
 NSaved= 3 IEnMin= 2 EnMin= -3354.56986150254     IErMin= 2 ErrMin= 1.47D-01
 ErrMax= 1.68D-01  0.00D+00 EMaxC= 1.00D-01 BMatC= 1.06D+02 BMatP= 3.15D+01
 IDIUse=2 WtCom= 0.00D+00 WtEn= 1.00D+00
 EnCoef did    18 forward-backward iterations
 Coeff-En:   0.516D+00 0.165D+00 0.319D+00
 Coeff:      0.516D+00 0.165D+00 0.319D+00
 Gap=    -0.077 Goal=   None    Shift=    0.000
 Gap=    -0.168 Goal=   None    Shift=    0.000
 RMSDP=9.11D-02 MaxDP=2.32D+01 DE= 3.27D+01 OVMax= 9.91D-01

 Cycle   4  Pass 1  IDiag  1:
 RMSU=  8.89D-02    CP:  9.44D-01  4.54D-01  6.48D-02
 E= -3234.33066884951     Delta-E=       87.501327481899 Rises=F Damp=F
 DIIS: error= 1.37D-01 at cycle   4 NSaved=   4.
 NSaved= 4 IEnMin= 2 EnMin= -3354.56986150254     IErMin= 4 ErrMin= 1.37D-01
 ErrMax= 1.37D-01  0.00D+00 EMaxC= 1.00D-01 BMatC= 1.83D+02 BMatP= 3.15D+01
 IDIUse=2 WtCom= 0.00D+00 WtEn= 1.00D+00
 EnCoef did   100 forward-backward iterations
 Coeff-En:   0.587D+00 0.186D-01 0.319D+00 0.746D-01
 Coeff:      0.587D+00 0.186D-01 0.319D+00 0.746D-01
 Gap=     0.023 Goal=   None    Shift=    0.000
 Gap=     0.035 Goal=   None    Shift=    0.000
 RMSDP=8.89D-02 MaxDP=2.31D+01 DE= 8.75D+01 OVMax= 9.93D-01

 Cycle   5  Pass 1  IDiag  1:
 RMSU=  5.19D-03    CP:  8.84D-01  3.20D-02  1.00D-01  3.77D-03
 E= -3363.68074735614     Delta-E=     -129.350078506635 Rises=F Damp=F
 DIIS: error= 7.68D-02 at cycle   5 NSaved=   5.
 NSaved= 5 IEnMin= 5 EnMin= -3363.68074735614     IErMin= 5 ErrMin= 7.68D-02
 ErrMax= 7.68D-02  0.00D+00 EMaxC= 1.00D-01 BMatC= 1.20D+01 BMatP= 3.15D+01
 IDIUse=3 WtCom= 2.32D-01 WtEn= 7.68D-01
 EnCoef did   100 forward-backward iterations
 Coeff-Com: -0.460D+00 0.972D+00 0.288D-01-0.229D-01 0.483D+00
 Coeff-En:   0.220D+00 0.460D-02 0.000D+00 0.000D+00 0.775D+00
 Coeff:      0.625D-01 0.229D+00 0.666D-02-0.530D-02 0.708D+00
 Gap=     0.281 Goal=   None    Shift=    0.000
 Gap=    -0.091 Goal=   None    Shift=    0.000
 RMSDP=6.65D-03 MaxDP=4.17D-01 DE=-1.29D+02 OVMax= 8.31D-01

 Cycle   6  Pass 1  IDiag  1:
 RMSU=  5.96D-03    CP:  8.85D-01  3.22D-02  7.48D-02  2.02D-03  4.43D-01
 E= -3356.73931332813     Delta-E=        6.941434028011 Rises=F Damp=F
 DIIS: error= 6.97D-02 at cycle   6 NSaved=   6.
 NSaved= 6 IEnMin= 5 EnMin= -3363.68074735614     IErMin= 6 ErrMin= 6.97D-02
 ErrMax= 6.97D-02  0.00D+00 EMaxC= 1.00D-01 BMatC= 2.49D+01 BMatP= 1.20D+01
 IDIUse=2 WtCom= 0.00D+00 WtEn= 1.00D+00
 EnCoef did   100 forward-backward iterations
 Coeff-En:   0.173D+00 0.194D-02 0.000D+00 0.000D+00 0.684D+00 0.141D+00
 Coeff:      0.173D+00 0.194D-02 0.000D+00 0.000D+00 0.684D+00 0.141D+00
 Gap=     0.021 Goal=   None    Shift=    0.000
 Gap=     0.022 Goal=   None    Shift=    0.000
 RMSDP=5.09D-03 MaxDP=3.69D-01 DE= 6.94D+00 OVMax= 7.43D-01

 Cycle   7  Pass 1  IDiag  1:
 RMSU=  3.17D-03    CP:  8.85D-01  3.51D-02  5.06D-02  1.31D-03  5.54D-01
                    CP:  3.45D-01
 E= -3365.76140418870     Delta-E=       -9.022090860564 Rises=F Damp=F
 DIIS: error= 4.82D-02 at cycle   7 NSaved=   7.
 NSaved= 7 IEnMin= 7 EnMin= -3365.76140418870     IErMin= 7 ErrMin= 4.82D-02
 ErrMax= 4.82D-02  0.00D+00 EMaxC= 1.00D-01 BMatC= 3.50D+00 BMatP= 1.20D+01
 IDIUse=3 WtCom= 5.18D-01 WtEn= 4.82D-01
 EnCoef did     8 forward-backward iterations
 Coeff-Com:  0.363D-01-0.819D-02-0.171D-01-0.916D-02 0.347D+00 0.825D-01
 Coeff-Com:  0.568D+00
 Coeff-En:   0.430D-01 0.000D+00 0.000D+00 0.000D+00 0.228D+00 0.766D-02
 Coeff-En:   0.721D+00
 Coeff:      0.395D-01-0.425D-02-0.887D-02-0.475D-02 0.290D+00 0.464D-01
 Coeff:      0.642D+00
 Gap=     0.119 Goal=   None    Shift=    0.000
 Gap=     0.003 Goal=   None    Shift=    0.000
 RMSDP=4.79D-03 MaxDP=6.68D-01 DE=-9.02D+00 OVMax= 8.06D-01

 Cycle   8  Pass 1  IDiag  1:
 RMSU=  3.63D-03    CP:  8.98D-01 -2.19D-03  3.65D-02  1.09D-03  5.33D-01
                    CP:  2.56D-01  5.02D-02
 E= -3363.17210589232     Delta-E=        2.589298296374 Rises=F Damp=F
 DIIS: error= 4.41D-02 at cycle   8 NSaved=   8.
 NSaved= 8 IEnMin= 7 EnMin= -3365.76140418870     IErMin= 8 ErrMin= 4.41D-02
 ErrMax= 4.41D-02  0.00D+00 EMaxC= 1.00D-01 BMatC= 8.85D+00 BMatP= 3.50D+00
 IDIUse=2 WtCom= 0.00D+00 WtEn= 1.00D+00
 EnCoef did     3 forward-backward iterations
 Coeff-En:   0.000D+00 0.000D+00 0.000D+00 0.000D+00 0.126D+00 0.000D+00
 Coeff-En:   0.650D+00 0.224D+00
 Coeff:      0.000D+00 0.000D+00 0.000D+00 0.000D+00 0.126D+00 0.000D+00
 Coeff:      0.650D+00 0.224D+00
 Gap=     0.142 Goal=   None    Shift=    0.000
 Gap=    -0.023 Goal=   None    Shift=    0.000
 RMSDP=3.44D-03 MaxDP=3.54D-01 DE= 2.59D+00 OVMax= 6.55D-01

 Cycle   9  Pass 1  IDiag  1:
 RMSU=  1.71D-03    CP:  8.84D-01 -9.87D-03  3.57D-02  1.71D-03  7.40D-01
                    CP:  1.56D-01  3.41D-01  2.99D-01
 E= -3366.33077403627     Delta-E=       -3.158668143948 Rises=F Damp=F
 DIIS: error= 2.78D-02 at cycle   9 NSaved=   9.
 NSaved= 9 IEnMin= 9 EnMin= -3366.33077403627     IErMin= 9 ErrMin= 2.78D-02
 ErrMax= 2.78D-02  0.00D+00 EMaxC= 1.00D-01 BMatC= 1.74D+00 BMatP= 3.50D+00
 IDIUse=3 WtCom= 7.22D-01 WtEn= 2.78D-01
 EnCoef did     3 forward-backward iterations
 Coeff-Com: -0.482D-01 0.839D-01-0.168D-02 0.913D-03 0.110D-01 0.184D-01
 Coeff-Com:  0.313D+00 0.138D+00 0.485D+00
 Coeff-En:   0.000D+00 0.000D+00 0.000D+00 0.000D+00 0.000D+00 0.000D+00
 Coeff-En:   0.247D+00 0.952D-01 0.658D+00
 Coeff:     -0.348D-01 0.606D-01-0.121D-02 0.659D-03 0.797D-02 0.133D-01
 Coeff:      0.295D+00 0.126D+00 0.533D+00
 Gap=     0.175 Goal=   None    Shift=    0.000
 Gap=     0.040 Goal=   None    Shift=    0.000
 RMSDP=1.87D-03 MaxDP=2.43D-01 DE=-3.16D+00 OVMax= 7.00D-01

 Cycle  10  Pass 1  IDiag  1:
 RMSU=  1.53D-03    CP:  8.86D-01  6.92D-05  3.48D-02  1.49D-03  6.40D-01
                    CP:  2.29D-01  4.53D-01  3.12D-01  5.56D-01
 E= -3366.58438975190     Delta-E=       -0.253615715632 Rises=F Damp=F
 DIIS: error= 1.62D-02 at cycle  10 NSaved=  10.
 NSaved=10 IEnMin=10 EnMin= -3366.58438975190     IErMin=10 ErrMin= 1.62D-02
 ErrMax= 1.62D-02  0.00D+00 EMaxC= 1.00D-01 BMatC= 4.20D-01 BMatP= 1.74D+00
 IDIUse=3 WtCom= 8.38D-01 WtEn= 1.62D-01
 Coeff-Com: -0.270D-01 0.342D-01 0.218D-02 0.419D-03 0.420D-02 0.987D-02
 Coeff-Com:  0.108D+00 0.148D-01 0.325D+00 0.528D+00
 Coeff-En:   0.000D+00 0.000D+00 0.000D+00 0.000D+00 0.000D+00 0.000D+00
 Coeff-En:   0.000D+00 0.000D+00 0.260D+00 0.740D+00
 Coeff:     -0.226D-01 0.287D-01 0.183D-02 0.351D-03 0.352D-02 0.827D-02
 Coeff:      0.906D-01 0.124D-01 0.314D+00 0.563D+00
 Gap=     0.177 Goal=   None    Shift=    0.000
 Gap=     0.018 Goal=   None    Shift=    0.000
 RMSDP=9.67D-04 MaxDP=1.16D-01 DE=-2.54D-01 OVMax= 3.36D-01

 Cycle  11  Pass 1  IDiag  1:
 RMSU=  7.11D-04    CP:  8.83D-01 -1.05D-03  3.86D-02  1.44D-03  6.80D-01
                    CP:  2.20D-01  4.82D-01  2.36D-01  5.87D-01  6.48D-01
 E= -3366.67424325163     Delta-E=       -0.089853499725 Rises=F Damp=F
 DIIS: error= 4.68D-03 at cycle  11 NSaved=  11.
 NSaved=11 IEnMin=11 EnMin= -3366.67424325163     IErMin=11 ErrMin= 4.68D-03
 ErrMax= 4.68D-03  0.00D+00 EMaxC= 1.00D-01 BMatC= 6.67D-02 BMatP= 4.20D-01
 IDIUse=3 WtCom= 9.53D-01 WtEn= 4.68D-02
 Coeff-Com: -0.152D-01 0.215D-01 0.693D-03-0.976D-03-0.473D-02 0.278D-02
 Coeff-Com:  0.392D-01-0.920D-02 0.140D+00 0.337D+00 0.489D+00
 Coeff-En:   0.000D+00 0.000D+00 0.000D+00 0.000D+00 0.000D+00 0.000D+00
 Coeff-En:   0.000D+00 0.000D+00 0.000D+00 0.129D+00 0.871D+00
 Coeff:     -0.145D-01 0.205D-01 0.660D-03-0.930D-03-0.451D-02 0.265D-02
 Coeff:      0.373D-01-0.877D-02 0.133D+00 0.327D+00 0.507D+00
 Gap=     0.125 Goal=   None    Shift=    0.000
 Gap=     0.026 Goal=   None    Shift=    0.000
 RMSDP=4.64D-04 MaxDP=3.95D-02 DE=-8.99D-02 OVMax= 2.26D-01

 Cycle  12  Pass 1  IDiag  1:
 RMSU=  3.39D-04    CP:  8.83D-01 -2.61D-03  3.80D-02  1.47D-03  6.71D-01
                    CP:  2.21D-01  4.61D-01  2.43D-01  5.46D-01  7.68D-01
                    CP:  6.73D-01
 E= -3366.68229601352     Delta-E=       -0.008052761896 Rises=F Damp=F
 DIIS: error= 3.07D-03 at cycle  12 NSaved=  12.
 NSaved=12 IEnMin=12 EnMin= -3366.68229601352     IErMin=12 ErrMin= 3.07D-03
 ErrMax= 3.07D-03  0.00D+00 EMaxC= 1.00D-01 BMatC= 2.68D-02 BMatP= 6.67D-02
 IDIUse=3 WtCom= 9.69D-01 WtEn= 3.07D-02
 Coeff-Com: -0.280D-02 0.533D-02-0.271D-03-0.263D-03-0.110D-01-0.168D-02
 Coeff-Com:  0.353D-01-0.732D-02 0.734D-01 0.114D+00 0.350D+00 0.445D+00
 Coeff-En:   0.000D+00 0.000D+00 0.000D+00 0.000D+00 0.000D+00 0.000D+00
 Coeff-En:   0.000D+00 0.000D+00 0.000D+00 0.000D+00 0.320D+00 0.680D+00
 Coeff:     -0.272D-02 0.517D-02-0.263D-03-0.255D-03-0.107D-01-0.163D-02
 Coeff:      0.342D-01-0.709D-02 0.711D-01 0.110D+00 0.350D+00 0.452D+00
 Gap=     0.123 Goal=   None    Shift=    0.000
 Gap=     0.036 Goal=   None    Shift=    0.000
 RMSDP=2.05D-04 MaxDP=2.07D-02 DE=-8.05D-03 OVMax= 6.29D-02

 Cycle  13  Pass 1  IDiag  1:
 RMSU=  1.31D-04    CP:  8.83D-01 -1.92D-03  3.76D-02  1.39D-03  6.70D-01
                    CP:  2.22D-01  4.70D-01  2.45D-01  5.73D-01  7.27D-01
                    CP:  7.53D-01  6.48D-01
 E= -3366.68850015231     Delta-E=       -0.006204138788 Rises=F Damp=F
 DIIS: error= 9.14D-04 at cycle  13 NSaved=  13.
 NSaved=13 IEnMin=13 EnMin= -3366.68850015231     IErMin=13 ErrMin= 9.14D-04
 ErrMax= 9.14D-04  0.00D+00 EMaxC= 1.00D-01 BMatC= 2.73D-03 BMatP= 2.68D-02
 IDIUse=3 WtCom= 9.91D-01 WtEn= 9.14D-03
 Coeff-Com: -0.254D-02 0.522D-02-0.260D-03 0.893D-04-0.465D-02-0.927D-03
 Coeff-Com:  0.193D-01-0.376D-02 0.215D-01-0.147D-01 0.863D-01 0.200D+00
 Coeff-Com:  0.694D+00
 Coeff-En:   0.000D+00 0.000D+00 0.000D+00 0.000D+00 0.000D+00 0.000D+00
 Coeff-En:   0.000D+00 0.000D+00 0.000D+00 0.000D+00 0.000D+00 0.000D+00
 Coeff-En:   0.100D+01
 Coeff:     -0.252D-02 0.517D-02-0.258D-03 0.885D-04-0.460D-02-0.918D-03
 Coeff:      0.192D-01-0.372D-02 0.213D-01-0.146D-01 0.855D-01 0.198D+00
 Coeff:      0.697D+00
 Gap=     0.122 Goal=   None    Shift=    0.000
 Gap=     0.039 Goal=   None    Shift=    0.000
 RMSDP=8.60D-05 MaxDP=6.47D-03 DE=-6.20D-03 OVMax= 1.51D-02

 Cycle  14  Pass 1  IDiag  1:
 RMSU=  6.64D-05    CP:  8.83D-01 -2.15D-03  3.77D-02  1.42D-03  6.70D-01
                    CP:  2.22D-01  4.72D-01  2.39D-01  5.65D-01  7.14D-01
                    CP:  7.78D-01  7.63D-01  1.01D+00
 E= -3366.68918852486     Delta-E=       -0.000688372545 Rises=F Damp=F
 DIIS: error= 6.35D-04 at cycle  14 NSaved=  14.
 NSaved=14 IEnMin=14 EnMin= -3366.68918852486     IErMin=14 ErrMin= 6.35D-04
 ErrMax= 6.35D-04  0.00D+00 EMaxC= 1.00D-01 BMatC= 1.31D-03 BMatP= 2.73D-03
 IDIUse=3 WtCom= 9.94D-01 WtEn= 6.35D-03
 Coeff-Com: -0.346D-02 0.596D-02-0.728D-04 0.101D-03 0.130D-02-0.516D-03
 Coeff-Com:  0.640D-02-0.101D-02-0.732D-02-0.338D-01-0.606D-01-0.723D-01
 Coeff-Com:  0.447D+00 0.718D+00
 Coeff-En:   0.000D+00 0.000D+00 0.000D+00 0.000D+00 0.000D+00 0.000D+00
 Coeff-En:   0.000D+00 0.000D+00 0.000D+00 0.000D+00 0.000D+00 0.000D+00
 Coeff-En:   0.000D+00 0.100D+01
 Coeff:     -0.344D-02 0.592D-02-0.723D-04 0.100D-03 0.130D-02-0.512D-03
 Coeff:      0.636D-02-0.101D-02-0.727D-02-0.336D-01-0.602D-01-0.719D-01
 Coeff:      0.444D+00 0.720D+00
 Gap=     0.121 Goal=   None    Shift=    0.000
 Gap=     0.041 Goal=   None    Shift=    0.000
 RMSDP=5.91D-05 MaxDP=7.29D-03 DE=-6.88D-04 OVMax= 1.31D-02

 Cycle  15  Pass 1  IDiag  1:
 RMSU=  3.81D-05    CP:  8.83D-01 -1.95D-03  3.77D-02  1.40D-03  6.70D-01
                    CP:  2.22D-01  4.75D-01  2.34D-01  5.61D-01  7.06D-01
                    CP:  7.97D-01  8.01D-01  1.25D+00  9.88D-01
 E= -3366.68954565386     Delta-E=       -0.000357129002 Rises=F Damp=F
 DIIS: error= 6.79D-04 at cycle  15 NSaved=  15.
 NSaved=15 IEnMin=15 EnMin= -3366.68954565386     IErMin=14 ErrMin= 6.35D-04
 ErrMax= 6.79D-04  0.00D+00 EMaxC= 1.00D-01 BMatC= 6.47D-04 BMatP= 1.31D-03
 IDIUse=3 WtCom= 9.94D-01 WtEn= 6.35D-03
 Coeff-Com: -0.268D-02 0.446D-02-0.900D-04 0.236D-04 0.168D-02-0.847D-03
 Coeff-Com:  0.293D-02 0.468D-03-0.920D-02-0.735D-02-0.600D-01-0.113D+00
 Coeff-Com:  0.108D+00 0.451D+00 0.624D+00
 Coeff-En:   0.000D+00 0.000D+00 0.000D+00 0.000D+00 0.000D+00 0.000D+00
 Coeff-En:   0.000D+00 0.000D+00 0.000D+00 0.000D+00 0.000D+00 0.000D+00
 Coeff-En:   0.000D+00 0.000D+00 0.100D+01
 Coeff:     -0.266D-02 0.443D-02-0.894D-04 0.234D-04 0.167D-02-0.841D-03
 Coeff:      0.291D-02 0.465D-03-0.914D-02-0.730D-02-0.596D-01-0.112D+00
 Coeff:      0.108D+00 0.448D+00 0.626D+00
 Gap=     0.120 Goal=   None    Shift=    0.000
 Gap=     0.041 Goal=   None    Shift=    0.000
 RMSDP=2.90D-05 MaxDP=2.90D-03 DE=-3.57D-04 OVMax= 8.01D-03

 Cycle  16  Pass 1  IDiag  1:
 RMSU=  2.02D-05    CP:  8.83D-01 -1.90D-03  3.77D-02  1.41D-03  6.70D-01
                    CP:  2.21D-01  4.76D-01  2.32D-01  5.56D-01  7.05D-01
                    CP:  8.01D-01  8.28D-01  1.31D+00  1.19D+00  1.01D+00
 E= -3366.68963657249     Delta-E=       -0.000090918629 Rises=F Damp=F
 DIIS: error= 5.66D-04 at cycle  16 NSaved=  16.
 NSaved=16 IEnMin=16 EnMin= -3366.68963657249     IErMin=16 ErrMin= 5.66D-04
 ErrMax= 5.66D-04  0.00D+00 EMaxC= 1.00D-01 BMatC= 4.05D-04 BMatP= 6.47D-04
 IDIUse=3 WtCom= 9.94D-01 WtEn= 5.66D-03
 Coeff-Com: -0.145D-02 0.248D-02-0.715D-04 0.973D-05-0.656D-04-0.797D-03
 Coeff-Com:  0.180D-02 0.650D-03-0.374D-02 0.107D-01-0.358D-01-0.896D-01
 Coeff-Com: -0.314D-01 0.153D+00 0.400D+00 0.594D+00
 Coeff-En:   0.000D+00 0.000D+00 0.000D+00 0.000D+00 0.000D+00 0.000D+00
 Coeff-En:   0.000D+00 0.000D+00 0.000D+00 0.000D+00 0.000D+00 0.000D+00
 Coeff-En:   0.000D+00 0.000D+00 0.000D+00 0.100D+01
 Coeff:     -0.144D-02 0.246D-02-0.711D-04 0.968D-05-0.653D-04-0.792D-03
 Coeff:      0.179D-02 0.646D-03-0.372D-02 0.106D-01-0.356D-01-0.891D-01
 Coeff:     -0.312D-01 0.152D+00 0.398D+00 0.597D+00
 Gap=     0.120 Goal=   None    Shift=    0.000
 Gap=     0.041 Goal=   None    Shift=    0.000
 RMSDP=1.73D-05 MaxDP=1.29D-03 DE=-9.09D-05 OVMax= 5.80D-03

 Cycle  17  Pass 1  IDiag  1:
 RMSU=  1.27D-05    CP:  8.83D-01 -1.82D-03  3.77D-02  1.41D-03  6.70D-01
                    CP:  2.21D-01  4.76D-01  2.32D-01  5.55D-01  7.07D-01
                    CP:  8.00D-01  8.36D-01  1.36D+00  1.24D+00  1.22D+00
                    CP:  1.03D+00
 E= -3366.68968704444     Delta-E=       -0.000050471957 Rises=F Damp=F
 DIIS: error= 3.75D-04 at cycle  17 NSaved=  17.
 NSaved=17 IEnMin=17 EnMin= -3366.68968704444     IErMin=17 ErrMin= 3.75D-04
 ErrMax= 3.75D-04  0.00D+00 EMaxC= 1.00D-01 BMatC= 1.74D-04 BMatP= 4.05D-04
 IDIUse=3 WtCom= 9.96D-01 WtEn= 3.75D-03
 Coeff-Com: -0.365D-03 0.661D-03-0.250D-04 0.249D-04-0.774D-03-0.126D-03
 Coeff-Com:  0.110D-02 0.415D-05 0.731D-03 0.130D-01-0.165D-01-0.515D-01
 Coeff-Com: -0.182D-01-0.232D-02-0.603D-01 0.221D+00 0.913D+00
 Coeff-En:   0.000D+00 0.000D+00 0.000D+00 0.000D+00 0.000D+00 0.000D+00
 Coeff-En:   0.000D+00 0.000D+00 0.000D+00 0.000D+00 0.000D+00 0.000D+00
 Coeff-En:   0.000D+00 0.000D+00 0.000D+00 0.000D+00 0.100D+01
 Coeff:     -0.364D-03 0.658D-03-0.249D-04 0.248D-04-0.771D-03-0.125D-03
 Coeff:      0.110D-02 0.414D-05 0.728D-03 0.130D-01-0.165D-01-0.513D-01
 Coeff:     -0.182D-01-0.231D-02-0.601D-01 0.221D+00 0.914D+00
 Gap=     0.120 Goal=   None    Shift=    0.000
 Gap=     0.041 Goal=   None    Shift=    0.000
 RMSDP=1.58D-05 MaxDP=1.44D-03 DE=-5.05D-05 OVMax= 4.94D-03

 Cycle  18  Pass 1  IDiag  1:
 RMSU=  8.21D-06    CP:  8.83D-01 -1.75D-03  3.76D-02  1.41D-03  6.70D-01
                    CP:  2.21D-01  4.77D-01  2.32D-01  5.53D-01  7.09D-01
                    CP:  7.95D-01  8.34D-01  1.41D+00  1.33D+00  1.32D+00
                    CP:  1.33D+00  1.12D+00
 E= -3366.68971965620     Delta-E=       -0.000032611755 Rises=F Damp=F
 DIIS: error= 9.54D-05 at cycle  18 NSaved=  18.
 NSaved=18 IEnMin=18 EnMin= -3366.68971965620     IErMin=18 ErrMin= 9.54D-05
 ErrMax= 9.54D-05  0.00D+00 EMaxC= 1.00D-01 BMatC= 2.30D-05 BMatP= 1.74D-04
 IDIUse=1 WtCom= 1.00D+00 WtEn= 0.00D+00
 Coeff-Com: -0.131D-03 0.227D-03 0.702D-06 0.351D-05-0.238D-03 0.804D-04
 Coeff-Com:  0.498D-03-0.219D-03 0.252D-03 0.584D-02-0.783D-02-0.266D-01
 Coeff-Com:  0.541D-02 0.218D-02-0.102D+00-0.345D-01 0.559D+00 0.598D+00
 Coeff:     -0.131D-03 0.227D-03 0.702D-06 0.351D-05-0.238D-03 0.804D-04
 Coeff:      0.498D-03-0.219D-03 0.252D-03 0.584D-02-0.783D-02-0.266D-01
 Coeff:      0.541D-02 0.218D-02-0.102D+00-0.345D-01 0.559D+00 0.598D+00
 Gap=     0.120 Goal=   None    Shift=    0.000
 Gap=     0.041 Goal=   None    Shift=    0.000
 RMSDP=7.16D-06 MaxDP=5.36D-04 DE=-3.26D-05 OVMax= 1.15D-03

 Cycle  19  Pass 1  IDiag  1:
 RMSU=  4.97D-06    CP:  8.83D-01 -1.72D-03  3.76D-02  1.40D-03  6.69D-01
                    CP:  2.21D-01  4.77D-01  2.32D-01  5.53D-01  7.09D-01
                    CP:  7.95D-01  8.32D-01  1.43D+00  1.34D+00  1.35D+00
                    CP:  1.37D+00  1.36D+00  8.72D-01
 E= -3366.68972607083     Delta-E=       -0.000006414633 Rises=F Damp=F
 DIIS: error= 3.28D-05 at cycle  19 NSaved=  19.
 NSaved=19 IEnMin=19 EnMin= -3366.68972607083     IErMin=19 ErrMin= 3.28D-05
 ErrMax= 3.28D-05  0.00D+00 EMaxC= 1.00D-01 BMatC= 2.70D-06 BMatP= 2.30D-05
 IDIUse=1 WtCom= 1.00D+00 WtEn= 0.00D+00
 Coeff-Com:  0.978D-05-0.222D-04 0.507D-05 0.110D-05 0.336D-04 0.376D-04
 Coeff-Com:  0.251D-03-0.117D-03-0.921D-04 0.937D-03-0.123D-02-0.693D-02
 Coeff-Com:  0.666D-02 0.412D-02-0.426D-01-0.517D-01 0.135D+00 0.342D+00
 Coeff-Com:  0.613D+00
 Coeff:      0.978D-05-0.222D-04 0.507D-05 0.110D-05 0.336D-04 0.376D-04
 Coeff:      0.251D-03-0.117D-03-0.921D-04 0.937D-03-0.123D-02-0.693D-02
 Coeff:      0.666D-02 0.412D-02-0.426D-01-0.517D-01 0.135D+00 0.342D+00
 Coeff:      0.613D+00
 Gap=     0.120 Goal=   None    Shift=    0.000
 Gap=     0.041 Goal=   None    Shift=    0.000
 RMSDP=3.47D-06 MaxDP=3.24D-04 DE=-6.41D-06 OVMax= 7.57D-04

 Cycle  20  Pass 1  IDiag  1:
 RMSU=  2.68D-06    CP:  8.83D-01 -1.72D-03  3.76D-02  1.40D-03  6.69D-01
                    CP:  2.21D-01  4.77D-01  2.32D-01  5.53D-01  7.09D-01
                    CP:  7.95D-01  8.32D-01  1.43D+00  1.35D+00  1.36D+00
                    CP:  1.41D+00  1.41D+00  1.08D+00  9.51D-01
 E= -3366.68972740534     Delta-E=       -0.000001334505 Rises=F Damp=F
 DIIS: error= 2.47D-05 at cycle  20 NSaved=  20.
 NSaved=20 IEnMin=20 EnMin= -3366.68972740534     IErMin=20 ErrMin= 2.47D-05
 ErrMax= 2.47D-05  0.00D+00 EMaxC= 1.00D-01 BMatC= 1.50D-06 BMatP= 2.70D-06
 IDIUse=1 WtCom= 1.00D+00 WtEn= 0.00D+00
 Coeff-Com:  0.614D-04-0.106D-03 0.230D-05 0.258D-06 0.543D-04 0.163D-05
 Coeff-Com:  0.474D-05 0.193D-05 0.460D-05-0.114D-02 0.298D-02 0.496D-02
 Coeff-Com:  0.550D-03-0.442D-02 0.435D-02-0.680D-02-0.858D-01 0.269D-01
 Coeff-Com:  0.414D+00 0.645D+00
 Coeff:      0.614D-04-0.106D-03 0.230D-05 0.258D-06 0.543D-04 0.163D-05
 Coeff:      0.474D-05 0.193D-05 0.460D-05-0.114D-02 0.298D-02 0.496D-02
 Coeff:      0.550D-03-0.442D-02 0.435D-02-0.680D-02-0.858D-01 0.269D-01
 Coeff:      0.414D+00 0.645D+00
 Gap=     0.120 Goal=   None    Shift=    0.000
 Gap=     0.041 Goal=   None    Shift=    0.000
 RMSDP=2.45D-06 MaxDP=1.74D-04 DE=-1.33D-06 OVMax= 5.18D-04

 Cycle  21  Pass 1  IDiag  1:
 Restarting incremental Fock formation.
 E= -3366.68972824699     Delta-E=       -0.000000841650 Rises=F Damp=F
 DIIS: error= 1.72D-05 at cycle  21 NSaved=  20.
 NSaved=20 IEnMin=20 EnMin= -3366.68972824699     IErMin=20 ErrMin= 1.72D-05
 ErrMax= 1.72D-05  0.00D+00 EMaxC= 1.00D-01 BMatC= 6.20D-07 BMatP= 1.50D-06
 IDIUse=1 WtCom= 1.00D+00 WtEn= 0.00D+00
 Coeff-Com:  0.440D-04-0.707D-04-0.797D-06 0.112D-05-0.183D-05-0.166D-03
 Coeff-Com:  0.353D-04 0.103D-03-0.904D-03 0.320D-02 0.655D-02-0.286D-02
 Coeff-Com: -0.850D-02 0.211D-01 0.274D-01-0.102D+00-0.129D+00 0.140D-01
 Coeff-Com:  0.395D+00 0.775D+00
[...]
 00000039,-0.00000195,-0.00000036,0.00000148,-0.00000054,-0.00001043,-0
 .00002294,-0.00000408,-0.00001935,-0.00009982,-0.00004700,0.07157477,0
 .07516769,-0.00001832,0.00001548,-0.00007517,-0.00007394,-0.00010981,0
 .00033679,-0.00215065,0.00147696,0.00169886,-0.00092822,-0.00042380,0.
 00006384,-0.00383664,0.00245040,-0.00342141,0.01717024,0.01039164,-0.0
 1538604,0.00254014,-0.00078792,0.00043166,0.00036234,-0.00056231,0.000
 02620,-0.00051528,-0.00022652,0.00010245,-0.00006510,0.00016314,0.0003
 8527,-0.00010476,-0.00000463,0.00005175,-0.00000712,0.00000833,-0.0000
 3152,0.00001122,-0.00000195,0.00001548,-0.00001830,0.00000479,-0.00001
 666,0.00001245,0.00000815,-0.00001062,0.00001246,0.00000089,0.00000555
 ,0.00000580,0.00000086,-0.00000206,-0.00000004,-0.00000038,-0.00000867
 ,0.00011776,0.00004033,-0.00000458,0.00003621,-0.00001490,-0.00010223,
 -0.00003617,0.00008958,0.00008684,-0.00001547,-0.00011323,-0.00007285,
 -0.00002310,-0.00003163,0.00004341,-0.00000244,0.00000630,0.00000805,0
 .00000315,-0.00000171,-0.00000290,-0.00000076,0.00000525,0.00000083,0.
 00000042,0.00000097,-0.00000516,0.00000213,-0.00000483,-0.00000116,-0.
 00000088,-0.00000591,-0.00000109,-0.00000354,0.00003530,0.00003577,0.0
 0000380,-0.00002699,-0.00002685,-0.00001104,0.00003055,0.00004140,0.00
 001927,0.00000765,-0.00002417,-0.00000093,-0.00001147,-0.00000767,0.00
 001002,0.00000885,-0.00000907,0.00001242,0.00000506,0.00001883,-0.0001
 1073,0.00002029,-0.00007424,0.00011955,-0.00002281,0.00012044,0.000476
 56,0.00008231,-0.00006703,-0.00062560,-0.00030954,-0.00044197,0.112745
 24,0.08410332,-0.20222400,-0.00515678,-0.00227258,0.00712653,0.0000057
 0,0.00000535,0.00001500,-0.00002717,-0.00001851,0.00001219,0.00000597,
 0.00001311,-0.00001057,0.00012614,-0.00018577,-0.00007597,0.00092986,0
 .00053338,-0.00090259,-0.00015145,0.00052310,0.00058506,0.00000411,-0.
 00002249,-0.00001926,-0.00000491,0.00000454,-0.00001130,-0.00000224,0.
 00000027,-0.00000080,0.00000190,-0.00000107,0.00000289,0.00000053,0.00
 000069,0.00000023,-0.00000517,-0.00000004,-0.00000376,-0.00000684,0.00
 000444,0.00000127,0.00000072,-0.00000256,-0.00000071,0.00000077,-0.000
 00078,-0.00000281,0.00000083,0.00000150,-0.00000244,-0.00000017,-0.000
 00083,0.00000264,0.00000167,0.00000471,-0.00000167,0.00000190,0.000001
 92,-0.00000274,0.00000059,0.00000259,0.00000085,-0.00000201,0.00000131
 ,0.00000286,-0.00000271,0.00000227,0.00000244,-0.00001669,0.00002286,-
 0.00000223,0.00002055,0.00005146,0.00010730,-0.12145988,-0.09337901,0.
 21125124,-0.00263618,-0.00088280,0.00092942,0.00025680,0.00133654,-0.0
 0194334,0.01233035,-0.00388173,0.01638124,-0.00198241,-0.00211501,0.00
 210958,-0.00087400,-0.00034226,0.00065061,-0.00466017,-0.00225881,-0.0
 0008739,0.00024950,0.00026821,-0.00126504,-0.00001638,-0.00006925,-0.0
 0003492,-0.00001310,-0.00000788,0.00002687,-0.00001793,-0.00000293,0.0
 0000436,0.00006751,0.00004552,-0.00001073,0.00000343,-0.00000728,0.000
 01748,-0.00000215,-0.00000174,-0.00001393,0.00001680,-0.00000153,0.000
 01020,-0.00000881,-0.00000507,0.00000858,-0.00001063,-0.00000218,-0.00
 000102,-0.00000852,-0.00000116,0.00000028,0.00000222,-0.00000455,0.000
 01173,-0.00008124,-0.00002551,-0.00000249,-0.00002056,0.00000605,0.000
 05973,0.00002667,-0.00004058,-0.00004415,-0.00000740,0.00006454,0.0000
 4410,0.00001145,0.00001598,-0.00002547,0.00000206,-0.00000402,-0.00000
 524,-0.00000159,0.00000193,0.00000134,0.00000096,-0.00000284,-0.000000
 46,0.00000033,-0.00000037,0.00000384,-0.00000045,0.00000264,0.00000141
 ,0.00000141,0.00000426,0.00000087,0.00000216,-0.00001959,-0.00001813,-
 0.00000253,0.00001292,0.00001469,0.00000645,-0.00001549,-0.00002116,-0
 .00000963,-0.00000555,0.00001187,0.00000089,0.00000446,0.00000432,-0.0
 0000421,-0.00000442,0.00000476,-0.00000679,-0.00000029,-0.00001061,0.0
 0006803,-0.00000603,0.00003428,-0.00005063,-0.00000173,-0.00005989,0.0
 0001497,-0.00006856,-0.00008516,-0.00043654,-0.00001180,0.00004907,-0.
 00714507,0.00801956,-0.02895289,-0.09238875,0.01926572,-0.09257183,-0.
 00184733,-0.00015000,-0.00012600,-0.00122874,-0.00036979,-0.00013071,0
 .00001930,0.00000020,0.00030674,0.00039451,-0.00023691,0.00095919,-0.0
 0002780,0.00015831,-0.00002459,0.00000127,0.00002986,0.00001281,-0.000
 02666,0.00000379,0.00000892,0.00000208,-0.00000263,0.00000774,0.000000
 74,-0.00000124,0.00000129,-0.00000062,0.00000024,-0.00000122,0.0000003
 2,-0.00000054,-0.00000007,0.00000239,-0.00000002,0.00000180,0.00000382
 ,-0.00000300,-0.00000062,-0.00000099,0.00000119,0.00000022,-0.00000104
 ,0.00000027,0.00000143,-0.00000136,-0.00000104,0.00000154,-0.00000071,
 -0.00000019,-0.00000181,-0.00000142,-0.00000269,0.00000062,-0.00000150
 ,-0.00000093,0.00000112,-0.00000064,-0.00000098,-0.00000076,0.00000048
 ,-0.00000050,-0.00000188,0.00000080,-0.00000098,-0.00000247,-0.0000380
 7,-0.00000958,-0.00001265,0.00001442,0.00001500,-0.00000354,0.00103530
 ,0.00095765,0.00063795,0.09903092,-0.00003460,-0.00043579,0.00046641,0
 .00063330,-0.00235043,-0.00164051,0.00599732,0.00232515,0.00962125,-0.
 00238857,0.00359393,0.00251986,-0.00042741,-0.00044659,-0.00017601,-0.
 00238845,0.00579499,0.00129035,0.00001701,0.00061658,-0.00001523,0.000
 03869,-0.00010721,0.00001491,-0.00001411,-0.00001870,0.00000037,-0.000
 03627,0.00001332,0.00003019,0.00001896,0.00000092,0.00000520,-0.000008
 29,-0.00000199,-0.00000630,0.00000831,0.00000049,0.00000078,-0.0000029
 3,0.00000075,-0.00000289,0.00000399,0.00000076,-0.00000036,-0.00000163
 ,-0.00000252,0.00000308,-0.00000212,0.00000055,-0.00000213,0.00000030,
 -0.00000331,0.00000304,-0.00000341,0.00000006,-0.00000159,0.00000029,0
 .00000158,0.00000344,0.00000356,0.00000162,-0.00000157,-0.00000124,-0.
 00000468,0.00000004,-0.00000062,0.00000085,0.00000016,-0.00000006,0.00
 000037,0.00000066,0.00000020,-0.00000020,-0.00000069,-0.00000067,0.000
 00051,0.00000010,-0.00000020,-0.00000010,-0.00000034,0.00000029,-0.000
 00037,-0.00000019,-0.00000008,0.00000036,0.00000007,0.00000020,-0.0000
 0171,-0.00000140,-0.00000010,0.00000129,0.00000122,0.00000121,-0.00000
 193,-0.00000227,-0.00000076,-0.00000155,0.00000130,0.00000054,0.000000
 17,0.00000103,0.00000012,-0.00000114,0.00000090,-0.00000055,0.00000086
 ,-0.00000064,-0.00000602,0.00000236,-0.00000181,0.00000172,-0.00000997
 ,0.00000274,0.00008347,-0.00002067,-0.00001479,0.00001768,-0.00011218,
 0.00000841,-0.00182198,0.00368099,-0.00441424,0.01868235,-0.05268608,0
 .06823940,0.00096423,0.00038541,0.00011698,-0.00137688,-0.00053509,-0.
 00044698,0.00013587,-0.00026292,-0.00033394,0.00026719,-0.00003484,0.0
 0047833,0.00015707,-0.00065489,-0.00022133,0.00004537,0.00005013,0.000
 02360,0.00000177,0.00000033,-0.00000102,-0.00000039,0.00000087,0.00000
 032,-0.00000025,0.00000062,0.00000040,-0.00000005,0.00000032,0.0000001
 9,0.00000009,0.00000020,0.00000017,-0.00000009,0.00000039,0.00000019,0
 .00000010,0.00000032,0.00000035,0.00000062,-0.00000059,-0.00000006,0.0
 0000033,0.00000009,-0.00000039,-0.00000010,0.00000010,0.00000027,-0.00
 000018,-0.00000060,-0.00000011,-0.00000028,0.00000019,0.00000007,-0.00
 000046,0.00000005,-0.00000003,-0.00000070,-0.00000021,-0.00000031,-0.0
 0000057,-0.00000020,-0.00000117,-0.00000046,0.00000104,-0.00000017,0.0
 0000030,0.00001148,-0.00000347,0.00001161,-0.00000721,-0.00003036,0.00
 107486,-0.00356652,-0.00158527,-0.01964767,0.04476906,-0.00128394,-0.0
 0009334,-0.00085949,-0.00025559,-0.00133825,0.00061090,-0.01220584,0.0
 0434201,-0.01547299,0.00352337,0.00278563,-0.00104616,0.00082618,-0.00
 011019,0.00055344,-0.00100937,0.00117724,0.00242963,0.00022218,0.00026
 814,-0.00010183,-0.00005445,-0.00003706,-0.00001446,0.00001091,-0.0000
 1708,0.00000100,-0.00002928,-0.00000713,0.00000498,0.00007861,0.000046
 32,-0.00001443,0.00000302,-0.00000868,0.00001368,-0.00000112,-0.000003
 16,-0.00001312,0.00001424,-0.00000100,0.00000803,-0.00000624,-0.000004
 82,0.00000853,-0.00001014,-0.00000322,-0.00000002,-0.00000862,-0.00000
 044,-0.00000051,0.00000244,-0.00000391,0.00001108,-0.00008708,-0.00002
 879,-0.00000102,-0.00002423,0.00001000,0.00007329,0.00003076,-0.000054
 55,-0.00005824,0.00000155,0.00007360,0.00004908,0.00001458,0.00002134,
 -0.00002975,0.00000163,-0.00000427,-0.00000511,-0.00000213,0.00000134,
 0.00000138,0.00000004,-0.00000364,-0.00000055,-0.00000046,-0.00000087,
 0.00000319,-0.00000148,0.00000310,0.00000069,0.00000037,0.00000451,0.0
 0000074,0.00000256,-0.00002496,-0.00002494,-0.00000303,0.00001851,0.00
 001919,0.00000857,-0.00002152,-0.00002945,-0.00001333,-0.00000653,0.00
 001688,0.00000103,0.00000702,0.00000589,-0.00000618,-0.00000655,0.0000
 0679,-0.00000879,-0.00000193,-0.00001299,0.00007253,-0.00000977,0.0000
 4442,-0.00006923,0.00000544,-0.00007511,0.00002718,-0.00001326,-0.0000
 1592,-0.00007189,-0.00001418,0.00002836,-0.00015808,0.00138821,-0.0015
 1631,-0.09156356,0.06802387,-0.28723530,0.00022553,-0.00075343,0.00018
 577,-0.00086852,0.00034759,0.00044884,-0.00013056,-0.00041586,0.000750
 61,-0.00060045,0.00015223,-0.00082527,-0.00001395,-0.00022475,-0.00012
 938,0.00002693,0.00001200,-0.00000417,-0.00001225,0.00000554,0.0000093
 8,0.00000194,-0.00000121,0.00000844,0.00000109,-0.00000068,0.00000161,
 -0.00000076,0.00000084,-0.00000176,-0.00000036,-0.00000057,-0.00000003
 ,0.00000326,0.00000018,0.00000271,0.00000501,-0.00000300,-0.00000063,-
 0.00000007,0.00000146,0.00000040,-0.00000024,0.00000060,0.00000181,-0.
 00000048,-0.00000095,0.00000189,0.00000010,0.00000024,-0.00000184,-0.0
 0000141,-0.00000320,0.00000123,-0.00000176,-0.00000128,0.00000193,-0.0
 0000098,-0.00000196,-0.00000094,0.00000086,-0.00000085,-0.00000296,0.0
 0000121,-0.00000067,-0.00000226,-0.00001049,-0.00000050,-0.00000792,0.
 00001123,0.00000999,-0.00000461,0.00023199,-0.00155659,0.00044380,0.10
 315993,-0.07393003,0.30177003,-0.00003091,0.00000674,-0.00003715,0.000
 12222,0.00001839,0.00002514,-0.00010229,-0.00002034,-0.00000602,0.0000
 2583,0.00000692,0.00001045,0.00000457,-0.00000870,0.00002073,0.0000002
 1,-0.00001334,-0.00008291,-0.00003010,-0.00003004,-0.00003970,0.000142
 26,0.00001692,-0.00041537,-0.00152531,0.00024970,0.00137498,0.00074851
 ,0.00014355,-0.00000077,0.00101649,0.00114410,-0.00136188,0.00102241,-
 0.00044499,0.00088648,-0.00096134,0.00000225,-0.00059606,0.00083413,-0
 .00004730,0.00052743,-0.00053182,-0.00018258,0.00010562,-0.00010130,-0
 .00008888,-0.00022565,-0.00013613,0.00018257,0.00005766,-0.00035147,0.
 00012887,0.00022023,-0.00287020,-0.00160917,-0.00382755,-0.00109716,0.
 00790594,0.00599726,-0.02295661,-0.03392231,-0.01661169,-0.08869071,0.
 03044912,-0.01018652,0.00436291,0.00487246,-0.00156562,-0.00058412,0.0
 0043684,0.00085439,0.00013782,-0.00062507,0.00023436,0.00000726,0.0002
 3151,0.00018936,-0.00006169,0.00006815,-0.00011871,0.00001334,0.000050
 27,-0.00013189,0.00018531,-0.00011210,0.00007521,0.00034093,-0.0030885
 3,-0.00345697,0.00046209,0.00280897,0.00152547,0.00022456,-0.00270182,
 -0.00245193,-0.00114560,0.00010912,0.00191017,-0.00003590,0.00077573,0
 .00042984,-0.00014863,0.00033172,0.00088726,-0.00218959,-0.00343822,-0
 .00054860,0.00615706,-0.00398120,0.00505184,-0.02575308,0.02640412,0.0
 3085416,-0.00029538,-0.00004220,-0.00016441,0.00014700,0.00001250,-0.0
 0005812,-0.00001943,-0.00002238,0.00004186,0.00001758,0.00000768,-0.00
 003703,-0.00000238,-0.00000143,0.00000817,-0.00000187,-0.00000505,0.00
 000671,0.00000907,0.00000177,-0.00000033,0.00000866,0.00000352,-0.0000
 0287,-0.00000766,-0.00000486,-0.00000201,-0.00009544,-0.00002148,-0.00
 002045,-0.00006091,-0.00098401,-0.00054187,0.00000425,-0.00002191,0.00
 003803,-0.00001927,-0.00000960,0.00003306,0.00000184,0.00001968,0.0000
 2922,0.00004083,-0.00001050,-0.00000630,0.00005185,0.00007615,0.000072
 02,-0.00022856,0.00030061,-0.00013612,0.00002110,-0.00002443,0.0000063
 6,0.00001859,0.00000905,-0.00006067,0.00001655,0.00002310,-0.00004596,
 -0.00004190,0.00004019,0.00000053,0.00004679,0.00029664,0.00003942,-0.
 00000095,-0.00004391,0.00001775,0.00000814,-0.00000338,0.00003529,0.00
 004568,0.00003426,-0.00003626,0.00009821,-0.00010519,-0.00001376,0.000
 08642,-0.00005351,-0.00010024,-0.00000364,-0.00001576,-0.00001703,-0.0
 0000949,0.00001746,-0.00001530,-0.00000582,-0.00000082,0.00000550,0.13
 366617,-0.00002863,0.00002651,-0.00004163,0.00010073,-0.00000220,0.000
 03501,-0.00007893,-0.00000324,-0.00000731,0.00002024,-0.00000885,0.000
 01855,0.00001029,-0.00001220,0.00001939,0.00001307,-0.00001397,-0.0000
 5825,-0.00001383,0.00004660,0.00003303,0.00030058,-0.00021727,-0.00040
 285,-0.00114532,0.00008280,0.00108663,0.00116249,0.00024387,-0.0000239
 0,-0.00012189,-0.00169257,0.00367759,-0.00146599,-0.00027701,-0.000481
 80,0.00039899,-0.00042918,0.00079266,-0.00071151,0.00014858,-0.0005653
 3,0.00051628,0.00009135,0.00000395,0.00019108,-0.00015578,0.00002200,0
 .00039590,0.00005640,0.00022389,-0.00002462,0.00079039,-0.00140905,0.0
 0302870,-0.00082553,0.00209498,-0.00191790,0.00047826,-0.00120844,-0.0
 1026134,-0.00492660,-0.00353753,0.01690536,0.00021947,0.00406270,-0.00
 043389,-0.00074966,-0.00034669,0.00002305,0.00015643,0.00014602,0.0000
 1391,-0.00000083,-0.00006571,-0.00004351,0.00004420,-0.00000550,-0.000
 00390,-0.00002016,-0.00009203,0.00003705,-0.00004954,0.00011251,0.0001
 3813,-0.00004261,0.00004708,-0.00001093,-0.00089319,-0.00043846,0.0000
 6833,0.00044846,0.00032780,0.00004421,-0.00070858,-0.00057128,-0.00035
 755,-0.00005178,0.00055522,0.00006824,0.00034677,0.00007500,0.00008324
 ,-0.00019494,0.00007505,-0.00012924,-0.00074214,-0.00029776,-0.0052746
 1,0.00369247,-0.01275517,0.02405627,-0.02328096,-0.02866157,-0.0002600
 7,-0.00018517,-0.00016587,0.00009236,-0.00000166,0.00000479,0.00000579
 ,-0.00001334,-0.00003619,0.00002645,-0.00000886,-0.00001660,-0.0000007
 9,-0.00001056,0.00000651,-0.00000005,-0.00000253,0.00000386,0.00000511
 ,0.00000125,0.00000139,0.00000334,0.00000624,0.00000095,-0.00000875,0.
 00000307,0.00000882,-0.00006855,0.00003781,0.00000130,0.00012100,-0.00
 002370,-0.00043975,0.00007347,-0.00011149,0.00025078,-0.00001207,0.000
 01584,0.00001525,0.00000081,0.00003377,0.00002347,-0.00000302,0.000003
 17,0.00002620,-0.00003018,0.00008137,0.00003944,0.00001583,0.00009115,
 0.00002706,0.00006534,-0.00005155,-0.00003346,0.00000665,-0.00001047,-
 0.00002335,-0.00000878,-0.00000164,-0.00000487,-0.00007049,-0.00010153
 ,0.00001569,-0.00006287,-0.00000207,-0.00003753,-0.00000308,-0.0000079
 4,-0.00000012,-0.00000106,0.00000801,0.00001461,-0.00001555,0.00002399
 ,-0.00001800,0.00001581,-0.00000250,0.00002887,0.00006707,0.00000899,-
 0.00008998,-0.00000069,0.00000251,-0.00002434,-0.00000883,0.00002754,-
 0.00000067,0.00000481,0.00001117,0.00000769,-0.02550156,0.02860539,0.0
 0005065,-0.00002015,0.00011214,-0.00022616,-0.00002110,-0.00009025,0.0
 0015524,0.00002918,0.00001546,-0.00002181,0.00000979,-0.00004125,-0.00
 004924,-0.00001181,-0.00002248,0.00013041,0.00003701,0.00004940,-0.000
 10176,0.00000122,0.00001545,0.00011986,0.00014042,0.00035444,0.0005342
 2,-0.00010787,-0.00115104,0.00100162,0.00035167,0.00019603,-0.00181608
 ,-0.00284575,0.00532700,-0.00385272,0.00042787,-0.00250720,0.00179310,
 -0.00098943,0.00240831,-0.00284531,0.00063032,-0.00212309,0.00213477,0
 .00062306,-0.00030815,0.00061976,-0.00051306,0.00056543,0.00069755,0.0
 0041023,0.00029236,-0.00059608,0.00179293,-0.00357310,0.00805176,-0.00
 399253,0.00315924,-0.00278816,0.00284748,-0.00068864,-0.01303050,-0.01
 233515,-0.00539303,-0.01081072,0.00576074,-0.00115393,0.00211443,0.002
 49268,0.00062365,-0.00032032,0.00038776,0.00037620,0.00025591,-0.00071
 411,0.00002230,-0.00001540,0.00021647,0.00018580,-0.00007609,0.0001899
 4,-0.00028948,0.00007579,-0.00015652,-0.00032681,-0.00029028,-0.000170
 39,0.00002292,0.00016392,-0.00093177,-0.00177218,0.00018961,0.00119354
 ,0.00047691,-0.00001270,-0.00121402,-0.00090928,-0.00056072,0.00009410
 ,0.00095325,-0.00003023,0.00070125,0.00000844,0.00018865,-0.00016915,0
 .00029263,-0.00066157,-0.00181821,0.00006371,-0.00928089,0.00600702,-0
 .04429744,0.03712288,-0.03757361,-0.03518117,-0.00000210,-0.00017795,0
 .00000572,-0.00010566,0.00000820,0.00006766,-0.00004620,-0.00001462,0.
 00003315,-0.00004337,-0.00002558,0.00001495,0.00000135,0.00001123,-0.0
 0001309,0.00000545,-0.00000218,-0.00001868,-0.00001090,-0.00000094,-0.
 00000380,-0.00001094,-0.00000140,0.00000309,0.00001933,0.00001579,-0.0
 0001814,-0.00009748,-0.00005932,-0.00002792,0.00076854,0.00085093,0.00
 048434,0.00011409,-0.00022758,0.00017023,-0.00000719,0.00004463,-0.000
 01278,0.00001986,0.00005561,0.00003421,-0.00003174,-0.00003816,0.00003
 855,-0.00006427,0.00014547,0.00005588,-0.00029293,0.00031956,-0.000198
 10,0.00007098,-0.00002447,0.00001090,0.00000436,0.00001234,-0.00005368
 ,0.00007583,0.00002613,-0.00003379,0.00004471,0.00005476,0.00004813,0.
 00006561,0.00025120,0.00004584,0.00004739,-0.00001144,0.00000073,0.000
 04356,-0.00000831,0.00005831,-0.00000716,0.00005133,-0.00000043,0.0001
 1092,-0.00003817,0.00013943,-0.00000181,0.00002671,0.00001371,-0.00003
 365,0.00001881,0.00000851,0.00002003,0.00000030,0.00002624,-0.00002174
 ,0.00000182,-0.00001014,-0.00864823,0.03797523,0.08343840\\0.00000167,
 0.00000001,0.00000310,0.00000604,0.00000054,-0.00000030,-0.00000575,-0
 .00000008,-0.00000136,-0.00000409,0.00000023,-0.00000303,0.00000501,0.
 00000108,-0.00000388,-0.00000357,-0.00000181,0.00000405,0.00000329,0.0
 0000076,0.00000291,0.00000176,-0.00000104,-0.00000149,-0.00000644,0.00
 000208,0.00000801,0.00000142,0.00000131,0.00000099,0.00000150,-0.00000
 190,0.00000178,-0.00000569,0.00000048,-0.00000300,-0.00000412,-0.00000
 230,0.00000386,0.00000527,0.00000204,-0.00000097,-0.00000129,0.0000000
 8,-0.00000071,-0.00000044,-0.00000068,0.00000035,-0.00000558,-0.000000
 62,0.00000001,0.00001088,0.00000138,0.00000024,-0.00000796,0.00000056,
 -0.00000684,-0.00000186,-0.00000125,0.00000720,-0.00000489,-0.00001305
 ,-0.00001275,0.00000814,0.00001578,0.00001017,-0.00000226,-0.00000119,
 0.00000982,0.00000179,0.00000182,-0.00000762,-0.00000020,0.00000503,0.
 00000209,0.00000062,-0.00000015,-0.00000226,-0.00000048,-0.00000063,0.
 00000279,0.00000034,-0.00000127,0.00000103,-0.00000117,-0.00000284,0.0
 0000065,0.00000188,-0.00000181,-0.00000265,0.00000580,0.00000328,-0.00
 000681,-0.00000303,0.,0.00000508,0.00000119,-0.00000119,-0.00000218,-0
 .00000142,-0.00000160,-0.00000011,0.00000233,0.00000240,-0.00000160,-0
 .00000513,-0.00000412,0.00000483,0.00000416,0.00000988,-0.00000887,0.0
 0000555,-0.00000413,0.00002046,0.00000151,-0.00000152,-0.00000235,-0.0
 0000106,-0.00000020,-0.00000359,-0.00000314,0.00000022,0.00000025,0.00
 000065,-0.00000075,0.00000190,0.00000093,-0.00000039,-0.00000020,0.000
 00071,0.00000045,0.00000011,-0.00000036,0.00000036,-0.00000120,0.00000
 111,-0.00000045,0.00000167,0.00000072,-0.00000020,0.00000189,-0.000001
 15,-0.00000007,-0.00000138,0.00000393,-0.00000197,-0.00000479,-0.00000
 054,0.00000002,0.00000009,-0.00000124,-0.00000060,0.00000098,-0.000000
 61,-0.00000113,0.00000135,0.00000148,0.00000103,-0.00000090,0.00000149
 ,0.00000060,0.00000002,-0.00000116,-0.00000196,0.00000181,0.00000025,-
 0.00000144,0.00000095,0.00000040,0.00000041,-0.00000160,-0.00000013,0.
 00000070,-0.00000139,-0.00000043,0.00000174,0.00000159,0.00000007,-0.0
 0000026,-0.00000151,0.00000084,0.00000086,-0.00000077,0.00000062,0.000
 00164,-0.00000053,-0.00000049,-0.00000022,0.00000139,-0.00000059,-0.00
 000082,0.00000068,-0.00000016,0.00000079,0.00000128,-0.00000136,0.0000
 0007,0.00000118,0.00000151,0.00000025,-0.00000102,-0.00000196,0.000000
 29,-0.00000207,-0.00000508,-0.00000454,-0.00001686\\\@
 The archive entry for this job was punched.


 DEMOCRATS BUY MOST OF THE BOOKS THAT HAVE BEEN
 BANNED; REPUBLICANS FORM CENSORSHIP COMMITTEES AND
 READ THEM AS A GROUP.
 Job cpu time:       0 days 22 hours 15 minutes  1.9 seconds.
 Elapsed time:       0 days  0 hours 41 minutes 57.4 seconds.
 File lengths (MBytes):  RWF=   6781 Int=      0 D2E=      0 Chk=     52 Scr=      1
 Normal termination of Gaussian 16 at Fri Mar 28 07:53:09 2025.
