 Entering Gaussian System, Link 0=g16
 Initial command:
 /public/software/apps/Gaussian/g16/l1.exe "/tmp/Gau-119451.inp" -scrdir="/tmp/"
 Entering Link 1 = /public/software/apps/Gaussian/g16/l1.exe PID=    119452.
  
 Copyright (c) 1988-2019, Gaussian, Inc.  All Rights Reserved.
  
 This is part of the Gaussian(R) 16 program.  It is based on
 the Gaussian(R) 09 system (copyright 2009, Gaussian, Inc.),
 the Gaussian(R) 03 system (copyright 2003, Gaussian, Inc.),
 the Gaussian(R) 98 system (copyright 1998, Gaussian, Inc.),
 the Gaussian(R) 94 system (copyright 1995, Gaussian, Inc.),
 the Gaussian 92(TM) system (copyright 1992, Gaussian, Inc.),
 the Gaussian 90(TM) system (copyright 1990, Gaussian, Inc.),
 the Gaussian 88(TM) system (copyright 1988, Gaussian, Inc.),
 the Gaussian 86(TM) system (copyright 1986, Carnegie Mellon
 University), and the Gaussian 82(TM) system (copyright 1983,
 Carnegie Mellon University). Gaussian is a federally registered
 trademark of Gaussian, Inc.
  
 This software contains proprietary and confidential information,
 including trade secrets, belonging to Gaussian, Inc.
  
 This software is provided under written license and may be
 used, copied, transmitted, or stored only in accord with that
 written license.
  
 The following legend is applicable only to US Government
 contracts under FAR:
  
                    RESTRICTED RIGHTS LEGEND
  
 Use, reproduction and disclosure by the US Government is
 subject to restrictions as set forth in subparagraphs (a)
 and (c) of the Commercial Computer Software - Restricted
 Rights clause in FAR 52.227-19.
  
 Gaussian, Inc.
 340 Quinnipiac St., Bldg. 40, Wallingford CT 06492
  
  
 ---------------------------------------------------------------
 Warning -- This program may not be used in any manner that
 competes with the business of Gaussian, Inc. or will provide
 assistance to any competitor of Gaussian, Inc.  The licensee
 of this program is prohibited from giving any competitor of
 Gaussian, Inc. access to this program.  By using this program,
 the user acknowledges that Gaussian, Inc. is engaged in the
 business of creating and licensing software in the field of
 computational chemistry and represents and warrants to the
 licensee that it is not a competitor of Gaussian, Inc. and that
 it will not use this program in any manner prohibited above.
 ---------------------------------------------------------------
  

 Cite this work as:
 Gaussian 16, Revision C.01,
 M. J. Frisch, G. W. Trucks, H. B. Schlegel, G. E. Scuseria, 
 M. A. Robb, J. R. Cheeseman, G. Scalmani, V. Barone, 
 G. A. Petersson, H. Nakatsuji, X. Li, M. Caricato, A. V. Marenich, 
 J. Bloino, B. G. Janesko, R. Gomperts, B. Mennucci, H. P. Hratchian, 
 J. V. Ortiz, A. F. Izmaylov, J. L. Sonnenberg, D. Williams-Young, 
 F. Ding, F. Lipparini, F. Egidi, J. Goings, B. Peng, A. Petrone, 
 T. Henderson, D. Ranasinghe, V. G. Zakrzewski, J. Gao, N. Rega, 
 G. Zheng, W. Liang, M. Hada, M. Ehara, K. Toyota, R. Fukuda, 
 J. Hasegawa, M. Ishida, T. Nakajima, Y. Honda, O. Kitao, H. Nakai, 
 T. Vreven, K. Throssell, J. A. Montgomery, Jr., J. E. Peralta, 
 F. Ogliaro, M. J. Bearpark, J. J. Heyd, E. N. Brothers, K. N. Kudin, 
 V. N. Staroverov, T. A. Keith, R. Kobayashi, J. Normand, 
 K. Raghavachari, A. P. Rendell, J. C. Burant, S. S. Iyengar, 
 J. Tomasi, M. Cossi, J. M. Millam, M. Klene, C. Adamo, R. Cammi, 
 J. W. Ochterski, R. L. Martin, K. Morokuma, O. Farkas, 
 J. B. Foresman, and D. J. Fox, Gaussian, Inc., Wallingford CT, 2019.
 
 ******************************************
 Gaussian 16:  ES64L-G16RevC.01  3-Jul-2019
                27-Mar-2025 
 ******************************************
 %nprocshared=32
 Will use up to   32 processors via shared memory.
 %mem=100GB
 ------------------------------------------
 #p opt freq b3lyp/def2svpp em=gd3bj nosymm
 ------------------------------------------
 1/18=20,19=15,26=3,38=1/1,3;
 2/9=110,12=2,15=1,17=6,18=5,40=1/2;
 3/5=43,7=202,11=2,25=1,30=1,71=1,74=-5,124=41/1,2,3;
 4//1;
 5/5=2,38=5/2;
 6/7=2,8=2,9=2,10=2,28=1/1;
 7/30=1/1,2,3,16;
 1/18=20,19=15,26=3/3(2);
 2/9=110,15=1/2;
 99//99;
 2/9=110,15=1/2;
 3/5=43,7=202,11=2,25=1,30=1,71=1,74=-5,124=41/1,2,3;
 4/5=5,16=3,69=1/1;
 5/5=2,38=5/2;
 7/30=1/1,2,3,16;
 1/18=20,19=15,26=3/3(-5);
 2/9=110,15=1/2;
 6/7=2,8=2,9=2,10=2,19=2,28=1/1;
 99/9=1/99;
 Leave Link    1 at Thu Mar 27 17:50:27 2025, MaxMem= 13421772800 cpu:               1.7 elap:               0.1
 (Enter /public/software/apps/Gaussian/g16/l101.exe)
 ------------------
 $$$$Title####0????
 ------------------
 Symbolic Z-matrix:
 Charge =  0 Multiplicity = 2
 C                    -12.18792   2.66683  -1.57727 
 C                    -11.1091   2.78561  -0.50471 
 C                    -10.42153   4.15737  -0.56147 
 C                    -9.38209   4.33558   0.55497 
 C                    -8.18883   3.43362   0.36513 
 C                    -8.07523   2.2405    1.09425 
 C                    -6.98145   1.39312   0.89706 
 C                    -5.98114   1.72243  -0.03542 
 C                    -4.81984   0.82077  -0.247 
 C                    -3.52718   1.34721  -0.41871 
 C                    -2.43471   0.49805  -0.61603 
 C                    -2.61155  -0.89461  -0.64158 
 C                    -1.457    -1.79962  -0.85746 
 C                    -1.53315  -2.79059  -1.8459 
 C                    -0.45267  -3.6478   -2.08637 
 C                    -0.53831  -4.61694  -3.09915 
 C                     0.54139  -5.46247  -3.35718 
 C                     1.71539  -5.3463   -2.61317 
 C                     1.81553  -4.38911  -1.60074 
 C                     0.73066  -3.53237  -1.3136 
 C                     0.79556  -2.55973  -0.28412 
 C                     1.99017  -2.42844   0.59386 
 C                     2.8049   -1.28919   0.45688 
 O                     2.43777  -0.29139  -0.44361 
 C                     3.96656  -1.1401    1.2375 
 C                     4.84987   0.03978   1.07725 
 C                     5.25145   0.78177   2.1993 
 C                     6.09032   1.88978   2.05286 
 C                     6.55079   2.27504   0.78211 
 C                     7.46055   3.48163   0.63842 
 C                     8.83415   3.07983   0.06394 
 C                     9.74936   4.30366  -0.07251 
 C                     9.09127   5.3899   -0.933 
 C                     7.72563   5.79404  -0.36261 
 C                     6.80324   4.57548  -0.22722 
 C                     6.15432   1.52378  -0.34006 
 C                     5.31404   0.41716  -0.19286 
 C                     4.28988  -2.12037   2.18589 
 C                     3.47151  -3.24251   2.36396 
 C                     3.80312  -4.20647   3.32976 
 C                     2.98491  -5.32009   3.52384 
 C                     1.82828  -5.47985   2.76171 
 C                     1.48534  -4.53124   1.79591 
 C                     2.30639  -3.40453   1.57243 
 C                    -0.29028  -1.68833  -0.07828 
 O                    -0.20814  -0.71959   0.91964 
 C                    -3.90249  -1.42211  -0.47909 
 C                    -4.99508  -0.57392  -0.28093 
 C                    -6.10135   2.91769  -0.76697 
 C                    -7.19684   3.763    -0.57028 
 H                    -12.96783   3.44398  -1.42892 
 H                    -12.66657   1.66673  -1.51399 
 H                    -11.74098   2.78361  -2.5876 
 H                    -11.57713   2.64083   0.49323 
 H                    -10.36155   1.97915  -0.66437 
 H                    -11.19117   4.95207  -0.44776 
 H                    -9.93566   4.29542  -1.55265 
 H                    -9.03751   5.39292   0.55527 
 H                    -9.85745   4.15506   1.54452 
 H                    -8.83495   1.96448   1.81495 
 H                    -6.91101   0.48686   1.48525 
 H                    -3.35807   2.41611  -0.38616 
 H                    -1.45186   0.92954  -0.75995 
 H                    -2.4309   -2.87659  -2.44815 
 H                    -1.43942  -4.71827  -3.69306 
 H                     0.4694   -6.20639  -4.14001 
 H                     2.55247  -5.99995  -2.82266 
 H                     2.74589  -4.32432  -1.05181 
 H                     4.90461   0.51023   3.1889 
 H                     6.37825   2.44737   2.93518 
 H                     7.63922   3.9209    1.64669 
 H                     9.31788   2.34104   0.73931 
 H                     8.71673   2.60551  -0.93469 
 H                     10.70764   3.99441  -0.54265 
 H                     9.98011   4.71337   0.93563 
 H                     8.96626   5.01758  -1.97408 
 H                     9.75277   6.28222  -0.96501 
 H                     7.25229   6.53865  -1.0384 
 H                     7.86203   6.27302   0.63219 
 H                     5.84728   4.89595   0.24165 
 H                     6.57319   4.18455  -1.24219 
 H                     6.49608   1.79001  -1.33167 
 H                     5.03789  -0.15408  -1.07048 
 H                     5.18727  -2.00889   2.78514 
 H                     4.69285  -4.0959    3.93771 
 H                     3.24492  -6.05826   4.27153 
 H                     1.19223  -6.34101   2.9212 
 H                     0.57403  -4.6857    1.234 
 H                    -4.06354  -2.493    -0.49723 
 H                    -5.98017  -1.00941  -0.1697 
 H                    -5.35897   3.18894  -1.50705 
 H                    -7.27473   4.67356  -1.15132 
 Cu                    0.96113   0.7432    0.33207 
 
 ITRead=  0  0  0  0  0  0  0  0  0  0  0  0  0  0  0  0  0  0  0  0
 ITRead=  0  0  0  0  0  0  0  0  0  0  0  0  0  0  0  0  0  0  0  0
 ITRead=  0  0  0  0  0  0  0  0  0  0  0  0  0  0  0  0  0  0  0  0
 ITRead=  0  0  0  0  0  0  0  0  0  0  0  0  0  0  0  0  0  0  0  0
 ITRead=  0  0  0  0  0  0  0  0  0  0  0  0  0
 MicOpt= -1 -1 -1 -1 -1 -1 -1 -1 -1 -1 -1 -1 -1 -1 -1 -1 -1 -1 -1 -1
 MicOpt= -1 -1 -1 -1 -1 -1 -1 -1 -1 -1 -1 -1 -1 -1 -1 -1 -1 -1 -1 -1
 MicOpt= -1 -1 -1 -1 -1 -1 -1 -1 -1 -1 -1 -1 -1 -1 -1 -1 -1 -1 -1 -1
 MicOpt= -1 -1 -1 -1 -1 -1 -1 -1 -1 -1 -1 -1 -1 -1 -1 -1 -1 -1 -1 -1
 MicOpt= -1 -1 -1 -1 -1 -1 -1 -1 -1 -1 -1 -1 -1
 NAtoms=     93 NQM=       93 NQMF=       0 NMMI=      0 NMMIF=      0
                NMic=       0 NMicF=      0.
                    Isotopes and Nuclear Properties:
 (Nuclear quadrupole moments (NQMom) in fm**2, nuclear magnetic moments (NMagM)
  in nuclear magnetons)

  Atom         1           2           3           4           5           6           7           8           9          10
 IAtWgt=          12          12          12          12          12          12          12          12          12          12
 AtmWgt=  12.0000000  12.0000000  12.0000000  12.0000000  12.0000000  12.0000000  12.0000000  12.0000000  12.0000000  12.0000000
 NucSpn=           0           0           0           0           0           0           0           0           0           0
 AtZEff=  -0.0000000  -0.0000000  -0.0000000  -0.0000000  -0.0000000  -0.0000000  -0.0000000  -0.0000000  -0.0000000  -0.0000000
 NQMom=    0.0000000   0.0000000   0.0000000   0.0000000   0.0000000   0.0000000   0.0000000   0.0000000   0.0000000   0.0000000
 NMagM=    0.0000000   0.0000000   0.0000000   0.0000000   0.0000000   0.0000000   0.0000000   0.0000000   0.0000000   0.0000000
 AtZNuc=   6.0000000   6.0000000   6.0000000   6.0000000   6.0000000   6.0000000   6.0000000   6.0000000   6.0000000   6.0000000

  Atom        11          12          13          14          15          16          17          18          19          20
 IAtWgt=          12          12          12          12          12          12          12          12          12          12
 AtmWgt=  12.0000000  12.0000000  12.0000000  12.0000000  12.0000000  12.0000000  12.0000000  12.0000000  12.0000000  12.0000000
 NucSpn=           0           0           0           0           0           0           0           0           0           0
 AtZEff=  -0.0000000  -0.0000000  -0.0000000  -0.0000000  -0.0000000  -0.0000000  -0.0000000  -0.0000000  -0.0000000  -0.0000000
 NQMom=    0.0000000   0.0000000   0.0000000   0.0000000   0.0000000   0.0000000   0.0000000   0.0000000   0.0000000   0.0000000
 NMagM=    0.0000000   0.0000000   0.0000000   0.0000000   0.0000000   0.0000000   0.0000000   0.0000000   0.0000000   0.0000000
 AtZNuc=   6.0000000   6.0000000   6.0000000   6.0000000   6.0000000   6.0000000   6.0000000   6.0000000   6.0000000   6.0000000

  Atom        21          22          23          24          25          26          27          28          29          30
 IAtWgt=          12          12          12          16          12          12          12          12          12          12
 AtmWgt=  12.0000000  12.0000000  12.0000000  15.9949146  12.0000000  12.0000000  12.0000000  12.0000000  12.0000000  12.0000000
 NucSpn=           0           0           0           0           0           0           0           0           0           0
 AtZEff=  -0.0000000  -0.0000000  -0.0000000  -0.0000000  -0.0000000  -0.0000000  -0.0000000  -0.0000000  -0.0000000  -0.0000000
 NQMom=    0.0000000   0.0000000   0.0000000   0.0000000   0.0000000   0.0000000   0.0000000   0.0000000   0.0000000   0.0000000
 NMagM=    0.0000000   0.0000000   0.0000000   0.0000000   0.0000000   0.0000000   0.0000000   0.0000000   0.0000000   0.0000000
 AtZNuc=   6.0000000   6.0000000   6.0000000   8.0000000   6.0000000   6.0000000   6.0000000   6.0000000   6.0000000   6.0000000

  Atom        31          32          33          34          35          36          37          38          39          40
 IAtWgt=          12          12          12          12          12          12          12          12          12          12
 AtmWgt=  12.0000000  12.0000000  12.0000000  12.0000000  12.0000000  12.0000000  12.0000000  12.0000000  12.0000000  12.0000000
 NucSpn=           0           0           0           0           0           0           0           0           0           0
 AtZEff=  -0.0000000  -0.0000000  -0.0000000  -0.0000000  -0.0000000  -0.0000000  -0.0000000  -0.0000000  -0.0000000  -0.0000000
 NQMom=    0.0000000   0.0000000   0.0000000   0.0000000   0.0000000   0.0000000   0.0000000   0.0000000   0.0000000   0.0000000
 NMagM=    0.0000000   0.0000000   0.0000000   0.0000000   0.0000000   0.0000000   0.0000000   0.0000000   0.0000000   0.0000000
 AtZNuc=   6.0000000   6.0000000   6.0000000   6.0000000   6.0000000   6.0000000   6.0000000   6.0000000   6.0000000   6.0000000

  Atom        41          42          43          44          45          46          47          48          49          50
 IAtWgt=          12          12          12          12          12          16          12          12          12          12
 AtmWgt=  12.0000000  12.0000000  12.0000000  12.0000000  12.0000000  15.9949146  12.0000000  12.0000000  12.0000000  12.0000000
 NucSpn=           0           0           0           0           0           0           0           0           0           0
 AtZEff=  -0.0000000  -0.0000000  -0.0000000  -0.0000000  -0.0000000  -0.0000000  -0.0000000  -0.0000000  -0.0000000  -0.0000000
 NQMom=    0.0000000   0.0000000   0.0000000   0.0000000   0.0000000   0.0000000   0.0000000   0.0000000   0.0000000   0.0000000
 NMagM=    0.0000000   0.0000000   0.0000000   0.0000000   0.0000000   0.0000000   0.0000000   0.0000000   0.0000000   0.0000000
 AtZNuc=   6.0000000   6.0000000   6.0000000   6.0000000   6.0000000   8.0000000   6.0000000   6.0000000   6.0000000   6.0000000

  Atom        51          52          53          54          55          56          57          58          59          60
 IAtWgt=           1           1           1           1           1           1           1           1           1           1
 AtmWgt=   1.0078250   1.0078250   1.0078250   1.0078250   1.0078250   1.0078250   1.0078250   1.0078250   1.0078250   1.0078250
 NucSpn=           1           1           1           1           1           1           1           1           1           1
 AtZEff=  -0.0000000  -0.0000000  -0.0000000  -0.0000000  -0.0000000  -0.0000000  -0.0000000  -0.0000000  -0.0000000  -0.0000000
 NQMom=    0.0000000   0.0000000   0.0000000   0.0000000   0.0000000   0.0000000   0.0000000   0.0000000   0.0000000   0.0000000
 NMagM=    2.7928460   2.7928460   2.7928460   2.7928460   2.7928460   2.7928460   2.7928460   2.7928460   2.7928460   2.7928460
 AtZNuc=   1.0000000   1.0000000   1.0000000   1.0000000   1.0000000   1.0000000   1.0000000   1.0000000   1.0000000   1.0000000

  Atom        61          62          63          64          65          66          67          68          69          70
 IAtWgt=           1           1           1           1           1           1           1           1           1           1
 AtmWgt=   1.0078250   1.0078250   1.0078250   1.0078250   1.0078250   1.0078250   1.0078250   1.0078250   1.0078250   1.0078250
 NucSpn=           1           1           1           1           1           1           1           1           1           1
 AtZEff=  -0.0000000  -0.0000000  -0.0000000  -0.0000000  -0.0000000  -0.0000000  -0.0000000  -0.0000000  -0.0000000  -0.0000000
 NQMom=    0.0000000   0.0000000   0.0000000   0.0000000   0.0000000   0.0000000   0.0000000   0.0000000   0.0000000   0.0000000
 NMagM=    2.7928460   2.7928460   2.7928460   2.7928460   2.7928460   2.7928460   2.7928460   2.7928460   2.7928460   2.7928460
 AtZNuc=   1.0000000   1.0000000   1.0000000   1.0000000   1.0000000   1.0000000   1.0000000   1.0000000   1.0000000   1.0000000

  Atom        71          72          73          74          75          76          77          78          79          80
 IAtWgt=           1           1           1           1           1           1           1           1           1           1
 AtmWgt=   1.0078250   1.0078250   1.0078250   1.0078250   1.0078250   1.0078250   1.0078250   1.0078250   1.0078250   1.0078250
 NucSpn=           1           1           1           1           1           1           1           1           1           1
 AtZEff=  -0.0000000  -0.0000000  -0.0000000  -0.0000000  -0.0000000  -0.0000000  -0.0000000  -0.0000000  -0.0000000  -0.0000000
 NQMom=    0.0000000   0.0000000   0.0000000   0.0000000   0.0000000   0.0000000   0.0000000   0.0000000   0.0000000   0.0000000
 NMagM=    2.7928460   2.7928460   2.7928460   2.7928460   2.7928460   2.7928460   2.7928460   2.7928460   2.7928460   2.7928460
 AtZNuc=   1.0000000   1.0000000   1.0000000   1.0000000   1.0000000   1.0000000   1.0000000   1.0000000   1.0000000   1.0000000

  Atom        81          82          83          84          85          86          87          88          89          90
 IAtWgt=           1           1           1           1           1           1           1           1           1           1
 AtmWgt=   1.0078250   1.0078250   1.0078250   1.0078250   1.0078250   1.0078250   1.0078250   1.0078250   1.0078250   1.0078250
 NucSpn=           1           1           1           1           1           1           1           1           1           1
 AtZEff=  -0.0000000  -0.0000000  -0.0000000  -0.0000000  -0.0000000  -0.0000000  -0.0000000  -0.0000000  -0.0000000  -0.0000000
 NQMom=    0.0000000   0.0000000   0.0000000   0.0000000   0.0000000   0.0000000   0.0000000   0.0000000   0.0000000   0.0000000
 NMagM=    2.7928460   2.7928460   2.7928460   2.7928460   2.7928460   2.7928460   2.7928460   2.7928460   2.7928460   2.7928460
 AtZNuc=   1.0000000   1.0000000   1.0000000   1.0000000   1.0000000   1.0000000   1.0000000   1.0000000   1.0000000   1.0000000

  Atom        91          92          93
 IAtWgt=           1           1          63
 AtmWgt=   1.0078250   1.0078250  62.9295992
 NucSpn=           1           1           3
 AtZEff=  -0.0000000  -0.0000000  -0.0000000
 NQMom=    0.0000000   0.0000000 -22.0000000
 NMagM=    2.7928460   2.7928460   2.2233000
 AtZNuc=   1.0000000   1.0000000  29.0000000
 Leave Link  101 at Thu Mar 27 17:50:27 2025, MaxMem= 13421772800 cpu:               4.8 elap:               0.2
 (Enter /public/software/apps/Gaussian/g16/l103.exe)

 GradGradGradGradGradGradGradGradGradGradGradGradGradGradGradGradGradGrad
 Berny optimization.
 Initialization pass.
                           ----------------------------
                           !    Initial Parameters    !
                           ! (Angstroms and Degrees)  !
 --------------------------                            --------------------------
 ! Name  Definition              Value          Derivative Info.                !
 --------------------------------------------------------------------------------
 ! R1    R(1,2)                  1.5259         estimate D2E/DX2                !
 ! R2    R(1,51)                 1.111          estimate D2E/DX2                !
 ! R3    R(1,52)                 1.1106         estimate D2E/DX2                !
 ! R4    R(1,53)                 1.1109         estimate D2E/DX2                !
 ! R5    R(2,3)                  1.5355         estimate D2E/DX2                !
 ! R6    R(2,54)                 1.1117         estimate D2E/DX2                !
 ! R7    R(2,55)                 1.1112         estimate D2E/DX2                !
 ! R8    R(3,4)                  1.5358         estimate D2E/DX2                !
 ! R9    R(3,56)                 1.1121         estimate D2E/DX2                !
 ! R10   R(3,57)                 1.1125         estimate D2E/DX2                !
 ! R11   R(4,5)                  1.5078         estimate D2E/DX2                !
 ! R12   R(4,58)                 1.1121         estimate D2E/DX2                !
 ! R13   R(4,59)                 1.1125         estimate D2E/DX2                !
 ! R14   R(5,6)                  1.4029         estimate D2E/DX2                !
 ! R15   R(5,50)                 1.4027         estimate D2E/DX2                !
 ! R16   R(6,7)                  1.3976         estimate D2E/DX2                !
 ! R17   R(6,60)                 1.0829         estimate D2E/DX2                !
 ! R18   R(7,8)                  1.4066         estimate D2E/DX2                !
 ! R19   R(7,61)                 1.0827         estimate D2E/DX2                !
 ! R20   R(8,9)                  1.4854         estimate D2E/DX2                !
 ! R21   R(8,49)                 1.4065         estimate D2E/DX2                !
 ! R22   R(9,10)                 1.4063         estimate D2E/DX2                !
 ! R23   R(9,48)                 1.4061         estimate D2E/DX2                !
 ! R24   R(10,11)                1.3977         estimate D2E/DX2                !
 ! R25   R(10,62)                1.0827         estimate D2E/DX2                !
 ! R26   R(11,12)                1.4041         estimate D2E/DX2                !
 ! R27   R(11,63)                1.083          estimate D2E/DX2                !
 ! R28   R(12,13)                1.4828         estimate D2E/DX2                !
 ! R29   R(12,47)                1.404          estimate D2E/DX2                !
 ! R30   R(13,14)                1.4017         estimate D2E/DX2                !
 ! R31   R(13,45)                1.4074         estimate D2E/DX2                !
 ! R32   R(14,15)                1.4            estimate D2E/DX2                !
 ! R33   R(14,64)                1.0845         estimate D2E/DX2                !
 ! R34   R(15,16)                1.4044         estimate D2E/DX2                !
 ! R35   R(15,20)                1.418          estimate D2E/DX2                !
 ! R36   R(16,17)                1.3954         estimate D2E/DX2                !
 ! R37   R(16,65)                1.084          estimate D2E/DX2                !
 ! R38   R(17,18)                1.3947         estimate D2E/DX2                !
 ! R39   R(17,66)                1.0823         estimate D2E/DX2                !
 ! R40   R(18,19)                1.3969         estimate D2E/DX2                !
 ! R41   R(18,67)                1.0825         estimate D2E/DX2                !
 ! R42   R(19,20)                1.4119         estimate D2E/DX2                !
 ! R43   R(19,68)                1.0822         estimate D2E/DX2                !
 ! R44   R(20,21)                1.4178         estimate D2E/DX2                !
 ! R45   R(21,22)                1.4883         estimate D2E/DX2                !
 ! R46   R(21,45)                1.4074         estimate D2E/DX2                !
 ! R47   R(22,23)                1.4073         estimate D2E/DX2                !
 ! R48   R(22,44)                1.4179         estimate D2E/DX2                !
 ! R49   R(23,24)                1.3933         estimate D2E/DX2                !
 ! R50   R(23,25)                1.4075         estimate D2E/DX2                !
 ! R51   R(24,93)                1.9628         estimate D2E/DX2                !
 ! R52   R(25,26)                1.4826         estimate D2E/DX2                !
 ! R53   R(25,38)                1.4018         estimate D2E/DX2                !
 ! R54   R(26,27)                1.4039         estimate D2E/DX2                !
 ! R55   R(26,37)                1.4039         estimate D2E/DX2                !
 ! R56   R(27,28)                1.3974         estimate D2E/DX2                !
 ! R57   R(27,69)                1.0832         estimate D2E/DX2                !
 ! R58   R(28,29)                1.4054         estimate D2E/DX2                !
 ! R59   R(28,70)                1.0827         estimate D2E/DX2                !
 ! R60   R(29,30)                1.5179         estimate D2E/DX2                !
 ! R61   R(29,36)                1.4074         estimate D2E/DX2                !
 ! R62   R(30,31)                1.5422         estimate D2E/DX2                !
 ! R63   R(30,35)                1.542          estimate D2E/DX2                !
 ! R64   R(30,71)                1.1142         estimate D2E/DX2                !
 ! R65   R(31,32)                1.5343         estimate D2E/DX2                !
 ! R66   R(31,72)                1.1117         estimate D2E/DX2                !
 ! R67   R(31,73)                1.1118         estimate D2E/DX2                !
 ! R68   R(32,33)                1.5341         estimate D2E/DX2                !
 ! R69   R(32,74)                1.1113         estimate D2E/DX2                !
 ! R70   R(32,75)                1.1124         estimate D2E/DX2                !
 ! R71   R(33,34)                1.5342         estimate D2E/DX2                !
 ! R72   R(33,76)                1.1127         estimate D2E/DX2                !
 ! R73   R(33,77)                1.1112         estimate D2E/DX2                !
 ! R74   R(34,35)                1.5343         estimate D2E/DX2                !
 ! R75   R(34,78)                1.1114         estimate D2E/DX2                !
 ! R76   R(34,79)                1.1125         estimate D2E/DX2                !
 ! R77   R(35,80)                1.1119         estimate D2E/DX2                !
 ! R78   R(35,81)                1.1117         estimate D2E/DX2                !
 ! R79   R(36,37)                1.3973         estimate D2E/DX2                !
 ! R80   R(36,82)                1.0821         estimate D2E/DX2                !
 ! R81   R(37,83)                1.083          estimate D2E/DX2                !
 ! R82   R(38,39)                1.4002         estimate D2E/DX2                !
 ! R83   R(38,84)                1.0848         estimate D2E/DX2                !
 ! R84   R(39,40)                1.4043         estimate D2E/DX2                !
 ! R85   R(39,44)                1.4178         estimate D2E/DX2                !
 ! R86   R(40,41)                1.3954         estimate D2E/DX2                !
 ! R87   R(40,85)                1.0833         estimate D2E/DX2                !
 ! R88   R(41,42)                1.3943         estimate D2E/DX2                !
 ! R89   R(41,86)                1.0824         estimate D2E/DX2                !
 ! R90   R(42,43)                1.3965         estimate D2E/DX2                !
 ! R91   R(42,87)                1.0824         estimate D2E/DX2                !
 ! R92   R(43,44)                1.4119         estimate D2E/DX2                !
 ! R93   R(43,88)                1.0817         estimate D2E/DX2                !
 ! R94   R(45,46)                1.3932         estimate D2E/DX2                !
 ! R95   R(46,93)                1.9627         estimate D2E/DX2                !
 ! R96   R(47,48)                1.3973         estimate D2E/DX2                !
 ! R97   R(47,89)                1.0831         estimate D2E/DX2                !
 ! R98   R(48,90)                1.0828         estimate D2E/DX2                !
 ! R99   R(49,50)                1.3976         estimate D2E/DX2                !
 ! R100  R(49,91)                1.0828         estimate D2E/DX2                !
 ! R101  R(50,92)                1.083          estimate D2E/DX2                !
 ! A1    A(2,1,51)             110.366          estimate D2E/DX2                !
 ! A2    A(2,1,52)             109.5588         estimate D2E/DX2                !
 ! A3    A(2,1,53)             110.2818         estimate D2E/DX2                !
 ! A4    A(51,1,52)            108.6496         estimate D2E/DX2                !
 ! A5    A(51,1,53)            109.289          estimate D2E/DX2                !
 ! A6    A(52,1,53)            108.6561         estimate D2E/DX2                !
 ! A7    A(1,2,3)              111.1092         estimate D2E/DX2                !
 ! A8    A(1,2,54)             108.8561         estimate D2E/DX2                !
 ! A9    A(1,2,55)             108.5513         estimate D2E/DX2                !
 ! A10   A(3,2,54)             109.7577         estimate D2E/DX2                !
 ! A11   A(3,2,55)             109.9878         estimate D2E/DX2                !
 ! A12   A(54,2,55)            108.5238         estimate D2E/DX2                !
 ! A13   A(2,3,4)              112.3253         estimate D2E/DX2                !
 ! A14   A(2,3,56)             108.9484         estimate D2E/DX2                !
 ! A15   A(2,3,57)             109.8388         estimate D2E/DX2                !
 ! A16   A(4,3,56)             108.1281         estimate D2E/DX2                !
 ! A17   A(4,3,57)             109.7366         estimate D2E/DX2                !
 ! A18   A(56,3,57)            107.7384         estimate D2E/DX2                !
 ! A19   A(3,4,5)              112.005          estimate D2E/DX2                !
 ! A20   A(3,4,58)             108.6777         estimate D2E/DX2                !
 ! A21   A(3,4,59)             109.7899         estimate D2E/DX2                !
 ! A22   A(5,4,58)             108.879          estimate D2E/DX2                !
 ! A23   A(5,4,59)             110.6748         estimate D2E/DX2                !
 ! A24   A(58,4,59)            106.6436         estimate D2E/DX2                !
 ! A25   A(4,5,6)              120.4911         estimate D2E/DX2                !
 ! A26   A(4,5,50)             120.2102         estimate D2E/DX2                !
 ! A27   A(6,5,50)             119.2774         estimate D2E/DX2                !
 ! A28   A(5,6,7)              120.3775         estimate D2E/DX2                !
 ! A29   A(5,6,60)             120.3871         estimate D2E/DX2                !
 ! A30   A(7,6,60)             119.2352         estimate D2E/DX2                !
 ! A31   A(6,7,8)              120.54           estimate D2E/DX2                !
 ! A32   A(6,7,61)             118.8012         estimate D2E/DX2                !
 ! A33   A(8,7,61)             120.6527         estimate D2E/DX2                !
 ! A34   A(7,8,9)              120.5507         estimate D2E/DX2                !
 ! A35   A(7,8,49)             118.8798         estimate D2E/DX2                !
 ! A36   A(9,8,49)             120.5692         estimate D2E/DX2                !
 ! A37   A(8,9,10)             120.5842         estimate D2E/DX2                !
 ! A38   A(8,9,48)             120.5379         estimate D2E/DX2                !
 ! A39   A(10,9,48)            118.8778         estimate D2E/DX2                !
 ! A40   A(9,10,11)            120.5494         estimate D2E/DX2                !
 ! A41   A(9,10,62)            120.6299         estimate D2E/DX2                !
 ! A42   A(11,10,62)           118.8148         estimate D2E/DX2                !
 ! A43   A(10,11,12)           120.4467         estimate D2E/DX2                !
 ! A44   A(10,11,63)           119.081          estimate D2E/DX2                !
 ! A45   A(12,11,63)           120.4687         estimate D2E/DX2                !
 ! A46   A(11,12,13)           120.6613         estimate D2E/DX2                !
 ! A47   A(11,12,47)           119.1017         estimate D2E/DX2                !
 ! A48   A(13,12,47)           120.2306         estimate D2E/DX2                !
 ! A49   A(12,13,14)           119.4625         estimate D2E/DX2                !
 ! A50   A(12,13,45)           121.1067         estimate D2E/DX2                !
 ! A51   A(14,13,45)           119.4282         estimate D2E/DX2                !
 ! A52   A(13,14,15)           120.8008         estimate D2E/DX2                !
 ! A53   A(13,14,64)           119.5142         estimate D2E/DX2                !
 ! A54   A(15,14,64)           119.6661         estimate D2E/DX2                !
 ! A55   A(14,15,16)           119.9558         estimate D2E/DX2                !
 ! A56   A(14,15,20)           120.0385         estimate D2E/DX2                !
 ! A57   A(16,15,20)           120.0045         estimate D2E/DX2                !
 ! A58   A(15,16,17)           120.2853         estimate D2E/DX2                !
 ! A59   A(15,16,65)           120.6851         estimate D2E/DX2                !
 ! A60   A(17,16,65)           119.0294         estimate D2E/DX2                !
 ! A61   A(16,17,18)           120.1436         estimate D2E/DX2                !
 ! A62   A(16,17,66)           119.9174         estimate D2E/DX2                !
 ! A63   A(18,17,66)           119.9381         estimate D2E/DX2                !
 ! A64   A(17,18,19)           120.2679         estimate D2E/DX2                !
 ! A65   A(17,18,67)           119.8255         estimate D2E/DX2                !
 ! A66   A(19,18,67)           119.9065         estimate D2E/DX2                !
 ! A67   A(18,19,20)           120.539          estimate D2E/DX2                !
 ! A68   A(18,19,68)           118.0545         estimate D2E/DX2                !
 ! A69   A(20,19,68)           121.406          estimate D2E/DX2                !
 ! A70   A(15,20,19)           118.75           estimate D2E/DX2                !
 ! A71   A(15,20,21)           119.3251         estimate D2E/DX2                !
 ! A72   A(19,20,21)           121.9239         estimate D2E/DX2                !
 ! A73   A(20,21,22)           121.709          estimate D2E/DX2                !
 ! A74   A(20,21,45)           119.712          estimate D2E/DX2                !
 ! A75   A(22,21,45)           118.5789         estimate D2E/DX2                !
 ! A76   A(21,22,23)           118.5992         estimate D2E/DX2                !
 ! A77   A(21,22,44)           121.6963         estimate D2E/DX2                !
 ! A78   A(23,22,44)           119.6934         estimate D2E/DX2                !
 ! A79   A(22,23,24)           119.3473         estimate D2E/DX2                !
 ! A80   A(22,23,25)           120.6369         estimate D2E/DX2                !
 ! A81   A(24,23,25)           120.0041         estimate D2E/DX2                !
 ! A82   A(23,24,93)           108.6813         estimate D2E/DX2                !
 ! A83   A(23,25,26)           121.07           estimate D2E/DX2                !
 ! A84   A(23,25,38)           119.4407         estimate D2E/DX2                !
 ! A85   A(26,25,38)           119.4887         estimate D2E/DX2                !
 ! A86   A(25,26,27)           120.3088         estimate D2E/DX2                !
 ! A87   A(25,26,37)           120.5766         estimate D2E/DX2                !
 ! A88   A(27,26,37)           119.106          estimate D2E/DX2                !
 ! A89   A(26,27,28)           120.4661         estimate D2E/DX2                !
 ! A90   A(26,27,69)           120.4048         estimate D2E/DX2                !
 ! A91   A(28,27,69)           119.1245         estimate D2E/DX2                !
 ! A92   A(27,28,29)           120.5819         estimate D2E/DX2                !
 ! A93   A(27,28,70)           118.8536         estimate D2E/DX2                !
 ! A94   A(29,28,70)           120.5644         estimate D2E/DX2                !
 ! A95   A(28,29,30)           119.9897         estimate D2E/DX2                !
 ! A96   A(28,29,36)           118.8351         estimate D2E/DX2                !
 ! A97   A(30,29,36)           121.1752         estimate D2E/DX2                !
 ! A98   A(29,30,31)           111.2225         estimate D2E/DX2                !
 ! A99   A(29,30,35)           111.193          estimate D2E/DX2                !
 ! A100  A(29,30,71)           108.8943         estimate D2E/DX2                !
 ! A101  A(31,30,35)           110.8161         estimate D2E/DX2                !
 ! A102  A(31,30,71)           107.2766         estimate D2E/DX2                !
 ! A103  A(35,30,71)           107.2582         estimate D2E/DX2                !
 ! A104  A(30,31,32)           110.8926         estimate D2E/DX2                !
 ! A105  A(30,31,72)           109.5358         estimate D2E/DX2                !
 ! A106  A(30,31,73)           110.5912         estimate D2E/DX2                !
 ! A107  A(32,31,72)           108.9387         estimate D2E/DX2                !
 ! A108  A(32,31,73)           108.8705         estimate D2E/DX2                !
 ! A109  A(72,31,73)           107.9453         estimate D2E/DX2                !
 ! A110  A(31,32,33)           111.0258         estimate D2E/DX2                !
 ! A111  A(31,32,74)           109.2703         estimate D2E/DX2                !
 ! A112  A(31,32,75)           109.6893         estimate D2E/DX2                !
 ! A113  A(33,32,74)           109.2485         estimate D2E/DX2                !
 ! A114  A(33,32,75)           109.6657         estimate D2E/DX2                !
 ! A115  A(74,32,75)           107.8801         estimate D2E/DX2                !
 ! A116  A(32,33,34)           111.0906         estimate D2E/DX2                !
 ! A117  A(32,33,76)           109.6382         estimate D2E/DX2                !
 ! A118  A(32,33,77)           109.2304         estimate D2E/DX2                !
 ! A119  A(34,33,76)           109.6333         estimate D2E/DX2                !
 ! A120  A(34,33,77)           109.2122         estimate D2E/DX2                !
 ! A121  A(76,33,77)           107.9759         estimate D2E/DX2                !
 ! A122  A(33,34,35)           111.0223         estimate D2E/DX2                !
 ! A123  A(33,34,78)           109.2406         estimate D2E/DX2                !
 ! A124  A(33,34,79)           109.6782         estimate D2E/DX2                !
 ! A125  A(35,34,78)           109.2521         estimate D2E/DX2                !
 ! A126  A(35,34,79)           109.6791         estimate D2E/DX2                !
 ! A127  A(78,34,79)           107.9083         estimate D2E/DX2                !
 ! A128  A(30,35,34)           110.8947         estimate D2E/DX2                !
 ! A129  A(30,35,80)           109.5237         estimate D2E/DX2                !
 ! A130  A(30,35,81)           110.5654         estimate D2E/DX2                !
 ! A131  A(34,35,80)           108.9754         estimate D2E/DX2                !
 ! A132  A(34,35,81)           108.852          estimate D2E/DX2                !
 ! A133  A(80,35,81)           107.9643         estimate D2E/DX2                !
 ! A134  A(29,36,37)           120.5418         estimate D2E/DX2                !
 ! A135  A(29,36,82)           120.6862         estimate D2E/DX2                !
 ! A136  A(37,36,82)           118.7717         estimate D2E/DX2                !
 ! A137  A(26,37,36)           120.4656         estimate D2E/DX2                !
 ! A138  A(26,37,83)           120.4668         estimate D2E/DX2                !
 ! A139  A(36,37,83)           119.0613         estimate D2E/DX2                !
 ! A140  A(25,38,39)           120.775          estimate D2E/DX2                !
 ! A141  A(25,38,84)           119.5159         estimate D2E/DX2                !
 ! A142  A(39,38,84)           119.7086         estimate D2E/DX2                !
 ! A143  A(38,39,40)           119.9716         estimate D2E/DX2                !
 ! A144  A(38,39,44)           120.057          estimate D2E/DX2                !
 ! A145  A(40,39,44)           119.9712         estimate D2E/DX2                !
 ! A146  A(39,40,41)           120.3319         estimate D2E/DX2                !
 ! A147  A(39,40,85)           120.6552         estimate D2E/DX2                !
 ! A148  A(41,40,85)           119.0123         estimate D2E/DX2                !
 ! A149  A(40,41,42)           120.1192         estimate D2E/DX2                !
 ! A150  A(40,41,86)           119.9655         estimate D2E/DX2                !
 ! A151  A(42,41,86)           119.9142         estimate D2E/DX2                !
 ! A152  A(41,42,43)           120.2576         estimate D2E/DX2                !
 ! A153  A(41,42,87)           119.8721         estimate D2E/DX2                !
 ! A154  A(43,42,87)           119.8701         estimate D2E/DX2                !
 ! A155  A(42,43,44)           120.5785         estimate D2E/DX2                !
 ! A156  A(42,43,88)           117.9786         estimate D2E/DX2                !
 ! A157  A(44,43,88)           121.442          estimate D2E/DX2                !
 ! A158  A(22,44,39)           119.3344         estimate D2E/DX2                !
 ! A159  A(22,44,43)           121.9314         estimate D2E/DX2                !
 ! A160  A(39,44,43)           118.7301         estimate D2E/DX2                !
 ! A161  A(13,45,21)           120.6418         estimate D2E/DX2                !
 ! A162  A(13,45,46)           120.0268         estimate D2E/DX2                !
 ! A163  A(21,45,46)           119.3266         estimate D2E/DX2                !
 ! A164  A(45,46,93)           109.8111         estimate D2E/DX2                !
 ! A165  A(12,47,48)           120.4854         estimate D2E/DX2                !
 ! A166  A(12,47,89)           120.4158         estimate D2E/DX2                !
 ! A167  A(48,47,89)           119.0967         estimate D2E/DX2                !
 ! A168  A(9,48,47)            120.5357         estimate D2E/DX2                !
 ! A169  A(9,48,90)            120.6541         estimate D2E/DX2                !
 ! A170  A(47,48,90)           118.8032         estimate D2E/DX2                !
 ! A171  A(8,49,50)            120.5154         estimate D2E/DX2                !
 ! A172  A(8,49,91)            120.65           estimate D2E/DX2                !
 ! A173  A(50,49,91)           118.8216         estimate D2E/DX2                !
 ! A174  A(5,50,49)            120.4082         estimate D2E/DX2                !
 ! A175  A(5,50,92)            120.2894         estimate D2E/DX2                !
 ! A176  A(49,50,92)           119.3018         estimate D2E/DX2                !
 ! A177  A(24,93,46)           100.0001         estimate D2E/DX2                !
 ! D1    D(51,1,2,3)           -60.4753         estimate D2E/DX2                !
 ! D2    D(51,1,2,54)           60.5057         estimate D2E/DX2                !
 ! D3    D(51,1,2,55)          178.4574         estimate D2E/DX2                !
 ! D4    D(52,1,2,3)           179.9291         estimate D2E/DX2                !
 ! D5    D(52,1,2,54)          -59.0899         estimate D2E/DX2                !
 ! D6    D(52,1,2,55)           58.8618         estimate D2E/DX2                !
 ! D7    D(53,1,2,3)            60.3776         estimate D2E/DX2                !
 ! D8    D(53,1,2,54)         -178.6414         estimate D2E/DX2                !
 ! D9    D(53,1,2,55)          -60.6897         estimate D2E/DX2                !
 ! D10   D(1,2,3,4)            176.917          estimate D2E/DX2                !
 ! D11   D(1,2,3,56)            57.1411         estimate D2E/DX2                !
 ! D12   D(1,2,3,57)           -60.6543         estimate D2E/DX2                !
 ! D13   D(54,2,3,4)            56.4677         estimate D2E/DX2                !
 ! D14   D(54,2,3,56)          -63.3082         estimate D2E/DX2                !
 ! D15   D(54,2,3,57)          178.8964         estimate D2E/DX2                !
 ! D16   D(55,2,3,4)           -62.8634         estimate D2E/DX2                !
 ! D17   D(55,2,3,56)          177.3607         estimate D2E/DX2                !
 ! D18   D(55,2,3,57)           59.5653         estimate D2E/DX2                !
 ! D19   D(2,3,4,5)             68.2569         estimate D2E/DX2                !
 ! D20   D(2,3,4,58)          -171.411          estimate D2E/DX2                !
 ! D21   D(2,3,4,59)           -55.1184         estimate D2E/DX2                !
 ! D22   D(56,3,4,5)          -171.491          estimate D2E/DX2                !
 ! D23   D(56,3,4,58)          -51.159          estimate D2E/DX2                !
 ! D24   D(56,3,4,59)           65.1337         estimate D2E/DX2                !
 ! D25   D(57,3,4,5)           -54.2295         estimate D2E/DX2                !
 ! D26   D(57,3,4,58)           66.1025         estimate D2E/DX2                !
 ! D27   D(57,3,4,59)         -177.6049         estimate D2E/DX2                !
 ! D28   D(3,4,5,6)           -100.3705         estimate D2E/DX2                !
 ! D29   D(3,4,5,50)            77.9392         estimate D2E/DX2                !
 ! D30   D(58,4,5,6)           139.4147         estimate D2E/DX2                !
 ! D31   D(58,4,5,50)          -42.2756         estimate D2E/DX2                !
 ! D32   D(59,4,5,6)            22.5051         estimate D2E/DX2                !
 ! D33   D(59,4,5,50)         -159.1853         estimate D2E/DX2                !
 ! D34   D(4,5,6,7)            178.7224         estimate D2E/DX2                !
 ! D35   D(4,5,6,60)            -1.1586         estimate D2E/DX2                !
 ! D36   D(50,5,6,7)             0.397          estimate D2E/DX2                !
 ! D37   D(50,5,6,60)         -179.4839         estimate D2E/DX2                !
 ! D38   D(4,5,50,49)         -178.8333         estimate D2E/DX2                !
 ! D39   D(4,5,50,92)            0.8734         estimate D2E/DX2                !
 ! D40   D(6,5,50,49)           -0.5032         estimate D2E/DX2                !
 ! D41   D(6,5,50,92)          179.2035         estimate D2E/DX2                !
 ! D42   D(5,6,7,8)             -0.1051         estimate D2E/DX2                !
 ! D43   D(5,6,7,61)           178.9996         estimate D2E/DX2                !
 ! D44   D(60,6,7,8)           179.7772         estimate D2E/DX2                !
 ! D45   D(60,6,7,61)           -1.1181         estimate D2E/DX2                !
 ! D46   D(6,7,8,9)           -179.8858         estimate D2E/DX2                !
 ! D47   D(6,7,8,49)            -0.0842         estimate D2E/DX2                !
 ! D48   D(61,7,8,9)             1.0261         estimate D2E/DX2                !
 ! D49   D(61,7,8,49)         -179.1723         estimate D2E/DX2                !
 ! D50   D(7,8,9,10)          -139.489          estimate D2E/DX2                !
 ! D51   D(7,8,9,48)            40.6053         estimate D2E/DX2                !
 ! D52   D(49,8,9,10)           40.7127         estimate D2E/DX2                !
 ! D53   D(49,8,9,48)         -139.1929         estimate D2E/DX2                !
 ! D54   D(7,8,49,50)           -0.0218         estimate D2E/DX2                !
 ! D55   D(7,8,49,91)         -178.6974         estimate D2E/DX2                !
 ! D56   D(9,8,49,50)          179.7798         estimate D2E/DX2                !
 ! D57   D(9,8,49,91)            1.1042         estimate D2E/DX2                !
 ! D58   D(8,9,10,11)          179.9166         estimate D2E/DX2                !
 ! D59   D(8,9,10,62)            0.809          estimate D2E/DX2                !
 ! D60   D(48,9,10,11)          -0.1762         estimate D2E/DX2                !
 ! D61   D(48,9,10,62)        -179.2838         estimate D2E/DX2                !
 ! D62   D(8,9,48,47)         -179.9577         estimate D2E/DX2                !
 ! D63   D(8,9,48,90)            1.01           estimate D2E/DX2                !
 ! D64   D(10,9,48,47)           0.1351         estimate D2E/DX2                !
 ! D65   D(10,9,48,90)        -178.8972         estimate D2E/DX2                !
 ! D66   D(9,10,11,12)          -0.1971         estimate D2E/DX2                !
 ! D67   D(9,10,11,63)         179.125          estimate D2E/DX2                !
 ! D68   D(62,10,11,12)        178.9265         estimate D2E/DX2                !
 ! D69   D(62,10,11,63)         -1.7515         estimate D2E/DX2                !
 ! D70   D(10,11,12,13)        179.6865         estimate D2E/DX2                !
 ! D71   D(10,11,12,47)          0.606          estimate D2E/DX2                !
 ! D72   D(63,11,12,13)          0.3739         estimate D2E/DX2                !
 ! D73   D(63,11,12,47)       -178.7065         estimate D2E/DX2                !
 ! D74   D(11,12,13,14)       -128.8755         estimate D2E/DX2                !
 ! D75   D(11,12,13,45)         51.709          estimate D2E/DX2                !
 ! D76   D(47,12,13,14)         50.1946         estimate D2E/DX2                !
 ! D77   D(47,12,13,45)       -129.2209         estimate D2E/DX2                !
 ! D78   D(11,12,47,48)         -0.6474         estimate D2E/DX2                !
 ! D79   D(11,12,47,89)        179.8776         estimate D2E/DX2                !
 ! D80   D(13,12,47,48)       -179.7319         estimate D2E/DX2                !
 ! D81   D(13,12,47,89)          0.7931         estimate D2E/DX2                !
 ! D82   D(12,13,14,15)        179.0853         estimate D2E/DX2                !
 ! D83   D(12,13,14,64)          0.6695         estimate D2E/DX2                !
 ! D84   D(45,13,14,15)         -1.4893         estimate D2E/DX2                !
 ! D85   D(45,13,14,64)       -179.905          estimate D2E/DX2                !
 ! D86   D(12,13,45,21)        179.4706         estimate D2E/DX2                !
 ! D87   D(12,13,45,46)          0.2788         estimate D2E/DX2                !
 ! D88   D(14,13,45,21)          0.0549         estimate D2E/DX2                !
 ! D89   D(14,13,45,46)       -179.1369         estimate D2E/DX2                !
 ! D90   D(13,14,15,16)       -178.7265         estimate D2E/DX2                !
 ! D91   D(13,14,15,20)          0.8804         estimate D2E/DX2                !
 ! D92   D(64,14,15,16)         -0.3132         estimate D2E/DX2                !
 ! D93   D(64,14,15,20)        179.2937         estimate D2E/DX2                !
 ! D94   D(14,15,16,17)        179.1009         estimate D2E/DX2                !
 ! D95   D(14,15,16,65)         -0.7139         estimate D2E/DX2                !
 ! D96   D(20,15,16,17)         -0.5061         estimate D2E/DX2                !
 ! D97   D(20,15,16,65)        179.679          estimate D2E/DX2                !
 ! D98   D(14,15,20,19)       -178.4788         estimate D2E/DX2                !
 ! D99   D(14,15,20,21)          1.1496         estimate D2E/DX2                !
 ! D100  D(16,15,20,19)          1.1279         estimate D2E/DX2                !
 ! D101  D(16,15,20,21)       -179.2437         estimate D2E/DX2                !
 ! D102  D(15,16,17,18)         -0.2521         estimate D2E/DX2                !
 ! D103  D(15,16,17,66)       -179.9186         estimate D2E/DX2                !
 ! D104  D(65,16,17,18)        179.5658         estimate D2E/DX2                !
 ! D105  D(65,16,17,66)         -0.1006         estimate D2E/DX2                !
 ! D106  D(16,17,18,19)          0.3702         estimate D2E/DX2                !
 ! D107  D(16,17,18,67)       -179.5417         estimate D2E/DX2                !
 ! D108  D(66,17,18,19)       -179.9634         estimate D2E/DX2                !
 ! D109  D(66,17,18,67)          0.1247         estimate D2E/DX2                !
 ! D110  D(17,18,19,20)          0.2754         estimate D2E/DX2                !
 ! D111  D(17,18,19,68)       -179.4705         estimate D2E/DX2                !
 ! D112  D(67,18,19,20)       -179.8128         estimate D2E/DX2                !
 ! D113  D(67,18,19,68)          0.4413         estimate D2E/DX2                !
 ! D114  D(18,19,20,15)         -1.0165         estimate D2E/DX2                !
 ! D115  D(18,19,20,21)        179.3652         estimate D2E/DX2                !
 ! D116  D(68,19,20,15)        178.7208         estimate D2E/DX2                !
 ! D117  D(68,19,20,21)         -0.8975         estimate D2E/DX2                !
 ! D118  D(15,20,21,22)        177.5558         estimate D2E/DX2                !
 ! D119  D(15,20,21,45)         -2.5518         estimate D2E/DX2                !
 ! D120  D(19,20,21,22)         -2.8281         estimate D2E/DX2                !
 ! D121  D(19,20,21,45)        177.0643         estimate D2E/DX2                !
 ! D122  D(20,21,22,23)        110.3378         estimate D2E/DX2                !
 ! D123  D(20,21,22,44)        -70.8817         estimate D2E/DX2                !
 ! D124  D(45,21,22,23)        -69.5558         estimate D2E/DX2                !
 ! D125  D(45,21,22,44)        109.2248         estimate D2E/DX2                !
 ! D126  D(20,21,45,13)          1.9659         estimate D2E/DX2                !
 ! D127  D(20,21,45,46)       -178.8367         estimate D2E/DX2                !
 ! D128  D(22,21,45,13)       -178.1384         estimate D2E/DX2                !
 ! D129  D(22,21,45,46)          1.0591         estimate D2E/DX2                !
 ! D130  D(21,22,23,24)          3.1218         estimate D2E/DX2                !
 ! D131  D(21,22,23,25)       -178.1243         estimate D2E/DX2                !
 ! D132  D(44,22,23,24)       -175.6838         estimate D2E/DX2                !
 ! D133  D(44,22,23,25)          3.0701         estimate D2E/DX2                !
 ! D134  D(21,22,44,39)        178.7623         estimate D2E/DX2                !
 ! D135  D(21,22,44,43)         -1.9877         estimate D2E/DX2                !
 ! D136  D(23,22,44,39)         -2.4702         estimate D2E/DX2                !
 ! D137  D(23,22,44,43)        176.7798         estimate D2E/DX2                !
 ! D138  D(22,23,24,93)         75.6765         estimate D2E/DX2                !
 ! D139  D(25,23,24,93)       -103.0854         estimate D2E/DX2                !
 ! D140  D(22,23,25,26)        178.4628         estimate D2E/DX2                !
 ! D141  D(22,23,25,38)         -1.828          estimate D2E/DX2                !
 ! D142  D(24,23,25,26)         -2.7914         estimate D2E/DX2                !
 ! D143  D(24,23,25,38)        176.9177         estimate D2E/DX2                !
 ! D144  D(23,24,93,46)        -47.8662         estimate D2E/DX2                !
 ! D145  D(23,25,26,27)        129.9589         estimate D2E/DX2                !
 ! D146  D(23,25,26,37)        -51.1162         estimate D2E/DX2                !
 ! D147  D(38,25,26,27)        -49.7501         estimate D2E/DX2                !
 ! D148  D(38,25,26,37)        129.1748         estimate D2E/DX2                !
 ! D149  D(23,25,38,39)         -0.0067         estimate D2E/DX2                !
 ! D150  D(23,25,38,84)        179.7306         estimate D2E/DX2                !
 ! D151  D(26,25,38,39)        179.7071         estimate D2E/DX2                !
 ! D152  D(26,25,38,84)         -0.5556         estimate D2E/DX2                !
 ! D153  D(25,26,27,28)        179.6228         estimate D2E/DX2                !
 ! D154  D(25,26,27,69)         -1.1644         estimate D2E/DX2                !
 ! D155  D(37,26,27,28)          0.6822         estimate D2E/DX2                !
 ! D156  D(37,26,27,69)        179.8949         estimate D2E/DX2                !
 ! D157  D(25,26,37,36)       -179.5312         estimate D2E/DX2                !
 ! D158  D(25,26,37,83)         -0.4509         estimate D2E/DX2                !
 ! D159  D(27,26,37,36)         -0.5935         estimate D2E/DX2                !
 ! D160  D(27,26,37,83)        178.4869         estimate D2E/DX2                !
 ! D161  D(26,27,28,29)         -0.3277         estimate D2E/DX2                !
 ! D162  D(26,27,28,70)        179.5793         estimate D2E/DX2                !
 ! D163  D(69,27,28,29)       -179.5505         estimate D2E/DX2                !
 ! D164  D(69,27,28,70)          0.3565         estimate D2E/DX2                !
 ! D165  D(27,28,29,30)        179.9458         estimate D2E/DX2                !
 ! D166  D(27,28,29,36)         -0.1219         estimate D2E/DX2                !
 ! D167  D(70,28,29,30)          0.0404         estimate D2E/DX2                !
 ! D168  D(70,28,29,36)        179.9727         estimate D2E/DX2                !
 ! D169  D(28,29,30,31)        117.7789         estimate D2E/DX2                !
 ! D170  D(28,29,30,35)       -118.2037         estimate D2E/DX2                !
 ! D171  D(28,29,30,71)         -0.2325         estimate D2E/DX2                !
 ! D172  D(36,29,30,31)        -62.1518         estimate D2E/DX2                !
 ! D173  D(36,29,30,35)         61.8656         estimate D2E/DX2                !
 ! D174  D(36,29,30,71)        179.8369         estimate D2E/DX2                !
 ! D175  D(28,29,36,37)          0.2106         estimate D2E/DX2                !
 ! D176  D(28,29,36,82)       -179.6178         estimate D2E/DX2                !
 ! D177  D(30,29,36,37)       -179.858          estimate D2E/DX2                !
 ! D178  D(30,29,36,82)          0.3136         estimate D2E/DX2                !
 ! D179  D(29,30,31,32)       -179.7595         estimate D2E/DX2                !
 ! D180  D(29,30,31,72)        -59.4906         estimate D2E/DX2                !
 ! D181  D(29,30,31,73)         59.3613         estimate D2E/DX2                !
 ! D182  D(35,30,31,32)         56.0095         estimate D2E/DX2                !
 ! D183  D(35,30,31,72)        176.2784         estimate D2E/DX2                !
 ! D184  D(35,30,31,73)        -64.8696         estimate D2E/DX2                !
 ! D185  D(71,30,31,32)        -60.775          estimate D2E/DX2                !
 ! D186  D(71,30,31,72)         59.4939         estimate D2E/DX2                !
 ! D187  D(71,30,31,73)        178.3458         estimate D2E/DX2                !
 ! D188  D(29,30,35,34)        179.7399         estimate D2E/DX2                !
 ! D189  D(29,30,35,80)         59.4318         estimate D2E/DX2                !
 ! D190  D(29,30,35,81)        -59.4202         estimate D2E/DX2                !
 ! D191  D(31,30,35,34)        -56.0124         estimate D2E/DX2                !
 ! D192  D(31,30,35,80)       -176.3204         estimate D2E/DX2                !
 ! D193  D(31,30,35,81)         64.8276         estimate D2E/DX2                !
 ! D194  D(71,30,35,34)         60.7836         estimate D2E/DX2                !
 ! D195  D(71,30,35,80)        -59.5245         estimate D2E/DX2                !
 ! D196  D(71,30,35,81)       -178.3765         estimate D2E/DX2                !
 ! D197  D(30,31,32,33)        -56.1638         estimate D2E/DX2                !
 ! D198  D(30,31,32,74)       -176.7297         estimate D2E/DX2                !
 ! D199  D(30,31,32,75)         65.2002         estimate D2E/DX2                !
 ! D200  D(72,31,32,33)       -176.7872         estimate D2E/DX2                !
 ! D201  D(72,31,32,74)         62.647          estimate D2E/DX2                !
 ! D202  D(72,31,32,75)        -55.4232         estimate D2E/DX2                !
 ! D203  D(73,31,32,33)         65.727          estimate D2E/DX2                !
 ! D204  D(73,31,32,74)        -54.8388         estimate D2E/DX2                !
 ! D205  D(73,31,32,75)       -172.909          estimate D2E/DX2                !
 ! D206  D(31,32,33,34)         56.3142         estimate D2E/DX2                !
 ! D207  D(31,32,33,76)        -65.0172         estimate D2E/DX2                !
 ! D208  D(31,32,33,77)        176.8499         estimate D2E/DX2                !
 ! D209  D(74,32,33,34)        176.893          estimate D2E/DX2                !
 ! D210  D(74,32,33,76)         55.5615         estimate D2E/DX2                !
 ! D211  D(74,32,33,77)        -62.5713         estimate D2E/DX2                !
 ! D212  D(75,32,33,34)        -65.0636         estimate D2E/DX2                !
 ! D213  D(75,32,33,76)        173.6049         estimate D2E/DX2                !
 ! D214  D(75,32,33,77)         55.4721         estimate D2E/DX2                !
 ! D215  D(32,33,34,35)        -56.3138         estimate D2E/DX2                !
 ! D216  D(32,33,34,78)       -176.8625         estimate D2E/DX2                !
 ! D217  D(32,33,34,79)         65.0572         estimate D2E/DX2                !
 ! D218  D(76,33,34,35)         65.0205         estimate D2E/DX2                !
 ! D219  D(76,33,34,78)        -55.5281         estimate D2E/DX2                !
 ! D220  D(76,33,34,79)       -173.6085         estimate D2E/DX2                !
 ! D221  D(77,33,34,35)       -176.8602         estimate D2E/DX2                !
 ! D222  D(77,33,34,78)         62.5911         estimate D2E/DX2                !
 ! D223  D(77,33,34,79)        -55.4892         estimate D2E/DX2                !
 ! D224  D(33,34,35,30)         56.167          estimate D2E/DX2                !
 ! D225  D(33,34,35,80)        176.8005         estimate D2E/DX2                !
 ! D226  D(33,34,35,81)        -65.6808         estimate D2E/DX2                !
 ! D227  D(78,34,35,30)        176.7089         estimate D2E/DX2                !
 ! D228  D(78,34,35,80)        -62.6577         estimate D2E/DX2                !
 ! D229  D(78,34,35,81)         54.8611         estimate D2E/DX2                !
 ! D230  D(79,34,35,30)        -65.2035         estimate D2E/DX2                !
 ! D231  D(79,34,35,80)         55.4299         estimate D2E/DX2                !
 ! D232  D(79,34,35,81)        172.9487         estimate D2E/DX2                !
 ! D233  D(29,36,37,26)          0.1496         estimate D2E/DX2                !
 ! D234  D(29,36,37,83)       -178.9436         estimate D2E/DX2                !
 ! D235  D(82,36,37,26)        179.9812         estimate D2E/DX2                !
 ! D236  D(82,36,37,83)          0.888          estimate D2E/DX2                !
 ! D237  D(25,38,39,40)       -179.2602         estimate D2E/DX2                !
 ! D238  D(25,38,39,44)          0.5719         estimate D2E/DX2                !
 ! D239  D(84,38,39,40)          1.003          estimate D2E/DX2                !
 ! D240  D(84,38,39,44)       -179.1649         estimate D2E/DX2                !
 ! D241  D(38,39,40,41)        179.2829         estimate D2E/DX2                !
 ! D242  D(38,39,40,85)         -0.4251         estimate D2E/DX2                !
 ! D243  D(44,39,40,41)         -0.5493         estimate D2E/DX2                !
 ! D244  D(44,39,40,85)        179.7426         estimate D2E/DX2                !
 ! D245  D(38,39,44,22)          0.6714         estimate D2E/DX2                !
 ! D246  D(38,39,44,43)       -178.6028         estimate D2E/DX2                !
 ! D247  D(40,39,44,22)       -179.4965         estimate D2E/DX2                !
 ! D248  D(40,39,44,43)          1.2293         estimate D2E/DX2                !
 ! D249  D(39,40,41,42)         -0.239          estimate D2E/DX2                !
 ! D250  D(39,40,41,86)       -179.855          estimate D2E/DX2                !
 ! D251  D(85,40,41,42)        179.4738         estimate D2E/DX2                !
 ! D252  D(85,40,41,86)         -0.1422         estimate D2E/DX2                !
 ! D253  D(40,41,42,43)          0.3265         estimate D2E/DX2                !
 ! D254  D(40,41,42,87)       -179.4984         estimate D2E/DX2                !
 ! D255  D(86,41,42,43)        179.9428         estimate D2E/DX2                !
 ! D256  D(86,41,42,87)          0.1179         estimate D2E/DX2                !
 ! D257  D(41,42,43,44)          0.3803         estimate D2E/DX2                !
 ! D258  D(41,42,43,88)       -179.2873         estimate D2E/DX2                !
 ! D259  D(87,42,43,44)       -179.7948         estimate D2E/DX2                !
 ! D260  D(87,42,43,88)          0.5377         estimate D2E/DX2                !
 ! D261  D(42,43,44,22)        179.596          estimate D2E/DX2                !
 ! D262  D(42,43,44,39)         -1.1496         estimate D2E/DX2                !
 ! D263  D(88,43,44,22)         -0.7482         estimate D2E/DX2                !
 ! D264  D(88,43,44,39)        178.5062         estimate D2E/DX2                !
 ! D265  D(13,45,46,93)       -105.4844         estimate D2E/DX2                !
 ! D266  D(21,45,46,93)         75.3132         estimate D2E/DX2                !
 ! D267  D(45,46,93,24)        -44.2142         estimate D2E/DX2                !
 ! D268  D(12,47,48,9)           0.2798         estimate D2E/DX2                !
 ! D269  D(12,47,48,90)        179.3298         estimate D2E/DX2                !
 ! D270  D(89,47,48,9)         179.7617         estimate D2E/DX2                !
 ! D271  D(89,47,48,90)         -1.1883         estimate D2E/DX2                !
 ! D272  D(8,49,50,5)            0.3182         estimate D2E/DX2                !
 ! D273  D(8,49,50,92)        -179.3914         estimate D2E/DX2                !
 ! D274  D(91,49,50,5)         179.0177         estimate D2E/DX2                !
 ! D275  D(91,49,50,92)         -0.6919         estimate D2E/DX2                !
 --------------------------------------------------------------------------------
 Trust Radius=3.00D-01 FncErr=1.00D-07 GrdErr=1.00D-06 EigMax=2.50D+02 EigMin=1.00D-04
 Number of steps in this run=    558 maximum allowed number of steps=    558.
 GradGradGradGradGradGradGradGradGradGradGradGradGradGradGradGradGradGrad

 Leave Link  103 at Thu Mar 27 17:50:28 2025, MaxMem= 13421772800 cpu:               0.9 elap:               0.0
 (Enter /public/software/apps/Gaussian/g16/l202.exe)
 Symmetry turned off by external request.
 Stoichiometry    C48H42CuO2(2)
 Framework group  C1[X(C48H42CuO2)]
 Deg. of freedom   273
 Full point group                 C1      NOp   1
                          Input orientation:                          
 ---------------------------------------------------------------------
 Center     Atomic      Atomic             Coordinates (Angstroms)
 Number     Number       Type             X           Y           Z
 ---------------------------------------------------------------------
      1          6           0      -12.187917    2.666828   -1.577270
      2          6           0      -11.109104    2.785605   -0.504706
      3          6           0      -10.421532    4.157368   -0.561467
      4          6           0       -9.382095    4.335579    0.554966
      5          6           0       -8.188829    3.433617    0.365128
      6          6           0       -8.075229    2.240496    1.094249
      7          6           0       -6.981449    1.393124    0.897058
      8          6           0       -5.981144    1.722432   -0.035416
      9          6           0       -4.819841    0.820765   -0.247002
     10          6           0       -3.527175    1.347211   -0.418714
     11          6           0       -2.434705    0.498045   -0.616025
     12          6           0       -2.611550   -0.894614   -0.641584
     13          6           0       -1.457003   -1.799615   -0.857455
     14          6           0       -1.533150   -2.790589   -1.845904
     15          6           0       -0.452673   -3.647803   -2.086370
     16          6           0       -0.538308   -4.616939   -3.099149
     17          6           0        0.541389   -5.462469   -3.357177
     18          6           0        1.715388   -5.346298   -2.613170
     19          6           0        1.815530   -4.389114   -1.600742
     20          6           0        0.730658   -3.532366   -1.313604
     21          6           0        0.795560   -2.559730   -0.284115
     22          6           0        1.990165   -2.428440    0.593858
     23          6           0        2.804900   -1.289192    0.456884
     24          8           0        2.437769   -0.291392   -0.443606
     25          6           0        3.966563   -1.140097    1.237498
     26          6           0        4.849869    0.039780    1.077246
     27          6           0        5.251448    0.781771    2.199302
     28          6           0        6.090315    1.889780    2.052864
     29          6           0        6.550790    2.275040    0.782108
     30          6           0        7.460553    3.481629    0.638420
     31          6           0        8.834151    3.079832    0.063935
     32          6           0        9.749361    4.303661   -0.072513
     33          6           0        9.091268    5.389895   -0.932998
     34          6           0        7.725628    5.794043   -0.362608
     35          6           0        6.803236    4.575478   -0.227222
     36          6           0        6.154315    1.523775   -0.340060
     37          6           0        5.314043    0.417163   -0.192864
     38          6           0        4.289878   -2.120373    2.185895
     39          6           0        3.471507   -3.242510    2.363964
     40          6           0        3.803119   -4.206474    3.329758
     41          6           0        2.984911   -5.320092    3.523837
     42          6           0        1.828282   -5.479854    2.761705
     43          6           0        1.485342   -4.531243    1.795905
     44          6           0        2.306385   -3.404527    1.572433
     45          6           0       -0.290280   -1.688334   -0.078280
     46          8           0       -0.208140   -0.719592    0.919638
     47          6           0       -3.902485   -1.422109   -0.479090
     48          6           0       -4.995081   -0.573919   -0.280927
     49          6           0       -6.101348    2.917692   -0.766969
     50          6           0       -7.196839    3.762996   -0.570280
     51          1           0      -12.967825    3.443980   -1.428923
     52          1           0      -12.666574    1.666725   -1.513992
     53          1           0      -11.740975    2.783610   -2.587599
     54          1           0      -11.577128    2.640831    0.493226
     55          1           0      -10.361552    1.979150   -0.664366
     56          1           0      -11.191175    4.952070   -0.447761
     57          1           0       -9.935661    4.295421   -1.552649
     58          1           0       -9.037511    5.392915    0.555271
     59          1           0       -9.857451    4.155063    1.544515
     60          1           0       -8.834947    1.964484    1.814945
     61          1           0       -6.911007    0.486857    1.485245
     62          1           0       -3.358069    2.416107   -0.386162
     63          1           0       -1.451855    0.929538   -0.759949
     64          1           0       -2.430902   -2.876589   -2.448149
     65          1           0       -1.439422   -4.718265   -3.693059
     66          1           0        0.469397   -6.206394   -4.140011
     67          1           0        2.552466   -5.999945   -2.822660
     68          1           0        2.745888   -4.324318   -1.051807
     69          1           0        4.904607    0.510230    3.188904
     70          1           0        6.378251    2.447373    2.935179
     71          1           0        7.639224    3.920899    1.646685
     72          1           0        9.317882    2.341040    0.739306
     73          1           0        8.716732    2.605509   -0.934692
     74          1           0       10.707642    3.994405   -0.542647
     75          1           0        9.980106    4.713371    0.935633
     76          1           0        8.966255    5.017576   -1.974084
     77          1           0        9.752775    6.282224   -0.965009
     78          1           0        7.252293    6.538647   -1.038398
     79          1           0        7.862028    6.273017    0.632185
     80          1           0        5.847280    4.895945    0.241653
     81          1           0        6.573192    4.184553   -1.242187
     82          1           0        6.496082    1.790006   -1.331672
     83          1           0        5.037893   -0.154083   -1.070475
     84          1           0        5.187273   -2.008886    2.785141
     85          1           0        4.692854   -4.095896    3.937705
     86          1           0        3.244916   -6.058261    4.271528
     87          1           0        1.192233   -6.341013    2.921204
     88          1           0        0.574034   -4.685702    1.234002
     89          1           0       -4.063541   -2.492996   -0.497233
     90          1           0       -5.980165   -1.009414   -0.169702
     91          1           0       -5.358974    3.188941   -1.507047
     92          1           0       -7.274733    4.673565   -1.151322
     93         29           0        0.961128    0.743200    0.332069
 ---------------------------------------------------------------------
 Rotational constants (GHZ):           0.0615434           0.0218570           0.0177211
 Leave Link  202 at Thu Mar 27 17:50:28 2025, MaxMem= 13421772800 cpu:               1.2 elap:               0.0
 (Enter /public/software/apps/Gaussian/g16/l301.exe)
 Standard basis: def2SVPP (5D, 7F)
 Ernie: Thresh=  0.10000D-02 Tol=  0.10000D-05 Strict=F.
   808 basis functions,  1489 primitive gaussians,   860 cartesian basis functions
   188 alpha electrons      187 beta electrons
       nuclear repulsion energy      6489.2060519151 Hartrees.
 IExCor=  402 DFT=T Ex+Corr=B3LYP ExCW=0 ScaHFX=  0.200000
 ScaDFX=  0.800000  0.720000  1.000000  0.810000 ScalE2=  1.000000  1.000000
 IRadAn=      5 IRanWt=     -1 IRanGd=            0 ICorTp=0 IEmpDi=141
 NAtoms=   93 NActive=   93 NUniq=   93 SFac= 1.00D+00 NAtFMM=   60 NAOKFM=T Big=T
 Integral buffers will be    131072 words long.
 Raffenetti 2 integral format.
 Two-electron integral symmetry is turned off.
 R6Disp:  Grimme-D3(BJ) Dispersion energy=       -0.2378511309 Hartrees.
 Nuclear repulsion after empirical dispersion term =     6488.9682007843 Hartrees.
 Leave Link  301 at Thu Mar 27 17:50:28 2025, MaxMem= 13421772800 cpu:               1.4 elap:               0.1
 (Enter /public/software/apps/Gaussian/g16/l302.exe)
 NPDir=0 NMtPBC=     1 NCelOv=     1 NCel=       1 NClECP=     1 NCelD=      1
         NCelK=      1 NCelE2=     1 NClLst=     1 CellRange=     0.0.
 One-electron integrals computed using PRISM.
   1 Symmetry operations used in ECPInt.
 ECPInt:  NShTT=   77815 NPrTT=  318022 LenC2=   48872 LenP2D=  119648.
 LDataN:  DoStor=T MaxTD1= 4 Len=   56
 NBasis=   808 RedAO= T EigKep=  1.67D-04  NBF=   808
 NBsUse=   808 1.00D-06 EigRej= -1.00D+00 NBFU=   808
 Precomputing XC quadrature grid using
 IXCGrd= 4 IRadAn=           5 IRanWt=          -1 IRanGd=           0 AccXCQ= 0.00D+00.
 Generated NRdTot=       0 NPtTot=           0 NUsed=           0 NTot=          32
 NSgBfM=   765   765   765   765   765 MxSgAt=    93 MxSgA2=    93.
 Leave Link  302 at Thu Mar 27 17:50:29 2025, MaxMem= 13421772800 cpu:              38.0 elap:               1.2
 (Enter /public/software/apps/Gaussian/g16/l303.exe)
 DipDrv:  MaxL=1.
 Leave Link  303 at Thu Mar 27 17:50:29 2025, MaxMem= 13421772800 cpu:               6.7 elap:               0.2
 (Enter /public/software/apps/Gaussian/g16/l401.exe)
 ExpMin= 3.30D-02 ExpMax= 7.64D+04 ExpMxC= 1.15D+04 IAcc=3 IRadAn=         5 AccDes= 0.00D+00
 Harris functional with IExCor=  402 and IRadAn=       5 diagonalized for initial guess.
 HarFok:  IExCor=  402 AccDes= 0.00D+00 IRadAn=         5 IDoV= 1 UseB2=F ITyADJ=14
 ICtDFT=  3500011 ScaDFX=  1.000000  1.000000  1.000000  1.000000
 FoFCou: FMM=F IPFlag=           0 FMFlag=      100000 FMFlg1=        2001
         NFxFlg=           0 DoJE=T BraDBF=F KetDBF=T FulRan=T
         wScrn=  0.000000 ICntrl=       500 IOpCl=  0 I1Cent=   200000004 NGrid=           0
         NMat0=    1 NMatS0=      1 NMatT0=    0 NMatD0=    1 NMtDS0=    0 NMtDT0=    0
 Symmetry not used in FoFCou.
 Harris En= -3644.18379523684    
 JPrj=0 DoOrth=F DoCkMO=F.
 Initial guess <Sx>= 0.0000 <Sy>= 0.0000 <Sz>= 0.5000 <S**2>= 0.7500 S= 0.5000
 Leave Link  401 at Thu Mar 27 17:50:32 2025, MaxMem= 13421772800 cpu:              79.9 elap:               2.5
 (Enter /public/software/apps/Gaussian/g16/l502.exe)
 Two-electron integral symmetry not used.
 UHF open shell SCF:
 Using DIIS extrapolation, IDIIS=  1040.
 NGot= 13421772800 LenX= 13420256592 LenY= 13419516132
 Requested convergence on RMS density matrix=1.00D-08 within 128 cycles.
 Requested convergence on MAX density matrix=1.00D-06.
 Requested convergence on             energy=1.00D-06.
 No special actions if energy rises.
 Fock matrices will be formed incrementally for  20 cycles.

 Cycle   1  Pass 1  IDiag  1:
 FoFJK:  IHMeth= 1 ICntrl=       0 DoSepK=F KAlg= 0 I1Cent=           0 FoldK=F
 IRaf= 700000000 NMat=       1 IRICut=       1 DoRegI=T DoRafI=F ISym2E= 0 IDoP0=0 IntGTp=1.
 FoFCou: FMM=T IPFlag=           0 FMFlag=      100000 FMFlg1=        2001
         NFxFlg=           0 DoJE=F BraDBF=F KetDBF=F FulRan=T
         wScrn=  0.000000 ICntrl=         0 IOpCl=  1 I1Cent=           0 NGrid=           0
         NMat0=    1 NMatS0=      1 NMatT0=    0 NMatD0=    1 NMtDS0=    0 NMtDT0=    0
 Symmetry not used in FoFCou.
 FMM levels:  10  Number of levels for PrismC:   9
 E= -3619.69431652904    
 DIIS: error= 2.67D-01 at cycle   1 NSaved=   1.
 NSaved= 1 IEnMin= 1 EnMin= -3619.69431652904     IErMin= 1 ErrMin= 2.67D-01
 ErrMax= 2.67D-01  0.00D+00 EMaxC= 1.00D-01 BMatC= 8.70D+01 BMatP= 8.70D+01
 IDIUse=3 WtCom= 0.00D+00 WtEn= 1.00D+00
 Coeff-Com:  0.100D+01
 Coeff-En:   0.100D+01
 Coeff:      0.100D+01
 Gap=    -0.363 Goal=   None    Shift=    0.000
 Gap=    -2.644 Goal=   None    Shift=    0.000
 GapD=   -2.644 DampG=0.250 DampE=0.125 DampFc=0.1250 IDamp=-1.
 Damping current iteration by 1.25D-01
 RMSDP=8.67D-02 MaxDP=1.65D+01              OVMax= 9.95D-01

 Cycle   2  Pass 1  IDiag  1:
 RMSU=  1.08D-02    CP:  1.05D+00
 E= -3627.92810514435     Delta-E=       -8.233788615315 Rises=F Damp=T
 DIIS: error= 1.84D-01 at cycle   2 NSaved=   2.
 NSaved= 2 IEnMin= 2 EnMin= -3627.92810514435     IErMin= 2 ErrMin= 1.84D-01
 ErrMax= 1.84D-01  0.00D+00 EMaxC= 1.00D-01 BMatC= 3.50D+01 BMatP= 8.70D+01
 IDIUse=3 WtCom= 0.00D+00 WtEn= 1.00D+00
 Coeff-Com: -0.127D+01 0.227D+01
 Coeff-En:   0.000D+00 0.100D+01
 Coeff:      0.000D+00 0.100D+01
 Gap=     0.071 Goal=   None    Shift=    0.000
 Gap=    -0.211 Goal=   None    Shift=    0.000
 RMSDP=1.84D-02 MaxDP=5.27D+00 DE=-8.23D+00 OVMax= 9.48D-01

 Cycle   3  Pass 1  IDiag  1:
 RMSU=  1.83D-02    CP:  9.29D-01  1.15D+00
 E= -3581.82306211107     Delta-E=       46.105043033285 Rises=F Damp=F
 DIIS: error= 1.18D-01 at cycle   3 NSaved=   3.
 NSaved= 3 IEnMin= 2 EnMin= -3627.92810514435     IErMin= 3 ErrMin= 1.18D-01
 ErrMax= 1.18D-01  0.00D+00 EMaxC= 1.00D-01 BMatC= 8.33D+01 BMatP= 3.50D+01
 IDIUse=2 WtCom= 0.00D+00 WtEn= 1.00D+00
 EnCoef did    11 forward-backward iterations
 Coeff-En:   0.653D+00 0.289D-02 0.344D+00
 Coeff:      0.653D+00 0.289D-02 0.344D+00
 Gap=     0.428 Goal=   None    Shift=    0.000
 Gap=     0.038 Goal=   None    Shift=    0.000
[...]
 ,-0.00599333,0.00397879,-0.00078247,0.00225630,0.00269290,-0.00005308,
 0.00051990,-0.00059683,0.00445245,0.00129214,0.00084714,-0.00051376,-0
 .00043121,0.00055570,0.00001370,-0.00007685,-0.00007674,0.00000128,0.0
 0001272,-0.00000200,0.00003221,-0.00001300,0.00000828,-0.00011380,0.00
 005306,-0.00004256,0.00001101,0.00001728,0.00001976,-0.00000696,-0.000
 02060,-0.00000457,-0.00001018,0.00001924,0.00001298,0.00001679,0.00000
 334,0.00000692,0.00001239,-0.00000899,-0.00000233,0.00000940,-0.000003
 90,-0.00000144,0.00000665,0.00001540,0.00000738,0.00010372,-0.00006014
 ,0.00001192,0.00007773,0.00007651,0.00000910,-0.00005929,-0.00009126,0
 .00005892,0.00001178,0.00010394,-0.00007982,-0.00004324,-0.00001833,-0
 .00003358,-0.00000193,-0.00000502,0.00000353,-0.00000283,0.00000205,-0
 .00000602,0.00000463,0.00000509,-0.00000622,-0.00000288,-0.00000318,0.
 00000414,-0.00000299,-0.00000263,-0.00000302,-0.00000119,0.00000486,0.
 00000178,0.00000003,-0.00000266,-0.00000131,0.00000060,0.00000035,0.00
 000147,-0.00000235,-0.00000087,-0.00000081,0.00000530,-0.00000029,0.00
 000099,0.00000228,0.00000062,0.00000605,0.00000269,-0.00000019,-0.0000
 0002,-0.00001414,-0.00003780,0.00002017,0.00001243,0.00002809,-0.00001
 466,-0.00002326,-0.00003755,0.00001524,0.00002458,0.00000822,0.0000095
 6,0.00000238,0.00000966,-0.00000539,0.00001146,0.00000092,0.00000664,0
 .00000165,-0.00001759,-0.00000273,-0.00006347,0.00007632,0.00005776,0.
 00004998,-0.00011894,-0.00006990,-0.00006289,-0.00005198,-0.00003315,0
 .00027256,-0.00005432,-0.00007635,-0.00122100,-0.01201801,0.00945992,0
 .01583344,-0.26927387,0.11753468,0.00000119,-0.00000432,-0.00001310,0.
 00001449,0.00001015,-0.00000127,-0.00000732,-0.00000565,-0.00003404,0.
 00005767,0.00007569,-0.00000845,-0.00000475,0.00000884,0.00006393,0.00
 000463,0.00003791,-0.00026169,-0.00015737,0.00011095,-0.00042900,-0.00
 046654,0.00019957,0.00019278,0.00012346,0.00007850,-0.00000833,0.00011
 945,-0.00028741,0.00025140,-0.00016797,-0.00027963,-0.00030194,-0.0000
 3573,0.00003083,0.00001935,0.00002959,0.00000471,-0.00000548,0.0000020
 5,0.00000953,0.00000776,-0.00000163,0.00000108,0.00000237,0.00000011,-
 0.00000307,-0.00000189,0.00000032,-0.00000091,0.00000084,-0.00000276,0
 .00000427,0.00000248,-0.00000106,-0.00000149,-0.00000169,0.00000196,0.
 00000130,0.00000184,0.00000108,0.00000126,0.00000090,-0.00000096,0.000
 00035,0.00000003,-0.00000014,-0.00000040,0.00000062,0.00000188,0.00000
 114,-0.00000105,0.,0.00000086,0.00000044,-0.00000058,-0.00000069,-0.00
 000035,0.00000147,0.00000173,-0.00000035,0.00000030,0.00000289,-0.0000
 0116,0.00000091,0.00000008,0.00000040,0.00000016,-0.00000105,0.0000000
 8,-0.00000016,-0.00000051,0.00000055,0.00000068,0.00000130,-0.00000278
 ,-0.00000610,-0.00000018,0.00000541,0.00000259,-0.00000120,0.00000427,
 0.00000296,0.00000068,0.00000194,0.00000032,-0.00000185,0.00000166,-0.
 00000266,-0.00000205,0.00000057,-0.00000284,-0.00000249,0.00000124,0.0
 0002275,-0.00002688,0.00000154,-0.00002259,0.00000797,0.00001715,-0.00
 091240,0.00003237,-0.00187229,-0.01908015,0.28389471,-0.00000798,-0.00
 006974,0.00000742,-0.00005851,0.00009113,0.00000815,0.00001097,0.00002
 581,0.00019104,-0.00246761,0.00011452,-0.00159433,-0.00146391,0.016391
 52,-0.00410099,0.00501163,0.00248441,0.00227832,0.00031326,-0.00068405
 ,-0.00043225,0.00314600,0.00124914,0.00498850,0.00005030,-0.00008919,0
 .00031599,-0.00006940,0.00001141,-0.00007915,0.00001095,0.00001408,0.0
 0001659,0.00002488,0.00000475,0.00000042,0.00001383,0.00000177,0.00000
 596,0.00000481,-0.00001672,-0.00000855,-0.00000590,0.00000873,0.000003
 45,0.00000899,-0.00001019,-0.00000617,-0.00000967,0.00000060,-0.000003
 59,-0.00000160,0.00000358,0.00000240,-0.00000360,0.00000017,-0.0000017
 5,-0.00000028,-0.00000440,0.00000005,-0.00003327,0.00001888,-0.0000037
 5,-0.00002383,-0.00002236,-0.00000385,0.00001810,0.00002497,-0.0000150
 2,-0.00000668,-0.00003020,0.00002176,0.00001294,0.00000622,0.00000969,
 0.00000074,0.00000166,-0.00000118,0.00000119,-0.00000093,0.00000187,-0
 .00000117,-0.00000188,0.00000189,0.00000101,0.00000087,-0.00000137,0.0
 0000096,0.00000106,0.00000096,0.00000032,-0.00000147,-0.00000008,-0.00
 000001,0.00000085,0.00000038,-0.00000026,0.00000007,0.00000009,0.00000
 075,0.00000024,0.00000037,-0.00000222,0.00000045,0.00000064,-0.0000007
 6,-0.00000056,-0.00000170,-0.00000049,0.00000018,0.00000041,0.00000425
 ,0.00001088,-0.00000636,-0.00000417,-0.00000823,0.00000390,0.00000686,
 0.00001066,-0.00000438,-0.00000698,-0.00000239,-0.00000299,-0.00000038
 ,-0.00000269,0.00000118,-0.00000294,-0.00000020,-0.00000190,-0.0000001
 4,0.00000439,0.00000127,0.00002786,-0.00001817,-0.00001307,-0.00001166
 ,0.00003024,0.00001501,-0.00006943,-0.00000443,0.00000603,-0.00001162,
 -0.00000125,-0.00011146,0.00121584,-0.00415459,0.00518725,0.00114203,0
 .11762907,-0.10264371,0.00001767,-0.00000239,0.00000672,-0.00001485,-0
 .00000591,-0.00001747,0.00000129,0.00000998,-0.00000583,-0.00003121,-0
 .00002654,-0.00000288,0.00001070,-0.00004730,-0.00003532,0.00005095,0.
 00003011,-0.00010683,-0.00014703,0.00006992,-0.00000420,0.00027600,-0.
 00104641,-0.00010714,-0.00002405,-0.00034447,-0.00002388,-0.00009701,0
 .00086912,-0.00022251,-0.00039119,-0.00030414,-0.00061413,-0.00002405,
 0.00005200,0.00001733,-0.00000612,-0.00000229,0.00000229,-0.00000068,-
 0.00000277,-0.00000258,-0.00000056,-0.00000075,-0.00000090,0.00000018,
 0.00000012,0.00000031,0.00000004,-0.00000005,-0.00000011,0.00000072,-0
 .00000116,-0.00000065,0.00000016,0.00000088,0.00000036,-0.00000107,-0.
 00000038,-0.00000073,-0.00000050,-0.00000045,-0.00000057,0.00000046,-0
 .00000024,0.00000004,-0.00000004,0.00000010,-0.00000049,-0.00000024,-0
 .00000046,0.00000020,-0.00000015,-0.00000027,-0.00000029,0.00000013,0.
 00000002,-0.00000029,-0.00000031,-0.00000049,0.00000012,-0.00000006,-0
 .00000102,0.00000071,-0.00000053,0.,-0.00000053,0.00000047,0.00000030,
 -0.00000045,-0.00000002,0.00000002,-0.00000049,-0.00000007,-0.00000008
 ,0.00000080,0.00000175,-0.00000009,-0.00000164,-0.00000096,0.00000056,
 -0.00000121,-0.00000106,-0.00000008,-0.00000045,-0.00000011,0.00000068
 ,-0.00000030,0.00000068,0.00000056,0.00000005,0.00000075,0.00000118,-0
 .00000028,0.00000370,0.00000061,0.00000989,-0.00002240,-0.00001889,-0.
 00000708,-0.00205489,-0.00168858,-0.00234997,-0.00431341,-0.13056639,0
 .09943025,-0.00000140,0.00000192,-0.00000664,-0.00000862,-0.00000090,0
 .00000772,-0.00000245,-0.00000810,-0.00001948,-0.00001115,0.00001404,0
 .00002054,-0.00000648,0.00000268,-0.00000664,0.00000331,-0.00000865,0.
 00000587,0.00005040,-0.00004015,-0.00000391,-0.00005416,0.00013626,-0.
 00000092,0.00005150,0.00003491,-0.00001020,0.00031917,0.00043317,0.000
 11328,-0.00222349,-0.00094195,0.00008476,0.00031542,-0.00004375,-0.000
 04154,0.00304017,0.00127450,0.00265261,0.00136052,-0.00225250,-0.00166
 014,-0.00068050,0.00172945,0.00124720,0.00112151,-0.00176794,-0.001163
 84,-0.00136677,0.00049247,-0.00014182,-0.00010669,0.00044892,0.0003391
 7,-0.00036993,0.00025094,0.00008668,-0.00088634,-0.00136442,-0.0010411
 2,-0.00294869,0.00609437,0.00301380,-0.00211202,-0.00703412,0.00368271
 ,-0.01055678,0.02677031,-0.01600595,-0.05920840,0.02498558,0.04253388,
 0.00374226,-0.00085319,0.00274611,-0.00063786,-0.00053933,0.00011810,0
 .00027464,-0.00015088,-0.00009613,-0.00001918,-0.00007546,0.00012322,-
 0.00004988,0.00001264,-0.00003441,-0.00002708,-0.00005098,0.00000624,-
 0.00000699,0.00003518,-0.00000544,-0.00000330,-0.00001958,-0.00000773,
 0.00000388,0.00000971,0.00001018,-0.00001004,-0.00002191,-0.00000276,0
 .00000786,0.00000619,-0.00000539,-0.00002707,-0.00013067,0.00006721,-0
 .00009520,-0.00004526,-0.00033435,0.00103643,0.00277579,-0.00153042,-0
 .00006476,-0.00184293,0.00136820,0.00081776,0.00213558,-0.00120983,-0.
 00123173,-0.00080065,-0.00017376,-0.00017945,-0.00045965,0.00022122,-0
 .00043034,-0.00061136,0.00021272,-0.00136823,0.00181300,-0.00168033,-0
 .00222395,-0.02017952,-0.01451681,-0.05022079,-0.03621079,0.03109285,-
 0.00017682,0.00022199,0.00014460,0.00018863,-0.00001156,-0.00005260,0.
 00002749,-0.00003088,0.00001706,0.00001235,0.00001878,-0.00001114,0.00
 000591,-0.00000467,0.00000211,0.00000337,0.00000599,0.00000353,-0.0000
 0170,-0.00000103,0.00000184,0.00000093,0.00000130,-0.00000064,0.000001
 77,-0.00000976,-0.00000676,0.00001880,-0.00000515,0.00000571,-0.000003
 85,0.00000468,-0.00000137,0.00000851,-0.00001098,0.00000046,0.00001074
 ,-0.00000113,-0.00000530,0.00001511,-0.00000132,-0.00000979,-0.0000185
 5,-0.00000312,0.00001065,-0.00003696,0.00001605,0.00002392,-0.00012262
 ,0.00118935,-0.00086411,-0.00001664,0.00001918,0.00007444,-0.00002882,
 -0.00001143,-0.00003541,-0.00001152,-0.00000496,-0.00000790,0.00005396
 ,-0.00000428,0.00000239,0.00005502,-0.00005967,-0.00003005,-0.00004546
 ,0.00004297,0.00002403,-0.00000629,0.00003043,0.00002040,0.00001582,0.
 00001248,0.00001271,-0.00000198,-0.00000127,0.00000272,-0.00000186,-0.
 00000122,0.00001234,0.00001686,0.00000747,-0.00001106,0.00000129,0.000
 00873,0.00000692,-0.00000402,-0.00000561,0.00000039,0.00001469,0.00001
 299,-0.00000420,0.00000151,0.00001850,-0.00000956,0.00001172,0.0000049
 3,0.00000607,0.00000963,-0.00001832,-0.00001265,-0.00000229,-0.0000032
 2,0.00001914,-0.00000690,0.00000449,-0.00001416,-0.00004392,0.00000547
 ,0.00016321,0.00000816,-0.00006846,0.00014710,-0.00003241,0.00001091,-
 0.00002869,-0.00001412,0.00000005,0.00000329,0.00005362,0.00000785,0.0
 0000826,0.00005069,0.00007631,-0.00004814,0.00010968,0.00007412,-0.000
 04458,0.00002254,0.00002171,-0.00000229,-0.00000650,0.00001994,-0.0000
 2260,0.00000299,-0.00001495,0.00000292,0.12485635,0.00000080,-0.000000
 26,-0.00000173,-0.00000251,0.00000310,0.00000065,0.00000553,-0.0000023
 2,-0.00000683,-0.00000115,0.00000774,0.00000947,0.00001128,-0.00001272
 ,-0.00000654,-0.00001122,-0.00000375,0.00001174,0.00003968,-0.00000704
 ,-0.00001750,-0.00011083,0.00005499,0.00002575,0.00011721,-0.00002868,
 -0.00004684,-0.00025680,0.00011856,0.00006310,0.00045630,-0.00026442,-
 0.00016413,-0.00132989,0.00089456,-0.00001402,0.00378266,0.00302634,0.
 00407849,0.00236534,-0.00311525,-0.00158305,-0.00025414,0.00205842,0.0
 0198551,0.00144917,-0.00240234,-0.00173418,-0.00190564,0.00070576,-0.0
 0015981,-0.00029297,0.00041667,0.00076597,-0.00057471,0.00072564,-0.00
 017752,-0.00109530,-0.00267902,-0.00291956,-0.00519426,0.00324070,0.00
 598138,0.00308488,0.00142505,-0.00575495,0.01806071,-0.02870619,0.0139
 7775,0.02922708,-0.01050247,-0.02440497,-0.00319134,0.00259464,-0.0025
 0507,0.00067331,0.00059003,-0.00040334,0.00018750,-0.00004327,0.000198
 88,-0.00023197,-0.00031899,0.00009578,-0.00002323,-0.00011498,-0.00032
 979,0.00007809,0.00006667,-0.00000307,0.00001405,-0.00008331,-0.000000
 08,-0.00000580,0.00003797,0.00000893,-0.00001428,0.00001463,-0.0000081
 3,0.00004760,-0.00003510,0.00001169,-0.00016396,0.00003095,0.00002441,
 0.00005143,0.00023644,-0.00023106,-0.00012117,-0.00013913,0.00085790,-
 0.00126306,-0.00311158,0.00117177,-0.00007479,0.00179215,-0.00158407,-
 0.00064046,-0.00230067,0.00151041,0.00158674,0.00108940,0.00015521,0.0
 0001554,0.00049911,-0.00087231,0.00009481,0.00053795,0.00027301,0.0014
 0668,-0.00182243,0.00251970,-0.01092334,-0.03530710,-0.01903022,-0.039
 23523,-0.02471373,0.02645447,0.00012909,-0.00025825,0.00015515,0.00001
 104,0.00002970,-0.00003807,0.00004745,-0.00002430,-0.00002995,-0.00000
 858,-0.00000755,-0.00001148,0.00000157,-0.00000042,0.00000012,-0.00000
 159,-0.00000157,-0.00000030,-0.00000062,0.00000083,0.00000136,-0.00000
 109,-0.00000073,0.00000132,0.00000144,-0.00000204,-0.00000167,0.000004
 60,-0.00000169,0.00000148,-0.00000213,0.00000049,0.00000201,0.00000420
 ,-0.00000970,-0.00000088,0.00000163,-0.00000092,0.00000014,0.00000318,
 0.00000031,-0.00000012,-0.00001117,-0.00000650,0.00001234,0.00011813,-
 0.00009504,-0.00001428,-0.00058095,0.00040211,-0.00014396,0.00001726,0
 .00018629,0.00030536,0.00000934,0.00001680,-0.00004547,-0.00000006,0.0
 0006723,-0.00004339,0.00004216,0.00000637,0.00004055,0.00008766,0.0001
 0177,-0.00015790,0.00002235,0.00004649,-0.00000476,-0.00008749,-0.0000
 1267,-0.00003159,-0.00001981,-0.00003579,-0.00000987,0.00003076,-0.000
 01282,-0.00000261,0.00000087,0.00001022,-0.00001483,-0.00001395,-0.000
 02247,0.00000892,-0.00000300,-0.00001195,-0.00000216,0.00000527,0.0000
 0360,0.00000258,0.00000168,-0.00001830,0.00000098,-0.00001330,-0.00005
 181,0.00001987,-0.00000361,0.00000729,-0.00000177,0.00002206,-0.000014
 41,-0.00006546,-0.00001275,0.00001499,0.00002039,-0.00007560,0.0000147
 2,0.00007644,0.00019070,-0.00014284,-0.00055207,-0.00004653,0.00016713
 ,-0.00029779,-0.00003460,0.00000682,0.00003440,-0.00000583,0.00007511,
 0.00003619,-0.00001241,0.00001917,-0.00006667,-0.00004992,0.00015659,0
 .00012894,-0.00007220,-0.00002317,-0.00001088,0.00002178,-0.00001483,-
 0.00001312,-0.00000255,0.00001609,0.00001579,0.00001377,-0.00001057,0.
 00000675,0.00443336,0.09497747,-0.00000163,-0.00000130,0.00000084,-0.0
 0000714,0.00000168,0.00000460,-0.00000051,-0.00000573,-0.00000342,-0.0
 0000422,0.00000869,0.00001412,0.00000068,-0.00000222,-0.00000708,0.000
 00597,-0.00000843,-0.00000878,0.00002112,-0.00004435,-0.00000678,-0.00
 000747,0.00008792,0.00000090,0.00004200,-0.00007565,0.00002586,0.00032
 642,0.00034782,-0.00014025,-0.00126611,-0.00057721,-0.00006739,0.00056
 726,-0.00018186,-0.00001480,-0.00069156,-0.00145052,-0.00151016,-0.000
 39689,0.00009297,-0.00023438,-0.00004260,-0.00004467,-0.00010549,0.000
 04808,-0.00004443,-0.00007702,-0.00012161,-0.00000840,-0.00007761,0.00
 004884,0.00007833,0.00007063,0.00009409,-0.00010468,-0.00018540,0.0003
 2405,0.00002134,0.00012941,-0.00001537,-0.00210241,0.00003100,0.000265
 62,0.00302463,-0.00129034,-0.00042162,-0.00472079,0.00605475,0.0315770
 5,-0.01700126,-0.01918546,-0.00199940,0.00190148,-0.00185683,0.0003199
 9,0.00008082,-0.00009476,0.00015143,-0.00009398,-0.00001382,-0.0000917
 5,-0.00019842,-0.00008966,-0.00002275,-0.00002478,-0.00008555,-0.00000
 112,-0.00000964,-0.00003604,0.00000414,0.00002366,0.00003142,0.0000058
 8,-0.00000738,-0.00000713,0.00000575,0.00000938,0.00002009,0.00000215,
 -0.00000803,-0.00000958,-0.00000452,0.00002671,0.00007323,0.00001718,0
 .00015003,-0.00004764,-0.00002480,-0.00002226,0.00043536,-0.00051185,-
 0.00081015,-0.00010370,-0.00006041,0.00042510,-0.00046828,-0.00010754,
 -0.00038667,0.00021869,0.00017891,0.00018718,-0.00005444,0.00008289,0.
 00002186,-0.00008215,0.00011914,0.00025148,-0.00013395,0.00066395,-0.0
 0032078,0.00055493,-0.00322445,-0.00071815,0.00247676,0.02373191,0.019
 15082,-0.01111692,-0.00010369,0.00020445,-0.00001700,0.00007655,-0.000
 00935,-0.00003960,-0.00000878,-0.00002976,0.00001562,0.00001048,0.0000
 0772,-0.00002109,0.00000316,-0.00000286,0.00000008,-0.00000064,0.00000
 174,0.00000167,0.00000030,0.00000220,-0.00000294,0.00000301,0.00000120
 ,-0.00000453,0.00000115,-0.00000566,-0.00000068,0.00000874,-0.00000327
 ,0.00000242,-0.00000058,0.00000364,-0.00000531,0.00000426,-0.00000891,
 0.00000244,0.00001002,0.00000187,-0.00000610,0.00001656,0.00000052,-0.
 00000226,-0.00000172,0.00001223,0.00001224,-0.00001380,-0.00003179,0.0
 0004957,0.00006130,0.00043491,0.00007004,-0.00004927,-0.00014592,-0.00
 008383,-0.00000921,-0.00000810,-0.00000050,-0.00000602,-0.00000467,0.0
 0000793,-0.00000521,-0.00001822,0.00001201,-0.00001468,-0.00000194,0.0
 0001269,-0.00006792,0.00007178,-0.00009417,-0.00004018,0.00000177,-0.0
 0000840,-0.00001748,-0.00000296,-0.00001727,-0.00000134,0.00000072,-0.
 00000113,-0.00000039,-0.00000365,-0.00001676,0.00000962,0.00000399,-0.
 00000220,-0.00000589,-0.00000145,-0.00000715,-0.00000105,-0.00000426,-
 0.00001509,0.00000412,0.00000164,-0.00000291,0.00000204,0.00001305,0.0
 0000276,-0.00001118,-0.00000521,-0.00001154,0.00001504,-0.00001517,-0.
 00000348,0.00000674,-0.00000812,-0.00003316,0.00004544,0.00003428,-0.0
 0002318,0.00009164,-0.00012946,-0.00016359,-0.00006419,0.00013622,-0.0
 0010197,-0.00001390,0.00000725,0.00001104,-0.00000854,0.00001422,0.000
 01805,-0.00001579,0.00001742,0.00000538,-0.00002765,0.00002031,0.00004
 552,0.00006827,0.00003507,0.00001785,0.00001755,0.00001107,0.00001051,
 0.00000093,0.00002008,-0.00000268,0.00000089,-0.00000313,0.00000676,-0
 .04954791,0.00246677,0.02735613\\0.00000323,-0.00000116,0.00000478,-0.
 00000268,0.00000526,-0.00000753,0.00000184,-0.00000535,0.00000314,0.00
 000028,-0.00000170,-0.00000294,0.00000066,-0.00000165,0.00000165,-0.00
 000143,0.00000012,0.00000152,-0.00000077,-0.00000258,0.00000080,0.0000
 0054,-0.00000057,0.00000135,-0.00000121,0.00000138,-0.00000113,0.00000
 276,0.00000312,0.00000002,-0.00000088,-0.00000268,0.00000020,0.0000044
 9,0.00000032,-0.00000025,-0.00000383,-0.00000037,-0.00000284,0.0000029
 2,-0.00000585,-0.00000360,-0.00000126,0.00000429,0.00000231,0.00000106
 ,-0.00000304,-0.00000232,-0.00000492,-0.00000028,-0.00000320,0.0000036
 1,0.00000148,0.00000357,0.00000379,-0.00000434,-0.00000307,-0.00000557
 ,0.00000803,0.00000531,-0.00000408,-0.00000760,-0.00000915,-0.00000171
 ,-0.00001241,0.00001027,-0.00000502,0.00000559,-0.00001723,0.00000602,
 0.00000318,0.00001049,0.00000540,-0.00000564,0.00000801,0.00000044,0.0
 0000326,0.00000296,-0.00000249,-0.00000417,0.00000061,0.00000208,0.000
 00464,-0.00000045,0.00000128,-0.00000137,0.00000768,0.00000175,-0.0000
 0408,-0.00000387,-0.00000107,0.00000494,0.00000421,-0.00000461,-0.0000
 0098,-0.00000303,-0.00000024,-0.00000084,0.00000477,-0.00000067,-0.000
 00411,-0.00000325,0.00000319,0.00000501,0.00000236,-0.00000485,-0.0000
 0369,-0.00000538,0.00000295,0.00000254,-0.00000542,0.00000221,0.000001
 20,0.00000078,-0.00000507,-0.00000513,0.00000078,0.00000139,0.00000296
 ,-0.00000190,-0.00000011,-0.00000206,0.00000193,-0.00000207,-0.0000007
 3,-0.00000182,-0.00000489,-0.00000624,0.00000135,0.00001048,0.00001343
 ,-0.00000303,0.00001030,0.00000091,-0.00000902,-0.00001087,0.00000864,
 0.00002508,-0.00000394,0.00000054,0.00000067,0.00000024,-0.00000441,0.
 00000088,-0.00000034,0.00000373,-0.00000214,0.00000155,0.00000159,-0.0
 0000249,-0.00000068,0.00000089,-0.00000055,-0.00000039,-0.00000042,-0.
 00000051,0.00000006,0.00000073,-0.00000120,0.00000024,-0.00000157,0.00
 000169,0.00000045,-0.00000159,0.00000160,-0.00000079,0.00000141,-0.000
 00006,-0.00000063,0.00000183,-0.00000142,0.00000022,0.00000117,0.00000
 059,-0.00000090,0.00000035,0.00000067,0.00000070,0.00000091,-0.0000009
 6,0.00000073,0.00000106,-0.00000114,-0.00000048,-0.00000167,0.00000006
 ,-0.00000006,0.00000091,0.,0.00000038,0.00000068,0.00000014,0.00000020
 ,0.00000111,0.00000106,0.00000138,0.00000056,0.00000155,-0.00000157,0.
 00000050,-0.00000090,-0.00000080,0.00000087,-0.00000048,-0.00000039,0.
 00000063,-0.00000151,-0.00000092,-0.00000046,-0.00000113,0.00000135,0.
 00000003,0.00000076,0.00000038,-0.00000207,-0.00000086,0.00000101,-0.0
 0000035,-0.00000085,0.00000187,0.00000024,0.00000108,0.00000116,0.0000
 0032,0.00000133,-0.00000010,0.00000020,-0.00000113,0.00000009,0.000001
 06,-0.00000114,0.00000005,0.00000174,0.00000111,0.00000035,0.00000076,
 0.00000143,-0.00000156,0.00000012,-0.00000027,-0.00000130,-0.00000166,
 -0.00000058,0.00000050,0.00000069,0.00000256,-0.00000019,0.00000034,0.
 00000195,-0.00000081,0.00000041,-0.00000082,-0.00000053,0.00000032,-0.
 00000118,-0.00000063,0.00000048,-0.00000169,0.00000140,0.00000097,0.00
 000054,0.00000116,0.00000120,0.00000053,0.00000104,0.00000070,-0.00000
 035,0.00000074,0.00000137,-0.00000048,-0.00000074,-0.00000151,0.000001
 02,-0.00000067,-0.00000108,0.00000128,-0.00000122,-0.00000527,-0.00001
 414\\\@
 The archive entry for this job was punched.


 DEMOCRATS BUY MOST OF THE BOOKS THAT HAVE BEEN
 BANNED; REPUBLICANS FORM CENSORSHIP COMMITTEES AND
 READ THEM AS A GROUP.
 Job cpu time:       1 days 10 hours 51 minutes 13.7 seconds.
 Elapsed time:       0 days  1 hours  5 minutes 45.1 seconds.
 File lengths (MBytes):  RWF=  13265 Int=      0 D2E=      0 Chk=     78 Scr=      1
 Normal termination of Gaussian 16 at Thu Mar 27 19:38:37 2025.
