 Entering Gaussian System, Link 0=g16
 Initial command:
 /public/software/apps/Gaussian/g16/l1.exe "/tmp/Gau-51245.inp" -scrdir="/tmp/"
 Entering Link 1 = /public/software/apps/Gaussian/g16/l1.exe PID=     51246.
  
 Copyright (c) 1988-2019, Gaussian, Inc.  All Rights Reserved.
  
 This is part of the Gaussian(R) 16 program.  It is based on
 the Gaussian(R) 09 system (copyright 2009, Gaussian, Inc.),
 the Gaussian(R) 03 system (copyright 2003, Gaussian, Inc.),
 the Gaussian(R) 98 system (copyright 1998, Gaussian, Inc.),
 the Gaussian(R) 94 system (copyright 1995, Gaussian, Inc.),
 the Gaussian 92(TM) system (copyright 1992, Gaussian, Inc.),
 the Gaussian 90(TM) system (copyright 1990, Gaussian, Inc.),
 the Gaussian 88(TM) system (copyright 1988, Gaussian, Inc.),
 the Gaussian 86(TM) system (copyright 1986, Carnegie Mellon
 University), and the Gaussian 82(TM) system (copyright 1983,
 Carnegie Mellon University). Gaussian is a federally registered
 trademark of Gaussian, Inc.
  
 This software contains proprietary and confidential information,
 including trade secrets, belonging to Gaussian, Inc.
  
 This software is provided under written license and may be
 used, copied, transmitted, or stored only in accord with that
 written license.
  
 The following legend is applicable only to US Government
 contracts under FAR:
  
                    RESTRICTED RIGHTS LEGEND
  
 Use, reproduction and disclosure by the US Government is
 subject to restrictions as set forth in subparagraphs (a)
 and (c) of the Commercial Computer Software - Restricted
 Rights clause in FAR 52.227-19.
  
 Gaussian, Inc.
 340 Quinnipiac St., Bldg. 40, Wallingford CT 06492
  
  
 ---------------------------------------------------------------
 Warning -- This program may not be used in any manner that
 competes with the business of Gaussian, Inc. or will provide
 assistance to any competitor of Gaussian, Inc.  The licensee
 of this program is prohibited from giving any competitor of
 Gaussian, Inc. access to this program.  By using this program,
 the user acknowledges that Gaussian, Inc. is engaged in the
 business of creating and licensing software in the field of
 computational chemistry and represents and warrants to the
 licensee that it is not a competitor of Gaussian, Inc. and that
 it will not use this program in any manner prohibited above.
 ---------------------------------------------------------------
  

 Cite this work as:
 Gaussian 16, Revision C.01,
 M. J. Frisch, G. W. Trucks, H. B. Schlegel, G. E. Scuseria, 
 M. A. Robb, J. R. Cheeseman, G. Scalmani, V. Barone, 
 G. A. Petersson, H. Nakatsuji, X. Li, M. Caricato, A. V. Marenich, 
 J. Bloino, B. G. Janesko, R. Gomperts, B. Mennucci, H. P. Hratchian, 
 J. V. Ortiz, A. F. Izmaylov, J. L. Sonnenberg, D. Williams-Young, 
 F. Ding, F. Lipparini, F. Egidi, J. Goings, B. Peng, A. Petrone, 
 T. Henderson, D. Ranasinghe, V. G. Zakrzewski, J. Gao, N. Rega, 
 G. Zheng, W. Liang, M. Hada, M. Ehara, K. Toyota, R. Fukuda, 
 J. Hasegawa, M. Ishida, T. Nakajima, Y. Honda, O. Kitao, H. Nakai, 
 T. Vreven, K. Throssell, J. A. Montgomery, Jr., J. E. Peralta, 
 F. Ogliaro, M. J. Bearpark, J. J. Heyd, E. N. Brothers, K. N. Kudin, 
 V. N. Staroverov, T. A. Keith, R. Kobayashi, J. Normand, 
 K. Raghavachari, A. P. Rendell, J. C. Burant, S. S. Iyengar, 
 J. Tomasi, M. Cossi, J. M. Millam, M. Klene, C. Adamo, R. Cammi, 
 J. W. Ochterski, R. L. Martin, K. Morokuma, O. Farkas, 
 J. B. Foresman, and D. J. Fox, Gaussian, Inc., Wallingford CT, 2019.
 
 ******************************************
 Gaussian 16:  ES64L-G16RevC.01  3-Jul-2019
                31-Mar-2025 
 ******************************************
 %nprocshared=32
 Will use up to   32 processors via shared memory.
 %mem=100GB
 ------------------------------------------
 #p opt freq b3lyp/def2svpp em=gd3bj nosymm
 ------------------------------------------
 1/18=20,19=15,26=3,38=1/1,3;
 2/9=110,12=2,15=1,17=6,18=5,40=1/2;
 3/5=43,7=202,11=2,25=1,30=1,71=1,74=-5,124=41/1,2,3;
 4//1;
 5/5=2,38=5/2;
 6/7=2,8=2,9=2,10=2,28=1/1;
 7/30=1/1,2,3,16;
 1/18=20,19=15,26=3/3(2);
 2/9=110,15=1/2;
 99//99;
 2/9=110,15=1/2;
 3/5=43,7=202,11=2,25=1,30=1,71=1,74=-5,124=41/1,2,3;
 4/5=5,16=3,69=1/1;
 5/5=2,38=5/2;
 7/30=1/1,2,3,16;
 1/18=20,19=15,26=3/3(-5);
 2/9=110,15=1/2;
 6/7=2,8=2,9=2,10=2,19=2,28=1/1;
 99/9=1/99;
 Leave Link    1 at Mon Mar 31 10:20:36 2025, MaxMem= 13421772800 cpu:               0.9 elap:               0.0
 (Enter /public/software/apps/Gaussian/g16/l101.exe)
 ------------------
 $$$$Title####0????
 ------------------
 Symbolic Z-matrix:
 Charge =  0 Multiplicity = 2
 C                    -4.70307  -3.76519  -0.75005 
 O                    -4.56393  -2.41805  -0.36752 
 C                    -3.33005  -1.84423  -0.32644 
 C                    -2.1688   -2.55897  -0.65204 
 C                    -0.91676  -1.9453   -0.60803 
 C                    -0.80052  -0.60405  -0.22995 
 C                     0.51895   0.06453  -0.11234 
 C                     0.83104   0.73719   1.04163 
 C                     2.09394   1.3821    1.27535 
 O                     2.22396   2.03129   2.39624 
 C                     3.13852   1.21636   0.29581 
 C                     4.59255   1.43424   0.54256 
 C                     5.2418    2.71991   0.58113 
 O                     4.62188   3.86265   0.67217 
 C                     6.68001   2.76987   0.47244 
 C                     7.44313   1.64166   0.41777 
 C                     6.84468   0.3439    0.48826 
 C                     7.63448  -0.82868   0.49866 
 C                     7.05181  -2.08167   0.58795 
 C                     5.64839  -2.18764   0.68683 
 C                     4.85472  -1.05448   0.6782 
 C                     5.41816   0.24613   0.55823 
 C                     2.78286   0.61598  -0.97086 
 C                     3.70296   0.61962  -2.05507 
 C                     3.37347   0.09002  -3.28964 
 C                     2.09168  -0.45022  -3.50646 
 C                     1.16542  -0.45704  -2.47462 
 C                     1.48355   0.05172  -1.19405 
 C                    -1.9783    0.092     0.09976 
 C                    -3.25411  -0.47861   0.06254 
 C                    -4.50334   0.33456   0.42063 
 C                    -5.47782   0.39959  -0.78932 
 C                    -6.75055   1.18351  -0.42674 
 C                    -7.45214   0.50011   0.76132 
 C                    -6.51164   0.48809   1.98032 
 C                    -5.23705  -0.301     1.63558 
 C                    -6.13922   1.93081   2.35697 
 C                    -5.42851   2.59321   1.16528 
 C                    -4.16181   1.79484   0.8088 
 C                    -6.37751   2.62451  -0.04403 
 H                    -5.78069  -3.98642  -0.70893 
 H                    -4.33712  -3.9376   -1.78055 
 H                    -4.16779  -4.44426  -0.05882 
 H                    -2.22922  -3.60935  -0.93749 
 H                    -0.02414  -2.52821  -0.84876 
 H                     0.11746   0.79223   1.86677 
 H                     7.12126   3.76933   0.45206 
 H                     8.53308   1.71314   0.34352 
 H                     8.72274  -0.7271    0.43968 
 H                     7.67361  -2.98145   0.59747 
 H                     5.18218  -3.17265   0.78365 
 H                     3.77349  -1.15545   0.7841 
 H                     4.68209   1.07852  -1.91073 
 H                     4.10391   0.11558  -4.10359 
 H                     1.81824  -0.84428  -4.48953 
 H                     0.1614   -0.84416  -2.6543 
 H                    -1.87018   1.13755   0.38261 
 H                    -4.96101   0.8863   -1.6369 
 H                    -5.74437  -0.618    -1.10853 
 H                    -7.42705   1.19323  -1.30015 
 H                    -7.73226  -0.53462   0.4902 
 H                    -8.38716   1.03617   1.00899 
 H                    -7.01673  -0.00095   2.83253 
 H                    -5.49398  -1.34597   1.411 
 H                    -4.55007  -0.30944   2.50176 
 H                    -7.04534   2.50471   2.6263 
 H                    -5.47793   1.93222   3.2432 
 H                    -5.1337    3.62322   1.43363 
 H                    -3.64222   2.29472  -0.02792 
 H                    -3.47309   1.8034    1.67227 
 H                    -5.88898   3.12894  -0.89822 
 H                    -7.2861    3.20557   0.20051 
 Cu                    3.26519   3.50544   1.90626 
 
 ITRead=  0  0  0  0  0  0  0  0  0  0  0  0  0  0  0  0  0  0  0  0
 ITRead=  0  0  0  0  0  0  0  0  0  0  0  0  0  0  0  0  0  0  0  0
 ITRead=  0  0  0  0  0  0  0  0  0  0  0  0  0  0  0  0  0  0  0  0
 ITRead=  0  0  0  0  0  0  0  0  0  0  0  0  0
 MicOpt= -1 -1 -1 -1 -1 -1 -1 -1 -1 -1 -1 -1 -1 -1 -1 -1 -1 -1 -1 -1
 MicOpt= -1 -1 -1 -1 -1 -1 -1 -1 -1 -1 -1 -1 -1 -1 -1 -1 -1 -1 -1 -1
 MicOpt= -1 -1 -1 -1 -1 -1 -1 -1 -1 -1 -1 -1 -1 -1 -1 -1 -1 -1 -1 -1
 MicOpt= -1 -1 -1 -1 -1 -1 -1 -1 -1 -1 -1 -1 -1
 NAtoms=     73 NQM=       73 NQMF=       0 NMMI=      0 NMMIF=      0
                NMic=       0 NMicF=      0.
                    Isotopes and Nuclear Properties:
 (Nuclear quadrupole moments (NQMom) in fm**2, nuclear magnetic moments (NMagM)
  in nuclear magnetons)

  Atom         1           2           3           4           5           6           7           8           9          10
 IAtWgt=          12          16          12          12          12          12          12          12          12          16
 AtmWgt=  12.0000000  15.9949146  12.0000000  12.0000000  12.0000000  12.0000000  12.0000000  12.0000000  12.0000000  15.9949146
 NucSpn=           0           0           0           0           0           0           0           0           0           0
 AtZEff=  -0.0000000  -0.0000000  -0.0000000  -0.0000000  -0.0000000  -0.0000000  -0.0000000  -0.0000000  -0.0000000  -0.0000000
 NQMom=    0.0000000   0.0000000   0.0000000   0.0000000   0.0000000   0.0000000   0.0000000   0.0000000   0.0000000   0.0000000
 NMagM=    0.0000000   0.0000000   0.0000000   0.0000000   0.0000000   0.0000000   0.0000000   0.0000000   0.0000000   0.0000000
 AtZNuc=   6.0000000   8.0000000   6.0000000   6.0000000   6.0000000   6.0000000   6.0000000   6.0000000   6.0000000   8.0000000

  Atom        11          12          13          14          15          16          17          18          19          20
 IAtWgt=          12          12          12          16          12          12          12          12          12          12
 AtmWgt=  12.0000000  12.0000000  12.0000000  15.9949146  12.0000000  12.0000000  12.0000000  12.0000000  12.0000000  12.0000000
 NucSpn=           0           0           0           0           0           0           0           0           0           0
 AtZEff=  -0.0000000  -0.0000000  -0.0000000  -0.0000000  -0.0000000  -0.0000000  -0.0000000  -0.0000000  -0.0000000  -0.0000000
 NQMom=    0.0000000   0.0000000   0.0000000   0.0000000   0.0000000   0.0000000   0.0000000   0.0000000   0.0000000   0.0000000
 NMagM=    0.0000000   0.0000000   0.0000000   0.0000000   0.0000000   0.0000000   0.0000000   0.0000000   0.0000000   0.0000000
 AtZNuc=   6.0000000   6.0000000   6.0000000   8.0000000   6.0000000   6.0000000   6.0000000   6.0000000   6.0000000   6.0000000

  Atom        21          22          23          24          25          26          27          28          29          30
 IAtWgt=          12          12          12          12          12          12          12          12          12          12
 AtmWgt=  12.0000000  12.0000000  12.0000000  12.0000000  12.0000000  12.0000000  12.0000000  12.0000000  12.0000000  12.0000000
 NucSpn=           0           0           0           0           0           0           0           0           0           0
 AtZEff=  -0.0000000  -0.0000000  -0.0000000  -0.0000000  -0.0000000  -0.0000000  -0.0000000  -0.0000000  -0.0000000  -0.0000000
 NQMom=    0.0000000   0.0000000   0.0000000   0.0000000   0.0000000   0.0000000   0.0000000   0.0000000   0.0000000   0.0000000
 NMagM=    0.0000000   0.0000000   0.0000000   0.0000000   0.0000000   0.0000000   0.0000000   0.0000000   0.0000000   0.0000000
 AtZNuc=   6.0000000   6.0000000   6.0000000   6.0000000   6.0000000   6.0000000   6.0000000   6.0000000   6.0000000   6.0000000

  Atom        31          32          33          34          35          36          37          38          39          40
 IAtWgt=          12          12          12          12          12          12          12          12          12          12
 AtmWgt=  12.0000000  12.0000000  12.0000000  12.0000000  12.0000000  12.0000000  12.0000000  12.0000000  12.0000000  12.0000000
 NucSpn=           0           0           0           0           0           0           0           0           0           0
 AtZEff=  -0.0000000  -0.0000000  -0.0000000  -0.0000000  -0.0000000  -0.0000000  -0.0000000  -0.0000000  -0.0000000  -0.0000000
 NQMom=    0.0000000   0.0000000   0.0000000   0.0000000   0.0000000   0.0000000   0.0000000   0.0000000   0.0000000   0.0000000
 NMagM=    0.0000000   0.0000000   0.0000000   0.0000000   0.0000000   0.0000000   0.0000000   0.0000000   0.0000000   0.0000000
 AtZNuc=   6.0000000   6.0000000   6.0000000   6.0000000   6.0000000   6.0000000   6.0000000   6.0000000   6.0000000   6.0000000

  Atom        41          42          43          44          45          46          47          48          49          50
 IAtWgt=           1           1           1           1           1           1           1           1           1           1
 AtmWgt=   1.0078250   1.0078250   1.0078250   1.0078250   1.0078250   1.0078250   1.0078250   1.0078250   1.0078250   1.0078250
 NucSpn=           1           1           1           1           1           1           1           1           1           1
 AtZEff=  -0.0000000  -0.0000000  -0.0000000  -0.0000000  -0.0000000  -0.0000000  -0.0000000  -0.0000000  -0.0000000  -0.0000000
 NQMom=    0.0000000   0.0000000   0.0000000   0.0000000   0.0000000   0.0000000   0.0000000   0.0000000   0.0000000   0.0000000
 NMagM=    2.7928460   2.7928460   2.7928460   2.7928460   2.7928460   2.7928460   2.7928460   2.7928460   2.7928460   2.7928460
 AtZNuc=   1.0000000   1.0000000   1.0000000   1.0000000   1.0000000   1.0000000   1.0000000   1.0000000   1.0000000   1.0000000

  Atom        51          52          53          54          55          56          57          58          59          60
 IAtWgt=           1           1           1           1           1           1           1           1           1           1
 AtmWgt=   1.0078250   1.0078250   1.0078250   1.0078250   1.0078250   1.0078250   1.0078250   1.0078250   1.0078250   1.0078250
 NucSpn=           1           1           1           1           1           1           1           1           1           1
 AtZEff=  -0.0000000  -0.0000000  -0.0000000  -0.0000000  -0.0000000  -0.0000000  -0.0000000  -0.0000000  -0.0000000  -0.0000000
 NQMom=    0.0000000   0.0000000   0.0000000   0.0000000   0.0000000   0.0000000   0.0000000   0.0000000   0.0000000   0.0000000
 NMagM=    2.7928460   2.7928460   2.7928460   2.7928460   2.7928460   2.7928460   2.7928460   2.7928460   2.7928460   2.7928460
 AtZNuc=   1.0000000   1.0000000   1.0000000   1.0000000   1.0000000   1.0000000   1.0000000   1.0000000   1.0000000   1.0000000

  Atom        61          62          63          64          65          66          67          68          69          70
 IAtWgt=           1           1           1           1           1           1           1           1           1           1
 AtmWgt=   1.0078250   1.0078250   1.0078250   1.0078250   1.0078250   1.0078250   1.0078250   1.0078250   1.0078250   1.0078250
 NucSpn=           1           1           1           1           1           1           1           1           1           1
 AtZEff=  -0.0000000  -0.0000000  -0.0000000  -0.0000000  -0.0000000  -0.0000000  -0.0000000  -0.0000000  -0.0000000  -0.0000000
 NQMom=    0.0000000   0.0000000   0.0000000   0.0000000   0.0000000   0.0000000   0.0000000   0.0000000   0.0000000   0.0000000
 NMagM=    2.7928460   2.7928460   2.7928460   2.7928460   2.7928460   2.7928460   2.7928460   2.7928460   2.7928460   2.7928460
 AtZNuc=   1.0000000   1.0000000   1.0000000   1.0000000   1.0000000   1.0000000   1.0000000   1.0000000   1.0000000   1.0000000

  Atom        71          72          73
 IAtWgt=           1           1          63
 AtmWgt=   1.0078250   1.0078250  62.9295992
 NucSpn=           1           1           3
 AtZEff=  -0.0000000  -0.0000000  -0.0000000
 NQMom=    0.0000000   0.0000000 -22.0000000
 NMagM=    2.7928460   2.7928460   2.2233000
 AtZNuc=   1.0000000   1.0000000  29.0000000
 Leave Link  101 at Mon Mar 31 10:20:36 2025, MaxMem= 13421772800 cpu:              13.6 elap:               0.4
 (Enter /public/software/apps/Gaussian/g16/l103.exe)

 GradGradGradGradGradGradGradGradGradGradGradGradGradGradGradGradGradGrad
 Berny optimization.
 Initialization pass.
                           ----------------------------
                           !    Initial Parameters    !
                           ! (Angstroms and Degrees)  !
 --------------------------                            --------------------------
 ! Name  Definition              Value          Derivative Info.                !
 --------------------------------------------------------------------------------
 ! R1    R(1,2)                  1.4073         estimate D2E/DX2                !
 ! R2    R(1,41)                 1.1009         estimate D2E/DX2                !
 ! R3    R(1,42)                 1.1071         estimate D2E/DX2                !
 ! R4    R(1,43)                 1.107          estimate D2E/DX2                !
 ! R5    R(2,3)                  1.3614         estimate D2E/DX2                !
 ! R6    R(3,4)                  1.4019         estimate D2E/DX2                !
 ! R7    R(3,30)                 1.422          estimate D2E/DX2                !
 ! R8    R(4,5)                  1.395          estimate D2E/DX2                !
 ! R9    R(4,44)                 1.0902         estimate D2E/DX2                !
 ! R10   R(5,6)                  1.3984         estimate D2E/DX2                !
 ! R11   R(5,45)                 1.0929         estimate D2E/DX2                !
 ! R12   R(6,7)                  1.4839         estimate D2E/DX2                !
 ! R13   R(6,29)                 1.4073         estimate D2E/DX2                !
 ! R14   R(7,8)                  1.3717         estimate D2E/DX2                !
 ! R15   R(7,28)                 1.4494         estimate D2E/DX2                !
 ! R16   R(8,9)                  1.4372         estimate D2E/DX2                !
 ! R17   R(8,46)                 1.0923         estimate D2E/DX2                !
 ! R18   R(9,10)                 1.3018         estimate D2E/DX2                !
 ! R19   R(9,11)                 1.4416         estimate D2E/DX2                !
 ! R20   R(10,73)                1.8701         estimate D2E/DX2                !
 ! R21   R(11,12)                1.4908         estimate D2E/DX2                !
 ! R22   R(11,23)                1.4462         estimate D2E/DX2                !
 ! R23   R(12,13)                1.4408         estimate D2E/DX2                !
 ! R24   R(12,22)                1.4469         estimate D2E/DX2                !
 ! R25   R(13,14)                1.3032         estimate D2E/DX2                !
 ! R26   R(13,15)                1.4432         estimate D2E/DX2                !
 ! R27   R(14,73)                1.8685         estimate D2E/DX2                !
 ! R28   R(15,16)                1.3632         estimate D2E/DX2                !
 ! R29   R(15,47)                1.0927         estimate D2E/DX2                !
 ! R30   R(16,17)                1.4308         estimate D2E/DX2                !
 ! R31   R(16,48)                1.0948         estimate D2E/DX2                !
 ! R32   R(17,18)                1.4138         estimate D2E/DX2                !
 ! R33   R(17,22)                1.4316         estimate D2E/DX2                !
 ! R34   R(18,19)                1.3847         estimate D2E/DX2                !
 ! R35   R(18,49)                1.0946         estimate D2E/DX2                !
 ! R36   R(19,20)                1.4109         estimate D2E/DX2                !
 ! R37   R(19,50)                1.0938         estimate D2E/DX2                !
 ! R38   R(20,21)                1.3835         estimate D2E/DX2                !
 ! R39   R(20,51)                1.0941         estimate D2E/DX2                !
 ! R40   R(21,22)                1.4225         estimate D2E/DX2                !
 ! R41   R(21,52)                1.0911         estimate D2E/DX2                !
 ! R42   R(23,24)                1.422          estimate D2E/DX2                !
 ! R43   R(23,28)                1.434          estimate D2E/DX2                !
 ! R44   R(24,25)                1.3832         estimate D2E/DX2                !
 ! R45   R(24,53)                1.0909         estimate D2E/DX2                !
 ! R46   R(25,26)                1.4078         estimate D2E/DX2                !
 ! R47   R(25,54)                1.094          estimate D2E/DX2                !
 ! R48   R(26,27)                1.3866         estimate D2E/DX2                !
 ! R49   R(26,55)                1.0938         estimate D2E/DX2                !
 ! R50   R(27,28)                1.4142         estimate D2E/DX2                !
 ! R51   R(27,56)                1.091          estimate D2E/DX2                !
 ! R52   R(29,30)                1.3981         estimate D2E/DX2                !
 ! R53   R(29,57)                1.0885         estimate D2E/DX2                !
 ! R54   R(30,31)                1.533          estimate D2E/DX2                !
 ! R55   R(31,32)                1.5549         estimate D2E/DX2                !
 ! R56   R(31,36)                1.5551         estimate D2E/DX2                !
 ! R57   R(31,39)                1.5491         estimate D2E/DX2                !
 ! R58   R(32,33)                1.5381         estimate D2E/DX2                !
 ! R59   R(32,58)                1.1056         estimate D2E/DX2                !
 ! R60   R(32,59)                1.0993         estimate D2E/DX2                !
 ! R61   R(33,34)                1.5397         estimate D2E/DX2                !
 ! R62   R(33,40)                1.5369         estimate D2E/DX2                !
 ! R63   R(33,60)                1.1048         estimate D2E/DX2                !
 ! R64   R(34,35)                1.5397         estimate D2E/DX2                !
 ! R65   R(34,61)                1.1057         estimate D2E/DX2                !
 ! R66   R(34,62)                1.1059         estimate D2E/DX2                !
 ! R67   R(35,36)                1.5382         estimate D2E/DX2                !
 ! R68   R(35,37)                1.5369         estimate D2E/DX2                !
 ! R69   R(35,63)                1.1048         estimate D2E/DX2                !
 ! R70   R(36,64)                1.0993         estimate D2E/DX2                !
 ! R71   R(36,65)                1.1056         estimate D2E/DX2                !
 ! R72   R(37,38)                1.5375         estimate D2E/DX2                !
 ! R73   R(37,66)                1.1059         estimate D2E/DX2                !
 ! R74   R(37,67)                1.1058         estimate D2E/DX2                !
 ! R75   R(38,39)                1.5392         estimate D2E/DX2                !
 ! R76   R(38,40)                1.5375         estimate D2E/DX2                !
 ! R77   R(38,68)                1.1045         estimate D2E/DX2                !
 ! R78   R(39,69)                1.1045         estimate D2E/DX2                !
 ! R79   R(39,70)                1.1045         estimate D2E/DX2                !
 ! R80   R(40,71)                1.1058         estimate D2E/DX2                !
 ! R81   R(40,72)                1.1059         estimate D2E/DX2                !
 ! A1    A(2,1,41)             106.201          estimate D2E/DX2                !
 ! A2    A(2,1,42)             111.679          estimate D2E/DX2                !
 ! A3    A(2,1,43)             111.6954         estimate D2E/DX2                !
 ! A4    A(41,1,42)            109.0902         estimate D2E/DX2                !
 ! A5    A(41,1,43)            109.0708         estimate D2E/DX2                !
 ! A6    A(42,1,43)            109.0178         estimate D2E/DX2                !
 ! A7    A(1,2,3)              120.086          estimate D2E/DX2                !
 ! A8    A(2,3,4)              121.9268         estimate D2E/DX2                !
 ! A9    A(2,3,30)             117.481          estimate D2E/DX2                !
 ! A10   A(4,3,30)             120.5922         estimate D2E/DX2                !
 ! A11   A(3,4,5)              120.7856         estimate D2E/DX2                !
 ! A12   A(3,4,44)             120.4072         estimate D2E/DX2                !
 ! A13   A(5,4,44)             118.8057         estimate D2E/DX2                !
 ! A14   A(4,5,6)              120.3353         estimate D2E/DX2                !
 ! A15   A(4,5,45)             119.4354         estimate D2E/DX2                !
 ! A16   A(6,5,45)             120.2135         estimate D2E/DX2                !
 ! A17   A(5,6,7)              121.8378         estimate D2E/DX2                !
 ! A18   A(5,6,29)             117.9172         estimate D2E/DX2                !
 ! A19   A(7,6,29)             120.1844         estimate D2E/DX2                !
 ! A20   A(6,7,8)              119.3375         estimate D2E/DX2                !
 ! A21   A(6,7,28)             121.9146         estimate D2E/DX2                !
 ! A22   A(8,7,28)             118.7364         estimate D2E/DX2                !
 ! A23   A(7,8,9)              123.8348         estimate D2E/DX2                !
 ! A24   A(7,8,46)             120.7706         estimate D2E/DX2                !
 ! A25   A(9,8,46)             115.3793         estimate D2E/DX2                !
 ! A26   A(8,9,10)             116.844          estimate D2E/DX2                !
 ! A27   A(8,9,11)             118.3371         estimate D2E/DX2                !
 ! A28   A(10,9,11)            124.7511         estimate D2E/DX2                !
 ! A29   A(9,10,73)            102.8915         estimate D2E/DX2                !
 ! A30   A(9,11,12)            125.2725         estimate D2E/DX2                !
 ! A31   A(9,11,23)            117.689          estimate D2E/DX2                !
 ! A32   A(12,11,23)           116.456          estimate D2E/DX2                !
 ! A33   A(11,12,13)           125.0524         estimate D2E/DX2                !
 ! A34   A(11,12,22)           115.9967         estimate D2E/DX2                !
 ! A35   A(13,12,22)           118.3796         estimate D2E/DX2                !
 ! A36   A(12,13,14)           124.7469         estimate D2E/DX2                !
 ! A37   A(12,13,15)           118.5507         estimate D2E/DX2                !
 ! A38   A(14,13,15)           116.6756         estimate D2E/DX2                !
 ! A39   A(13,14,73)           102.9373         estimate D2E/DX2                !
 ! A40   A(13,15,16)           122.1581         estimate D2E/DX2                !
 ! A41   A(13,15,47)           115.8166         estimate D2E/DX2                !
 ! A42   A(16,15,47)           122.019          estimate D2E/DX2                !
 ! A43   A(15,16,17)           120.9671         estimate D2E/DX2                !
 ! A44   A(15,16,48)           120.3984         estimate D2E/DX2                !
 ! A45   A(17,16,48)           118.6175         estimate D2E/DX2                !
 ! A46   A(16,17,18)           121.262          estimate D2E/DX2                !
 ! A47   A(16,17,22)           118.7591         estimate D2E/DX2                !
 ! A48   A(18,17,22)           119.9776         estimate D2E/DX2                !
 ! A49   A(17,18,19)           121.0568         estimate D2E/DX2                !
 ! A50   A(17,18,49)           118.5578         estimate D2E/DX2                !
 ! A51   A(19,18,49)           120.3847         estimate D2E/DX2                !
 ! A52   A(18,19,20)           119.4089         estimate D2E/DX2                !
 ! A53   A(18,19,50)           120.3795         estimate D2E/DX2                !
 ! A54   A(20,19,50)           120.2049         estimate D2E/DX2                !
 ! A55   A(19,20,21)           120.5762         estimate D2E/DX2                !
 ! A56   A(19,20,51)           119.8479         estimate D2E/DX2                !
 ! A57   A(21,20,51)           119.5716         estimate D2E/DX2                !
 ! A58   A(20,21,22)           121.479          estimate D2E/DX2                !
 ! A59   A(20,21,52)           119.4778         estimate D2E/DX2                !
 ! A60   A(22,21,52)           119.0334         estimate D2E/DX2                !
 ! A61   A(12,22,17)           120.7964         estimate D2E/DX2                !
 ! A62   A(12,22,21)           121.7149         estimate D2E/DX2                !
 ! A63   A(17,22,21)           117.4686         estimate D2E/DX2                !
 ! A64   A(11,23,24)           120.5054         estimate D2E/DX2                !
 ! A65   A(11,23,28)           121.5008         estimate D2E/DX2                !
 ! A66   A(24,23,28)           117.9434         estimate D2E/DX2                !
 ! A67   A(23,24,25)           121.6963         estimate D2E/DX2                !
 ! A68   A(23,24,53)           118.7461         estimate D2E/DX2                !
 ! A69   A(25,24,53)           119.5351         estimate D2E/DX2                !
 ! A70   A(24,25,26)           120.0857         estimate D2E/DX2                !
 ! A71   A(24,25,54)           119.7425         estimate D2E/DX2                !
 ! A72   A(26,25,54)           120.1538         estimate D2E/DX2                !
 ! A73   A(25,26,27)           119.7022         estimate D2E/DX2                !
 ! A74   A(25,26,55)           120.2835         estimate D2E/DX2                !
 ! A75   A(27,26,55)           120.0019         estimate D2E/DX2                !
 ! A76   A(26,27,28)           121.4529         estimate D2E/DX2                !
 ! A77   A(26,27,56)           119.6003         estimate D2E/DX2                !
 ! A78   A(28,27,56)           118.9358         estimate D2E/DX2                !
 ! A79   A(7,28,23)            118.9058         estimate D2E/DX2                !
 ! A80   A(7,28,27)            121.9567         estimate D2E/DX2                !
 ! A81   A(23,28,27)           119.0988         estimate D2E/DX2                !
 ! A82   A(6,29,30)            123.7537         estimate D2E/DX2                !
 ! A83   A(6,29,57)            116.9262         estimate D2E/DX2                !
 ! A84   A(30,29,57)           119.3132         estimate D2E/DX2                !
 ! A85   A(3,30,29)            116.614          estimate D2E/DX2                !
 ! A86   A(3,30,31)            121.9921         estimate D2E/DX2                !
 ! A87   A(29,30,31)           121.3937         estimate D2E/DX2                !
 ! A88   A(30,31,32)           110.556          estimate D2E/DX2                !
 ! A89   A(30,31,36)           110.4983         estimate D2E/DX2                !
 ! A90   A(30,31,39)           112.2655         estimate D2E/DX2                !
 ! A91   A(32,31,36)           109.2289         estimate D2E/DX2                !
 ! A92   A(32,31,39)           107.0813         estimate D2E/DX2                !
 ! A93   A(36,31,39)           107.0678         estimate D2E/DX2                !
 ! A94   A(31,32,33)           110.8828         estimate D2E/DX2                !
 ! A95   A(31,32,58)           108.7837         estimate D2E/DX2                !
 ! A96   A(31,32,59)           109.8285         estimate D2E/DX2                !
 ! A97   A(33,32,58)           110.0679         estimate D2E/DX2                !
 ! A98   A(33,32,59)           109.8516         estimate D2E/DX2                !
 ! A99   A(58,32,59)           107.3522         estimate D2E/DX2                !
 ! A100  A(32,33,34)           109.4334         estimate D2E/DX2                !
 ! A101  A(32,33,40)           109.6158         estimate D2E/DX2                !
 ! A102  A(32,33,60)           108.9536         estimate D2E/DX2                !
 ! A103  A(34,33,40)           109.5483         estimate D2E/DX2                !
 ! A104  A(34,33,60)           109.5661         estimate D2E/DX2                !
 ! A105  A(40,33,60)           109.7087         estimate D2E/DX2                !
 ! A106  A(33,34,35)           109.6353         estimate D2E/DX2                !
 ! A107  A(33,34,61)           109.9735         estimate D2E/DX2                !
 ! A108  A(33,34,62)           110.0549         estimate D2E/DX2                !
 ! A109  A(35,34,61)           109.9724         estimate D2E/DX2                !
 ! A110  A(35,34,62)           110.056          estimate D2E/DX2                !
 ! A111  A(61,34,62)           107.1166         estimate D2E/DX2                !
 ! A112  A(34,35,36)           109.434          estimate D2E/DX2                !
 ! A113  A(34,35,37)           109.5554         estimate D2E/DX2                !
 ! A114  A(34,35,63)           109.5673         estimate D2E/DX2                !
 ! A115  A(36,35,37)           109.6145         estimate D2E/DX2                !
 ! A116  A(36,35,63)           108.9437         estimate D2E/DX2                !
 ! A117  A(37,35,63)           109.7107         estimate D2E/DX2                !
 ! A118  A(31,36,35)           110.8785         estimate D2E/DX2                !
 ! A119  A(31,36,64)           109.8257         estimate D2E/DX2                !
 ! A120  A(31,36,65)           108.7869         estimate D2E/DX2                !
 ! A121  A(35,36,64)           109.8619         estimate D2E/DX2                !
 ! A122  A(35,36,65)           110.0731         estimate D2E/DX2                !
 ! A123  A(64,36,65)           107.3401         estimate D2E/DX2                !
 ! A124  A(35,37,38)           109.0556         estimate D2E/DX2                !
 ! A125  A(35,37,66)           110.3833         estimate D2E/DX2                !
 ! A126  A(35,37,67)           110.0316         estimate D2E/DX2                !
 ! A127  A(38,37,66)           110.1163         estimate D2E/DX2                !
 ! A128  A(38,37,67)           110.1332         estimate D2E/DX2                !
 ! A129  A(66,37,67)           107.1071         estimate D2E/DX2                !
 ! A130  A(37,38,39)           109.6613         estimate D2E/DX2                !
 ! A131  A(37,38,40)           109.4557         estimate D2E/DX2                !
 ! A132  A(37,38,68)           109.6846         estimate D2E/DX2                !
 ! A133  A(39,38,40)           109.6553         estimate D2E/DX2                !
 ! A134  A(39,38,68)           108.6832         estimate D2E/DX2                !
 ! A135  A(40,38,68)           109.686          estimate D2E/DX2                !
 ! A136  A(31,39,38)           111.4416         estimate D2E/DX2                !
 ! A137  A(31,39,69)           109.9083         estimate D2E/DX2                !
 ! A138  A(31,39,70)           109.9173         estimate D2E/DX2                !
 ! A139  A(38,39,69)           109.1383         estimate D2E/DX2                !
 ! A140  A(38,39,70)           109.1526         estimate D2E/DX2                !
 ! A141  A(69,39,70)           107.1805         estimate D2E/DX2                !
 ! A142  A(33,40,38)           109.0613         estimate D2E/DX2                !
 ! A143  A(33,40,71)           110.0343         estimate D2E/DX2                !
 ! A144  A(33,40,72)           110.3823         estimate D2E/DX2                !
 ! A145  A(38,40,71)           110.1313         estimate D2E/DX2                !
 ! A146  A(38,40,72)           110.114          estimate D2E/DX2                !
 ! A147  A(71,40,72)           107.1038         estimate D2E/DX2                !
 ! A148  A(10,73,14)           136.7205         estimate D2E/DX2                !
 ! D1    D(41,1,2,3)          -179.7162         estimate D2E/DX2                !
 ! D2    D(42,1,2,3)           -60.8999         estimate D2E/DX2                !
 ! D3    D(43,1,2,3)            61.4818         estimate D2E/DX2                !
 ! D4    D(1,2,3,4)             -0.2517         estimate D2E/DX2                !
 ! D5    D(1,2,3,30)           179.7594         estimate D2E/DX2                !
 ! D6    D(2,3,4,5)            179.6895         estimate D2E/DX2                !
 ! D7    D(2,3,4,44)            -0.7769         estimate D2E/DX2                !
 ! D8    D(30,3,4,5)            -0.3219         estimate D2E/DX2                !
 ! D9    D(30,3,4,44)          179.2116         estimate D2E/DX2                !
 ! D10   D(2,3,30,29)          179.9416         estimate D2E/DX2                !
 ! D11   D(2,3,30,31)           -0.2236         estimate D2E/DX2                !
 ! D12   D(4,3,30,29)           -0.0474         estimate D2E/DX2                !
 ! D13   D(4,3,30,31)          179.7873         estimate D2E/DX2                !
 ! D14   D(3,4,5,6)              0.339          estimate D2E/DX2                !
 ! D15   D(3,4,5,45)           178.899          estimate D2E/DX2                !
 ! D16   D(44,4,5,6)          -179.2019         estimate D2E/DX2                !
 ! D17   D(44,4,5,45)           -0.6419         estimate D2E/DX2                !
 ! D18   D(4,5,6,7)            177.183          estimate D2E/DX2                !
 ! D19   D(4,5,6,29)             0.0135         estimate D2E/DX2                !
 ! D20   D(45,5,6,7)            -1.3657         estimate D2E/DX2                !
 ! D21   D(45,5,6,29)         -178.5353         estimate D2E/DX2                !
 ! D22   D(5,6,7,8)           -128.2283         estimate D2E/DX2                !
 ! D23   D(5,6,7,28)            53.0171         estimate D2E/DX2                !
 ! D24   D(29,6,7,8)            48.8782         estimate D2E/DX2                !
 ! D25   D(29,6,7,28)         -129.8764         estimate D2E/DX2                !
 ! D26   D(5,6,29,30)           -0.405          estimate D2E/DX2                !
 ! D27   D(5,6,29,57)         -179.4374         estimate D2E/DX2                !
 ! D28   D(7,6,29,30)         -177.6233         estimate D2E/DX2                !
 ! D29   D(7,6,29,57)            3.3444         estimate D2E/DX2                !
 ! D30   D(6,7,8,9)            177.976          estimate D2E/DX2                !
 ! D31   D(6,7,8,46)            -0.5402         estimate D2E/DX2                !
 ! D32   D(28,7,8,9)            -3.2296         estimate D2E/DX2                !
 ! D33   D(28,7,8,46)          178.2542         estimate D2E/DX2                !
 ! D34   D(6,7,28,23)         -174.5905         estimate D2E/DX2                !
 ! D35   D(6,7,28,27)            7.693          estimate D2E/DX2                !
 ! D36   D(8,7,28,23)            6.6477         estimate D2E/DX2                !
 ! D37   D(8,7,28,27)         -171.0688         estimate D2E/DX2                !
 ! D38   D(7,8,9,10)           177.1122         estimate D2E/DX2                !
 ! D39   D(7,8,9,11)            -5.7364         estimate D2E/DX2                !
 ! D40   D(46,8,9,10)           -4.2989         estimate D2E/DX2                !
 ! D41   D(46,8,9,11)          172.8526         estimate D2E/DX2                !
 ! D42   D(8,9,10,73)         -143.5528         estimate D2E/DX2                !
 ! D43   D(11,9,10,73)          39.4989         estimate D2E/DX2                !
 ! D44   D(8,9,11,12)         -160.0471         estimate D2E/DX2                !
 ! D45   D(8,9,11,23)           10.8628         estimate D2E/DX2                !
 ! D46   D(10,9,11,12)          16.8593         estimate D2E/DX2                !
 ! D47   D(10,9,11,23)        -172.2308         estimate D2E/DX2                !
 ! D48   D(9,10,73,14)         -32.5584         estimate D2E/DX2                !
 ! D49   D(9,11,12,13)         -79.1407         estimate D2E/DX2                !
 ! D50   D(9,11,12,22)         109.704          estimate D2E/DX2                !
 ! D51   D(23,11,12,13)        109.8492         estimate D2E/DX2                !
 ! D52   D(23,11,12,22)        -61.3062         estimate D2E/DX2                !
 ! D53   D(9,11,23,24)         169.7612         estimate D2E/DX2                !
 ! D54   D(9,11,23,28)          -7.6047         estimate D2E/DX2                !
 ! D55   D(12,11,23,24)        -18.5223         estimate D2E/DX2                !
 ! D56   D(12,11,23,28)        164.1118         estimate D2E/DX2                !
 ! D57   D(11,12,13,14)         14.3828         estimate D2E/DX2                !
 ! D58   D(11,12,13,15)       -163.6688         estimate D2E/DX2                !
 ! D59   D(22,12,13,14)       -174.6544         estimate D2E/DX2                !
 ! D60   D(22,12,13,15)          7.2939         estimate D2E/DX2                !
 ! D61   D(11,12,22,17)        166.063          estimate D2E/DX2                !
 ! D62   D(11,12,22,21)        -15.609          estimate D2E/DX2                !
 ! D63   D(13,12,22,17)         -5.7119         estimate D2E/DX2                !
 ! D64   D(13,12,22,21)        172.6161         estimate D2E/DX2                !
 ! D65   D(12,13,14,73)         40.6373         estimate D2E/DX2                !
 ! D66   D(15,13,14,73)       -141.2779         estimate D2E/DX2                !
 ! D67   D(12,13,15,16)         -4.1083         estimate D2E/DX2                !
 ! D68   D(12,13,15,47)        176.7941         estimate D2E/DX2                !
 ! D69   D(14,13,15,16)        177.6832         estimate D2E/DX2                !
 ! D70   D(14,13,15,47)         -1.4143         estimate D2E/DX2                !
 ! D71   D(13,14,73,10)        -31.2798         estimate D2E/DX2                !
 ! D72   D(13,15,16,17)         -1.0218         estimate D2E/DX2                !
 ! D73   D(13,15,16,48)       -179.5029         estimate D2E/DX2                !
 ! D74   D(47,15,16,17)        178.0201         estimate D2E/DX2                !
 ! D75   D(47,15,16,48)         -0.4611         estimate D2E/DX2                !
 ! D76   D(15,16,17,18)       -176.839          estimate D2E/DX2                !
 ! D77   D(15,16,17,22)          2.7359         estimate D2E/DX2                !
 ! D78   D(48,16,17,18)          1.6687         estimate D2E/DX2                !
 ! D79   D(48,16,17,22)       -178.7565         estimate D2E/DX2                !
 ! D80   D(16,17,18,19)        178.9855         estimate D2E/DX2                !
 ! D81   D(16,17,18,49)         -0.6989         estimate D2E/DX2                !
 ! D82   D(22,17,18,19)         -0.5842         estimate D2E/DX2                !
 ! D83   D(22,17,18,49)        179.7313         estimate D2E/DX2                !
 ! D84   D(16,17,22,12)          0.7098         estimate D2E/DX2                !
 ! D85   D(16,17,22,21)       -177.6871         estimate D2E/DX2                !
 ! D86   D(18,17,22,12)       -179.7097         estimate D2E/DX2                !
 ! D87   D(18,17,22,21)          1.8933         estimate D2E/DX2                !
 ! D88   D(17,18,19,20)         -0.796          estimate D2E/DX2                !
 ! D89   D(17,18,19,50)       -179.8549         estimate D2E/DX2                !
 ! D90   D(49,18,19,20)        178.8827         estimate D2E/DX2                !
 ! D91   D(49,18,19,50)         -0.1762         estimate D2E/DX2                !
 ! D92   D(18,19,20,21)          0.8124         estimate D2E/DX2                !
 ! D93   D(18,19,20,51)       -178.4305         estimate D2E/DX2                !
 ! D94   D(50,19,20,21)        179.8729         estimate D2E/DX2                !
 ! D95   D(50,19,20,51)          0.63           estimate D2E/DX2                !
 ! D96   D(19,20,21,22)          0.5746         estimate D2E/DX2                !
 ! D97   D(19,20,21,52)       -178.2761         estimate D2E/DX2                !
 ! D98   D(51,20,21,22)        179.8195         estimate D2E/DX2                !
 ! D99   D(51,20,21,52)          0.9689         estimate D2E/DX2                !
 ! D100  D(20,21,22,12)        179.7156         estimate D2E/DX2                !
 ! D101  D(20,21,22,17)         -1.9031         estimate D2E/DX2                !
 ! D102  D(52,21,22,12)         -1.4288         estimate D2E/DX2                !
 ! D103  D(52,21,22,17)        176.9525         estimate D2E/DX2                !
 ! D104  D(11,23,24,25)       -177.9407         estimate D2E/DX2                !
 ! D105  D(11,23,24,53)          0.3255         estimate D2E/DX2                !
 ! D106  D(28,23,24,25)         -0.483          estimate D2E/DX2                !
 ! D107  D(28,23,24,53)        177.7832         estimate D2E/DX2                !
 ! D108  D(11,23,28,7)          -1.1878         estimate D2E/DX2                !
 ! D109  D(11,23,28,27)        176.5949         estimate D2E/DX2                !
 ! D110  D(24,23,28,7)        -178.6188         estimate D2E/DX2                !
 ! D111  D(24,23,28,27)         -0.8361         estimate D2E/DX2                !
 ! D112  D(23,24,25,26)          1.1386         estimate D2E/DX2                !
 ! D113  D(23,24,25,54)        179.5991         estimate D2E/DX2                !
 ! D114  D(53,24,25,26)       -177.1142         estimate D2E/DX2                !
 ! D115  D(53,24,25,54)          1.3464         estimate D2E/DX2                !
 ! D116  D(24,25,26,27)         -0.4427         estimate D2E/DX2                !
 ! D117  D(24,25,26,55)        178.2749         estimate D2E/DX2                !
 ! D118  D(54,25,26,27)       -178.8969         estimate D2E/DX2                !
 ! D119  D(54,25,26,55)         -0.1793         estimate D2E/DX2                !
 ! D120  D(25,26,27,28)         -0.906          estimate D2E/DX2                !
 ! D121  D(25,26,27,56)        177.871          estimate D2E/DX2                !
 ! D122  D(55,26,27,28)       -179.6272         estimate D2E/DX2                !
 ! D123  D(55,26,27,56)         -0.8502         estimate D2E/DX2                !
 ! D124  D(26,27,28,7)         179.2538         estimate D2E/DX2                !
 ! D125  D(26,27,28,23)          1.5416         estimate D2E/DX2                !
 ! D126  D(56,27,28,7)           0.4688         estimate D2E/DX2                !
 ! D127  D(56,27,28,23)       -177.2434         estimate D2E/DX2                !
 ! D128  D(6,29,30,3)            0.4172         estimate D2E/DX2                !
 ! D129  D(6,29,30,31)        -179.4187         estimate D2E/DX2                !
 ! D130  D(57,29,30,3)         179.4277         estimate D2E/DX2                !
 ! D131  D(57,29,30,31)         -0.4081         estimate D2E/DX2                !
 ! D132  D(3,30,31,32)         -60.405          estimate D2E/DX2                !
 ! D133  D(3,30,31,36)          60.6398         estimate D2E/DX2                !
 ! D134  D(3,30,31,39)        -179.9108         estimate D2E/DX2                !
 ! D135  D(29,30,31,32)        119.422          estimate D2E/DX2                !
 ! D136  D(29,30,31,36)       -119.5332         estimate D2E/DX2                !
 ! D137  D(29,30,31,39)         -0.0839         estimate D2E/DX2                !
 ! D138  D(30,31,32,33)        178.5482         estimate D2E/DX2                !
 ! D139  D(30,31,32,58)        -60.2753         estimate D2E/DX2                !
 ! D140  D(30,31,32,59)         56.9515         estimate D2E/DX2                !
 ! D141  D(36,31,32,33)         56.7527         estimate D2E/DX2                !
 ! D142  D(36,31,32,58)        177.9291         estimate D2E/DX2                !
 ! D143  D(36,31,32,59)        -64.844          estimate D2E/DX2                !
 ! D144  D(39,31,32,33)        -58.8654         estimate D2E/DX2                !
 ! D145  D(39,31,32,58)         62.311          estimate D2E/DX2                !
 ! D146  D(39,31,32,59)        179.5378         estimate D2E/DX2                !
 ! D147  D(30,31,36,35)       -178.5786         estimate D2E/DX2                !
 ! D148  D(30,31,36,64)        -56.9736         estimate D2E/DX2                !
 ! D149  D(30,31,36,65)         60.239          estimate D2E/DX2                !
 ! D150  D(32,31,36,35)        -56.7482         estimate D2E/DX2                !
 ! D151  D(32,31,36,64)         64.8568         estimate D2E/DX2                !
 ! D152  D(32,31,36,65)       -177.9306         estimate D2E/DX2                !
 ! D153  D(39,31,36,35)         58.8786         estimate D2E/DX2                !
 ! D154  D(39,31,36,64)       -179.5164         estimate D2E/DX2                !
 ! D155  D(39,31,36,65)        -62.3038         estimate D2E/DX2                !
 ! D156  D(30,31,39,38)       -179.9638         estimate D2E/DX2                !
 ! D157  D(30,31,39,69)         58.9153         estimate D2E/DX2                !
 ! D158  D(30,31,39,70)        -58.8187         estimate D2E/DX2                !
 ! D159  D(32,31,39,38)         58.5206         estimate D2E/DX2                !
 ! D160  D(32,31,39,69)        -62.6004         estimate D2E/DX2                !
 ! D161  D(32,31,39,70)        179.6657         estimate D2E/DX2                !
 ! D162  D(36,31,39,38)        -58.5288         estimate D2E/DX2                !
 ! D163  D(36,31,39,69)       -179.6497         estimate D2E/DX2                !
 ! D164  D(36,31,39,70)         62.6163         estimate D2E/DX2                !
 ! D165  D(31,32,33,34)        -59.1347         estimate D2E/DX2                !
 ! D166  D(31,32,33,40)         61.0252         estimate D2E/DX2                !
 ! D167  D(31,32,33,60)       -178.9131         estimate D2E/DX2                !
 ! D168  D(58,32,33,34)       -179.5513         estimate D2E/DX2                !
 ! D169  D(58,32,33,40)        -59.3914         estimate D2E/DX2                !
 ! D170  D(58,32,33,60)         60.6703         estimate D2E/DX2                !
 ! D171  D(59,32,33,34)         62.4484         estimate D2E/DX2                !
 ! D172  D(59,32,33,40)       -177.3917         estimate D2E/DX2                !
 ! D173  D(59,32,33,60)        -57.33           estimate D2E/DX2                !
 ! D174  D(32,33,34,35)         60.7053         estimate D2E/DX2                !
 ! D175  D(32,33,34,61)        -60.3279         estimate D2E/DX2                !
 ! D176  D(32,33,34,62)       -178.1059         estimate D2E/DX2                !
 ! D177  D(40,33,34,35)        -59.4959         estimate D2E/DX2                !
 ! D178  D(40,33,34,61)        179.4709         estimate D2E/DX2                !
 ! D179  D(40,33,34,62)         61.6929         estimate D2E/DX2                !
 ! D180  D(60,33,34,35)       -179.8932         estimate D2E/DX2                !
 ! D181  D(60,33,34,61)         59.0735         estimate D2E/DX2                !
 ! D182  D(60,33,34,62)        -58.7044         estimate D2E/DX2                !
 ! D183  D(32,33,40,38)        -59.9869         estimate D2E/DX2                !
 ! D184  D(32,33,40,71)         60.9162         estimate D2E/DX2                !
 ! D185  D(32,33,40,72)        178.9141         estimate D2E/DX2                !
 ! D186  D(34,33,40,38)         60.1029         estimate D2E/DX2                !
 ! D187  D(34,33,40,71)       -178.9939         estimate D2E/DX2                !
 ! D188  D(34,33,40,72)        -60.9961         estimate D2E/DX2                !
 ! D189  D(60,33,40,38)       -179.5867         estimate D2E/DX2                !
 ! D190  D(60,33,40,71)        -58.6835         estimate D2E/DX2                !
 ! D191  D(60,33,40,72)         59.3143         estimate D2E/DX2                !
 ! D192  D(33,34,35,36)        -60.7038         estimate D2E/DX2                !
 ! D193  D(33,34,35,37)         59.5007         estimate D2E/DX2                !
 ! D194  D(33,34,35,63)        179.9057         estimate D2E/DX2                !
 ! D195  D(61,34,35,36)         60.3302         estimate D2E/DX2                !
 ! D196  D(61,34,35,37)       -179.4654         estimate D2E/DX2                !
 ! D197  D(61,34,35,63)        -59.0604         estimate D2E/DX2                !
 ! D198  D(62,34,35,36)        178.1081         estimate D2E/DX2                !
 ! D199  D(62,34,35,37)        -61.6875         estimate D2E/DX2                !
 ! D200  D(62,34,35,63)         58.7175         estimate D2E/DX2                !
 ! D201  D(34,35,36,31)         59.1276         estimate D2E/DX2                !
 ! D202  D(34,35,36,64)        -62.4561         estimate D2E/DX2                !
 ! D203  D(34,35,36,65)        179.549          estimate D2E/DX2                !
 ! D204  D(37,35,36,31)        -61.0406         estimate D2E/DX2                !
 ! D205  D(37,35,36,64)        177.3756         estimate D2E/DX2                !
 ! D206  D(37,35,36,65)         59.3807         estimate D2E/DX2                !
 ! D207  D(63,35,36,31)        178.9019         estimate D2E/DX2                !
 ! D208  D(63,35,36,64)         57.3182         estimate D2E/DX2                !
 ! D209  D(63,35,36,65)        -60.6767         estimate D2E/DX2                !
 ! D210  D(34,35,37,38)        -60.1047         estimate D2E/DX2                !
 ! D211  D(34,35,37,66)         60.9941         estimate D2E/DX2                !
 ! D212  D(34,35,37,67)        178.9951         estimate D2E/DX2                !
 ! D213  D(36,35,37,38)         59.9895         estimate D2E/DX2                !
 ! D214  D(36,35,37,66)       -178.9116         estimate D2E/DX2                !
 ! D215  D(36,35,37,67)        -60.9107         estimate D2E/DX2                !
 ! D216  D(63,35,37,38)        179.5777         estimate D2E/DX2                !
 ! D217  D(63,35,37,66)        -59.3234         estimate D2E/DX2                !
 ! D218  D(63,35,37,67)         58.6775         estimate D2E/DX2                !
 ! D219  D(35,37,38,39)        -59.3244         estimate D2E/DX2                !
 ! D220  D(35,37,38,40)         61.0088         estimate D2E/DX2                !
 ! D221  D(35,37,38,68)       -178.6059         estimate D2E/DX2                !
 ! D222  D(66,37,38,39)        179.414          estimate D2E/DX2                !
 ! D223  D(66,37,38,40)        -60.2528         estimate D2E/DX2                !
 ! D224  D(66,37,38,68)         60.1326         estimate D2E/DX2                !
 ! D225  D(67,37,38,39)         61.5136         estimate D2E/DX2                !
 ! D226  D(67,37,38,40)       -178.1531         estimate D2E/DX2                !
 ! D227  D(67,37,38,68)        -57.7678         estimate D2E/DX2                !
 ! D228  D(37,38,39,31)         60.11           estimate D2E/DX2                !
 ! D229  D(37,38,39,69)       -178.3208         estimate D2E/DX2                !
 ! D230  D(37,38,39,70)        -61.4801         estimate D2E/DX2                !
 ! D231  D(40,38,39,31)        -60.1018         estimate D2E/DX2                !
 ! D232  D(40,38,39,69)         61.4675         estimate D2E/DX2                !
 ! D233  D(40,38,39,70)        178.3081         estimate D2E/DX2                !
 ! D234  D(68,38,39,31)       -179.9949         estimate D2E/DX2                !
 ! D235  D(68,38,39,69)        -58.4257         estimate D2E/DX2                !
 ! D236  D(68,38,39,70)         58.4149         estimate D2E/DX2                !
 ! D237  D(37,38,40,33)        -61.0119         estimate D2E/DX2                !
 ! D238  D(37,38,40,71)        178.1443         estimate D2E/DX2                !
 ! D239  D(37,38,40,72)         60.2507         estimate D2E/DX2                !
 ! D240  D(39,38,40,33)         59.325          estimate D2E/DX2                !
 ! D241  D(39,38,40,71)        -61.5188         estimate D2E/DX2                !
 ! D242  D(39,38,40,72)       -179.4125         estimate D2E/DX2                !
 ! D243  D(68,38,40,33)        178.6036         estimate D2E/DX2                !
 ! D244  D(68,38,40,71)         57.7598         estimate D2E/DX2                !
 ! D245  D(68,38,40,72)        -60.1338         estimate D2E/DX2                !
 --------------------------------------------------------------------------------
 Trust Radius=3.00D-01 FncErr=1.00D-07 GrdErr=1.00D-06 EigMax=2.50D+02 EigMin=1.00D-04
 Number of steps in this run=    438 maximum allowed number of steps=    438.
 GradGradGradGradGradGradGradGradGradGradGradGradGradGradGradGradGradGrad

 Leave Link  103 at Mon Mar 31 10:20:36 2025, MaxMem= 13421772800 cpu:               1.2 elap:               0.0
 (Enter /public/software/apps/Gaussian/g16/l202.exe)
 Symmetry turned off by external request.
 Stoichiometry    C37H32CuO3(2)
 Framework group  C1[X(C37H32CuO3)]
 Deg. of freedom   213
 Full point group                 C1      NOp   1
                          Input orientation:                          
 ---------------------------------------------------------------------
 Center     Atomic      Atomic             Coordinates (Angstroms)
 Number     Number       Type             X           Y           Z
 ---------------------------------------------------------------------
      1          6           0       -4.703074   -3.765194   -0.750046
      2          8           0       -4.563925   -2.418054   -0.367522
      3          6           0       -3.330050   -1.844227   -0.326436
      4          6           0       -2.168803   -2.558966   -0.652039
      5          6           0       -0.916758   -1.945301   -0.608030
      6          6           0       -0.800519   -0.604054   -0.229954
      7          6           0        0.518951    0.064527   -0.112337
      8          6           0        0.831039    0.737185    1.041634
      9          6           0        2.093936    1.382102    1.275348
     10          8           0        2.223961    2.031291    2.396241
     11          6           0        3.138524    1.216363    0.295811
     12          6           0        4.592549    1.434235    0.542563
     13          6           0        5.241799    2.719910    0.581134
     14          8           0        4.621884    3.862650    0.672165
     15          6           0        6.680007    2.769874    0.472435
     16          6           0        7.443130    1.641656    0.417765
     17          6           0        6.844677    0.343900    0.488261
     18          6           0        7.634479   -0.828683    0.498660
     19          6           0        7.051809   -2.081670    0.587952
     20          6           0        5.648393   -2.187636    0.686829
     21          6           0        4.854724   -1.054476    0.678201
     22          6           0        5.418161    0.246132    0.558234
     23          6           0        2.782856    0.615979   -0.970857
     24          6           0        3.702957    0.619619   -2.055074
     25          6           0        3.373469    0.090016   -3.289635
     26          6           0        2.091677   -0.450221   -3.506460
     27          6           0        1.165415   -0.457041   -2.474616
     28          6           0        1.483546    0.051720   -1.194046
     29          6           0       -1.978304    0.092004    0.099756
     30          6           0       -3.254109   -0.478605    0.062541
     31          6           0       -4.503340    0.334558    0.420625
     32          6           0       -5.477815    0.399586   -0.789318
     33          6           0       -6.750551    1.183511   -0.426744
     34          6           0       -7.452135    0.500112    0.761318
     35          6           0       -6.511640    0.488087    1.980318
     36          6           0       -5.237046   -0.300998    1.635581
     37          6           0       -6.139219    1.930806    2.356968
     38          6           0       -5.428513    2.593205    1.165276
     39          6           0       -4.161810    1.794839    0.808797
     40          6           0       -6.377510    2.624509   -0.044029
     41          1           0       -5.780690   -3.986424   -0.708929
     42          1           0       -4.337122   -3.937595   -1.780546
     43          1           0       -4.167790   -4.444263   -0.058818
     44          1           0       -2.229217   -3.609351   -0.937487
     45          1           0       -0.024136   -2.528211   -0.848760
     46          1           0        0.117464    0.792233    1.866770
     47          1           0        7.121257    3.769328    0.452060
     48          1           0        8.533084    1.713141    0.343515
     49          1           0        8.722745   -0.727103    0.439681
     50          1           0        7.673611   -2.981447    0.597465
     51          1           0        5.182177   -3.172648    0.783645
     52          1           0        3.773494   -1.155449    0.784104
     53          1           0        4.682088    1.078523   -1.910733
     54          1           0        4.103915    0.115581   -4.103594
     55          1           0        1.818236   -0.844277   -4.489531
     56          1           0        0.161402   -0.844160   -2.654300
     57          1           0       -1.870181    1.137552    0.382612
     58          1           0       -4.961006    0.886301   -1.636898
     59          1           0       -5.744375   -0.618004   -1.108526
     60          1           0       -7.427049    1.193228   -1.300152
     61          1           0       -7.732263   -0.534622    0.490196
     62          1           0       -8.387164    1.036167    1.008988
     63          1           0       -7.016732   -0.000947    2.832533
     64          1           0       -5.493984   -1.345965    1.410999
     65          1           0       -4.550070   -0.309438    2.501757
     66          1           0       -7.045340    2.504711    2.626295
     67          1           0       -5.477929    1.932221    3.243203
     68          1           0       -5.133704    3.623219    1.433627
     69          1           0       -3.642222    2.294719   -0.027924
     70          1           0       -3.473093    1.803395    1.672267
     71          1           0       -5.888977    3.128944   -0.898224
     72          1           0       -7.286102    3.205571    0.200506
     73         29           0        3.265194    3.505439    1.906259
 ---------------------------------------------------------------------
 Rotational constants (GHZ):           0.1590384           0.0382124           0.0337639
 Leave Link  202 at Mon Mar 31 10:20:37 2025, MaxMem= 13421772800 cpu:               1.1 elap:               0.0
 (Enter /public/software/apps/Gaussian/g16/l301.exe)
 Standard basis: def2SVPP (5D, 7F)
 Ernie: Thresh=  0.10000D-02 Tol=  0.10000D-05 Strict=F.
   648 basis functions,  1199 primitive gaussians,   690 cartesian basis functions
   154 alpha electrons      153 beta electrons
       nuclear repulsion energy      5069.8367319391 Hartrees.
 IExCor=  402 DFT=T Ex+Corr=B3LYP ExCW=0 ScaHFX=  0.200000
 ScaDFX=  0.800000  0.720000  1.000000  0.810000 ScalE2=  1.000000  1.000000
 IRadAn=      5 IRanWt=     -1 IRanGd=            0 ICorTp=0 IEmpDi=141
 NAtoms=   73 NActive=   73 NUniq=   73 SFac= 1.00D+00 NAtFMM=   60 NAOKFM=T Big=T
 Integral buffers will be    131072 words long.
 Raffenetti 2 integral format.
 Two-electron integral symmetry is turned off.
 R6Disp:  Grimme-D3(BJ) Dispersion energy=       -0.1993574940 Hartrees.
 Nuclear repulsion after empirical dispersion term =     5069.6373744451 Hartrees.
 Leave Link  301 at Mon Mar 31 10:20:37 2025, MaxMem= 13421772800 cpu:               1.8 elap:               0.1
 (Enter /public/software/apps/Gaussian/g16/l302.exe)
 NPDir=0 NMtPBC=     1 NCelOv=     1 NCel=       1 NClECP=     1 NCelD=      1
         NCelK=      1 NCelE2=     1 NClLst=     1 CellRange=     0.0.
 One-electron integrals computed using PRISM.
   1 Symmetry operations used in ECPInt.
 ECPInt:  NShTT=   49455 NPrTT=  203222 LenC2=   38487 LenP2D=   97992.
 LDataN:  DoStor=T MaxTD1= 4 Len=   56
 NBasis=   648 RedAO= T EigKep=  1.95D-04  NBF=   648
 NBsUse=   648 1.00D-06 EigRej= -1.00D+00 NBFU=   648
 Precomputing XC quadrature grid using
 IXCGrd= 4 IRadAn=           5 IRanWt=          -1 IRanGd=           0 AccXCQ= 0.00D+00.
 Generated NRdTot=       0 NPtTot=           0 NUsed=           0 NTot=          32
 NSgBfM=   673   673   673   673   673 MxSgAt=    73 MxSgA2=    73.
 Leave Link  302 at Mon Mar 31 10:20:37 2025, MaxMem= 13421772800 cpu:              25.7 elap:               0.8
 (Enter /public/software/apps/Gaussian/g16/l303.exe)
 DipDrv:  MaxL=1.
 Leave Link  303 at Mon Mar 31 10:20:38 2025, MaxMem= 13421772800 cpu:               3.4 elap:               0.1
 (Enter /public/software/apps/Gaussian/g16/l401.exe)
 ExpMin= 3.30D-02 ExpMax= 7.64D+04 ExpMxC= 1.15D+04 IAcc=3 IRadAn=         5 AccDes= 0.00D+00
 Harris functional with IExCor=  402 and IRadAn=       5 diagonalized for initial guess.
 HarFok:  IExCor=  402 AccDes= 0.00D+00 IRadAn=         5 IDoV= 1 UseB2=F ITyADJ=14
 ICtDFT=  3500011 ScaDFX=  1.000000  1.000000  1.000000  1.000000
 FoFCou: FMM=F IPFlag=           0 FMFlag=      100000 FMFlg1=        2001
         NFxFlg=           0 DoJE=T BraDBF=F KetDBF=T FulRan=T
         wScrn=  0.000000 ICntrl=       500 IOpCl=  0 I1Cent=   200000004 NGrid=           0
         NMat0=    1 NMatS0=      1 NMatT0=    0 NMatD0=    1 NMtDS0=    0 NMtDT0=    0
 Symmetry not used in FoFCou.
 Harris En= -3294.33582545952    
 JPrj=0 DoOrth=F DoCkMO=F.
 Initial guess <Sx>= 0.0000 <Sy>= 0.0000 <Sz>= 0.5000 <S**2>= 0.7500 S= 0.5000
 Leave Link  401 at Mon Mar 31 10:20:40 2025, MaxMem= 13421772800 cpu:              60.1 elap:               1.9
 (Enter /public/software/apps/Gaussian/g16/l502.exe)
 Two-electron integral symmetry not used.
 UHF open shell SCF:
 Using DIIS extrapolation, IDIIS=  1040.
 NGot= 13421772800 LenX= 13420790962 LenY= 13420314172
 Requested convergence on RMS density matrix=1.00D-08 within 128 cycles.
 Requested convergence on MAX density matrix=1.00D-06.
 Requested convergence on             energy=1.00D-06.
 No special actions if energy rises.
 Fock matrices will be formed incrementally for  20 cycles.

 Cycle   1  Pass 1  IDiag  1:
 FoFJK:  IHMeth= 1 ICntrl=       0 DoSepK=F KAlg= 0 I1Cent=           0 FoldK=F
 IRaf= 920000000 NMat=       1 IRICut=       1 DoRegI=T DoRafI=F ISym2E= 0 IDoP0=0 IntGTp=1.
 FoFCou: FMM=T IPFlag=           0 FMFlag=      100000 FMFlg1=        2001
         NFxFlg=           0 DoJE=F BraDBF=F KetDBF=F FulRan=T
         wScrn=  0.000000 ICntrl=         0 IOpCl=  1 I1Cent=           0 NGrid=           0
         NMat0=    1 NMatS0=      1 NMatT0=    0 NMatD0=    1 NMtDS0=    0 NMtDT0=    0
 Symmetry not used in FoFCou.
 FMM levels:  10  Number of levels for PrismC:   9
 E= -3279.14413376656    
 DIIS: error= 3.45D-01 at cycle   1 NSaved=   1.
 NSaved= 1 IEnMin= 1 EnMin= -3279.14413376656     IErMin= 1 ErrMin= 3.45D-01
 ErrMax= 3.45D-01  0.00D+00 EMaxC= 1.00D-01 BMatC= 6.34D+01 BMatP= 6.34D+01
 IDIUse=3 WtCom= 0.00D+00 WtEn= 1.00D+00
 Coeff-Com:  0.100D+01
 Coeff-En:   0.100D+01
 Coeff:      0.100D+01
 Gap=    -0.199 Goal=   None    Shift=    0.000
 Gap=     0.127 Goal=   None    Shift=    0.000
 GapD=   -0.199 DampG=0.250 DampE=0.125 DampFc=0.1250 IDamp=-1.
 Damping current iteration by 1.25D-01
 RMSDP=5.72D-02 MaxDP=7.31D+00              OVMax= 9.85D-01

 Cycle   2  Pass 1  IDiag  1:
 RMSU=  7.14D-03    CP:  1.02D+00
 E= -3284.10266346055     Delta-E=       -4.958529693988 Rises=F Damp=T
 DIIS: error= 2.27D-01 at cycle   2 NSaved=   2.
 NSaved= 2 IEnMin= 2 EnMin= -3284.10266346055     IErMin= 2 ErrMin= 2.27D-01
 ErrMax= 2.27D-01  0.00D+00 EMaxC= 1.00D-01 BMatC= 2.36D+01 BMatP= 6.34D+01
 IDIUse=3 WtCom= 0.00D+00 WtEn= 1.00D+00
 Coeff-Com: -0.116D+01 0.216D+01
 Coeff-En:   0.000D+00 0.100D+01
 Coeff:      0.000D+00 0.100D+01
 Gap=    -0.004 Goal=   None    Shift=    0.000
 Gap=    -0.030 Goal=   None    Shift=    0.000
 RMSDP=1.30D-02 MaxDP=2.99D+00 DE=-4.96D+00 OVMax= 9.10D-01

 Cycle   3  Pass 1  IDiag  1:
 RMSU=  1.27D-02    CP:  9.32D-01  1.32D+00
 E= -3271.44140199129     Delta-E=       12.661261469260 Rises=F Damp=F
 DIIS: error= 1.54D-01 at cycle   3 NSaved=   3.
 NSaved= 3 IEnMin= 2 EnMin= -3284.10266346055     IErMin= 3 ErrMin= 1.54D-01
 ErrMax= 1.54D-01  0.00D+00 EMaxC= 1.00D-01 BMatC= 5.76D+01 BMatP= 2.36D+01
 IDIUse=2 WtCom= 0.00D+00 WtEn= 1.00D+00
 EnCoef did   100 forward-backward iterations
 Coeff-En:   0.544D+00 0.326D-01 0.423D+00
 Coeff:      0.544D+00 0.326D-01 0.423D+00
 Gap=     0.012 Goal=   None    Shift=    0.000
 Gap=     0.050 Goal=   None    Shift=    0.000
 RMSDP=1.56D-02 MaxDP=3.89D+00 DE= 1.27D+01 OVMax= 9.82D-01

 Cycle   4  Pass 1  IDiag  1:
 RMSU=  6.11D-03    CP:  8.97D-01  7.01D-02  1.10D-01
 E= -3286.69596168264     Delta-E=      -15.254559691355 Rises=F Damp=F
 DIIS: error= 1.24D-01 at cycle   4 NSaved=   4.
 NSaved= 4 IEnMin= 4 EnMin= -3286.69596168264     IErMin= 4 ErrMin= 1.24D-01
 ErrMax= 1.24D-01  0.00D+00 EMaxC= 1.00D-01 BMatC= 2.01D+01 BMatP= 2.36D+01
 IDIUse=3 WtCom= 0.00D+00 WtEn= 1.00D+00
 EnCoef did   100 forward-backward iterations
 Coeff-Com: -0.588D+00 0.124D+01 0.105D+00 0.244D+00
 Coeff-En:   0.385D+00 0.107D-01 0.200D+00 0.404D+00
 Coeff:      0.385D+00 0.107D-01 0.200D+00 0.404D+00
 Gap=    -0.556 Goal=   None    Shift=    0.000
 Gap=    -0.194 Goal=   None    Shift=    0.000
 RMSDP=1.05D-02 MaxDP=1.54D+00 DE=-1.53D+01 OVMax= 8.12D-01

 Cycle   5  Pass 1  IDiag  1:
 RMSU=  9.42D-03    CP:  8.97D-01  5.42D-02  1.78D-01  2.74D-01
 E= -3279.40329335393     Delta-E=        7.292668328717 Rises=F Damp=F
 DIIS: error= 8.82D-02 at cycle   5 NSaved=   5.
 NSaved= 5 IEnMin= 4 EnMin= -3286.69596168264     IErMin= 5 ErrMin= 8.82D-02
 ErrMax= 8.82D-02  0.00D+00 EMaxC= 1.00D-01 BMatC= 2.96D+01 BMatP= 2.01D+01
 IDIUse=2 WtCom= 0.00D+00 WtEn= 1.00D+00
 EnCoef did   100 forward-backward iterations
 Coeff-En:   0.220D+00 0.890D-03 0.000D+00 0.501D+00 0.278D+00
 Coeff:      0.220D+00 0.890D-03 0.000D+00 0.501D+00 0.278D+00
 Gap=     0.139 Goal=   None    Shift=    0.000
 Gap=     0.105 Goal=   None    Shift=    0.000
 RMSDP=9.15D-03 MaxDP=1.61D+00 DE= 7.29D+00 OVMax= 9.30D-01

 Cycle   6  Pass 1  IDiag  1:
 RMSU=  4.18D-03    CP:  8.96D-01  2.77D-02  1.58D-01  3.14D-01  1.37D-01
 E= -3292.35800751192     Delta-E=      -12.954714157995 Rises=F Damp=F
 DIIS: error= 3.01D-02 at cycle   6 NSaved=   6.
 NSaved= 6 IEnMin= 6 EnMin= -3292.35800751192     IErMin= 6 ErrMin= 3.01D-02
 ErrMax= 3.01D-02  0.00D+00 EMaxC= 1.00D-01 BMatC= 4.75D+00 BMatP= 2.01D+01
 IDIUse=3 WtCom= 6.99D-01 WtEn= 3.01D-01
 EnCoef did   100 forward-backward iterations
 Coeff-Com: -0.256D+00 0.558D+00-0.343D-01 0.167D+00 0.119D+00 0.446D+00
 Coeff-En:   0.132D+00 0.208D-02 0.000D+00 0.174D+00 0.689D-01 0.623D+00
 Coeff:     -0.139D+00 0.391D+00-0.240D-01 0.169D+00 0.104D+00 0.499D+00
 Gap=    -0.071 Goal=   None    Shift=    0.000
 Gap=     0.137 Goal=   None    Shift=    0.000
 RMSDP=5.41D-03 MaxDP=7.91D-01 DE=-1.30D+01 OVMax= 8.96D-01

 Cycle   7  Pass 1  IDiag  1:
 RMSU=  4.08D-03    CP:  9.08D-01  4.85D-02  8.27D-02  4.61D-01  1.28D-01
                    CP:  2.13D-01
 E= -3291.46051560486     Delta-E=        0.897491907064 Rises=F Damp=F
 DIIS: error= 7.45D-02 at cycle   7 NSaved=   7.
 NSaved= 7 IEnMin= 6 EnMin= -3292.35800751192     IErMin= 6 ErrMin= 3.01D-02
 ErrMax= 7.45D-02  0.00D+00 EMaxC= 1.00D-01 BMatC= 9.24D+00 BMatP= 4.75D+00
 IDIUse=2 WtCom= 0.00D+00 WtEn= 1.00D+00
 EnCoef did     5 forward-backward iterations
 Coeff-En:   0.584D-01 0.000D+00 0.000D+00 0.346D-01 0.000D+00 0.555D+00
 Coeff-En:   0.352D+00
 Coeff:      0.584D-01 0.000D+00 0.000D+00 0.346D-01 0.000D+00 0.555D+00
 Coeff:      0.352D+00
 Gap=    -0.320 Goal=   None    Shift=    0.000
 Gap=     0.193 Goal=   None    Shift=    0.000
 RMSDP=4.54D-03 MaxDP=4.70D-01 DE= 8.97D-01 OVMax= 4.62D-01

 Cycle   8  Pass 1  IDiag  1:
 RMSU=  3.35D-03    CP:  9.00D-01  6.60D-02  5.57D-02  4.86D-01  5.66D-02
                    CP:  2.29D-01  2.73D-01
 E= -3291.77666294026     Delta-E=       -0.316147335407 Rises=F Damp=F
 DIIS: error= 5.78D-02 at cycle   8 NSaved=   8.
 NSaved= 8 IEnMin= 6 EnMin= -3292.35800751192     IErMin= 6 ErrMin= 3.01D-02
 ErrMax= 5.78D-02  0.00D+00 EMaxC= 1.00D-01 BMatC= 7.88D+00 BMatP= 4.75D+00
 IDIUse=2 WtCom= 0.00D+00 WtEn= 1.00D+00
 EnCoef did     3 forward-backward iterations
 Coeff-En:   0.294D-01 0.000D+00 0.000D+00 0.000D+00 0.000D+00 0.420D+00
 Coeff-En:   0.257D+00 0.293D+00
 Coeff:      0.294D-01 0.000D+00 0.000D+00 0.000D+00 0.000D+00 0.420D+00
 Coeff:      0.257D+00 0.293D+00
 Gap=     0.204 Goal=   None    Shift=    0.000
 Gap=     0.007 Goal=   None    Shift=    0.000
 RMSDP=3.25D-03 MaxDP=2.91D-01 DE=-3.16D-01 OVMax= 6.62D-01

 Cycle   9  Pass 1  IDiag  1:
 RMSU=  2.04D-03    CP:  9.01D-01  6.70D-03  7.75D-02  3.96D-01  7.97D-02
                    CP:  3.97D-01  3.44D-01  3.17D-01
 E= -3293.70563944958     Delta-E=       -1.928976509314 Rises=F Damp=F
 DIIS: error= 5.94D-02 at cycle   9 NSaved=   9.
 NSaved= 9 IEnMin= 9 EnMin= -3293.70563944958     IErMin= 6 ErrMin= 3.01D-02
 ErrMax= 5.94D-02  0.00D+00 EMaxC= 1.00D-01 BMatC= 2.18D+00 BMatP= 4.75D+00
 IDIUse=3 WtCom= 6.99D-01 WtEn= 3.01D-01
 EnCoef did     3 forward-backward iterations
 Coeff-Com: -0.812D-01 0.108D+00 0.101D-02 0.619D-01 0.372D-01 0.230D+00
 Coeff-Com:  0.135D+00 0.935D-01 0.414D+00
 Coeff-En:   0.000D+00 0.000D+00 0.000D+00 0.000D+00 0.000D+00 0.184D+00
 Coeff-En:   0.667D-01 0.952D-01 0.654D+00
 Coeff:     -0.568D-01 0.756D-01 0.708D-03 0.433D-01 0.260D-01 0.217D+00
 Coeff:      0.114D+00 0.940D-01 0.486D+00
 Gap=     0.354 Goal=   None    Shift=    0.000
 Gap=     0.041 Goal=   None    Shift=    0.000
 RMSDP=2.07D-03 MaxDP=3.51D-01 DE=-1.93D+00 OVMax= 6.59D-01

 Cycle  10  Pass 1  IDiag  1:
 RMSU=  1.41D-03    CP:  8.91D-01 -1.02D-02  1.08D-01  4.63D-01  1.11D-01
                    CP:  4.88D-01  2.80D-01  2.98D-01  3.75D-01
 E= -3294.02448651170     Delta-E=       -0.318847062124 Rises=F Damp=F
 DIIS: error= 4.30D-02 at cycle  10 NSaved=  10.
 NSaved=10 IEnMin=10 EnMin= -3294.02448651170     IErMin= 6 ErrMin= 3.01D-02
 ErrMax= 4.30D-02  0.00D+00 EMaxC= 1.00D-01 BMatC= 9.48D-01 BMatP= 2.18D+00
 IDIUse=3 WtCom= 6.99D-01 WtEn= 3.01D-01
 Coeff-Com: -0.671D-01 0.920D-01-0.115D-02-0.172D-01-0.864D-02 0.607D-01
 Coeff-Com:  0.391D-01 0.127D-01 0.366D+00 0.524D+00
 Coeff-En:   0.000D+00 0.000D+00 0.000D+00 0.000D+00 0.000D+00 0.000D+00
 Coeff-En:   0.000D+00 0.000D+00 0.323D+00 0.677D+00
 Coeff:     -0.469D-01 0.643D-01-0.807D-03-0.120D-01-0.604D-02 0.424D-01
 Coeff:      0.273D-01 0.884D-02 0.353D+00 0.570D+00
 Gap=     0.142 Goal=   None    Shift=    0.000
 Gap=     0.035 Goal=   None    Shift=    0.000
 RMSDP=7.29D-04 MaxDP=7.10D-02 DE=-3.19D-01 OVMax= 2.12D-01

 Cycle  11  Pass 1  IDiag  1:
 RMSU=  5.96D-04    CP:  8.92D-01 -2.32D-03  1.04D-01  4.44D-01  1.01D-01
                    CP:  4.97D-01  2.82D-01  2.99D-01  5.10D-01  8.12D-01
 E= -3294.17660737897     Delta-E=       -0.152120867264 Rises=F Damp=F
 DIIS: error= 7.44D-03 at cycle  11 NSaved=  11.
 NSaved=11 IEnMin=11 EnMin= -3294.17660737897     IErMin=11 ErrMin= 7.44D-03
 ErrMax= 7.44D-03  0.00D+00 EMaxC= 1.00D-01 BMatC= 5.80D-02 BMatP= 9.48D-01
 IDIUse=3 WtCom= 9.26D-01 WtEn= 7.44D-02
 Coeff-Com: -0.156D-01 0.254D-01-0.304D-02-0.174D-01-0.137D-02-0.328D-02
 Coeff-Com: -0.373D-02 0.183D-01 0.129D+00 0.148D+00 0.723D+00
 Coeff-En:   0.000D+00 0.000D+00 0.000D+00 0.000D+00 0.000D+00 0.000D+00
 Coeff-En:   0.000D+00 0.000D+00 0.000D+00 0.000D+00 0.100D+01
 Coeff:     -0.144D-01 0.236D-01-0.282D-02-0.161D-01-0.126D-02-0.303D-02
 Coeff:     -0.345D-02 0.170D-01 0.120D+00 0.137D+00 0.744D+00
 Gap=     0.139 Goal=   None    Shift=    0.000
 Gap=     0.054 Goal=   None    Shift=    0.000
 RMSDP=3.33D-04 MaxDP=3.51D-02 DE=-1.52D-01 OVMax= 4.62D-02

 Cycle  12  Pass 1  IDiag  1:
 RMSU=  2.95D-04    CP:  8.93D-01 -7.06D-03  1.00D-01  4.39D-01  1.00D-01
                    CP:  4.85D-01  2.90D-01  3.12D-01  5.09D-01  8.11D-01
                    CP:  8.04D-01
 E= -3294.18395067022     Delta-E=       -0.007343291252 Rises=F Damp=F
 DIIS: error= 5.55D-03 at cycle  12 NSaved=  12.
 NSaved=12 IEnMin=12 EnMin= -3294.18395067022     IErMin=12 ErrMin= 5.55D-03
 ErrMax= 5.55D-03  0.00D+00 EMaxC= 1.00D-01 BMatC= 3.21D-02 BMatP= 5.80D-02
 IDIUse=3 WtCom= 9.45D-01 WtEn= 5.55D-02
 Coeff-Com: -0.267D-02 0.630D-02-0.744D-03-0.558D-02 0.228D-02-0.858D-02
 Coeff-Com: -0.303D-02 0.142D-01 0.419D-01-0.568D-01 0.454D+00 0.558D+00
 Coeff-En:   0.000D+00 0.000D+00 0.000D+00 0.000D+00 0.000D+00 0.000D+00
 Coeff-En:   0.000D+00 0.000D+00 0.000D+00 0.000D+00 0.196D+00 0.804D+00
 Coeff:     -0.252D-02 0.595D-02-0.702D-03-0.527D-02 0.215D-02-0.810D-02
 Coeff:     -0.286D-02 0.134D-01 0.395D-01-0.536D-01 0.440D+00 0.572D+00
 Gap=     0.136 Goal=   None    Shift=    0.000
 Gap=     0.055 Goal=   None    Shift=    0.000
 RMSDP=2.41D-04 MaxDP=1.80D-02 DE=-7.34D-03 OVMax= 5.07D-02

 Cycle  13  Pass 1  IDiag  1:
 RMSU=  1.73D-04    CP:  8.94D-01 -3.00D-03  9.87D-02  4.37D-01  9.77D-02
                    CP:  4.79D-01  2.90D-01  3.21D-01  5.29D-01  7.69D-01
                    CP:  1.01D+00  7.67D-01
 E= -3294.19089017393     Delta-E=       -0.006939503712 Rises=F Damp=F
 DIIS: error= 8.27D-04 at cycle  13 NSaved=  13.
 NSaved=13 IEnMin=13 EnMin= -3294.19089017393     IErMin=13 ErrMin= 8.27D-04
 ErrMax= 8.27D-04  0.00D+00 EMaxC= 1.00D-01 BMatC= 3.44D-03 BMatP= 3.21D-02
 IDIUse=3 WtCom= 9.92D-01 WtEn= 8.27D-03
 Coeff-Com: -0.458D-02 0.776D-02 0.641D-03-0.147D-02 0.195D-02-0.622D-02
 Coeff-Com:  0.152D-02 0.401D-02 0.964D-02-0.493D-01 0.112D+00 0.328D+00
 Coeff-Com:  0.597D+00
 Coeff-En:   0.000D+00 0.000D+00 0.000D+00 0.000D+00 0.000D+00 0.000D+00
 Coeff-En:   0.000D+00 0.000D+00 0.000D+00 0.000D+00 0.000D+00 0.192D-01
 Coeff-En:   0.981D+00
 Coeff:     -0.454D-02 0.769D-02 0.636D-03-0.146D-02 0.193D-02-0.617D-02
 Coeff:      0.151D-02 0.397D-02 0.956D-02-0.488D-01 0.111D+00 0.325D+00
 Coeff:      0.600D+00
 Gap=     0.138 Goal=   None    Shift=    0.000
 Gap=     0.057 Goal=   None    Shift=    0.000
 RMSDP=1.07D-04 MaxDP=6.08D-03 DE=-6.94D-03 OVMax= 2.46D-02

 Cycle  14  Pass 1  IDiag  1:
 RMSU=  8.78D-05    CP:  8.93D-01 -3.59D-03  9.88D-02  4.36D-01  9.88D-02
                    CP:  4.79D-01  2.92D-01  3.24D-01  5.23D-01  7.77D-01
                    CP:  9.78D-01  9.21D-01  8.33D-01
 E= -3294.19200202759     Delta-E=       -0.001111853664 Rises=F Damp=F
 DIIS: error= 3.99D-04 at cycle  14 NSaved=  14.
 NSaved=14 IEnMin=14 EnMin= -3294.19200202759     IErMin=14 ErrMin= 3.99D-04
 ErrMax= 3.99D-04  0.00D+00 EMaxC= 1.00D-01 BMatC= 7.10D-04 BMatP= 3.44D-03
 IDIUse=3 WtCom= 9.96D-01 WtEn= 3.99D-03
 Coeff-Com: -0.248D-02 0.427D-02 0.475D-03-0.654D-03 0.476D-03-0.224D-02
 Coeff-Com:  0.147D-02 0.984D-03-0.563D-03-0.153D-01 0.192D-02 0.897D-01
 Coeff-Com:  0.344D+00 0.578D+00
 Coeff-En:   0.000D+00 0.000D+00 0.000D+00 0.000D+00 0.000D+00 0.000D+00
 Coeff-En:   0.000D+00 0.000D+00 0.000D+00 0.000D+00 0.000D+00 0.000D+00
 Coeff-En:   0.000D+00 0.100D+01
 Coeff:     -0.247D-02 0.426D-02 0.473D-03-0.652D-03 0.474D-03-0.223D-02
 Coeff:      0.146D-02 0.980D-03-0.561D-03-0.153D-01 0.191D-02 0.894D-01
 Coeff:      0.342D+00 0.580D+00
 Gap=     0.138 Goal=   None    Shift=    0.000
 Gap=     0.058 Goal=   None    Shift=    0.000
 RMSDP=5.40D-05 MaxDP=4.30D-03 DE=-1.11D-03 OVMax= 1.39D-02

 Cycle  15  Pass 1  IDiag  1:
 RMSU=  4.20D-05    CP:  8.93D-01 -3.54D-03  9.89D-02  4.36D-01  9.88D-02
                    CP:  4.78D-01  2.92D-01  3.25D-01  5.16D-01  7.81D-01
                    CP:  9.76D-01  9.15D-01  1.00D+00  9.51D-01
 E= -3294.19227946804     Delta-E=       -0.000277440442 Rises=F Damp=F
 DIIS: error= 2.20D-04 at cycle  15 NSaved=  15.
[...]
 0.00000036,-0.00000026,-0.00000045,0.00000002,-0.00000101,-0.00000054,
 -0.00000016,0.00000104,-0.00000135,-0.00000121,0.00000106,-0.00000078,
 -0.00000145,0.00000143,0.00000013,-0.00000121,0.00000312,0.00000111,-0
 .00000008,0.00000535,-0.00000574,-0.00000897,0.00000649,-0.00002537,-0
 .00029191,0.00011763,0.00017213,-0.00017012,0.00002391,0.00017952,0.00
 008391,0.00057127,0.00083391,-0.00023228,-0.00030086,0.00039275,-0.000
 01929,-0.00003743,-0.00008909,0.00009682,0.00013122,0.00009755,-0.0000
 8117,0.00003684,0.00005419,0.00003019,-0.00005483,0.00002636,-0.000164
 88,-0.00016672,0.00042484,0.00060814,0.00111702,-0.00138071,0.00034308
 ,-0.00056630,0.00067436,-0.00092725,0.00011043,0.00067809,-0.00005072,
 -0.00047563,0.00026116,-0.09366270,-0.09440147,0.21556783,-0.00001865,
 -0.00009877,-0.00003029,0.00010480,0.00011963,0.00003811,-0.00017464,-
 0.00009920,-0.00000718,0.00000344,0.00005445,0.00000761,-0.00003779,0.
 00002242,0.00001998,0.00004404,0.00003922,0.00001840,0.00007265,0.0000
 4169,-0.00003119,-0.00002590,-0.00001457,-0.00002225,0.00010636,0.0000
 0943,-0.00003691,-0.00002999,0.00000389,0.00001875,-0.00007249,-0.0000
 1589,0.00002922,-0.00003610,-0.00003088,0.00000355,0.00002211,0.000065
 70,-0.00000141,0.00000592,-0.00005773,0.00000035,0.00001859,0.00000506
 ,-0.00000372,-0.00000013,0.00002815,-0.00000082,-0.00000847,-0.0000229
 3,0.00000086,0.00000548,0.00003012,-0.00000228,-0.00001978,-0.00001046
 ,0.00000170,0.00000886,-0.00000929,-0.00000104,-0.00000539,0.00000945,
 -0.00000115,0.00000283,-0.00001041,0.00000695,0.00000337,0.00000717,0.
 00002119,-0.00000621,-0.00000711,-0.00001515,0.00001196,0.00000975,0.0
 0001736,-0.00003521,-0.00001081,0.00000426,0.00001894,-0.00000746,-0.0
 0003206,-0.00003481,-0.00000594,0.00002379,-0.00004235,-0.00005498,-0.
 00000205,0.00009715,0.00012245,0.00009158,-0.00003709,-0.00067941,-0.0
 0007226,0.00057037,-0.00172488,-0.00016980,0.00762492,-0.00493870,-0.0
 0157187,0.00049446,-0.00045236,-0.00014450,-0.00004792,0.00010826,-0.0
 0021015,-0.00010692,-0.00006557,0.00013286,0.00048437,-0.00028021,0.00
 171167,-0.01756055,0.01069410,0.00517327,-0.00121554,-0.00097928,-0.00
 474602,-0.21953822,0.10815615,0.04790218,0.00001013,0.00000603,-0.0000
 0001,-0.00000668,0.00001188,0.00000804,-0.00000648,0.00001423,0.000001
 47,-0.00001183,0.00001390,0.00000336,-0.00000543,0.00001701,0.00000331
 ,0.00001027,-0.00000418,0.00001885,-0.00000008,-0.00000285,0.00000072,
 -0.00000411,0.00000181,0.00000089,-0.00000373,-0.00000076,0.00000013,-
 0.00000173,0.00000263,0.00000018,0.00000237,0.00000137,0.00000030,0.00
 000155,0.00000055,0.00000155,-0.00000111,-0.00000113,-0.00000252,-0.00
 000326,-0.00000034,0.00000186,0.00000112,0.00000155,0.00000238,0.00000
 042,-0.00000305,-0.00001425,0.00011079,0.00003313,-0.00002135,0.000050
 86,-0.00006592,-0.00014086,0.00037031,-0.00021469,-0.00021968,0.000679
 05,0.00058880,0.00025803,0.00021545,0.00005128,-0.00012228,0.00023927,
 0.00006286,-0.00029171,0.00002847,0.00004979,0.00000029,0.00009417,0.0
 0003159,-0.00005633,0.00002262,-0.00004033,0.00002165,0.00088731,0.000
 01902,-0.00063568,0.00024236,-0.00042532,-0.00002524,0.00034864,-0.000
 49268,0.00031669,0.00050848,-0.00017447,-0.00007244,-0.00109380,0.0010
 6285,0.00008260,-0.01040290,0.00630367,0.00279557,0.23705631,0.0000559
 2,0.00014502,0.00004170,0.00021055,-0.00023500,0.00013871,-0.00021159,
 -0.00007930,-0.00004318,0.00000604,0.00001111,0.00000117,0.00003241,0.
 00000240,-0.00001051,0.00004490,-0.00000319,-0.00003425,-0.00006744,-0
 .00004433,0.00001029,0.00003713,0.00002713,0.00001165,-0.00007155,-0.0
 0000837,0.00001600,0.00001389,0.00000496,0.00000173,0.00004344,0.00000
 927,-0.00001676,0.00001935,0.00001617,-0.00000066,-0.00001161,-0.00003
 651,0.00000146,-0.00000434,0.00003374,-0.00000097,-0.00001094,-0.00000
 228,0.00000209,0.,-0.00001595,0.00000043,0.00000461,0.00001249,-0.0000
 0061,-0.00000291,-0.00001629,0.00000137,0.00001063,0.00000566,-0.00000
 078,-0.00000463,0.00000468,0.00000082,0.00000280,-0.00000459,0.0000009
 4,-0.00000112,0.00000519,-0.00000453,-0.00000272,-0.00000542,-0.000013
 69,0.00000510,0.00000556,0.00001026,-0.00000814,-0.00000609,-0.0000103
 9,0.00002283,0.00000754,-0.00000313,-0.00001676,0.00000436,0.00001803,
 0.00002918,0.00000357,-0.00001343,-0.00003147,-0.00003715,0.00001645,0
 .00000664,0.00020242,0.00014944,-0.00051567,0.00022706,-0.00041998,-0.
 00378696,-0.00555972,-0.00127230,0.02628599,-0.01637589,-0.00649721,0.
 00176233,0.00120698,-0.00066744,-0.00017947,-0.00023619,0.00013615,0.0
 0009223,0.00013390,-0.00018274,0.00044036,-0.00002340,-0.00044213,-0.0
 0055042,-0.00019102,0.00053600,-0.00059808,0.00094387,0.00021895,0.105
 75059,-0.11565439,-0.02795028,-0.00001028,0.00000401,-0.00000998,-0.00
 000274,-0.00000855,-0.00000812,0.00001042,-0.00004040,0.00000132,-0.00
 000116,-0.00000301,-0.00000379,0.00000684,-0.00000424,0.00000019,-0.00
 000136,-0.00000340,-0.00000729,0.00000003,0.00000156,-0.00000043,0.000
 00223,-0.00000094,-0.00000052,0.00000204,0.00000043,-0.00000011,0.0000
 0088,-0.00000143,-0.00000022,-0.00000139,-0.00000061,-0.00000044,-0.00
 000094,-0.00000067,-0.00000115,0.00000090,0.00000069,0.00000139,0.0000
 0217,0.00000013,-0.00000094,-0.00000100,-0.00000128,-0.00000057,-0.000
 00060,0.00000063,0.00001058,0.00000252,0.00000047,0.00000636,-0.000080
 30,0.00027655,-0.00007605,0.00166031,-0.00078619,-0.00041019,-0.000242
 18,0.00117308,-0.00011055,-0.00033876,0.00045979,-0.00022012,-0.000922
 69,-0.00006803,0.00061741,0.00001870,-0.00000856,0.00007175,-0.0000254
 0,0.00003904,-0.00001663,-0.00008022,-0.00000558,0.00009478,-0.0001874
 6,0.00003135,0.00043222,-0.00020771,0.00011999,0.00003284,-0.00009752,
 0.00050816,0.00050580,0.00025789,-0.00002987,-0.00022464,-0.00000124,0
 .00021754,-0.00019663,-0.01174569,0.00824480,0.00217869,-0.11681424,0.
 12541582,0.00002466,0.00005933,0.00001431,0.00018666,-0.00009079,0.000
 06357,-0.00019014,-0.00009344,-0.00002060,0.00001217,0.00003227,0.0000
 0311,0.00000179,0.00001219,-0.00000703,0.00005805,0.00003033,-0.000001
 47,-0.00002577,-0.00001754,-0.00000026,0.00002017,0.00001438,-0.000001
 12,-0.00002189,-0.00000198,0.00000314,0.00000010,0.00000458,0.00000598
 ,0.00001051,0.00000079,-0.00000519,0.00000545,0.00000461,0.00000089,-0
 .00000315,-0.00001014,0.00000043,-0.00000130,0.00001038,0.00000011,-0.
 00000347,-0.00000055,0.00000054,-0.00000025,-0.00000478,0.00000015,0.0
 0000124,0.00000362,-0.00000023,-0.00000084,-0.00000455,0.00000040,0.00
 000293,0.00000176,-0.00000022,-0.00000142,0.00000105,0.00000036,0.0000
 0095,-0.00000107,0.00000049,-0.00000033,0.00000089,-0.00000146,-0.0000
 0219,-0.00000128,-0.00000291,0.00000255,0.00000222,0.00000365,-0.00000
 396,-0.00000224,-0.00000183,0.00000822,0.00000172,-0.00000017,-0.00000
 913,-0.00000120,0.00000650,0.00001061,-0.00000072,-0.00000570,-0.00007
 016,-0.00007210,0.00002235,0.00004439,0.00018708,0.00018285,-0.0000892
 4,-0.00044917,-0.00034559,-0.00111365,-0.00216367,-0.00019951,0.007881
 14,-0.00423024,-0.00296402,-0.00019115,0.00093358,0.00024584,0.0000221
 9,-0.00007140,-0.00014775,-0.00000022,-0.00005172,0.00002145,-0.001054
 21,0.00045613,0.00143619,-0.02182689,0.01492126,0.00556344,-0.00238470
 ,-0.00018899,-0.00455731,0.05016742,-0.03000821,-0.06246334,-0.0000023
 1,0.00000771,-0.00000269,-0.00000156,-0.00000257,-0.00000461,0.0000044
 5,-0.00001732,0.00000270,-0.00000596,0.00000333,-0.00000045,0.00000311
 ,0.00000532,0.00000231,0.00000449,-0.00000504,0.00000300,-0.00000005,0
 .00000046,-0.00000014,0.00000067,-0.00000030,-0.00000015,0.00000061,0.
 00000015,-0.00000003,0.00000015,-0.00000040,-0.00000008,-0.00000041,0.
 ,-0.00000018,-0.00000008,-0.00000051,-0.00000044,0.00000010,0.00000040
 ,0.00000048,0.00000058,0.00000030,-0.00000024,-0.00000122,0.00000043,0
 .00000096,-0.00000020,0.00000241,0.00000203,0.00006379,0.00004081,-0.0
 0002438,-0.00048704,0.00017987,0.00036012,0.00051799,-0.00052474,0.000
 23373,0.00028230,0.00025527,0.00000023,-0.00010791,0.00000094,-0.00009
 146,-0.00016071,0.00016649,0.00033055,0.00002877,0.00004396,0.00002224
 ,0.00004720,0.00002315,-0.00005392,0.00000434,-0.00003044,0.00008152,0
 .00029375,-0.00013165,-0.00038131,0.00009709,-0.00032312,0.00026717,0.
 00066812,-0.00022658,0.00097617,-0.00011518,-0.00015207,0.00014968,-0.
 00135442,0.00073986,0.00040921,0.01879795,-0.01287802,-0.00460102,-0.0
 5004719,0.03361216,0.06547142,-0.00000802,-0.00009714,-0.00002678,0.00
 010427,0.00012524,0.00003094,-0.00009245,-0.00005709,-0.00001547,0.000
 02889,0.00003900,-0.00000336,0.00001518,-0.00004951,-0.00001993,0.0000
 2515,0.00000778,0.00010255,0.00016040,-0.00086775,-0.00211419,0.001925
 58,0.00155655,0.00115945,-0.00605058,-0.01740650,-0.01810830,-0.042268
 06,-0.04781164,0.02634140,0.00180000,-0.00098227,0.00305724,-0.0019245
 6,-0.00309901,0.00357613,-0.02673474,0.02707044,0.01310322,-0.05856677
 ,-0.03055977,0.05372997,0.00289810,-0.00128210,-0.00138326,-0.00064695
 ,0.00264157,0.00000811,0.00006155,-0.00198231,-0.00012561,-0.00046168,
 0.00186263,-0.00000599,-0.00094014,-0.00112769,0.00013559,0.00066695,-
 0.00053660,-0.00004648,0.00018909,0.00012971,-0.00004545,-0.00139814,0
 .00083891,-0.00059622,-0.00086162,-0.00100375,-0.00001076,0.00018906,0
 .00014791,-0.00018023,0.00027538,0.00031592,0.00050331,-0.00086336,-0.
 00018410,0.00056017,0.00011101,-0.00037530,-0.00128734,-0.00053128,0.0
 0037052,0.00126846,0.00002096,-0.00007893,0.00000664,-0.00001493,0.000
 05903,0.00001156,0.00001227,-0.00002186,-0.00000394,-0.00000448,0.0000
 1582,-0.00000840,-0.00000612,-0.00000743,-0.00000081,-0.00000868,0.000
 00030,-0.00000036,-0.00000609,-0.00000871,0.00000138,-0.00000504,0.000
 00674,0.00000801,-0.00000791,-0.00000132,0.00000221,-0.00001597,-0.000
 00909,0.00000334,-0.00003688,-0.00000139,-0.00001599,-0.00000398,0.000
 00250,-0.00000946,0.00000827,0.00000357,0.00000022,-0.00000660,0.00000
 924,0.00000867,-0.00000776,0.00001189,-0.00000130,0.00000770,0.0000114
 5,0.00000416,-0.00000441,0.00001345,0.00001338,-0.00012265,-0.00002834
 ,0.00001755,-0.00017064,-0.00006742,0.00002136,0.00009041,-0.00004413,
 0.00018846,0.00002230,0.00002497,0.00000170,-0.00001201,-0.00003676,0.
 00001025,0.00002002,-0.00005855,-0.00002216,-0.00001144,-0.00008117,0.
 00010811,-0.00003381,-0.00004242,0.00011911,0.00000806,0.00002052,0.00
 003323,-0.00002588,0.00000351,0.00000588,-0.00000386,0.00001005,-0.000
 03671,-0.00004358,0.00001346,0.00000350,-0.00000042,-0.00000388,-0.000
 00588,0.00001043,0.00000747,0.00000695,0.00001151,0.00000331,0.0000098
 1,0.00000193,0.00001166,0.00000394,0.00000684,-0.00000692,-0.00000221,
 0.00000922,0.00000810,-0.00000819,0.00000954,0.00000998,-0.00000173,0.
 00000187,-0.00000777,0.00000668,0.00001415,-0.00000165,-0.00000402,0.0
 0000052,-0.00000247,0.00001225,-0.00000586,0.00002379,0.00000492,-0.00
 000013,0.00000382,-0.00003395,0.00000737,-0.00001840,0.00004047,-0.000
 00219,0.00000289,-0.00000586,0.00001474,-0.00000311,0.00000160,0.13318
 096,-0.00001845,-0.00010734,-0.00003125,0.00029365,0.00016121,0.000026
 87,-0.00023170,-0.00006015,-0.00000074,0.00011199,-0.00003030,-0.00006
 833,-0.00003304,-0.00005488,0.00003795,0.00010575,-0.00047290,0.000311
 62,0.00057305,-0.00069336,-0.00224825,0.00086071,0.00528264,0.00141972
 ,-0.01294947,-0.03426572,-0.02765521,-0.04376388,-0.06424917,0.0400903
 6,-0.00761377,-0.00495321,0.00421679,0.00530296,-0.00025558,0.00048631
 ,0.00899793,0.00038348,-0.00874544,-0.02345833,-0.00746963,0.02376393,
 0.00186993,-0.00070098,-0.00018412,-0.00010114,0.00063899,0.00012564,-
 0.00031082,-0.00016877,0.00001300,-0.00000914,-0.00009784,-0.00012133,
 -0.00003249,0.00010482,0.00001224,0.00010321,-0.00005923,-0.00004047,-
 0.00000011,0.00023936,-0.00008850,0.00010972,-0.00167589,0.00201933,-0
 .00100042,0.00153173,-0.00260803,-0.00005056,-0.00017490,-0.00002315,0
 .00064147,0.00022309,0.00072414,-0.00132448,-0.00022942,0.00095291,0.0
 0047578,-0.00070823,-0.00197138,-0.00061100,0.00074600,0.00208267,0.00
 008324,0.00009160,0.00007043,-0.00004732,0.00005807,-0.00001495,-0.000
 02892,0.00006357,0.00002675,0.00001229,-0.00002392,-0.00003863,-0.0000
 0909,0.00001926,0.00001916,0.00000072,-0.00001250,-0.00000575,-0.00001
 161,0.00002605,0.00000056,0.00000902,-0.00004029,0.00000073,0.00001080
 ,-0.00000522,0.00000390,-0.00000635,0.00004485,0.00001901,0.00002222,-
 0.00000418,-0.00002453,0.00001365,0.00000006,-0.00001615,0.00001470,0.
 00000772,0.00000068,-0.00001055,0.00001281,0.00000626,-0.00001187,0.00
 001100,0.00000441,0.00000287,0.00001332,-0.00000435,-0.00000125,-0.000
 02834,0.00000914,-0.00034310,0.00000215,0.00000466,-0.00011349,0.00000
 266,0.00005071,-0.00002091,-0.00001100,-0.00001520,-0.00004785,0.00001
 466,-0.00001284,-0.00001700,0.00002767,-0.00000321,0.00001060,0.000026
 68,0.00000576,-0.00001526,-0.00000730,-0.00007510,0.00005592,0.0000053
 4,-0.00002451,-0.00002634,0.00007873,0.00002255,-0.00002696,0.00005549
 ,0.00001757,0.00003798,0.00002634,0.00002224,-0.00006184,0.00003996,0.
 00000228,-0.00000395,0.00000343,0.00000180,-0.00001441,0.00000269,-0.0
 0000792,0.00001443,-0.00001006,0.00000100,-0.00000788,-0.00000608,-0.0
 0000064,0.00001534,-0.00000647,-0.00000199,0.00001128,-0.00000806,-0.0
 0000689,-0.00001237,-0.00000422,0.00001152,-0.00000062,0.00000417,0.00
 001048,0.00001623,-0.00000983,-0.00000359,-0.00000702,0.00000724,-0.00
 000018,0.00000624,-0.00003804,-0.00001195,-0.00000317,0.00001171,0.000
 00700,-0.00000477,0.00001558,0.00001432,-0.00000732,0.00000187,0.00000
 966,0.00001583,-0.00000928,-0.00000267,0.07257055,0.10666629,-0.000009
 25,-0.00007438,-0.00001162,0.00017247,0.00011063,0.00000377,-0.0001301
 6,-0.00005158,0.00000531,0.00002961,-0.00000316,0.00001845,0.00008563,
 0.00002783,-0.00002195,-0.00021069,0.00002039,-0.00015027,-0.00031870,
 0.00019810,0.00052478,-0.00104832,-0.00237668,-0.00121351,-0.00469158,
 -0.00820377,0.00381843,0.01809846,0.03341730,-0.01486205,-0.00267928,0
 .00023145,-0.00168285,0.00648039,0.00383381,-0.00350159,0.02039976,-0.
 02280718,-0.00902751,0.04553487,0.02582715,-0.05716998,-0.00314652,0.0
 0258030,0.00383203,0.00006812,-0.00175639,-0.00015853,-0.00009170,0.00
 160533,0.00010578,0.00023479,-0.00136771,-0.00007255,0.00063945,0.0008
 4921,-0.00007987,-0.00056596,0.00029392,-0.00015908,0.00003468,0.00003
 027,-0.00014103,0.00067405,-0.00077908,0.00188534,0.00007997,0.0006388
 2,-0.00181860,-0.00004494,-0.00002283,0.00010047,-0.00006975,0.0000135
 3,-0.00002203,-0.00008861,0.00000330,0.00007962,0.00009892,-0.00008616
 ,-0.00013136,0.00031206,0.00010083,-0.00008502,0.00005380,0.00002634,0
 .00000895,-0.00001677,0.00002806,-0.00000375,-0.00001556,0.00003347,0.
 00000398,0.00000445,-0.00001910,-0.00001070,-0.00000705,0.00000845,0.0
 0000708,-0.00000105,-0.00000799,0.00000355,-0.00000820,0.00001417,-0.0
 0000707,0.00001764,-0.00002099,0.00002702,0.00001736,-0.00000558,0.000
 02335,-0.00001181,0.00001861,0.00000146,0.00001540,-0.00001358,0.00003
 356,0.00000163,-0.00000342,0.00000323,0.00001022,0.00000422,0.00000104
 ,-0.00000694,0.00000739,0.,-0.00000837,0.00001047,0.00000166,0.0000101
 3,0.00000957,0.00000974,-0.00000580,-0.00002947,-0.00000557,0.00012379
 ,0.00012585,0.00002825,0.00032128,0.00007198,0.00005078,-0.00020520,0.
 00013320,-0.00045342,-0.00003656,-0.00000909,-0.00001143,0.00000063,0.
 00002486,0.00003110,-0.00000265,0.00003634,0.00005112,-0.00003639,-0.0
 0002931,0.00002785,0.00004225,-0.00010003,0.00002986,-0.00000542,-0.00
 000219,0.00001114,0.00000866,-0.00000382,0.00002272,0.00002108,-0.0000
 0419,0.00004209,-0.00003712,0.00000481,0.00002161,0.00000104,0.0000064
 2,-0.00001043,-0.00000630,0.00000236,-0.00000397,0.00000664,-0.0000047
 0,-0.00000157,-0.00000407,-0.00000002,-0.00000238,0.00000888,-0.000004
 04,-0.00000408,0.00001365,0.00000084,-0.00000963,-0.00000461,0.0000022
 7,0.00000428,-0.00000813,0.00000038,-0.00000545,0.00001189,-0.00000435
 ,-0.00000547,-0.00001113,0.00000525,-0.00001089,0.00000247,-0.00001421
 ,0.00000214,-0.00000138,0.00001226,-0.00002507,-0.00000765,0.00000439,
 0.00000429,-0.00000104,0.00000549,-0.00000922,0.00001009,-0.00000581,-
 0.00000242,-0.08010157,-0.03256882,0.08006612\\-0.00000002,0.00000156,
 -0.00000053,-0.00000083,-0.00000028,-0.00000205,-0.00000107,0.00000175
 ,-0.00000111,0.00000222,-0.00000018,-0.00000027,0.00000117,-0.00000205
 ,-0.00000287,-0.00000010,0.00000490,-0.00000085,-0.00000033,-0.0000025
 8,0.00000185,0.00000185,0.00000336,0.00001022,0.00000363,0.00000040,-0
 .00001659,-0.00000358,-0.00000075,0.00001051,-0.00000124,0.00000752,0.
 00001518,-0.00000261,0.00000974,-0.00000328,-0.00000721,-0.00001046,0.
 00000429,0.00000431,-0.00000361,-0.00000023,-0.00000219,0.00001137,0.0
 0000175,0.00000096,-0.00000171,-0.00000120,0.00000480,-0.00000154,0.00
 000119,-0.00000265,-0.00000015,-0.00000078,-0.00000221,0.00000271,-0.0
 0000147,-0.00000007,0.00000157,-0.00000117,0.00000349,-0.00000615,0.00
 000309,-0.00000703,-0.00000109,-0.00000119,0.00000356,-0.00000667,-0.0
 0000650,-0.00000465,0.00000338,-0.00000775,0.00000075,0.00000120,0.000
 00457,-0.00000207,0.00000249,0.00000195,0.00000229,-0.00000052,0.00000
 035,0.00000144,0.00000226,-0.00000551,-0.00000048,-0.00000022,0.000000
 71,0.00000013,-0.00000044,-0.00000069,-0.00000040,0.00000020,-0.000001
 23,0.00000219,-0.00000005,0.00000250,-0.00000070,0.00000047,0.00000082
 ,0.00000056,-0.00000105,-0.00000006,-0.00000075,-0.00000090,0.00000173
 ,-0.00000062,0.,-0.00000068,0.00000022,-0.00000111,0.00000065,-0.00000
 215,-0.00000019,0.00000145,0.00000239,-0.00000266,-0.00000016,-0.00000
 038,-0.00000017,0.00000109,0.00000002,-0.00000015,-0.00000153,0.000000
 27,0.00000040,-0.00000168,0.00000003,-0.00000025,-0.00000197,-0.000000
 60,0.00000038,-0.00000148,-0.00000061,0.00000001,-0.00000117,0.0000026
 2,0.00000081,-0.00000275,0.00000008,-0.00000324,0.00000144,0.00000084,
 0.00000073,0.00000161,0.00000057,-0.00000136,0.00000015,0.00000171,0.0
 0000032,-0.00000123,0.00000069,-0.00000004,-0.00000165,0.00000354,0.00
 000060,-0.00000038,-0.00000135,0.00000018,0.00000109,-0.00000006,0.000
 00218,-0.00000072,-0.00000123,0.00000120,-0.00000032,-0.00000095,0.000
 00059,-0.00000136,0.00000005,0.00000082,0.,-0.00000055,0.00000039,-0.0
 0000016,0.00000063,-0.00000099,-0.00000054,0.00000012,0.00000032,0.000
 00025,-0.00000008,-0.00000028,-0.00000023,-0.00000047,-0.00000031,0.00
 000037,0.00000020,-0.00000130,-0.00000012,0.00000045,-0.00000029,-0.00
 000023,-0.00000040,-0.00000133,0.00000066,0.00000066,-0.00000157,0.000
 00045,0.00000012,-0.00000129,0.00000088,0.00000002,-0.00000029,0.00000
 128,-0.00000032,-0.00000045,0.00000084,0.00000008,-0.00000113,0.000000
 25,0.00000005,0.00000030,0.00000108,0.00000008,-0.00000041,0.00000114,
 0.00000116,-0.00000488,-0.00000169\\\@
 The archive entry for this job was punched.


 I WOULD TAKE COUNSEL OF MYSELF.
 I WOULD STOP AND LOOK WITHIN
 AND LOOKING WITHIN, LOOK BACK, ALSO
 THAT I MAY LOOK AHEAD WITH CLEARER UNDERSTANDING
 OF THE WAY I HAVE BEEN MOVING, AND IN WHAT DIRECTION.
 I NEED TO KNOW IF I AM GOING FORWARD OR RETREATING,
 WHETHER I HAVE BEEN WASTING, OR ENJOYING
 THE PRECIOUS MOMENTS OF LIFE.  THERE HAVE BEEN FRICTIONS,
 ANNOYANCES AND SOMETIMES WRATH,
 BUT WERE THEY BECAUSE I WAS RIGHT AND OTHERS WRONG.....
 HAVE I HAD MY THOUGHTS TOO SHARPLY FOCUSED
 ON THAT WHICH PLEASED ME, SERVED MY SELF-ESTEEM,
 UNDERGIRDED MY SECURITY,
 OF WHICH I DID NOT INQUIRE WHETHER IT SERVED OR HAMPERED OTHERS.....
 HAVE I BEEN TRYING TO STOP THE CLOCK
 TO HOLD THE WORLD
 IN PERPETUATION OF WHAT WAS AN IS ALREADY SLIPPING AWAY.....
 HAVE I BEEN CRITICAL OF OTHERS FOR WHAT REALLY NEEDED CHANGING IN ME...
 LET ME INDEED TAKE COUNSEL OF MYSELF
 AND SET MY DIRECTIONS STRAIGHT.

                          R.T. WESTON AS ADAPTED BY D. OSBORN 1967
 Job cpu time:       1 days  1 hours 21 minutes  4.9 seconds.
 Elapsed time:       0 days  0 hours 47 minutes 44.4 seconds.
 File lengths (MBytes):  RWF=   6807 Int=      0 D2E=      0 Chk=     51 Scr=      1
 Normal termination of Gaussian 16 at Mon Mar 31 11:16:23 2025.
