 Entering Gaussian System, Link 0=g16
 Initial command:
 /public/software/apps/Gaussian/g16/l1.exe "/tmp/Gau-34803.inp" -scrdir="/tmp/"
 Entering Link 1 = /public/software/apps/Gaussian/g16/l1.exe PID=     34835.
  
 Copyright (c) 1988-2019, Gaussian, Inc.  All Rights Reserved.
  
 This is part of the Gaussian(R) 16 program.  It is based on
 the Gaussian(R) 09 system (copyright 2009, Gaussian, Inc.),
 the Gaussian(R) 03 system (copyright 2003, Gaussian, Inc.),
 the Gaussian(R) 98 system (copyright 1998, Gaussian, Inc.),
 the Gaussian(R) 94 system (copyright 1995, Gaussian, Inc.),
 the Gaussian 92(TM) system (copyright 1992, Gaussian, Inc.),
 the Gaussian 90(TM) system (copyright 1990, Gaussian, Inc.),
 the Gaussian 88(TM) system (copyright 1988, Gaussian, Inc.),
 the Gaussian 86(TM) system (copyright 1986, Carnegie Mellon
 University), and the Gaussian 82(TM) system (copyright 1983,
 Carnegie Mellon University). Gaussian is a federally registered
 trademark of Gaussian, Inc.
  
 This software contains proprietary and confidential information,
 including trade secrets, belonging to Gaussian, Inc.
  
 This software is provided under written license and may be
 used, copied, transmitted, or stored only in accord with that
 written license.
  
 The following legend is applicable only to US Government
 contracts under FAR:
  
                    RESTRICTED RIGHTS LEGEND
  
 Use, reproduction and disclosure by the US Government is
 subject to restrictions as set forth in subparagraphs (a)
 and (c) of the Commercial Computer Software - Restricted
 Rights clause in FAR 52.227-19.
  
 Gaussian, Inc.
 340 Quinnipiac St., Bldg. 40, Wallingford CT 06492
  
  
 ---------------------------------------------------------------
 Warning -- This program may not be used in any manner that
 competes with the business of Gaussian, Inc. or will provide
 assistance to any competitor of Gaussian, Inc.  The licensee
 of this program is prohibited from giving any competitor of
 Gaussian, Inc. access to this program.  By using this program,
 the user acknowledges that Gaussian, Inc. is engaged in the
 business of creating and licensing software in the field of
 computational chemistry and represents and warrants to the
 licensee that it is not a competitor of Gaussian, Inc. and that
 it will not use this program in any manner prohibited above.
 ---------------------------------------------------------------
  

 Cite this work as:
 Gaussian 16, Revision C.01,
 M. J. Frisch, G. W. Trucks, H. B. Schlegel, G. E. Scuseria, 
 M. A. Robb, J. R. Cheeseman, G. Scalmani, V. Barone, 
 G. A. Petersson, H. Nakatsuji, X. Li, M. Caricato, A. V. Marenich, 
 J. Bloino, B. G. Janesko, R. Gomperts, B. Mennucci, H. P. Hratchian, 
 J. V. Ortiz, A. F. Izmaylov, J. L. Sonnenberg, D. Williams-Young, 
 F. Ding, F. Lipparini, F. Egidi, J. Goings, B. Peng, A. Petrone, 
 T. Henderson, D. Ranasinghe, V. G. Zakrzewski, J. Gao, N. Rega, 
 G. Zheng, W. Liang, M. Hada, M. Ehara, K. Toyota, R. Fukuda, 
 J. Hasegawa, M. Ishida, T. Nakajima, Y. Honda, O. Kitao, H. Nakai, 
 T. Vreven, K. Throssell, J. A. Montgomery, Jr., J. E. Peralta, 
 F. Ogliaro, M. J. Bearpark, J. J. Heyd, E. N. Brothers, K. N. Kudin, 
 V. N. Staroverov, T. A. Keith, R. Kobayashi, J. Normand, 
 K. Raghavachari, A. P. Rendell, J. C. Burant, S. S. Iyengar, 
 J. Tomasi, M. Cossi, J. M. Millam, M. Klene, C. Adamo, R. Cammi, 
 J. W. Ochterski, R. L. Martin, K. Morokuma, O. Farkas, 
 J. B. Foresman, and D. J. Fox, Gaussian, Inc., Wallingford CT, 2019.
 
 ******************************************
 Gaussian 16:  ES64L-G16RevC.01  3-Jul-2019
                 8-Apr-2025 
 ******************************************
 %nprocshared=32
 Will use up to   32 processors via shared memory.
 %mem=100GB
 ------------------------------------------
 #p opt freq b3lyp/def2svpp em=gd3bj nosymm
 ------------------------------------------
 1/18=20,19=15,26=3,38=1/1,3;
 2/9=110,12=2,15=1,17=6,18=5,40=1/2;
 3/5=43,7=202,11=2,25=1,30=1,71=1,74=-5,124=41/1,2,3;
 4//1;
 5/5=2,38=5/2;
 6/7=2,8=2,9=2,10=2,28=1/1;
 7/30=1/1,2,3,16;
 1/18=20,19=15,26=3/3(2);
 2/9=110,15=1/2;
 99//99;
 2/9=110,15=1/2;
 3/5=43,7=202,11=2,25=1,30=1,71=1,74=-5,124=41/1,2,3;
 4/5=5,16=3,69=1/1;
 5/5=2,38=5/2;
 7/30=1/1,2,3,16;
 1/18=20,19=15,26=3/3(-5);
 2/9=110,15=1/2;
 6/7=2,8=2,9=2,10=2,19=2,28=1/1;
 99/9=1/99;
 Leave Link    1 at Tue Apr  8 09:59:41 2025, MaxMem= 13421772800 cpu:               0.6 elap:               0.0
 (Enter /public/software/apps/Gaussian/g16/l101.exe)
 ------------------
 $$$$Title####0????
 ------------------
 Symbolic Z-matrix:
 Charge =  0 Multiplicity = 2
 C                    -6.77326  -7.17387  -0.65956 
 C                    -6.85469  -5.80064   0.00896 
 C                    -7.95628  -4.91416  -0.57738 
 C                    -8.07006  -3.52735   0.08555 
 C                    -6.83551  -2.67511  -0.09498 
 C                    -5.86831  -2.56083   0.91481 
 C                    -4.69995  -1.82341   0.72509 
 C                    -4.45915  -1.15626  -0.48955 
 C                    -3.25358  -0.31843  -0.70681 
 C                    -3.35906   0.89974  -1.33329 
 C                    -2.22745   1.71613  -1.62776 
 C                    -2.37075   2.97658  -2.25406 
 C                    -1.27883   3.78843  -2.52666 
 C                    -1.43786   5.19131  -3.05829 
 C                    -1.15105   6.26022  -1.98299 
 C                    -2.07843   6.18157  -0.76715 
 C                    -1.7781    7.24681   0.28824 
 C                     0.0121    3.28938  -2.21813 
 C                     0.18204   2.06611  -1.60288 
 C                    -0.93262   1.26077  -1.2385 
 C                    -0.78575   0.04088  -0.48592 
 C                     0.52356  -0.11292   0.21937 
 C                     1.54957  -1.06042  -0.13358 
 O                     1.3449   -2.0756   -0.92288 
 C                     2.90894  -0.85613   0.35856 
 C                     3.99318  -1.78976  -0.03626 
 C                     3.82236  -3.18524  -0.02325 
 C                     4.87776  -4.03859  -0.34346 
 C                     6.13907  -3.54049  -0.70191 
 C                     7.29621  -4.46222  -1.00991 
 C                     8.29017  -4.60657   0.15892 
 C                     7.69029  -5.24221   1.41553 
 C                     8.70032  -5.38289   2.55539 
 C                     6.30668  -2.14817  -0.72596 
 C                     5.25669  -1.29018  -0.39984 
 C                     3.18218   0.2191    1.16871 
 C                     2.1774    1.13646   1.59648 
 C                     2.49136   2.24172   2.42186 
 C                     1.52421   3.14773   2.83351 
 C                     1.87633   4.40774   3.5848 
 C                     1.77016   5.66601   2.69788 
 C                     2.70221   5.64935   1.48322 
 C                     2.57931   6.90117   0.61332 
 C                     0.17956   2.89738   2.45983 
 C                    -0.15622   1.82665   1.65666 
 C                     0.83575   0.93995   1.15379 
 C                    -1.94137  -0.79526  -0.27821 
 O                    -1.88581  -1.9579    0.30413 
 C                    -5.42907  -1.2702   -1.50215 
 C                    -6.59252  -2.01454  -1.30806 
 H                    -6.56264  -7.07807  -1.7409 
 H                    -7.72376  -7.72954  -0.55524 
 H                    -5.97266  -7.79261  -0.21622 
 H                    -5.88137  -5.28507  -0.08407 
 H                    -7.03058  -5.92563   1.09541 
 H                    -8.93068  -5.43149  -0.48422 
 H                    -7.7786   -4.78056  -1.66208 
 H                    -8.94429  -3.00327  -0.34144 
 H                    -8.27425  -3.65877   1.16375 
 H                    -6.03435  -3.06354   1.8732 
 H                    -3.96496  -1.75816   1.52758 
 H                    -4.34811   1.26857  -1.62039 
 H                    -3.37916   3.32144  -2.50516 
 H                    -2.46328   5.32933  -3.44538 
 H                    -0.74989   5.35058  -3.90904 
 H                    -0.10091   6.16157  -1.6458 
 H                    -1.23342   7.26159  -2.44711 
 H                    -1.99607   5.17825  -0.31061 
 H                    -3.1287    6.27724  -1.10553 
 H                    -0.75181   7.13557   0.68404 
 H                    -2.47446   7.17513   1.1427 
 H                    -1.86405   8.26668  -0.13035 
 H                     0.89183   3.88967  -2.4719 
 H                     1.18964   1.70756  -1.38758 
 H                     2.85241  -3.60387   0.24573 
 H                     4.71856  -5.12148  -0.31623 
 H                     7.84241  -4.08308  -1.89265 
 H                     6.91077  -5.46172  -1.28146 
 H                     8.69482  -3.6076    0.41267 
 H                     9.1518   -5.21238  -0.1821 
 H                     7.28032  -6.23816   1.15673 
 H                     6.82942  -4.63806   1.75588 
 H                     9.5602   -6.01065   2.256 
 H                     8.24164  -5.84551   3.44752 
 H                     9.0994   -4.39677   2.85726 
 H                     7.27478  -1.7268   -1.01751 
 H                     5.4097   -0.20836  -0.45207 
 H                     4.20184   0.36505   1.53698 
 H                     3.53506   2.39077   2.7175 
 H                     2.90309   4.32893   3.98477 
 H                     1.20241   4.52795   4.45298 
 H                     0.72421   5.77717   2.35175 
 H                     1.98646   6.5569    3.31794 
 H                     2.48725   4.75413   0.87146 
 H                     3.748     5.53744   1.83051 
 H                     1.5565    7.003     0.20612 
 H                     2.79999   7.81825   1.1904 
 H                     3.27693   6.86741  -0.24248 
 H                    -0.60801   3.56968   2.81545 
 H                    -1.20212   1.65672   1.39683 
 H                    -5.25772  -0.78134  -2.46556 
 H                    -7.32522  -2.08909  -2.11888 
 Cu                   -0.3225   -2.72243  -0.37772 
 
 ITRead=  0  0  0  0  0  0  0  0  0  0  0  0  0  0  0  0  0  0  0  0
 ITRead=  0  0  0  0  0  0  0  0  0  0  0  0  0  0  0  0  0  0  0  0
 ITRead=  0  0  0  0  0  0  0  0  0  0  0  0  0  0  0  0  0  0  0  0
 ITRead=  0  0  0  0  0  0  0  0  0  0  0  0  0  0  0  0  0  0  0  0
 ITRead=  0  0  0  0  0  0  0  0  0  0  0  0  0  0  0  0  0  0  0  0
 ITRead=  0  0  0
 MicOpt= -1 -1 -1 -1 -1 -1 -1 -1 -1 -1 -1 -1 -1 -1 -1 -1 -1 -1 -1 -1
 MicOpt= -1 -1 -1 -1 -1 -1 -1 -1 -1 -1 -1 -1 -1 -1 -1 -1 -1 -1 -1 -1
 MicOpt= -1 -1 -1 -1 -1 -1 -1 -1 -1 -1 -1 -1 -1 -1 -1 -1 -1 -1 -1 -1
 MicOpt= -1 -1 -1 -1 -1 -1 -1 -1 -1 -1 -1 -1 -1 -1 -1 -1 -1 -1 -1 -1
 MicOpt= -1 -1 -1 -1 -1 -1 -1 -1 -1 -1 -1 -1 -1 -1 -1 -1 -1 -1 -1 -1
 MicOpt= -1 -1 -1
 NAtoms=    103 NQM=      103 NQMF=       0 NMMI=      0 NMMIF=      0
                NMic=       0 NMicF=      0.
                    Isotopes and Nuclear Properties:
 (Nuclear quadrupole moments (NQMom) in fm**2, nuclear magnetic moments (NMagM)
  in nuclear magnetons)

  Atom         1           2           3           4           5           6           7           8           9          10
 IAtWgt=          12          12          12          12          12          12          12          12          12          12
 AtmWgt=  12.0000000  12.0000000  12.0000000  12.0000000  12.0000000  12.0000000  12.0000000  12.0000000  12.0000000  12.0000000
 NucSpn=           0           0           0           0           0           0           0           0           0           0
 AtZEff=  -0.0000000  -0.0000000  -0.0000000  -0.0000000  -0.0000000  -0.0000000  -0.0000000  -0.0000000  -0.0000000  -0.0000000
 NQMom=    0.0000000   0.0000000   0.0000000   0.0000000   0.0000000   0.0000000   0.0000000   0.0000000   0.0000000   0.0000000
 NMagM=    0.0000000   0.0000000   0.0000000   0.0000000   0.0000000   0.0000000   0.0000000   0.0000000   0.0000000   0.0000000
 AtZNuc=   6.0000000   6.0000000   6.0000000   6.0000000   6.0000000   6.0000000   6.0000000   6.0000000   6.0000000   6.0000000

  Atom        11          12          13          14          15          16          17          18          19          20
 IAtWgt=          12          12          12          12          12          12          12          12          12          12
 AtmWgt=  12.0000000  12.0000000  12.0000000  12.0000000  12.0000000  12.0000000  12.0000000  12.0000000  12.0000000  12.0000000
 NucSpn=           0           0           0           0           0           0           0           0           0           0
 AtZEff=  -0.0000000  -0.0000000  -0.0000000  -0.0000000  -0.0000000  -0.0000000  -0.0000000  -0.0000000  -0.0000000  -0.0000000
 NQMom=    0.0000000   0.0000000   0.0000000   0.0000000   0.0000000   0.0000000   0.0000000   0.0000000   0.0000000   0.0000000
 NMagM=    0.0000000   0.0000000   0.0000000   0.0000000   0.0000000   0.0000000   0.0000000   0.0000000   0.0000000   0.0000000
 AtZNuc=   6.0000000   6.0000000   6.0000000   6.0000000   6.0000000   6.0000000   6.0000000   6.0000000   6.0000000   6.0000000

  Atom        21          22          23          24          25          26          27          28          29          30
 IAtWgt=          12          12          12          16          12          12          12          12          12          12
 AtmWgt=  12.0000000  12.0000000  12.0000000  15.9949146  12.0000000  12.0000000  12.0000000  12.0000000  12.0000000  12.0000000
 NucSpn=           0           0           0           0           0           0           0           0           0           0
 AtZEff=  -0.0000000  -0.0000000  -0.0000000  -0.0000000  -0.0000000  -0.0000000  -0.0000000  -0.0000000  -0.0000000  -0.0000000
 NQMom=    0.0000000   0.0000000   0.0000000   0.0000000   0.0000000   0.0000000   0.0000000   0.0000000   0.0000000   0.0000000
 NMagM=    0.0000000   0.0000000   0.0000000   0.0000000   0.0000000   0.0000000   0.0000000   0.0000000   0.0000000   0.0000000
 AtZNuc=   6.0000000   6.0000000   6.0000000   8.0000000   6.0000000   6.0000000   6.0000000   6.0000000   6.0000000   6.0000000

  Atom        31          32          33          34          35          36          37          38          39          40
 IAtWgt=          12          12          12          12          12          12          12          12          12          12
 AtmWgt=  12.0000000  12.0000000  12.0000000  12.0000000  12.0000000  12.0000000  12.0000000  12.0000000  12.0000000  12.0000000
 NucSpn=           0           0           0           0           0           0           0           0           0           0
 AtZEff=  -0.0000000  -0.0000000  -0.0000000  -0.0000000  -0.0000000  -0.0000000  -0.0000000  -0.0000000  -0.0000000  -0.0000000
 NQMom=    0.0000000   0.0000000   0.0000000   0.0000000   0.0000000   0.0000000   0.0000000   0.0000000   0.0000000   0.0000000
 NMagM=    0.0000000   0.0000000   0.0000000   0.0000000   0.0000000   0.0000000   0.0000000   0.0000000   0.0000000   0.0000000
 AtZNuc=   6.0000000   6.0000000   6.0000000   6.0000000   6.0000000   6.0000000   6.0000000   6.0000000   6.0000000   6.0000000

  Atom        41          42          43          44          45          46          47          48          49          50
 IAtWgt=          12          12          12          12          12          12          12          16          12          12
 AtmWgt=  12.0000000  12.0000000  12.0000000  12.0000000  12.0000000  12.0000000  12.0000000  15.9949146  12.0000000  12.0000000
 NucSpn=           0           0           0           0           0           0           0           0           0           0
 AtZEff=  -0.0000000  -0.0000000  -0.0000000  -0.0000000  -0.0000000  -0.0000000  -0.0000000  -0.0000000  -0.0000000  -0.0000000
 NQMom=    0.0000000   0.0000000   0.0000000   0.0000000   0.0000000   0.0000000   0.0000000   0.0000000   0.0000000   0.0000000
 NMagM=    0.0000000   0.0000000   0.0000000   0.0000000   0.0000000   0.0000000   0.0000000   0.0000000   0.0000000   0.0000000
 AtZNuc=   6.0000000   6.0000000   6.0000000   6.0000000   6.0000000   6.0000000   6.0000000   8.0000000   6.0000000   6.0000000

  Atom        51          52          53          54          55          56          57          58          59          60
 IAtWgt=           1           1           1           1           1           1           1           1           1           1
 AtmWgt=   1.0078250   1.0078250   1.0078250   1.0078250   1.0078250   1.0078250   1.0078250   1.0078250   1.0078250   1.0078250
 NucSpn=           1           1           1           1           1           1           1           1           1           1
 AtZEff=  -0.0000000  -0.0000000  -0.0000000  -0.0000000  -0.0000000  -0.0000000  -0.0000000  -0.0000000  -0.0000000  -0.0000000
 NQMom=    0.0000000   0.0000000   0.0000000   0.0000000   0.0000000   0.0000000   0.0000000   0.0000000   0.0000000   0.0000000
 NMagM=    2.7928460   2.7928460   2.7928460   2.7928460   2.7928460   2.7928460   2.7928460   2.7928460   2.7928460   2.7928460
 AtZNuc=   1.0000000   1.0000000   1.0000000   1.0000000   1.0000000   1.0000000   1.0000000   1.0000000   1.0000000   1.0000000

  Atom        61          62          63          64          65          66          67          68          69          70
 IAtWgt=           1           1           1           1           1           1           1           1           1           1
 AtmWgt=   1.0078250   1.0078250   1.0078250   1.0078250   1.0078250   1.0078250   1.0078250   1.0078250   1.0078250   1.0078250
 NucSpn=           1           1           1           1           1           1           1           1           1           1
 AtZEff=  -0.0000000  -0.0000000  -0.0000000  -0.0000000  -0.0000000  -0.0000000  -0.0000000  -0.0000000  -0.0000000  -0.0000000
 NQMom=    0.0000000   0.0000000   0.0000000   0.0000000   0.0000000   0.0000000   0.0000000   0.0000000   0.0000000   0.0000000
 NMagM=    2.7928460   2.7928460   2.7928460   2.7928460   2.7928460   2.7928460   2.7928460   2.7928460   2.7928460   2.7928460
 AtZNuc=   1.0000000   1.0000000   1.0000000   1.0000000   1.0000000   1.0000000   1.0000000   1.0000000   1.0000000   1.0000000

  Atom        71          72          73          74          75          76          77          78          79          80
 IAtWgt=           1           1           1           1           1           1           1           1           1           1
 AtmWgt=   1.0078250   1.0078250   1.0078250   1.0078250   1.0078250   1.0078250   1.0078250   1.0078250   1.0078250   1.0078250
 NucSpn=           1           1           1           1           1           1           1           1           1           1
 AtZEff=  -0.0000000  -0.0000000  -0.0000000  -0.0000000  -0.0000000  -0.0000000  -0.0000000  -0.0000000  -0.0000000  -0.0000000
 NQMom=    0.0000000   0.0000000   0.0000000   0.0000000   0.0000000   0.0000000   0.0000000   0.0000000   0.0000000   0.0000000
 NMagM=    2.7928460   2.7928460   2.7928460   2.7928460   2.7928460   2.7928460   2.7928460   2.7928460   2.7928460   2.7928460
 AtZNuc=   1.0000000   1.0000000   1.0000000   1.0000000   1.0000000   1.0000000   1.0000000   1.0000000   1.0000000   1.0000000

  Atom        81          82          83          84          85          86          87          88          89          90
 IAtWgt=           1           1           1           1           1           1           1           1           1           1
 AtmWgt=   1.0078250   1.0078250   1.0078250   1.0078250   1.0078250   1.0078250   1.0078250   1.0078250   1.0078250   1.0078250
 NucSpn=           1           1           1           1           1           1           1           1           1           1
 AtZEff=  -0.0000000  -0.0000000  -0.0000000  -0.0000000  -0.0000000  -0.0000000  -0.0000000  -0.0000000  -0.0000000  -0.0000000
 NQMom=    0.0000000   0.0000000   0.0000000   0.0000000   0.0000000   0.0000000   0.0000000   0.0000000   0.0000000   0.0000000
 NMagM=    2.7928460   2.7928460   2.7928460   2.7928460   2.7928460   2.7928460   2.7928460   2.7928460   2.7928460   2.7928460
 AtZNuc=   1.0000000   1.0000000   1.0000000   1.0000000   1.0000000   1.0000000   1.0000000   1.0000000   1.0000000   1.0000000

  Atom        91          92          93          94          95          96          97          98          99         100
 IAtWgt=           1           1           1           1           1           1           1           1           1           1
 AtmWgt=   1.0078250   1.0078250   1.0078250   1.0078250   1.0078250   1.0078250   1.0078250   1.0078250   1.0078250   1.0078250
 NucSpn=           1           1           1           1           1           1           1           1           1           1
 AtZEff=  -0.0000000  -0.0000000  -0.0000000  -0.0000000  -0.0000000  -0.0000000  -0.0000000  -0.0000000  -0.0000000  -0.0000000
 NQMom=    0.0000000   0.0000000   0.0000000   0.0000000   0.0000000   0.0000000   0.0000000   0.0000000   0.0000000   0.0000000
 NMagM=    2.7928460   2.7928460   2.7928460   2.7928460   2.7928460   2.7928460   2.7928460   2.7928460   2.7928460   2.7928460
 AtZNuc=   1.0000000   1.0000000   1.0000000   1.0000000   1.0000000   1.0000000   1.0000000   1.0000000   1.0000000   1.0000000

  Atom       101         102         103
 IAtWgt=           1           1          63
 AtmWgt=   1.0078250   1.0078250  62.9295992
 NucSpn=           1           1           3
 AtZEff=  -0.0000000  -0.0000000  -0.0000000
 NQMom=    0.0000000   0.0000000 -22.0000000
 NMagM=    2.7928460   2.7928460   2.2233000
 AtZNuc=   1.0000000   1.0000000  29.0000000
 Leave Link  101 at Tue Apr  8 09:59:41 2025, MaxMem= 13421772800 cpu:               4.9 elap:               0.2
 (Enter /public/software/apps/Gaussian/g16/l103.exe)

 GradGradGradGradGradGradGradGradGradGradGradGradGradGradGradGradGradGrad
 Berny optimization.
 Initialization pass.
                           ----------------------------
                           !    Initial Parameters    !
                           ! (Angstroms and Degrees)  !
 --------------------------                            --------------------------
 ! Name  Definition              Value          Derivative Info.                !
 --------------------------------------------------------------------------------
 ! R1    R(1,2)                  1.5295         estimate D2E/DX2                !
 ! R2    R(1,51)                 1.1058         estimate D2E/DX2                !
 ! R3    R(1,52)                 1.1059         estimate D2E/DX2                !
 ! R4    R(1,53)                 1.1047         estimate D2E/DX2                !
 ! R5    R(2,3)                  1.5307         estimate D2E/DX2                !
 ! R6    R(2,54)                 1.1054         estimate D2E/DX2                !
 ! R7    R(2,55)                 1.1077         estimate D2E/DX2                !
 ! R8    R(3,4)                  1.5413         estimate D2E/DX2                !
 ! R9    R(3,56)                 1.1071         estimate D2E/DX2                !
 ! R10   R(3,57)                 1.1072         estimate D2E/DX2                !
 ! R11   R(4,5)                  1.511          estimate D2E/DX2                !
 ! R12   R(4,58)                 1.1051         estimate D2E/DX2                !
 ! R13   R(4,59)                 1.1052         estimate D2E/DX2                !
 ! R14   R(5,6)                  1.4029         estimate D2E/DX2                !
 ! R15   R(5,50)                 1.4025         estimate D2E/DX2                !
 ! R16   R(6,7)                  1.3946         estimate D2E/DX2                !
 ! R17   R(6,60)                 1.0949         estimate D2E/DX2                !
 ! R18   R(7,8)                  1.4066         estimate D2E/DX2                !
 ! R19   R(7,61)                 1.0902         estimate D2E/DX2                !
 ! R20   R(8,9)                  1.4841         estimate D2E/DX2                !
 ! R21   R(8,49)                 1.4068         estimate D2E/DX2                !
 ! R22   R(9,10)                 1.3739         estimate D2E/DX2                !
 ! R23   R(9,47)                 1.4605         estimate D2E/DX2                !
 ! R24   R(10,11)                1.4261         estimate D2E/DX2                !
 ! R25   R(10,62)                1.0939         estimate D2E/DX2                !
 ! R26   R(11,12)                1.4147         estimate D2E/DX2                !
 ! R27   R(11,20)                1.4267         estimate D2E/DX2                !
 ! R28   R(12,13)                1.3877         estimate D2E/DX2                !
 ! R29   R(12,63)                1.0949         estimate D2E/DX2                !
 ! R30   R(13,14)                1.5086         estimate D2E/DX2                !
 ! R31   R(13,18)                1.418          estimate D2E/DX2                !
 ! R32   R(14,15)                1.5431         estimate D2E/DX2                !
 ! R33   R(14,64)                1.1047         estimate D2E/DX2                !
 ! R34   R(14,65)                1.1056         estimate D2E/DX2                !
 ! R35   R(15,16)                1.5312         estimate D2E/DX2                !
 ! R36   R(15,66)                1.1074         estimate D2E/DX2                !
 ! R37   R(15,67)                1.1068         estimate D2E/DX2                !
 ! R38   R(16,17)                1.5293         estimate D2E/DX2                !
 ! R39   R(16,68)                1.1054         estimate D2E/DX2                !
 ! R40   R(16,69)                1.1076         estimate D2E/DX2                !
 ! R41   R(17,70)                1.1056         estimate D2E/DX2                !
 ! R42   R(17,71)                1.1046         estimate D2E/DX2                !
 ! R43   R(17,72)                1.1058         estimate D2E/DX2                !
 ! R44   R(18,19)                1.3798         estimate D2E/DX2                !
 ! R45   R(18,73)                1.0948         estimate D2E/DX2                !
 ! R46   R(19,20)                1.4226         estimate D2E/DX2                !
 ! R47   R(19,74)                1.091          estimate D2E/DX2                !
 ! R48   R(20,21)                1.4409         estimate D2E/DX2                !
 ! R49   R(21,22)                1.4951         estimate D2E/DX2                !
 ! R50   R(21,47)                1.4414         estimate D2E/DX2                !
 ! R51   R(22,23)                1.4405         estimate D2E/DX2                !
 ! R52   R(22,46)                1.4419         estimate D2E/DX2                !
 ! R53   R(23,24)                1.3021         estimate D2E/DX2                !
 ! R54   R(23,25)                1.4601         estimate D2E/DX2                !
 ! R55   R(24,103)               1.8697         estimate D2E/DX2                !
 ! R56   R(25,26)                1.4843         estimate D2E/DX2                !
 ! R57   R(25,36)                1.3737         estimate D2E/DX2                !
 ! R58   R(26,27)                1.4059         estimate D2E/DX2                !
 ! R59   R(26,35)                1.4065         estimate D2E/DX2                !
 ! R60   R(27,28)                1.3945         estimate D2E/DX2                !
 ! R61   R(27,75)                1.0901         estimate D2E/DX2                !
 ! R62   R(28,29)                1.4027         estimate D2E/DX2                !
 ! R63   R(28,76)                1.0949         estimate D2E/DX2                !
 ! R64   R(29,30)                1.5111         estimate D2E/DX2                !
 ! R65   R(29,34)                1.4026         estimate D2E/DX2                !
 ! R66   R(30,31)                1.5411         estimate D2E/DX2                !
 ! R67   R(30,77)                1.1051         estimate D2E/DX2                !
 ! R68   R(30,78)                1.1051         estimate D2E/DX2                !
 ! R69   R(31,32)                1.5307         estimate D2E/DX2                !
 ! R70   R(31,79)                1.1073         estimate D2E/DX2                !
 ! R71   R(31,80)                1.1071         estimate D2E/DX2                !
 ! R72   R(32,33)                1.5295         estimate D2E/DX2                !
 ! R73   R(32,81)                1.1077         estimate D2E/DX2                !
 ! R74   R(32,82)                1.1054         estimate D2E/DX2                !
 ! R75   R(33,83)                1.1059         estimate D2E/DX2                !
 ! R76   R(33,84)                1.1047         estimate D2E/DX2                !
 ! R77   R(33,85)                1.1058         estimate D2E/DX2                !
 ! R78   R(34,35)                1.3946         estimate D2E/DX2                !
 ! R79   R(34,86)                1.0953         estimate D2E/DX2                !
 ! R80   R(35,87)                1.0938         estimate D2E/DX2                !
 ! R81   R(36,37)                1.4262         estimate D2E/DX2                !
 ! R82   R(36,88)                1.0939         estimate D2E/DX2                !
 ! R83   R(37,38)                1.4147         estimate D2E/DX2                !
 ! R84   R(37,46)                1.4264         estimate D2E/DX2                !
 ! R85   R(38,39)                1.3877         estimate D2E/DX2                !
 ! R86   R(38,89)                1.095          estimate D2E/DX2                !
 ! R87   R(39,40)                1.5087         estimate D2E/DX2                !
 ! R88   R(39,44)                1.4179         estimate D2E/DX2                !
 ! R89   R(40,41)                1.5431         estimate D2E/DX2                !
 ! R90   R(40,90)                1.1047         estimate D2E/DX2                !
 ! R91   R(40,91)                1.1056         estimate D2E/DX2                !
 ! R92   R(41,42)                1.5311         estimate D2E/DX2                !
 ! R93   R(41,92)                1.1073         estimate D2E/DX2                !
 ! R94   R(41,93)                1.1068         estimate D2E/DX2                !
 ! R95   R(42,43)                1.5293         estimate D2E/DX2                !
 ! R96   R(42,94)                1.1054         estimate D2E/DX2                !
 ! R97   R(42,95)                1.1076         estimate D2E/DX2                !
 ! R98   R(43,96)                1.1056         estimate D2E/DX2                !
 ! R99   R(43,97)                1.1058         estimate D2E/DX2                !
 ! R100  R(43,98)                1.1046         estimate D2E/DX2                !
 ! R101  R(44,45)                1.38           estimate D2E/DX2                !
 ! R102  R(44,99)                1.0949         estimate D2E/DX2                !
 ! R103  R(45,46)                1.4224         estimate D2E/DX2                !
 ! R104  R(45,100)               1.091          estimate D2E/DX2                !
 ! R105  R(47,48)                1.3015         estimate D2E/DX2                !
 ! R106  R(48,103)               1.8691         estimate D2E/DX2                !
 ! R107  R(49,50)                1.3947         estimate D2E/DX2                !
 ! R108  R(49,101)               1.0939         estimate D2E/DX2                !
 ! R109  R(50,102)               1.0954         estimate D2E/DX2                !
 ! A1    A(2,1,51)             111.0867         estimate D2E/DX2                !
 ! A2    A(2,1,52)             111.354          estimate D2E/DX2                !
 ! A3    A(2,1,53)             111.4724         estimate D2E/DX2                !
 ! A4    A(51,1,52)            107.425          estimate D2E/DX2                !
 ! A5    A(51,1,53)            107.6333         estimate D2E/DX2                !
 ! A6    A(52,1,53)            107.6732         estimate D2E/DX2                !
 ! A7    A(1,2,3)              113.0072         estimate D2E/DX2                !
 ! A8    A(1,2,54)             109.5794         estimate D2E/DX2                !
 ! A9    A(1,2,55)             109.6251         estimate D2E/DX2                !
 ! A10   A(3,2,54)             109.3491         estimate D2E/DX2                !
 ! A11   A(3,2,55)             109.0734         estimate D2E/DX2                !
 ! A12   A(54,2,55)            105.9624         estimate D2E/DX2                !
 ! A13   A(2,3,4)              114.1696         estimate D2E/DX2                !
 ! A14   A(2,3,56)             109.301          estimate D2E/DX2                !
 ! A15   A(2,3,57)             109.2468         estimate D2E/DX2                !
 ! A16   A(4,3,56)             108.6183         estimate D2E/DX2                !
 ! A17   A(4,3,57)             108.9432         estimate D2E/DX2                !
 ! A18   A(56,3,57)            106.2632         estimate D2E/DX2                !
 ! A19   A(3,4,5)              113.3152         estimate D2E/DX2                !
 ! A20   A(3,4,58)             108.597          estimate D2E/DX2                !
 ! A21   A(3,4,59)             109.0416         estimate D2E/DX2                !
 ! A22   A(5,4,58)             109.4332         estimate D2E/DX2                !
 ! A23   A(5,4,59)             109.5469         estimate D2E/DX2                !
 ! A24   A(58,4,59)            106.6891         estimate D2E/DX2                !
 ! A25   A(4,5,6)              121.5498         estimate D2E/DX2                !
 ! A26   A(4,5,50)             120.7015         estimate D2E/DX2                !
 ! A27   A(6,5,50)             117.6945         estimate D2E/DX2                !
 ! A28   A(5,6,7)              121.516          estimate D2E/DX2                !
 ! A29   A(5,6,60)             119.2151         estimate D2E/DX2                !
 ! A30   A(7,6,60)             119.2689         estimate D2E/DX2                !
 ! A31   A(6,7,8)              120.7778         estimate D2E/DX2                !
 ! A32   A(6,7,61)             119.7587         estimate D2E/DX2                !
 ! A33   A(8,7,61)             119.463          estimate D2E/DX2                !
 ! A34   A(7,8,9)              122.2251         estimate D2E/DX2                !
 ! A35   A(7,8,49)             117.7183         estimate D2E/DX2                !
 ! A36   A(9,8,49)             120.0274         estimate D2E/DX2                !
 ! A37   A(8,9,10)             120.3271         estimate D2E/DX2                !
 ! A38   A(8,9,47)             120.1715         estimate D2E/DX2                !
 ! A39   A(10,9,47)            119.4911         estimate D2E/DX2                !
 ! A40   A(9,10,11)            122.7394         estimate D2E/DX2                !
 ! A41   A(9,10,62)            119.2119         estimate D2E/DX2                !
 ! A42   A(11,10,62)           118.0486         estimate D2E/DX2                !
 ! A43   A(10,11,12)           121.4039         estimate D2E/DX2                !
 ! A44   A(10,11,20)           118.758          estimate D2E/DX2                !
 ! A45   A(12,11,20)           119.8063         estimate D2E/DX2                !
 ! A46   A(11,12,13)           121.9039         estimate D2E/DX2                !
 ! A47   A(11,12,63)           118.3867         estimate D2E/DX2                !
 ! A48   A(13,12,63)           119.6935         estimate D2E/DX2                !
 ! A49   A(12,13,14)           122.0261         estimate D2E/DX2                !
 ! A50   A(12,13,18)           117.8849         estimate D2E/DX2                !
 ! A51   A(14,13,18)           119.994          estimate D2E/DX2                !
 ! A52   A(13,14,15)           112.2716         estimate D2E/DX2                !
 ! A53   A(13,14,64)           109.7248         estimate D2E/DX2                !
 ! A54   A(13,14,65)           109.8469         estimate D2E/DX2                !
 ! A55   A(15,14,64)           109.2785         estimate D2E/DX2                !
 ! A56   A(15,14,65)           108.7092         estimate D2E/DX2                !
 ! A57   A(64,14,65)           106.8554         estimate D2E/DX2                !
 ! A58   A(14,15,16)           113.9031         estimate D2E/DX2                !
 ! A59   A(14,15,66)           109.0713         estimate D2E/DX2                !
 ! A60   A(14,15,67)           108.7049         estimate D2E/DX2                !
 ! A61   A(16,15,66)           109.1477         estimate D2E/DX2                !
 ! A62   A(16,15,67)           109.5351         estimate D2E/DX2                !
 ! A63   A(66,15,67)           106.1926         estimate D2E/DX2                !
 ! A64   A(15,16,17)           113.1581         estimate D2E/DX2                !
 ! A65   A(15,16,68)           109.2359         estimate D2E/DX2                !
 ! A66   A(15,16,69)           109.1043         estimate D2E/DX2                !
 ! A67   A(17,16,68)           109.4254         estimate D2E/DX2                !
 ! A68   A(17,16,69)           109.6879         estimate D2E/DX2                !
 ! A69   A(68,16,69)           105.9762         estimate D2E/DX2                !
 ! A70   A(16,17,70)           111.0556         estimate D2E/DX2                !
 ! A71   A(16,17,71)           111.3969         estimate D2E/DX2                !
 ! A72   A(16,17,72)           111.4652         estimate D2E/DX2                !
 ! A73   A(70,17,71)           107.5628         estimate D2E/DX2                !
 ! A74   A(70,17,72)           107.4862         estimate D2E/DX2                !
 ! A75   A(71,17,72)           107.6777         estimate D2E/DX2                !
 ! A76   A(13,18,19)           121.4104         estimate D2E/DX2                !
 ! A77   A(13,18,73)           119.2168         estimate D2E/DX2                !
 ! A78   A(19,18,73)           119.3727         estimate D2E/DX2                !
 ! A79   A(18,19,20)           121.3055         estimate D2E/DX2                !
 ! A80   A(18,19,74)           119.5464         estimate D2E/DX2                !
 ! A81   A(20,19,74)           119.1479         estimate D2E/DX2                !
 ! A82   A(11,20,19)           117.4223         estimate D2E/DX2                !
 ! A83   A(11,20,21)           120.3474         estimate D2E/DX2                !
 ! A84   A(19,20,21)           122.2219         estimate D2E/DX2                !
 ! A85   A(20,21,22)           115.0081         estimate D2E/DX2                !
 ! A86   A(20,21,47)           118.99           estimate D2E/DX2                !
 ! A87   A(22,21,47)           125.0602         estimate D2E/DX2                !
 ! A88   A(21,22,23)           125.1575         estimate D2E/DX2                !
 ! A89   A(21,22,46)           114.8465         estimate D2E/DX2                !
 ! A90   A(23,22,46)           119.003          estimate D2E/DX2                !
 ! A91   A(22,23,24)           123.3247         estimate D2E/DX2                !
 ! A92   A(22,23,25)           119.2431         estimate D2E/DX2                !
 ! A93   A(24,23,25)           117.3712         estimate D2E/DX2                !
 ! A94   A(23,24,103)          103.483          estimate D2E/DX2                !
 ! A95   A(23,25,26)           120.1605         estimate D2E/DX2                !
 ! A96   A(23,25,36)           119.5697         estimate D2E/DX2                !
 ! A97   A(26,25,36)           120.2589         estimate D2E/DX2                !
 ! A98   A(25,26,27)           122.216          estimate D2E/DX2                !
 ! A99   A(25,26,35)           120.1028         estimate D2E/DX2                !
 ! A100  A(27,26,35)           117.651          estimate D2E/DX2                !
 ! A101  A(26,27,28)           120.8848         estimate D2E/DX2                !
 ! A102  A(26,27,75)           119.4418         estimate D2E/DX2                !
 ! A103  A(28,27,75)           119.6728         estimate D2E/DX2                !
 ! A104  A(27,28,29)           121.462          estimate D2E/DX2                !
 ! A105  A(27,28,76)           119.3076         estimate D2E/DX2                !
 ! A106  A(29,28,76)           119.2303         estimate D2E/DX2                !
 ! A107  A(28,29,30)           121.6059         estimate D2E/DX2                !
 ! A108  A(28,29,34)           117.6679         estimate D2E/DX2                !
 ! A109  A(30,29,34)           120.6975         estimate D2E/DX2                !
 ! A110  A(29,30,31)           113.3556         estimate D2E/DX2                !
 ! A111  A(29,30,77)           109.3911         estimate D2E/DX2                !
 ! A112  A(29,30,78)           109.5526         estimate D2E/DX2                !
 ! A113  A(31,30,77)           108.6137         estimate D2E/DX2                !
 ! A114  A(31,30,78)           109.0625         estimate D2E/DX2                !
 ! A115  A(77,30,78)           106.6421         estimate D2E/DX2                !
 ! A116  A(30,31,32)           114.1281         estimate D2E/DX2                !
 ! A117  A(30,31,79)           108.9657         estimate D2E/DX2                !
 ! A118  A(30,31,80)           108.6384         estimate D2E/DX2                !
 ! A119  A(32,31,79)           109.2524         estimate D2E/DX2                !
 ! A120  A(32,31,80)           109.308          estimate D2E/DX2                !
 ! A121  A(79,31,80)           106.2514         estimate D2E/DX2                !
 ! A122  A(31,32,33)           113.0306         estimate D2E/DX2                !
 ! A123  A(31,32,81)           109.0637         estimate D2E/DX2                !
 ! A124  A(31,32,82)           109.3303         estimate D2E/DX2                !
 ! A125  A(33,32,81)           109.6235         estimate D2E/DX2                !
 ! A126  A(33,32,82)           109.5788         estimate D2E/DX2                !
 ! A127  A(81,32,82)           105.9683         estimate D2E/DX2                !
 ! A128  A(32,33,83)           111.3408         estimate D2E/DX2                !
 ! A129  A(32,33,84)           111.481          estimate D2E/DX2                !
 ! A130  A(32,33,85)           111.0849         estimate D2E/DX2                !
 ! A131  A(83,33,84)           107.683          estimate D2E/DX2                !
 ! A132  A(83,33,85)           107.427          estimate D2E/DX2                !
 ! A133  A(84,33,85)           107.6284         estimate D2E/DX2                !
 ! A134  A(29,34,35)           121.1138         estimate D2E/DX2                !
 ! A135  A(29,34,86)           119.4763         estimate D2E/DX2                !
 ! A136  A(35,34,86)           119.4056         estimate D2E/DX2                !
 ! A137  A(26,35,34)           121.2159         estimate D2E/DX2                !
 ! A138  A(26,35,87)           119.2949         estimate D2E/DX2                !
 ! A139  A(34,35,87)           119.4706         estimate D2E/DX2                !
 ! A140  A(25,36,37)           122.6974         estimate D2E/DX2                !
 ! A141  A(25,36,88)           119.2337         estimate D2E/DX2                !
 ! A142  A(37,36,88)           118.0277         estimate D2E/DX2                !
 ! A143  A(36,37,38)           121.4095         estimate D2E/DX2                !
 ! A144  A(36,37,46)           118.7476         estimate D2E/DX2                !
 ! A145  A(38,37,46)           119.8306         estimate D2E/DX2                !
 ! A146  A(37,38,39)           121.9021         estimate D2E/DX2                !
 ! A147  A(37,38,89)           118.386          estimate D2E/DX2                !
 ! A148  A(39,38,89)           119.6935         estimate D2E/DX2                !
 ! A149  A(38,39,40)           122.0283         estimate D2E/DX2                !
 ! A150  A(38,39,44)           117.8719         estimate D2E/DX2                !
 ! A151  A(40,39,44)           120.0035         estimate D2E/DX2                !
 ! A152  A(39,40,41)           112.2558         estimate D2E/DX2                !
 ! A153  A(39,40,90)           109.7334         estimate D2E/DX2                !
 ! A154  A(39,40,91)           109.8518         estimate D2E/DX2                !
 ! A155  A(41,40,90)           109.2816         estimate D2E/DX2                !
 ! A156  A(41,40,91)           108.7077         estimate D2E/DX2                !
 ! A157  A(90,40,91)           106.857          estimate D2E/DX2                !
 ! A158  A(40,41,42)           113.9041         estimate D2E/DX2                !
 ! A159  A(40,41,92)           109.0567         estimate D2E/DX2                !
 ! A160  A(40,41,93)           108.718          estimate D2E/DX2                !
 ! A161  A(42,41,92)           109.1542         estimate D2E/DX2                !
 ! A162  A(42,41,93)           109.5258         estimate D2E/DX2                !
 ! A163  A(92,41,93)           106.1961         estimate D2E/DX2                !
 ! A164  A(41,42,43)           113.1667         estimate D2E/DX2                !
 ! A165  A(41,42,94)           109.2369         estimate D2E/DX2                !
 ! A166  A(41,42,95)           109.0938         estimate D2E/DX2                !
 ! A167  A(43,42,94)           109.4196         estimate D2E/DX2                !
 ! A168  A(43,42,95)           109.6896         estimate D2E/DX2                !
 ! A169  A(94,42,95)           105.981          estimate D2E/DX2                !
 ! A170  A(42,43,96)           111.0532         estimate D2E/DX2                !
 ! A171  A(42,43,97)           111.4677         estimate D2E/DX2                !
 ! A172  A(42,43,98)           111.402          estimate D2E/DX2                !
 ! A173  A(96,43,97)           107.4844         estimate D2E/DX2                !
 ! A174  A(96,43,98)           107.5611         estimate D2E/DX2                !
 ! A175  A(97,43,98)           107.6757         estimate D2E/DX2                !
 ! A176  A(39,44,45)           121.4093         estimate D2E/DX2                !
 ! A177  A(39,44,99)           119.2195         estimate D2E/DX2                !
 ! A178  A(45,44,99)           119.3712         estimate D2E/DX2                !
 ! A179  A(44,45,46)           121.3173         estimate D2E/DX2                !
 ! A180  A(44,45,100)          119.5201         estimate D2E/DX2                !
 ! A181  A(46,45,100)          119.1621         estimate D2E/DX2                !
 ! A182  A(22,46,37)           120.3552         estimate D2E/DX2                !
 ! A183  A(22,46,45)           122.2293         estimate D2E/DX2                !
 ! A184  A(37,46,45)           117.411          estimate D2E/DX2                !
 ! A185  A(9,47,21)            119.2523         estimate D2E/DX2                !
 ! A186  A(9,47,48)            117.472          estimate D2E/DX2                !
 ! A187  A(21,47,48)           123.2593         estimate D2E/DX2                !
 ! A188  A(47,48,103)          103.7616         estimate D2E/DX2                !
 ! A189  A(8,49,50)            121.2101         estimate D2E/DX2                !
 ! A190  A(8,49,101)           119.3244         estimate D2E/DX2                !
 ! A191  A(50,49,101)          119.4552         estimate D2E/DX2                !
 ! A192  A(5,50,49)            121.0808         estimate D2E/DX2                !
 ! A193  A(5,50,102)           119.4921         estimate D2E/DX2                !
 ! A194  A(49,50,102)          119.4259         estimate D2E/DX2                !
 ! A195  A(24,103,48)          135.2979         estimate D2E/DX2                !
 ! D1    D(51,1,2,3)            60.0865         estimate D2E/DX2                !
 ! D2    D(51,1,2,54)          -62.127          estimate D2E/DX2                !
 ! D3    D(51,1,2,55)         -178.0212         estimate D2E/DX2                !
 ! D4    D(52,1,2,3)           -59.6072         estimate D2E/DX2                !
 ! D5    D(52,1,2,54)          178.1793         estimate D2E/DX2                !
 ! D6    D(52,1,2,55)           62.2851         estimate D2E/DX2                !
 ! D7    D(53,1,2,3)          -179.8767         estimate D2E/DX2                !
 ! D8    D(53,1,2,54)           57.9098         estimate D2E/DX2                !
 ! D9    D(53,1,2,55)          -57.9844         estimate D2E/DX2                !
 ! D10   D(1,2,3,4)            179.4986         estimate D2E/DX2                !
 ! D11   D(1,2,3,56)            57.6318         estimate D2E/DX2                !
 ! D12   D(1,2,3,57)           -58.2536         estimate D2E/DX2                !
 ! D13   D(54,2,3,4)           -58.1591         estimate D2E/DX2                !
 ! D14   D(54,2,3,56)          179.9742         estimate D2E/DX2                !
 ! D15   D(54,2,3,57)           64.0888         estimate D2E/DX2                !
 ! D16   D(55,2,3,4)            57.2968         estimate D2E/DX2                !
 ! D17   D(55,2,3,56)          -64.57           estimate D2E/DX2                !
 ! D18   D(55,2,3,57)          179.5446         estimate D2E/DX2                !
 ! D19   D(2,3,4,5)             63.2094         estimate D2E/DX2                !
 ! D20   D(2,3,4,58)          -174.9696         estimate D2E/DX2                !
 ! D21   D(2,3,4,59)           -59.0779         estimate D2E/DX2                !
 ! D22   D(56,3,4,5)          -174.5492         estimate D2E/DX2                !
 ! D23   D(56,3,4,58)          -52.7282         estimate D2E/DX2                !
 ! D24   D(56,3,4,59)           63.1634         estimate D2E/DX2                !
 ! D25   D(57,3,4,5)           -59.2044         estimate D2E/DX2                !
 ! D26   D(57,3,4,58)           62.6166         estimate D2E/DX2                !
 ! D27   D(57,3,4,59)          178.5082         estimate D2E/DX2                !
 ! D28   D(3,4,5,6)            -99.1827         estimate D2E/DX2                !
 ! D29   D(3,4,5,50)            78.0793         estimate D2E/DX2                !
 ! D30   D(58,4,5,6)           139.465          estimate D2E/DX2                !
 ! D31   D(58,4,5,50)          -43.273          estimate D2E/DX2                !
 ! D32   D(59,4,5,6)            22.8232         estimate D2E/DX2                !
 ! D33   D(59,4,5,50)         -159.9148         estimate D2E/DX2                !
 ! D34   D(4,5,6,7)            177.0339         estimate D2E/DX2                !
 ! D35   D(4,5,6,60)            -2.8761         estimate D2E/DX2                !
 ! D36   D(50,5,6,7)            -0.3073         estimate D2E/DX2                !
 ! D37   D(50,5,6,60)          179.7826         estimate D2E/DX2                !
 ! D38   D(4,5,50,49)         -177.3645         estimate D2E/DX2                !
 ! D39   D(4,5,50,102)           2.257          estimate D2E/DX2                !
 ! D40   D(6,5,50,49)            0.0004         estimate D2E/DX2                !
 ! D41   D(6,5,50,102)         179.6219         estimate D2E/DX2                !
 ! D42   D(5,6,7,8)              0.5929         estimate D2E/DX2                !
 ! D43   D(5,6,7,61)          -179.6703         estimate D2E/DX2                !
 ! D44   D(60,6,7,8)          -179.497          estimate D2E/DX2                !
 ! D45   D(60,6,7,61)            0.2397         estimate D2E/DX2                !
 ! D46   D(6,7,8,9)            177.4889         estimate D2E/DX2                !
 ! D47   D(6,7,8,49)            -0.5461         estimate D2E/DX2                !
 ! D48   D(61,7,8,9)            -2.2486         estimate D2E/DX2                !
 ! D49   D(61,7,8,49)          179.7164         estimate D2E/DX2                !
 ! D50   D(7,8,9,10)          -136.7594         estimate D2E/DX2                !
 ! D51   D(7,8,9,47)            44.4068         estimate D2E/DX2                !
 ! D52   D(49,8,9,10)           41.2315         estimate D2E/DX2                !
 ! D53   D(49,8,9,47)         -137.6024         estimate D2E/DX2                !
 ! D54   D(7,8,49,50)            0.2436         estimate D2E/DX2                !
 ! D55   D(7,8,49,101)        -178.5829         estimate D2E/DX2                !
 ! D56   D(9,8,49,50)         -177.8365         estimate D2E/DX2                !
 ! D57   D(9,8,49,101)           3.3371         estimate D2E/DX2                !
 ! D58   D(8,9,10,11)         -176.8057         estimate D2E/DX2                !
 ! D59   D(8,9,10,62)            3.3229         estimate D2E/DX2                !
 ! D60   D(47,9,10,11)           2.0361         estimate D2E/DX2                !
 ! D61   D(47,9,10,62)        -177.8353         estimate D2E/DX2                !
 ! D62   D(8,9,47,21)         -179.3342         estimate D2E/DX2                !
 ! D63   D(8,9,47,48)           -0.7567         estimate D2E/DX2                !
 ! D64   D(10,9,47,21)           1.8222         estimate D2E/DX2                !
 ! D65   D(10,9,47,48)        -179.6003         estimate D2E/DX2                !
 ! D66   D(9,10,11,12)        -178.925          estimate D2E/DX2                !
 ! D67   D(9,10,11,20)          -0.9824         estimate D2E/DX2                !
 ! D68   D(62,10,11,12)          0.9479         estimate D2E/DX2                !
 ! D69   D(62,10,11,20)        178.8905         estimate D2E/DX2                !
 ! D70   D(10,11,12,13)        178.9864         estimate D2E/DX2                !
 ! D71   D(10,11,12,63)          0.4409         estimate D2E/DX2                !
 ! D72   D(20,11,12,13)          1.065          estimate D2E/DX2                !
 ! D73   D(20,11,12,63)       -177.4805         estimate D2E/DX2                !
 ! D74   D(10,11,20,19)        177.0503         estimate D2E/DX2                !
 ! D75   D(10,11,20,21)         -3.9795         estimate D2E/DX2                !
 ! D76   D(12,11,20,19)         -4.9734         estimate D2E/DX2                !
 ! D77   D(12,11,20,21)        173.9968         estimate D2E/DX2                !
 ! D78   D(11,12,13,14)       -173.3494         estimate D2E/DX2                !
 ! D79   D(11,12,13,18)          3.1032         estimate D2E/DX2                !
 ! D80   D(63,12,13,14)          5.1775         estimate D2E/DX2                !
 ! D81   D(63,12,13,18)       -178.3699         estimate D2E/DX2                !
 ! D82   D(12,13,14,15)        105.8011         estimate D2E/DX2                !
 ! D83   D(12,13,14,64)        -15.9248         estimate D2E/DX2                !
 ! D84   D(12,13,14,65)       -133.1119         estimate D2E/DX2                !
 ! D85   D(18,13,14,15)        -70.5785         estimate D2E/DX2                !
 ! D86   D(18,13,14,64)        167.6956         estimate D2E/DX2                !
 ! D87   D(18,13,14,65)         50.5086         estimate D2E/DX2                !
 ! D88   D(12,13,18,19)         -3.3039         estimate D2E/DX2                !
 ! D89   D(12,13,18,73)        176.8463         estimate D2E/DX2                !
 ! D90   D(14,13,18,19)        173.2236         estimate D2E/DX2                !
 ! D91   D(14,13,18,73)         -6.6262         estimate D2E/DX2                !
 ! D92   D(13,14,15,16)        -60.4455         estimate D2E/DX2                !
 ! D93   D(13,14,15,66)         61.7518         estimate D2E/DX2                !
 ! D94   D(13,14,15,67)        177.1285         estimate D2E/DX2                !
 ! D95   D(64,14,15,16)         61.5348         estimate D2E/DX2                !
 ! D96   D(64,14,15,66)       -176.2679         estimate D2E/DX2                !
 ! D97   D(64,14,15,67)        -60.8912         estimate D2E/DX2                !
 ! D98   D(65,14,15,16)        177.8158         estimate D2E/DX2                !
 ! D99   D(65,14,15,66)        -59.9869         estimate D2E/DX2                !
 ! D100  D(65,14,15,67)         55.3899         estimate D2E/DX2                !
 ! D101  D(14,15,16,17)        179.9175         estimate D2E/DX2                !
 ! D102  D(14,15,16,68)         57.7519         estimate D2E/DX2                !
 ! D103  D(14,15,16,69)        -57.6754         estimate D2E/DX2                !
 ! D104  D(66,15,16,17)         57.7623         estimate D2E/DX2                !
 ! D105  D(66,15,16,68)        -64.4034         estimate D2E/DX2                !
 ! D106  D(66,15,16,69)       -179.8306         estimate D2E/DX2                !
 ! D107  D(67,15,16,17)        -58.1137         estimate D2E/DX2                !
 ! D108  D(67,15,16,68)        179.7207         estimate D2E/DX2                !
 ! D109  D(67,15,16,69)         64.2934         estimate D2E/DX2                !
 ! D110  D(15,16,17,70)        -61.1456         estimate D2E/DX2                !
 ! D111  D(15,16,17,71)        178.9785         estimate D2E/DX2                !
 ! D112  D(15,16,17,72)         58.679          estimate D2E/DX2                !
 ! D113  D(68,16,17,70)         60.9141         estimate D2E/DX2                !
 ! D114  D(68,16,17,71)        -58.9618         estimate D2E/DX2                !
 ! D115  D(68,16,17,72)       -179.2613         estimate D2E/DX2                !
 ! D116  D(69,16,17,70)        176.773          estimate D2E/DX2                !
 ! D117  D(69,16,17,71)         56.8971         estimate D2E/DX2                !
 ! D118  D(69,16,17,72)        -63.4024         estimate D2E/DX2                !
 ! D119  D(13,18,19,20)         -0.7208         estimate D2E/DX2                !
 ! D120  D(13,18,19,74)        179.4525         estimate D2E/DX2                !
 ! D121  D(73,18,19,20)        179.1287         estimate D2E/DX2                !
 ! D122  D(73,18,19,74)         -0.698          estimate D2E/DX2                !
 ! D123  D(18,19,20,11)          4.838          estimate D2E/DX2                !
 ! D124  D(18,19,20,21)       -174.1116         estimate D2E/DX2                !
 ! D125  D(74,19,20,11)       -175.3346         estimate D2E/DX2                !
 ! D126  D(74,19,20,21)          5.7158         estimate D2E/DX2                !
 ! D127  D(11,20,21,22)       -161.7495         estimate D2E/DX2                !
 ! D128  D(11,20,21,47)          7.71           estimate D2E/DX2                !
 ! D129  D(19,20,21,22)         17.17           estimate D2E/DX2                !
 ! D130  D(19,20,21,47)       -173.3705         estimate D2E/DX2                !
 ! D131  D(20,21,22,23)       -110.3849         estimate D2E/DX2                !
 ! D132  D(20,21,22,46)         58.0415         estimate D2E/DX2                !
 ! D133  D(47,21,22,23)         80.8878         estimate D2E/DX2                !
 ! D134  D(47,21,22,46)       -110.6858         estimate D2E/DX2                !
 ! D135  D(20,21,47,9)          -6.5891         estimate D2E/DX2                !
 ! D136  D(20,21,47,48)        174.9202         estimate D2E/DX2                !
 ! D137  D(22,21,47,9)         161.726          estimate D2E/DX2                !
 ! D138  D(22,21,47,48)        -16.7647         estimate D2E/DX2                !
 ! D139  D(21,22,23,24)        -15.0363         estimate D2E/DX2                !
 ! D140  D(21,22,23,25)        162.0446         estimate D2E/DX2                !
 ! D141  D(46,22,23,24)        176.9783         estimate D2E/DX2                !
 ! D142  D(46,22,23,25)         -5.9408         estimate D2E/DX2                !
 ! D143  D(21,22,46,37)       -161.7338         estimate D2E/DX2                !
 ! D144  D(21,22,46,45)         17.4777         estimate D2E/DX2                !
 ! D145  D(23,22,46,37)          7.4566         estimate D2E/DX2                !
 ! D146  D(23,22,46,45)       -173.3319         estimate D2E/DX2                !
 ! D147  D(22,23,24,103)       -41.647          estimate D2E/DX2                !
 ! D148  D(25,23,24,103)       141.2212         estimate D2E/DX2                !
 ! D149  D(22,23,25,26)       -177.5831         estimate D2E/DX2                !
 ! D150  D(22,23,25,36)          1.2219         estimate D2E/DX2                !
 ! D151  D(24,23,25,26)         -0.3296         estimate D2E/DX2                !
 ! D152  D(24,23,25,36)        178.4754         estimate D2E/DX2                !
 ! D153  D(23,24,103,48)        32.9053         estimate D2E/DX2                !
 ! D154  D(23,25,26,27)        -45.0596         estimate D2E/DX2                !
 ! D155  D(23,25,26,35)        136.9877         estimate D2E/DX2                !
 ! D156  D(36,25,26,27)        136.1436         estimate D2E/DX2                !
 ! D157  D(36,25,26,35)        -41.809          estimate D2E/DX2                !
 ! D158  D(23,25,36,37)          2.1854         estimate D2E/DX2                !
 ! D159  D(23,25,36,88)        179.8011         estimate D2E/DX2                !
 ! D160  D(26,25,36,37)       -179.0107         estimate D2E/DX2                !
 ! D161  D(26,25,36,88)         -1.395          estimate D2E/DX2                !
 ! D162  D(25,26,27,28)       -177.1717         estimate D2E/DX2                !
 ! D163  D(25,26,27,75)          2.5299         estimate D2E/DX2                !
 ! D164  D(35,26,27,28)          0.8287         estimate D2E/DX2                !
 ! D165  D(35,26,27,75)       -179.4697         estimate D2E/DX2                !
 ! D166  D(25,26,35,34)        177.5537         estimate D2E/DX2                !
 ! D167  D(25,26,35,87)         -4.0272         estimate D2E/DX2                !
 ! D168  D(27,26,35,34)         -0.4908         estimate D2E/DX2                !
 ! D169  D(27,26,35,87)        177.9283         estimate D2E/DX2                !
 ! D170  D(26,27,28,29)         -0.6532         estimate D2E/DX2                !
 ! D171  D(26,27,28,76)        179.4462         estimate D2E/DX2                !
 ! D172  D(75,27,28,29)        179.6458         estimate D2E/DX2                !
 ! D173  D(75,27,28,76)         -0.2547         estimate D2E/DX2                !
 ! D174  D(27,28,29,30)        178.1678         estimate D2E/DX2                !
 ! D175  D(27,28,29,34)          0.106          estimate D2E/DX2                !
 ! D176  D(76,28,29,30)         -1.9316         estimate D2E/DX2                !
 ! D177  D(76,28,29,34)       -179.9934         estimate D2E/DX2                !
 ! D178  D(28,29,30,31)       -100.6971         estimate D2E/DX2                !
 ! D179  D(28,29,30,77)        137.9322         estimate D2E/DX2                !
 ! D180  D(28,29,30,78)         21.3679         estimate D2E/DX2                !
 ! D181  D(34,29,30,31)         77.3066         estimate D2E/DX2                !
 ! D182  D(34,29,30,77)        -44.0641         estimate D2E/DX2                !
 ! D183  D(34,29,30,78)       -160.6284         estimate D2E/DX2                !
 ! D184  D(28,29,34,35)          0.2356         estimate D2E/DX2                !
 ! D185  D(28,29,34,86)       -179.0122         estimate D2E/DX2                !
 ! D186  D(30,29,34,35)       -177.8447         estimate D2E/DX2                !
 ! D187  D(30,29,34,86)          2.9074         estimate D2E/DX2                !
 ! D188  D(29,30,31,32)         63.3205         estimate D2E/DX2                !
 ! D189  D(29,30,31,79)        -59.0886         estimate D2E/DX2                !
 ! D190  D(29,30,31,80)       -174.4423         estimate D2E/DX2                !
 ! D191  D(77,30,31,32)       -174.8734         estimate D2E/DX2                !
 ! D192  D(77,30,31,79)         62.7175         estimate D2E/DX2                !
 ! D193  D(77,30,31,80)        -52.6362         estimate D2E/DX2                !
 ! D194  D(78,30,31,32)        -59.017          estimate D2E/DX2                !
 ! D195  D(78,30,31,79)        178.5738         estimate D2E/DX2                !
 ! D196  D(78,30,31,80)         63.2201         estimate D2E/DX2                !
 ! D197  D(30,31,32,33)        179.5712         estimate D2E/DX2                !
 ! D198  D(30,31,32,81)         57.3625         estimate D2E/DX2                !
 ! D199  D(30,31,32,82)        -58.0848         estimate D2E/DX2                !
 ! D200  D(79,31,32,33)        -58.1766         estimate D2E/DX2                !
 ! D201  D(79,31,32,81)        179.6147         estimate D2E/DX2                !
 ! D202  D(79,31,32,82)         64.1674         estimate D2E/DX2                !
 ! D203  D(80,31,32,33)         57.7017         estimate D2E/DX2                !
 ! D204  D(80,31,32,81)        -64.507          estimate D2E/DX2                !
 ! D205  D(80,31,32,82)       -179.9543         estimate D2E/DX2                !
 ! D206  D(31,32,33,83)        -59.6125         estimate D2E/DX2                !
 ! D207  D(31,32,33,84)       -179.8911         estimate D2E/DX2                !
 ! D208  D(31,32,33,85)         60.0738         estimate D2E/DX2                !
 ! D209  D(81,32,33,83)         62.2824         estimate D2E/DX2                !
 ! D210  D(81,32,33,84)        -57.9963         estimate D2E/DX2                !
 ! D211  D(81,32,33,85)       -178.0314         estimate D2E/DX2                !
 ! D212  D(82,32,33,83)        178.1825         estimate D2E/DX2                !
 ! D213  D(82,32,33,84)         57.9039         estimate D2E/DX2                !
 ! D214  D(82,32,33,85)        -62.1312         estimate D2E/DX2                !
 ! D215  D(29,34,35,26)         -0.0372         estimate D2E/DX2                !
 ! D216  D(29,34,35,87)       -178.4536         estimate D2E/DX2                !
 ! D217  D(86,34,35,26)        179.2112         estimate D2E/DX2                !
 ! D218  D(86,34,35,87)          0.7948         estimate D2E/DX2                !
 ! D219  D(25,36,37,38)       -179.4466         estimate D2E/DX2                !
 ! D220  D(25,36,37,46)         -0.7302         estimate D2E/DX2                !
 ! D221  D(88,36,37,38)          2.9104         estimate D2E/DX2                !
 ! D222  D(88,36,37,46)       -178.3732         estimate D2E/DX2                !
 ! D223  D(36,37,38,39)        179.3701         estimate D2E/DX2                !
 ! D224  D(36,37,38,89)          0.9309         estimate D2E/DX2                !
 ! D225  D(46,37,38,39)          0.6673         estimate D2E/DX2                !
 ! D226  D(46,37,38,89)       -177.7719         estimate D2E/DX2                !
 ! D227  D(36,37,46,22)         -4.1719         estimate D2E/DX2                !
 ! D228  D(36,37,46,45)        176.5794         estimate D2E/DX2                !
 ! D229  D(38,37,46,22)        174.5653         estimate D2E/DX2                !
 ! D230  D(38,37,46,45)         -4.6834         estimate D2E/DX2                !
 ! D231  D(37,38,39,40)       -173.1304         estimate D2E/DX2                !
 ! D232  D(37,38,39,44)          3.2988         estimate D2E/DX2                !
 ! D233  D(89,38,39,40)          5.2889         estimate D2E/DX2                !
 ! D234  D(89,38,39,44)       -178.2819         estimate D2E/DX2                !
 ! D235  D(38,39,40,41)        105.4459         estimate D2E/DX2                !
 ! D236  D(38,39,40,90)        -16.2793         estimate D2E/DX2                !
 ! D237  D(38,39,40,91)       -133.4763         estimate D2E/DX2                !
 ! D238  D(44,39,40,41)        -70.909          estimate D2E/DX2                !
 ! D239  D(44,39,40,90)        167.3658         estimate D2E/DX2                !
 ! D240  D(44,39,40,91)         50.1689         estimate D2E/DX2                !
 ! D241  D(38,39,44,45)         -3.1969         estimate D2E/DX2                !
 ! D242  D(38,39,44,99)        176.9065         estimate D2E/DX2                !
 ! D243  D(40,39,44,45)        173.3075         estimate D2E/DX2                !
 ! D244  D(40,39,44,99)         -6.5892         estimate D2E/DX2                !
 ! D245  D(39,40,41,42)        -60.5867         estimate D2E/DX2                !
 ! D246  D(39,40,41,92)         61.6089         estimate D2E/DX2                !
 ! D247  D(39,40,41,93)        176.9891         estimate D2E/DX2                !
 ! D248  D(90,40,41,42)         61.3961         estimate D2E/DX2                !
 ! D249  D(90,40,41,92)       -176.4083         estimate D2E/DX2                !
 ! D250  D(90,40,41,93)        -61.0281         estimate D2E/DX2                !
 ! D251  D(91,40,41,42)        177.6799         estimate D2E/DX2                !
 ! D252  D(91,40,41,92)        -60.1245         estimate D2E/DX2                !
 ! D253  D(91,40,41,93)         55.2557         estimate D2E/DX2                !
 ! D254  D(40,41,42,43)        179.7728         estimate D2E/DX2                !
 ! D255  D(40,41,42,94)         57.608          estimate D2E/DX2                !
 ! D256  D(40,41,42,95)        -57.8197         estimate D2E/DX2                !
 ! D257  D(92,41,42,43)         57.631          estimate D2E/DX2                !
 ! D258  D(92,41,42,94)        -64.5337         estimate D2E/DX2                !
 ! D259  D(92,41,42,95)       -179.9615         estimate D2E/DX2                !
 ! D260  D(93,41,42,43)        -58.2477         estimate D2E/DX2                !
 ! D261  D(93,41,42,94)        179.5876         estimate D2E/DX2                !
 ! D262  D(93,41,42,95)         64.1598         estimate D2E/DX2                !
 ! D263  D(41,42,43,96)        -61.203          estimate D2E/DX2                !
 ! D264  D(41,42,43,97)         58.6194         estimate D2E/DX2                !
 ! D265  D(41,42,43,98)        178.9216         estimate D2E/DX2                !
 ! D266  D(94,42,43,96)         60.8596         estimate D2E/DX2                !
 ! D267  D(94,42,43,97)       -179.3179         estimate D2E/DX2                !
 ! D268  D(94,42,43,98)        -59.0158         estimate D2E/DX2                !
 ! D269  D(95,42,43,96)        176.722          estimate D2E/DX2                !
 ! D270  D(95,42,43,97)        -63.4556         estimate D2E/DX2                !
 ! D271  D(95,42,43,98)         56.8465         estimate D2E/DX2                !
 ! D272  D(39,44,45,46)         -0.9262         estimate D2E/DX2                !
 ! D273  D(39,44,45,100)       179.3455         estimate D2E/DX2                !
 ! D274  D(99,44,45,46)        178.9703         estimate D2E/DX2                !
 ! D275  D(99,44,45,100)        -0.758          estimate D2E/DX2                !
 ! D276  D(44,45,46,22)       -174.3932         estimate D2E/DX2                !
 ! D277  D(44,45,46,37)          4.8404         estimate D2E/DX2                !
 ! D278  D(100,45,46,22)         5.3361         estimate D2E/DX2                !
 ! D279  D(100,45,46,37)      -175.4303         estimate D2E/DX2                !
 ! D280  D(9,47,48,103)        140.8463         estimate D2E/DX2                !
 ! D281  D(21,47,48,103)       -40.6379         estimate D2E/DX2                !
 ! D282  D(47,48,103,24)        33.3824         estimate D2E/DX2                !
 ! D283  D(8,49,50,5)            0.0253         estimate D2E/DX2                !
 ! D284  D(8,49,50,102)       -179.5964         estimate D2E/DX2                !
 ! D285  D(101,49,50,5)        178.8503         estimate D2E/DX2                !
 ! D286  D(101,49,50,102)       -0.7714         estimate D2E/DX2                !
 --------------------------------------------------------------------------------
 Trust Radius=3.00D-01 FncErr=1.00D-07 GrdErr=1.00D-06 EigMax=2.50D+02 EigMin=1.00D-04
 Number of steps in this run=    600 maximum allowed number of steps=    618.
 GradGradGradGradGradGradGradGradGradGradGradGradGradGradGradGradGradGrad

 Leave Link  103 at Tue Apr  8 09:59:41 2025, MaxMem= 13421772800 cpu:               0.3 elap:               0.0
 (Enter /public/software/apps/Gaussian/g16/l202.exe)
 Symmetry turned off by external request.
 Stoichiometry    C48H52CuO2(2)
 Framework group  C1[X(C48H52CuO2)]
 Deg. of freedom   303
 Full point group                 C1      NOp   1
                          Input orientation:                          
 ---------------------------------------------------------------------
 Center     Atomic      Atomic             Coordinates (Angstroms)
 Number     Number       Type             X           Y           Z
 ---------------------------------------------------------------------
      1          6           0       -6.773259   -7.173865   -0.659558
      2          6           0       -6.854691   -5.800643    0.008959
      3          6           0       -7.956283   -4.914164   -0.577383
      4          6           0       -8.070062   -3.527354    0.085552
      5          6           0       -6.835505   -2.675114   -0.094978
      6          6           0       -5.868311   -2.560834    0.914810
      7          6           0       -4.699953   -1.823412    0.725091
      8          6           0       -4.459154   -1.156255   -0.489552
      9          6           0       -3.253582   -0.318431   -0.706807
     10          6           0       -3.359063    0.899736   -1.333294
     11          6           0       -2.227454    1.716129   -1.627756
     12          6           0       -2.370749    2.976575   -2.254057
     13          6           0       -1.278828    3.788433   -2.526663
     14          6           0       -1.437856    5.191312   -3.058286
     15          6           0       -1.151053    6.260216   -1.982992
     16          6           0       -2.078425    6.181567   -0.767150
     17          6           0       -1.778096    7.246807    0.288239
     18          6           0        0.012101    3.289375   -2.218131
     19          6           0        0.182035    2.066110   -1.602882
     20          6           0       -0.932622    1.260767   -1.238503
     21          6           0       -0.785750    0.040882   -0.485919
     22          6           0        0.523559   -0.112915    0.219365
     23          6           0        1.549574   -1.060419   -0.133584
     24          8           0        1.344897   -2.075599   -0.922879
     25          6           0        2.908938   -0.856132    0.358561
     26          6           0        3.993176   -1.789762   -0.036257
     27          6           0        3.822363   -3.185236   -0.023249
     28          6           0        4.877757   -4.038590   -0.343459
     29          6           0        6.139072   -3.540494   -0.701905
     30          6           0        7.296213   -4.462219   -1.009911
     31          6           0        8.290169   -4.606572    0.158915
     32          6           0        7.690290   -5.242207    1.415527
     33          6           0        8.700320   -5.382891    2.555387
     34          6           0        6.306677   -2.148174   -0.725964
     35          6           0        5.256694   -1.290175   -0.399840
     36          6           0        3.182176    0.219099    1.168714
     37          6           0        2.177399    1.136457    1.596481
     38          6           0        2.491364    2.241722    2.421862
     39          6           0        1.524208    3.147731    2.833511
     40          6           0        1.876326    4.407738    3.584801
     41          6           0        1.770156    5.666012    2.697879
     42          6           0        2.702213    5.649349    1.483220
     43          6           0        2.579314    6.901171    0.613323
     44          6           0        0.179558    2.897378    2.459835
     45          6           0       -0.156220    1.826650    1.656661
     46          6           0        0.835750    0.939954    1.153793
     47          6           0       -1.941373   -0.795255   -0.278205
     48          8           0       -1.885811   -1.957895    0.304129
     49          6           0       -5.429067   -1.270204   -1.502150
     50          6           0       -6.592515   -2.014539   -1.308063
     51          1           0       -6.562640   -7.078073   -1.740901
     52          1           0       -7.723764   -7.729545   -0.555238
     53          1           0       -5.972655   -7.792608   -0.216218
     54          1           0       -5.881373   -5.285067   -0.084074
     55          1           0       -7.030581   -5.925627    1.095414
     56          1           0       -8.930678   -5.431490   -0.484218
     57          1           0       -7.778599   -4.780563   -1.662084
     58          1           0       -8.944288   -3.003268   -0.341441
     59          1           0       -8.274249   -3.658766    1.163753
     60          1           0       -6.034349   -3.063536    1.873200
     61          1           0       -3.964955   -1.758164    1.527578
     62          1           0       -4.348112    1.268568   -1.620394
     63          1           0       -3.379165    3.321441   -2.505164
     64          1           0       -2.463283    5.329332   -3.445382
     65          1           0       -0.749885    5.350579   -3.909037
     66          1           0       -0.100907    6.161567   -1.645802
     67          1           0       -1.233419    7.261591   -2.447109
     68          1           0       -1.996067    5.178248   -0.310610
     69          1           0       -3.128695    6.277236   -1.105534
     70          1           0       -0.751807    7.135567    0.684036
     71          1           0       -2.474464    7.175133    1.142699
     72          1           0       -1.864049    8.266684   -0.130349
     73          1           0        0.891830    3.889665   -2.471896
     74          1           0        1.189640    1.707560   -1.387577
     75          1           0        2.852413   -3.603872    0.245729
     76          1           0        4.718562   -5.121478   -0.316234
     77          1           0        7.842407   -4.083078   -1.892646
     78          1           0        6.910766   -5.461721   -1.281462
     79          1           0        8.694818   -3.607597    0.412666
     80          1           0        9.151796   -5.212384   -0.182103
     81          1           0        7.280316   -6.238161    1.156728
     82          1           0        6.829418   -4.638055    1.755875
     83          1           0        9.560198   -6.010648    2.255997
     84          1           0        8.241636   -5.845514    3.447515
     85          1           0        9.099397   -4.396770    2.857263
     86          1           0        7.274777   -1.726801   -1.017512
     87          1           0        5.409705   -0.208363   -0.452073
     88          1           0        4.201839    0.365052    1.536976
     89          1           0        3.535061    2.390767    2.717504
     90          1           0        2.903092    4.328930    3.984771
     91          1           0        1.202405    4.527950    4.452984
     92          1           0        0.724210    5.777165    2.351750
     93          1           0        1.986461    6.556900    3.317940
     94          1           0        2.487247    4.754131    0.871460
     95          1           0        3.747999    5.537441    1.830508
     96          1           0        1.556502    7.003005    0.206123
     97          1           0        2.799993    7.818251    1.190395
     98          1           0        3.276927    6.867408   -0.242480
     99          1           0       -0.608010    3.569684    2.815447
    100          1           0       -1.202123    1.656723    1.396829
    101          1           0       -5.257715   -0.781338   -2.465560
    102          1           0       -7.325218   -2.089091   -2.118876
    103         29           0       -0.322501   -2.722426   -0.377718
 ---------------------------------------------------------------------
 Rotational constants (GHZ):           0.0453164           0.0350674           0.0221155
 Leave Link  202 at Tue Apr  8 09:59:41 2025, MaxMem= 13421772800 cpu:               0.8 elap:               0.0
 (Enter /public/software/apps/Gaussian/g16/l301.exe)
 Standard basis: def2SVPP (5D, 7F)
 Ernie: Thresh=  0.10000D-02 Tol=  0.10000D-05 Strict=F.
   828 basis functions,  1529 primitive gaussians,   880 cartesian basis functions
   193 alpha electrons      192 beta electrons
       nuclear repulsion energy      6997.2174998339 Hartrees.
 IExCor=  402 DFT=T Ex+Corr=B3LYP ExCW=0 ScaHFX=  0.200000
 ScaDFX=  0.800000  0.720000  1.000000  0.810000 ScalE2=  1.000000  1.000000
 IRadAn=      5 IRanWt=     -1 IRanGd=            0 ICorTp=0 IEmpDi=141
 NAtoms=  103 NActive=  103 NUniq=  103 SFac= 1.00D+00 NAtFMM=   60 NAOKFM=T Big=T
 Integral buffers will be    131072 words long.
[...]
 ,0.00000163,0.00000046,-0.00000259,0.00000065,0.00000318,0.00000124,0.
 00000049,-0.00000014,-0.00000278,-0.00000109,-0.00000132,-0.00000024,0
 .00000155,0.00000383,-0.00000148,0.00000210,0.00000210,0.00000064,0.00
 000069,-0.00000038,-0.00000008,-0.00000177,-0.00000043,-0.00000067,0.0
 0000006,-0.00000026,-0.00000131,-0.00000003,0.00000014,0.00000083,0.00
 000008,-0.00000027,-0.00000041,0.00000073,0.00000046,-0.00000021,0.000
 00017,-0.00000037,0.00000004,0.00000024,-0.00000013,-0.00000015,-0.000
 00003,0.,-0.00000034,-0.00000012,-0.00000042,0.00000040,-0.00000008,-0
 .00000006,-0.00000041,-0.00000019,-0.00000014,0.00000023,0.00000028,-0
 .00000023,0.00000018,0.00000001,0.00000005,0.00000010,-0.00000005,-0.0
 0000015,-0.00000032,-0.00000009,-0.00000062,-0.00000006,0.00000019,0.0
 0000027,-0.00000026,-0.00000016,-0.00000058,-0.00000045,-0.00000022,-0
 .00000082,-0.00000022,-0.00000025,-0.00000020,-0.00000076,-0.00000028,
 -0.00000015,-0.00000119,-0.00000129,0.00000077,0.00000062,0.00000059,-
 0.00000051,-0.00000184,0.00000005,-0.00000016,-0.00000037,-0.00000115,
 0.00000052,-0.00000025,0.00000026,0.00000078,0.00000006,0.00000055,-0.
 00000005,-0.00000072,-0.00000005,0.00000009,-0.00000017,0.00000039,0.0
 0000071,-0.00000149,-0.00000122,0.00000059,0.00000304,0.00000164,0.002
 28274,-0.00246629,-0.00127308,0.02551431,0.03789619,0.00007728,-0.0000
 0730,0.00002733,-0.00016085,-0.00001729,0.00004351,0.00015985,0.000189
 68,-0.00020879,-0.00130233,-0.00198096,0.00035871,-0.01959957,-0.00275
 852,-0.01578055,0.00122200,0.00469824,-0.00273175,0.00093371,0.0001981
 6,-0.00006292,0.00023118,0.00247136,0.00209838,0.00021199,0.00008104,0
 .00023575,-0.00001601,-0.00001516,-0.00008567,-0.00000876,-0.00000884,
 0.00001640,-0.00000745,0.00002091,-0.00001174,-0.00001300,0.00000365,-
 0.00000196,-0.00000377,0.00000379,-0.00000521,0.00000009,0.00000050,0.
 00000349,-0.00000411,0.00000288,-0.00000254,-0.00000015,0.00000032,0.0
 0000095,-0.00000631,-0.00000791,0.00000204,-0.00000334,-0.00000833,-0.
 00000127,-0.00000366,0.00001295,0.00000625,-0.00005866,-0.00004472,-0.
 00000467,-0.00003938,0.00002383,0.00001439,0.00003550,-0.00004941,-0.0
 0002574,-0.00000946,0.00004319,0.00002759,0.00002492,-0.00000043,0.000
 00328,0.00000237,-0.00000652,-0.00000284,0.00000038,0.00000212,-0.0000
 0090,-0.00000297,-0.00000264,0.00000060,0.00000163,-0.00000190,0.00000
 060,0.00000030,-0.00000265,-0.00000284,0.00000078,0.00000087,0.0000025
 1,0.00000023,-0.00000182,-0.00000042,0.00000077,0.00000026,0.00000040,
 -0.00000115,0.00000418,-0.00000017,0.00000055,0.00000356,0.00000130,0.
 00000556,-0.00001770,-0.00001136,-0.00000646,0.00001978,0.00000832,0.0
 0001500,-0.00002721,-0.00001530,-0.00001818,0.00001604,0.00000259,0.00
 000414,-0.00000135,0.00000589,-0.00000264,0.00000241,-0.00000525,0.000
 00279,0.00000122,0.00000156,-0.00000076,0.00000092,-0.00000074,-0.0000
 0327,0.00000489,0.00000465,-0.00000211,-0.00000244,-0.00000219,-0.0000
 0535,-0.00000551,0.00000284,0.00007925,0.00008417,-0.00008405,-0.00005
 715,-0.00006243,0.00007356,0.00447152,0.00123663,0.00620601,-0.1381124
 4,-0.00738597,-0.20536548,-0.00001460,0.00001368,0.00000480,-0.0000006
 5,0.00002001,0.00000484,0.00000963,-0.00003349,-0.00000149,0.00007301,
 -0.00003619,-0.00004394,0.00003728,-0.00007189,0.00005452,-0.00000565,
 0.00004584,0.00006280,-0.00007702,0.00015672,0.00019978,0.00115508,0.0
 0007572,0.00006082,0.00026293,-0.00020915,0.00022699,-0.00101770,-0.00
 011535,-0.00087110,0.00009233,-0.00034300,-0.00013586,-0.00003670,0.00
 001001,-0.00000065,0.00000256,0.00000119,0.00000070,0.00000265,-0.0000
 0120,0.00000084,-0.00000107,-0.00000244,0.00000094,0.00000214,0.000001
 43,-0.00000035,0.00000048,-0.00000455,-0.00000031,-0.00000056,-0.00000
 163,0.00000247,0.00000207,-0.00000025,0.00000126,0.00000133,0.00000065
 ,-0.00000007,-0.00000012,0.00000043,-0.00000214,-0.00000041,-0.0000024
 1,0.00000075,-0.00000172,-0.00000095,0.00000104,0.00000012,0.00000181,
 -0.00000098,0.00000076,-0.00000396,0.00000184,0.00000013,0.00000189,0.
 00000018,-0.00000181,0.00000056,0.00000077,-0.00000030,0.00000154,0.00
 000015,0.00000088,-0.00000015,-0.00000013,-0.00000242,0.00000166,-0.00
 000069,0.00000022,0.00000024,-0.00000005,-0.00000088,0.00000063,0.0000
 0140,-0.00000127,0.00000055,0.00000018,0.00000022,0.00000001,-0.000000
 91,0.00000009,-0.00000023,-0.00000008,-0.00000208,-0.00000031,0.000000
 56,0.00000167,0.00000034,-0.00000062,-0.00000238,-0.00000209,-0.000001
 19,-0.00000280,-0.00000054,-0.00000071,-0.00000209,-0.00000132,-0.0000
 0092,-0.00000003,-0.00000280,-0.00000258,0.,0.00000139,0.00000091,-0.0
 0000118,-0.00000498,0.,0.00000018,-0.00000129,-0.00000272,-0.00000052,
 0.00000002,-0.00000018,0.00000017,0.00000048,0.00000056,-0.00000018,-0
 .00000208,-0.00000085,-0.00000010,-0.00000014,0.00000155,0.00000233,-0
 .00000110,-0.00000102,0.00000052,0.00000155,-0.00000012,0.00053664,-0.
 00167132,0.00030204,0.15093550,0.00547909,0.21540521,0.00001591,-0.000
 01134,-0.00001037,-0.00006544,-0.00004305,0.00002316,0.00002412,0.0000
 0309,-0.00001981,-0.00005735,0.00000860,0.00004683,-0.00000644,-0.0000
 2122,0.00005167,-0.00004109,-0.00017063,0.00007314,0.00009364,-0.00002
 315,-0.00023624,-0.00042063,-0.00017490,0.00012250,0.00301526,-0.00357
 812,0.00034144,0.00098435,0.00252533,-0.00110362,-0.00090355,-0.001677
 75,0.00056537,0.00054744,0.00168107,-0.00079239,-0.00136445,-0.0005129
 8,0.00017358,0.00000366,0.00007155,-0.00002620,0.00000155,-0.00003855,
 0.00000104,0.00000885,-0.00000281,0.00000901,0.00001188,0.00000699,0.0
 0000300,0.00025795,-0.00064874,0.00032547,0.00018840,-0.00001817,-0.00
 003667,-0.00110557,0.00077738,-0.00054590,-0.00286472,-0.00088090,0.00
 468145,-0.00373149,0.00004438,0.00454685,-0.01582189,-0.03247904,-0.01
 813830,-0.09556273,-0.02479322,0.04212634,0.00322127,0.00309567,0.0011
 1603,-0.00039825,0.00029667,-0.00012869,-0.00052476,-0.00048778,0.0002
 0994,0.00016311,0.00027219,-0.00003046,0.00001493,0.00002329,-0.000022
 27,-0.00000409,0.00007127,0.00004451,-0.00000968,-0.00001892,-0.000049
 84,-0.00000209,0.00003198,0.00001019,-0.00001218,-0.00000757,-0.000013
 10,0.00010505,-0.00005251,-0.00003505,-0.00004611,-0.00000839,0.000125
 24,0.00068166,-0.00247177,-0.00152744,-0.00060978,0.00174187,0.0008621
 1,0.00031439,-0.00166214,-0.00107369,-0.00132119,0.00069388,0.00029189
 ,-0.00001080,-0.00007039,-0.00005838,0.00000843,0.00003948,0.00001547,
 0.00000442,-0.00000456,0.00000593,0.00001042,-0.00001056,0.00000344,0.
 00035108,0.00054024,0.00044670,0.00016161,0.00004232,-0.00000552,-0.00
 107978,-0.00054716,-0.00116508,-0.00899904,0.03424510,-0.01118865,-0.0
 8729524,0.02793124,0.04446631,-0.00001386,-0.00008502,-0.00013989,0.00
 006154,0.00000041,-0.00001977,-0.00001032,-0.00000490,-0.00000258,0.00
 002627,0.00002041,0.00000300,-0.00001529,-0.00000179,0.00000317,0.0000
 4325,0.00001452,-0.00000120,0.00001032,0.00000583,-0.00000966,0.000036
 34,0.00003087,0.00000190,-0.00001351,-0.00000927,-0.00000810,0.0000332
 8,0.00000565,0.00001243,0.00000718,0.00001419,-0.00001946,0.00000055,0
 .00001684,-0.00001825,-0.00005599,0.00007055,0.00022055,0.00001202,0.0
 0001510,0.00025206,0.00001275,0.00002638,-0.00000979,0.00000228,-0.000
 00741,0.00000092,-0.00000771,-0.00001319,-0.00000077,0.00000048,0.0000
 1207,0.00000688,0.00000637,-0.00001360,-0.00000123,0.00000424,0.000010
 02,0.00000585,-0.00000896,0.00000190,-0.00000841,-0.00001080,-0.000003
 52,-0.00000160,0.00000253,-0.00000249,-0.00000008,-0.00000170,-0.00000
 057,-0.00000208,0.00000883,-0.00004946,-0.00000132,-0.00004871,-0.0000
 1670,0.00006612,-0.00029862,0.00056902,-0.00034085,0.00000691,-0.00003
 650,0.00000824,0.00004401,-0.00001085,-0.00001295,0.00000258,-0.000024
 73,0.00000073,-0.00001465,0.00000369,0.00000306,0.00004229,-0.00002969
 ,0.00001626,-0.00000348,-0.00000070,0.00000142,0.00001068,-0.00001235,
 -0.00003176,0.00002043,-0.00000678,0.00000157,-0.00000235,-0.00000468,
 0.00001933,0.00000322,0.00000611,0.00000158,0.00004020,0.00000977,-0.0
 0002373,0.00001168,0.00003282,-0.00003110,0.00001587,-0.00004818,0.000
 28639,0.00001816,-0.00002060,-0.00001080,0.00000959,0.00001012,0.00000
 402,-0.00000766,0.00002073,0.00000603,0.00000045,-0.00001675,0.0000041
 2,0.00001074,0.00002269,0.00000171,0.00000193,-0.00000906,0.00000949,-
 0.00000720,0.00000059,-0.00000811,-0.00000957,0.00000399,-0.00000175,-
 0.00000110,0.00000548,0.00000004,0.00000302,0.00000167,-0.00000238,0.0
 0001177,0.00005395,0.00000621,-0.00003949,0.00000561,0.00007509,-0.000
 03548,0.00003463,0.00002428,0.00002064,0.00001216,0.00002083,0.2121330
 3,-0.00000275,0.00002171,0.00000976,-0.00006033,-0.00003461,-0.0000138
 1,-0.00005816,0.00007059,0.00003323,0.00006114,-0.00000767,-0.00005480
 ,-0.00006459,-0.00000453,-0.00012679,0.00004099,0.00006359,-0.00013899
 ,-0.00004816,-0.00012488,0.00032891,0.00050496,0.00028856,-0.00027314,
 -0.00073510,0.00238896,0.00105399,-0.00078596,-0.00125155,0.00058505,0
 .00040582,0.00136235,-0.00057228,-0.00062887,-0.00150158,0.00050030,0.
 00114977,0.00052101,-0.00015657,-0.00000936,-0.00010211,0.00006732,0.0
 0001505,0.00003587,-0.00001062,0.00000744,-0.00002150,0.00000613,0.000
 00047,-0.00000789,-0.00000797,-0.00017447,0.00035211,-0.00028391,0.000
 16709,0.00012672,-0.00018153,-0.00069476,-0.00092732,0.00353148,0.0084
 6986,-0.00109992,0.00008724,-0.00884850,-0.00019839,-0.00060488,-0.017
 61939,-0.02419963,-0.00816406,-0.02614215,-0.00428323,0.01791984,0.000
 72233,0.00253879,-0.00069311,-0.00052238,0.00032468,0.00004428,0.00041
 729,-0.00001558,-0.00001714,-0.00012366,0.00005536,0.00003458,0.000071
 44,0.00005045,-0.00005247,0.00000844,0.00004588,0.00003970,-0.00000249
 ,-0.00001627,-0.00003824,0.00001262,0.00003331,0.00000770,-0.00000023,
 -0.00000424,-0.00000106,0.00002051,-0.00017365,-0.00000979,-0.00009505
 ,-0.00020498,0.00008585,0.00051800,-0.00093168,-0.00059286,-0.00014045
 ,0.00104517,0.00067700,0.00032992,-0.00116784,-0.00053444,-0.00080158,
 0.00052606,0.00020238,-0.00000541,-0.00006984,-0.00008236,-0.00000859,
 0.00002916,0.00001827,-0.00001281,-0.00001869,-0.00001123,-0.00000371,
 -0.00000671,0.00000571,0.00018032,0.00013917,0.00027471,-0.00019234,0.
 00014546,0.00021956,0.00087505,-0.00023510,-0.00354955,0.01591153,-0.0
 3192909,0.00373146,0.03239603,-0.00559123,-0.02018548,0.00013047,-0.00
 006227,0.00012710,-0.00015703,-0.00011615,0.00008410,-0.00002601,-0.00
 000342,-0.00002593,0.00003021,-0.00000447,-0.00001172,0.00001156,-0.00
 006649,0.00002552,-0.00001319,0.00006618,0.00000909,0.00001106,0.00000
 012,-0.00000478,0.00001007,-0.00006022,-0.00000025,0.00000978,0.000003
 08,0.00000512,-0.00002422,-0.00003734,0.00000265,-0.00002454,-0.000014
 61,0.00001438,-0.00005836,0.00000218,0.00006786,0.00004545,0.00007619,
 -0.00027531,-0.00004107,0.00002338,-0.00029197,-0.00004354,0.00002052,
 -0.00003673,-0.00002387,0.00002415,-0.00000760,0.00001450,0.00003004,-
 0.00000876,-0.00001570,-0.00001999,-0.00000351,-0.00000848,0.00004147,
 -0.00000039,0.00000771,0.00000576,-0.00001878,-0.00000688,0.00000285,-
 0.00000147,-0.00000244,-0.00000515,0.00000186,-0.00000153,-0.00000250,
 0.00001074,0.00000023,0.00001767,-0.00000539,0.00000891,0.00004770,0.0
 0000471,-0.00003635,-0.00003569,-0.00009080,-0.00016449,0.00023827,-0.
 00014655,0.00007493,-0.00009320,-0.00000461,0.00001473,-0.00001722,-0.
 00000307,0.00001079,-0.00004171,-0.00000946,-0.00001817,-0.00001070,-0
 .00000253,0.00001940,-0.00001276,0.00001408,-0.00000027,-0.00002684,-0
 .00000872,0.00000579,0.00001174,-0.00001325,0.00000360,0.00000046,0.00
 000082,0.00000244,-0.00000136,0.00001502,-0.00000706,-0.00000723,-0.00
 000425,0.00002116,-0.00001312,-0.00001475,-0.00007301,-0.00002874,0.00
 003331,0.00003107,-0.00004292,0.00034583,0.00004442,0.00000868,0.00004
 617,0.00002660,0.00001749,0.00001148,-0.00000760,0.00002795,0.00001474
 ,0.00001253,-0.00001937,-0.00000085,0.00001219,0.00003741,0.00000606,-
 0.00000815,0.00000581,0.00001808,0.00000960,0.00000166,0.00000402,0.00
 000409,-0.00000633,-0.00000231,0.00000245,0.00001566,0.00000844,0.0000
 0052,-0.00000140,-0.00001079,-0.00000678,0.00004057,-0.00000343,0.0000
 4473,-0.00005165,0.00005733,0.00003224,0.00002257,0.00001407,-0.000053
 05,0.00000523,-0.00001314,-0.00433627,0.06397278,0.00000642,-0.0000006
 3,0.00002571,-0.00001526,-0.00000253,0.00000715,-0.00000860,-0.0000016
 7,0.00002225,-0.00000088,0.00000239,-0.00000727,-0.00000431,0.00001209
 ,-0.00009667,0.00002768,0.00009111,-0.00002468,0.00009497,0.00001546,0
 .00021551,0.00011472,-0.00000216,-0.00015517,-0.00158949,0.00348087,0.
 00086605,-0.00053467,-0.00065467,0.00013286,0.00046189,0.00066351,-0.0
 0016231,-0.00023080,-0.00047408,0.00016543,0.00042233,0.00018077,-0.00
 003355,-0.00001943,0.00000996,0.00000933,0.00001492,0.00001652,0.00002
 538,-0.00001146,-0.00000926,0.00000118,0.00001501,0.00000395,0.0000066
 4,-0.00022327,0.00015163,-0.00026956,0.00004295,-0.00014214,-0.0000046
 2,0.00002406,0.00061462,0.00033713,0.00384001,-0.00021631,-0.00149427,
 0.00203267,-0.00023147,-0.00136298,-0.00350759,0.00208889,0.00505484,0
 .03159637,0.01477047,-0.02026111,-0.00185600,-0.00275898,-0.00001479,0
 .00026713,-0.00002450,0.00010843,-0.00023271,-0.00003335,-0.00006712,0
 .00008073,0.00006873,-0.00010798,0.00002563,-0.00000653,-0.00001531,0.
 00001136,0.00002653,0.00002157,0.00000673,-0.00001470,-0.00000165,-0.0
 0001753,0.00001543,0.00000526,-0.00000038,-0.00000242,-0.00000139,0.00
 001925,-0.00003886,-0.00002095,-0.00003811,0.00001021,-0.00008797,-0.0
 0027596,0.00037817,0.00001980,0.00018065,-0.00032778,-0.00004869,-0.00
 005199,0.00008519,0.00003976,0.00005100,-0.00006385,-0.00001095,-0.000
 02330,-0.00001965,-0.00000690,0.00001229,-0.00001447,0.00002702,-0.000
 01099,0.00000747,0.00000197,0.00001369,-0.00000883,0.00000650,-0.00009
 015,0.00005860,-0.00014189,0.00007508,0.00003556,-0.00002588,0.0001008
 1,-0.00052662,-0.00031653,-0.00106615,-0.00856166,0.00551822,0.0351196
 4,-0.01550618,-0.02676764,0.00013594,-0.00001872,0.00005370,-0.0001304
 2,-0.00008031,-0.00003359,-0.00001192,-0.00000381,-0.00002842,0.000006
 39,-0.00000150,-0.00000889,-0.00000539,0.00000024,0.00000960,0.0000001
 2,0.00000287,0.00003185,0.00002415,0.00000431,-0.00002679,0.00000102,-
 0.00000381,-0.00000399,-0.00000683,0.00000577,-0.00001899,-0.00000448,
 -0.00000190,-0.00000300,0.00000708,0.00000067,-0.00001190,0.00002746,0
 .00002205,-0.00000657,0.00000774,-0.00009018,-0.00010837,-0.00000520,0
 .00000093,-0.00034988,-0.00000453,-0.00000719,-0.00000700,-0.00000274,
 -0.00000235,0.00000043,0.00000208,-0.00000888,0.00000340,-0.00000686,0
 .00000111,-0.00000381,0.00000147,-0.00001135,-0.00000775,0.00000743,0.
 00000187,0.00001453,-0.00000536,0.00000320,-0.00000511,-0.00001232,-0.
 00000573,-0.00000022,0.00000678,-0.00000653,-0.00000967,-0.00000422,-0
 .00000178,-0.00000565,-0.00000759,0.00001010,0.00003213,-0.00005553,0.
 00000534,0.00008763,0.00005081,-0.00001343,0.00017998,0.00001675,-0.00
 002654,0.00002850,0.00002037,0.00000151,-0.00000976,0.00000088,-0.0000
 1821,0.00000521,-0.00000622,0.00000095,-0.00000515,0.00001330,-0.00000
 560,-0.00000179,-0.00000173,-0.00000057,0.00000210,0.00000771,-0.00001
 039,-0.00000238,0.00000865,-0.00000477,-0.00000245,-0.00000321,0.00000
 700,-0.00000607,-0.00000378,0.00000029,0.00000167,0.00002034,0.0000007
 1,0.00001274,0.00001072,0.00000384,0.00002059,0.00000285,0.00005081,-0
 .00029609,0.00000677,0.00000849,0.00000374,0.00000291,0.00000657,0.000
 00389,0.00000339,0.00001367,0.00000710,-0.00000452,-0.00000471,-0.0000
 0316,0.00000635,0.00001967,-0.00000489,0.00000526,-0.00000484,0.000016
 76,-0.00000422,-0.00000086,-0.00000525,-0.00001093,0.00000634,0.000000
 21,-0.00000329,0.00000582,-0.00000366,0.00000796,0.00000666,-0.0000102
 1,-0.00000754,0.,0.00002691,-0.00005639,-0.00002972,0.00009502,-0.0000
 3762,0.00004957,-0.00005628,-0.00002218,0.00000737,-0.00000279,-0.0648
 3662,0.00697112,0.03930167\\0.00000017,-0.00000083,0.00000088,-0.00000
 052,0.,0.00000078,0.00000109,-0.00000095,0.00000134,0.00000035,0.00000
 132,0.00000086,-0.00000146,0.00000012,-0.00000142,0.00000226,-0.000000
 71,0.00000170,-0.00000048,-0.00000044,0.00000211,-0.00000207,-0.000000
 03,-0.00000398,-0.00000219,-0.00000003,0.00000233,-0.00000137,-0.00000
 134,0.00000070,0.00000170,0.00000099,-0.00000057,-0.00000071,-0.000002
 05,0.00000124,0.00000016,0.00000037,0.00000073,0.00000039,0.00000065,0
 .00000089,-0.00000020,-0.00000014,-0.00000238,0.00000010,0.00000005,0.
 00000083,0.,-0.00000023,-0.00000150,0.00000026,0.00000123,-0.00000058,
 -0.00000035,-0.00000123,0.00000115,-0.00000248,0.00000065,-0.00000212,
 0.00000371,-0.00000106,0.00000168,0.00000658,0.00000171,0.00000353,-0.
 00000613,0.00000142,-0.00000347,0.00000189,-0.00000185,-0.00000227,0.0
 0000006,0.00000239,0.00000322,0.00000142,0.00000085,-0.00000092,0.0000
 0023,-0.00000064,-0.00000018,-0.00000047,-0.00000042,0.00000033,-0.000
 00032,0.00000104,-0.00000004,0.00000056,-0.00000076,-0.00000035,-0.000
 00040,0.00000031,-0.00000032,0.00000012,-0.00000040,-0.00000022,-0.000
 00012,0.00000036,-0.00000022,0.00000028,-0.00000041,-0.00000038,-0.000
 00097,-0.00000031,-0.00000014,-0.00000054,-0.00000101,-0.00000112,0.00
 000127,0.00000061,0.00000082,-0.00000109,0.00000101,-0.00000042,0.0000
 0195,-0.00000097,-0.00000124,-0.00000029,0.00000234,-0.00000093,-0.000
 00006,-0.00000073,0.00000187,0.00000068,0.00000100,-0.00000211,0.00000
 035,-0.00000074,0.00000009,-0.00000005,0.00000022,-0.00000061,0.000001
 50,0.00000049,-0.00000025,-0.00000314,-0.00000166,-0.00000218,0.000000
 65,0.00000175,-0.00000252,-0.00000126,-0.00000177,0.00000196,0.0000022
 2,0.00000068,0.00000237,-0.00000113,0.00000046,0.00000174,-0.00000013,
 -0.00000007,0.00000095,0.00000013,0.00000015,0.00000102,-0.00000027,0.
 00000024,0.00000075,0.00000020,-0.00000032,0.00000063,0.00000010,-0.00
 000002,0.00000094,-0.00000011,-0.00000021,0.00000127,0.00000001,0.0000
 0032,0.00000106,0.00000025,-0.00000079,-0.00000030,-0.00000061,0.00000
 055,0.00000134,-0.00000008,0.00000045,0.00000029,-0.00000008,-0.000000
 01,0.00000029,-0.00000014,-0.00000029,-0.00000024,-0.00000047,-0.00000
 012,-0.00000040,-0.00000028,0.00000006,-0.00000002,-0.00000032,-0.0000
 0042,-0.00000076,-0.00000024,-0.00000009,-0.00000014,-0.00000003,-0.00
 000009,-0.00000012,0.00000006,-0.00000054,-0.00000029,-0.00000026,-0.0
 0000019,-0.00000058,-0.00000010,0.00000011,-0.00000023,-0.00000010,-0.
 00000016,-0.00000018,-0.00000004,-0.00000013,-0.00000026,-0.00000028,-
 0.00000031,-0.00000035,0.00000015,-0.00000088,0.00000010,-0.00000028,-
 0.00000009,0.00000020,0.00000010,0.00000018,-0.00000001,-0.00000016,-0
 .00000007,-0.00000005,0.00000002,0.00000014,-0.00000008,0.00000003,0.,
 -0.00000037,0.00000021,-0.00000016,-0.00000033,0.00000020,0.00000042,0
 .00000007,0.,0.00000025,-0.00000009,0.00000033,0.00000014,-0.00000027,
 0.00000021,0.00000027,-0.00000014,0.00000024,0.00000010,-0.00000030,-0
 .00000005,-0.00000015,-0.00000032,-0.00000007,-0.00000009,-0.00000017,
 0.00000032,-0.00000018,-0.00000014,0.00000017,-0.00000017,-0.00000013,
 0.00000006,0.00000040,-0.00000051,0.00000072,-0.00000006,-0.00000010,0
 .00000016,0.00000031,-0.00000047,-0.00000002,0.00000034,-0.00000091,-0
 .00000020,-0.00000015,-0.00000032,-0.00000021,0.00000004,-0.00000033,0
 .00000006,0.00000003,-0.00000080,-0.00000003,0.00000007,-0.00000072,-0
 .00000007,-0.00000021,-0.00000067,-0.00000023,-0.00000001,-0.00000036,
 -0.00000079,0.00000021,0.00000050,-0.00000018,-0.00000009,0.00000017,-
 0.00000039,-0.00000036,0.00000072,0.00000033,0.00000033,0.00000043\\\@
 The archive entry for this job was punched.


 NEVER TEACH A PIG TO SING.
 IT WASTES YOUR TIME AND ANNOYS THE PIG.
     -- SEEN ON A GREETING CARD
 Job cpu time:       2 days  3 hours 48 minutes 31.4 seconds.
 Elapsed time:       0 days  1 hours 37 minutes 44.5 seconds.
 File lengths (MBytes):  RWF=  15363 Int=      0 D2E=      0 Chk=     78 Scr=      1
 Normal termination of Gaussian 16 at Tue Apr  8 11:43:23 2025.
