 Entering Gaussian System, Link 0=g16
 Initial command:
 /public/software/apps/Gaussian/g16/l1.exe "/public/home/LJQ_HG/tmp/Gau-80775.inp" -scrdir="/public/home/LJQ_HG/tmp/"
 Entering Link 1 = /public/software/apps/Gaussian/g16/l1.exe PID=     80776.
  
 Copyright (c) 1988-2019, Gaussian, Inc.  All Rights Reserved.
  
 This is part of the Gaussian(R) 16 program.  It is based on
 the Gaussian(R) 09 system (copyright 2009, Gaussian, Inc.),
 the Gaussian(R) 03 system (copyright 2003, Gaussian, Inc.),
 the Gaussian(R) 98 system (copyright 1998, Gaussian, Inc.),
 the Gaussian(R) 94 system (copyright 1995, Gaussian, Inc.),
 the Gaussian 92(TM) system (copyright 1992, Gaussian, Inc.),
 the Gaussian 90(TM) system (copyright 1990, Gaussian, Inc.),
 the Gaussian 88(TM) system (copyright 1988, Gaussian, Inc.),
 the Gaussian 86(TM) system (copyright 1986, Carnegie Mellon
 University), and the Gaussian 82(TM) system (copyright 1983,
 Carnegie Mellon University). Gaussian is a federally registered
 trademark of Gaussian, Inc.
  
 This software contains proprietary and confidential information,
 including trade secrets, belonging to Gaussian, Inc.
  
 This software is provided under written license and may be
 used, copied, transmitted, or stored only in accord with that
 written license.
  
 The following legend is applicable only to US Government
 contracts under FAR:
  
                    RESTRICTED RIGHTS LEGEND
  
 Use, reproduction and disclosure by the US Government is
 subject to restrictions as set forth in subparagraphs (a)
 and (c) of the Commercial Computer Software - Restricted
 Rights clause in FAR 52.227-19.
  
 Gaussian, Inc.
 340 Quinnipiac St., Bldg. 40, Wallingford CT 06492
  
  
 ---------------------------------------------------------------
 Warning -- This program may not be used in any manner that
 competes with the business of Gaussian, Inc. or will provide
 assistance to any competitor of Gaussian, Inc.  The licensee
 of this program is prohibited from giving any competitor of
 Gaussian, Inc. access to this program.  By using this program,
 the user acknowledges that Gaussian, Inc. is engaged in the
 business of creating and licensing software in the field of
 computational chemistry and represents and warrants to the
 licensee that it is not a competitor of Gaussian, Inc. and that
 it will not use this program in any manner prohibited above.
 ---------------------------------------------------------------
  

 Cite this work as:
 Gaussian 16, Revision C.01,
 M. J. Frisch, G. W. Trucks, H. B. Schlegel, G. E. Scuseria, 
 M. A. Robb, J. R. Cheeseman, G. Scalmani, V. Barone, 
 G. A. Petersson, H. Nakatsuji, X. Li, M. Caricato, A. V. Marenich, 
 J. Bloino, B. G. Janesko, R. Gomperts, B. Mennucci, H. P. Hratchian, 
 J. V. Ortiz, A. F. Izmaylov, J. L. Sonnenberg, D. Williams-Young, 
 F. Ding, F. Lipparini, F. Egidi, J. Goings, B. Peng, A. Petrone, 
 T. Henderson, D. Ranasinghe, V. G. Zakrzewski, J. Gao, N. Rega, 
 G. Zheng, W. Liang, M. Hada, M. Ehara, K. Toyota, R. Fukuda, 
 J. Hasegawa, M. Ishida, T. Nakajima, Y. Honda, O. Kitao, H. Nakai, 
 T. Vreven, K. Throssell, J. A. Montgomery, Jr., J. E. Peralta, 
 F. Ogliaro, M. J. Bearpark, J. J. Heyd, E. N. Brothers, K. N. Kudin, 
 V. N. Staroverov, T. A. Keith, R. Kobayashi, J. Normand, 
 K. Raghavachari, A. P. Rendell, J. C. Burant, S. S. Iyengar, 
 J. Tomasi, M. Cossi, J. M. Millam, M. Klene, C. Adamo, R. Cammi, 
 J. W. Ochterski, R. L. Martin, K. Morokuma, O. Farkas, 
 J. B. Foresman, and D. J. Fox, Gaussian, Inc., Wallingford CT, 2019.
 
 ******************************************
 Gaussian 16:  ES64L-G16RevC.01  3-Jul-2019
                 5-Jul-2025 
 ******************************************
 %nprocshared=32
 Will use up to   32 processors via shared memory.
 %mem=100GB
 ------------------------------------------
 #p opt freq b3lyp/def2svpp em=gd3bj nosymm
 ------------------------------------------
 1/18=20,19=15,26=3,38=1/1,3;
 2/9=110,12=2,15=1,17=6,18=5,40=1/2;
 3/5=43,7=202,11=2,25=1,30=1,71=1,74=-5,124=41/1,2,3;
 4//1;
 5/5=2,38=5/2;
 6/7=2,8=2,9=2,10=2,28=1/1;
 7/30=1/1,2,3,16;
 1/18=20,19=15,26=3/3(2);
 2/9=110,15=1/2;
 99//99;
 2/9=110,15=1/2;
 3/5=43,7=202,11=2,25=1,30=1,71=1,74=-5,124=41/1,2,3;
 4/5=5,16=3,69=1/1;
 5/5=2,38=5/2;
 7/30=1/1,2,3,16;
 1/18=20,19=15,26=3/3(-5);
 2/9=110,15=1/2;
 6/7=2,8=2,9=2,10=2,19=2,28=1/1;
 99/9=1/99;
 Leave Link    1 at Sat Jul  5 16:21:13 2025, MaxMem= 13421772800 cpu:               1.5 elap:               0.1
 (Enter /public/software/apps/Gaussian/g16/l101.exe)
 ------------------
 $$$$Title####0????
 ------------------
 Symbolic Z-matrix:
 Charge =  0 Multiplicity = 2
 C                     5.65017  -2.82112   2.75275 
 O                     6.12479  -1.77051   1.91667 
 C                     5.30987  -0.9361    1.13342 
 C                     3.91792  -1.06117   1.13028 
 C                     3.11809  -0.2083    0.35929 
 C                     1.71835  -0.37924   0.35545 
 O                     1.12737  -1.37056   1.13783 
 C                     0.89935   0.4442   -0.42942 
 C                    -0.56677   0.20279  -0.43657 
 C                    -1.21582  -0.36313  -1.55333 
 C                    -0.45841  -0.80821  -2.77988 
 C                    -2.6103   -0.50618  -1.54167 
 C                    -3.3867   -0.12444  -0.42281 
 C                    -4.81348  -0.21419  -0.41265 
 C                    -5.60398  -0.47085  -1.70831 
 C                    -6.8361    0.43875  -1.87689 
 C                    -5.97844  -1.95045  -1.83798 
 C                    -5.50316  -0.08271   0.82451 
 O                    -6.87431  -0.40693   0.84831 
 C                    -7.74     -0.42604   1.97802 
 C                    -4.80712   0.34869   1.97982 
 O                    -5.50371   0.55436   3.18226 
 C                    -4.92131   0.98195   4.40992 
 C                    -3.42668   0.57711   1.90854 
 C                    -2.70698   0.32205   0.7366 
 C                    -1.30798   0.4973    0.71717 
 O                    -0.63948   0.95568   1.85158 
 C                     1.47684   1.4914   -1.17469 
 C                     0.64256   2.44051  -1.99889 
 C                     2.86966   1.64681  -1.18313 
 C                     3.719     0.82004  -0.41649 
 C                     5.14405   0.98102  -0.39467 
 C                     5.89244   2.08571  -1.16471 
 C                     5.92139   1.81692  -2.67562 
 C                     5.43415   3.51581  -0.81168 
 C                     5.91961   0.05642   0.35442 
 O                     7.31743   0.14121   0.34042 
 C                     8.13398  -0.86455  -0.24934 
 H                     5.11155  -3.57891   2.14545 
 H                     4.98097  -2.41158   3.53862 
 H                     6.5154   -3.31102   3.24431 
 H                     3.45463  -1.83329   1.72886 
 H                    -0.49458  -0.01081  -3.54967 
 H                    -0.91562  -1.72784  -3.20326 
 H                     0.59979  -1.04944  -2.5498 
 H                    -3.05804  -0.97565  -2.40386 
 H                    -4.98555  -0.20256  -2.58588 
 H                    -7.11949   0.49058  -2.95054 
 H                    -7.72328   0.05534  -1.33354 
 H                    -6.60735   1.47049  -1.53392 
 H                    -6.48325  -2.13261  -2.81069 
 H                    -6.66086  -2.26069  -1.01898 
 H                    -5.0639   -2.57965  -1.79751 
 H                    -7.86392   0.59892   2.38579 
 H                    -7.35165  -1.12281   2.75038 
 H                    -8.73748  -0.78877   1.65615 
 H                    -4.46356   1.98616   4.28697 
 H                    -4.15885   0.2486    4.74758 
 H                    -5.71479   1.04772   5.18215 
 H                    -2.89988   0.92203   2.78717 
 H                     0.58866   2.07722  -3.04513 
 H                    -0.38416   2.54681  -1.59177 
 H                     1.09696   3.45428  -2.00093 
 H                     3.26045   2.42423  -1.80807 
 H                     6.96121   2.07615  -0.86533 
 H                     6.39221   0.82963  -2.87061 
 H                     4.91068   1.81139  -3.1261 
 H                     6.52794   2.59484  -3.18684 
 H                     6.31445   4.19247  -0.75572 
 H                     4.76339   3.94963  -1.58042 
 H                     4.92875   3.54046   0.17743 
 H                     9.19417  -0.54162  -0.20618 
 H                     8.03441  -1.82556   0.29425 
 H                     7.84677  -1.00776  -1.31254 
 Cu                    0.41154  -0.45614   2.72016 
 
 ITRead=  0  0  0  0  0  0  0  0  0  0  0  0  0  0  0  0  0  0  0  0
 ITRead=  0  0  0  0  0  0  0  0  0  0  0  0  0  0  0  0  0  0  0  0
 ITRead=  0  0  0  0  0  0  0  0  0  0  0  0  0  0  0  0  0  0  0  0
 ITRead=  0  0  0  0  0  0  0  0  0  0  0  0  0  0  0
 MicOpt= -1 -1 -1 -1 -1 -1 -1 -1 -1 -1 -1 -1 -1 -1 -1 -1 -1 -1 -1 -1
 MicOpt= -1 -1 -1 -1 -1 -1 -1 -1 -1 -1 -1 -1 -1 -1 -1 -1 -1 -1 -1 -1
 MicOpt= -1 -1 -1 -1 -1 -1 -1 -1 -1 -1 -1 -1 -1 -1 -1 -1 -1 -1 -1 -1
 MicOpt= -1 -1 -1 -1 -1 -1 -1 -1 -1 -1 -1 -1 -1 -1 -1
 NAtoms=     75 NQM=       75 NQMF=       0 NMMI=      0 NMMIF=      0
                NMic=       0 NMicF=      0.
                    Isotopes and Nuclear Properties:
 (Nuclear quadrupole moments (NQMom) in fm**2, nuclear magnetic moments (NMagM)
  in nuclear magnetons)

  Atom         1           2           3           4           5           6           7           8           9          10
 IAtWgt=          12          16          12          12          12          12          16          12          12          12
 AtmWgt=  12.0000000  15.9949146  12.0000000  12.0000000  12.0000000  12.0000000  15.9949146  12.0000000  12.0000000  12.0000000
 NucSpn=           0           0           0           0           0           0           0           0           0           0
 AtZEff=  -0.0000000  -0.0000000  -0.0000000  -0.0000000  -0.0000000  -0.0000000  -0.0000000  -0.0000000  -0.0000000  -0.0000000
 NQMom=    0.0000000   0.0000000   0.0000000   0.0000000   0.0000000   0.0000000   0.0000000   0.0000000   0.0000000   0.0000000
 NMagM=    0.0000000   0.0000000   0.0000000   0.0000000   0.0000000   0.0000000   0.0000000   0.0000000   0.0000000   0.0000000
 AtZNuc=   6.0000000   8.0000000   6.0000000   6.0000000   6.0000000   6.0000000   8.0000000   6.0000000   6.0000000   6.0000000

  Atom        11          12          13          14          15          16          17          18          19          20
 IAtWgt=          12          12          12          12          12          12          12          12          16          12
 AtmWgt=  12.0000000  12.0000000  12.0000000  12.0000000  12.0000000  12.0000000  12.0000000  12.0000000  15.9949146  12.0000000
 NucSpn=           0           0           0           0           0           0           0           0           0           0
 AtZEff=  -0.0000000  -0.0000000  -0.0000000  -0.0000000  -0.0000000  -0.0000000  -0.0000000  -0.0000000  -0.0000000  -0.0000000
 NQMom=    0.0000000   0.0000000   0.0000000   0.0000000   0.0000000   0.0000000   0.0000000   0.0000000   0.0000000   0.0000000
 NMagM=    0.0000000   0.0000000   0.0000000   0.0000000   0.0000000   0.0000000   0.0000000   0.0000000   0.0000000   0.0000000
 AtZNuc=   6.0000000   6.0000000   6.0000000   6.0000000   6.0000000   6.0000000   6.0000000   6.0000000   8.0000000   6.0000000

  Atom        21          22          23          24          25          26          27          28          29          30
 IAtWgt=          12          16          12          12          12          12          16          12          12          12
 AtmWgt=  12.0000000  15.9949146  12.0000000  12.0000000  12.0000000  12.0000000  15.9949146  12.0000000  12.0000000  12.0000000
 NucSpn=           0           0           0           0           0           0           0           0           0           0
 AtZEff=  -0.0000000  -0.0000000  -0.0000000  -0.0000000  -0.0000000  -0.0000000  -0.0000000  -0.0000000  -0.0000000  -0.0000000
 NQMom=    0.0000000   0.0000000   0.0000000   0.0000000   0.0000000   0.0000000   0.0000000   0.0000000   0.0000000   0.0000000
 NMagM=    0.0000000   0.0000000   0.0000000   0.0000000   0.0000000   0.0000000   0.0000000   0.0000000   0.0000000   0.0000000
 AtZNuc=   6.0000000   8.0000000   6.0000000   6.0000000   6.0000000   6.0000000   8.0000000   6.0000000   6.0000000   6.0000000

  Atom        31          32          33          34          35          36          37          38          39          40
 IAtWgt=          12          12          12          12          12          12          16          12           1           1
 AtmWgt=  12.0000000  12.0000000  12.0000000  12.0000000  12.0000000  12.0000000  15.9949146  12.0000000   1.0078250   1.0078250
 NucSpn=           0           0           0           0           0           0           0           0           1           1
 AtZEff=  -0.0000000  -0.0000000  -0.0000000  -0.0000000  -0.0000000  -0.0000000  -0.0000000  -0.0000000  -0.0000000  -0.0000000
 NQMom=    0.0000000   0.0000000   0.0000000   0.0000000   0.0000000   0.0000000   0.0000000   0.0000000   0.0000000   0.0000000
 NMagM=    0.0000000   0.0000000   0.0000000   0.0000000   0.0000000   0.0000000   0.0000000   0.0000000   2.7928460   2.7928460
 AtZNuc=   6.0000000   6.0000000   6.0000000   6.0000000   6.0000000   6.0000000   8.0000000   6.0000000   1.0000000   1.0000000

  Atom        41          42          43          44          45          46          47          48          49          50
 IAtWgt=           1           1           1           1           1           1           1           1           1           1
 AtmWgt=   1.0078250   1.0078250   1.0078250   1.0078250   1.0078250   1.0078250   1.0078250   1.0078250   1.0078250   1.0078250
 NucSpn=           1           1           1           1           1           1           1           1           1           1
 AtZEff=  -0.0000000  -0.0000000  -0.0000000  -0.0000000  -0.0000000  -0.0000000  -0.0000000  -0.0000000  -0.0000000  -0.0000000
 NQMom=    0.0000000   0.0000000   0.0000000   0.0000000   0.0000000   0.0000000   0.0000000   0.0000000   0.0000000   0.0000000
 NMagM=    2.7928460   2.7928460   2.7928460   2.7928460   2.7928460   2.7928460   2.7928460   2.7928460   2.7928460   2.7928460
 AtZNuc=   1.0000000   1.0000000   1.0000000   1.0000000   1.0000000   1.0000000   1.0000000   1.0000000   1.0000000   1.0000000

  Atom        51          52          53          54          55          56          57          58          59          60
 IAtWgt=           1           1           1           1           1           1           1           1           1           1
 AtmWgt=   1.0078250   1.0078250   1.0078250   1.0078250   1.0078250   1.0078250   1.0078250   1.0078250   1.0078250   1.0078250
 NucSpn=           1           1           1           1           1           1           1           1           1           1
 AtZEff=  -0.0000000  -0.0000000  -0.0000000  -0.0000000  -0.0000000  -0.0000000  -0.0000000  -0.0000000  -0.0000000  -0.0000000
 NQMom=    0.0000000   0.0000000   0.0000000   0.0000000   0.0000000   0.0000000   0.0000000   0.0000000   0.0000000   0.0000000
 NMagM=    2.7928460   2.7928460   2.7928460   2.7928460   2.7928460   2.7928460   2.7928460   2.7928460   2.7928460   2.7928460
 AtZNuc=   1.0000000   1.0000000   1.0000000   1.0000000   1.0000000   1.0000000   1.0000000   1.0000000   1.0000000   1.0000000

  Atom        61          62          63          64          65          66          67          68          69          70
 IAtWgt=           1           1           1           1           1           1           1           1           1           1
 AtmWgt=   1.0078250   1.0078250   1.0078250   1.0078250   1.0078250   1.0078250   1.0078250   1.0078250   1.0078250   1.0078250
 NucSpn=           1           1           1           1           1           1           1           1           1           1
 AtZEff=  -0.0000000  -0.0000000  -0.0000000  -0.0000000  -0.0000000  -0.0000000  -0.0000000  -0.0000000  -0.0000000  -0.0000000
 NQMom=    0.0000000   0.0000000   0.0000000   0.0000000   0.0000000   0.0000000   0.0000000   0.0000000   0.0000000   0.0000000
 NMagM=    2.7928460   2.7928460   2.7928460   2.7928460   2.7928460   2.7928460   2.7928460   2.7928460   2.7928460   2.7928460
 AtZNuc=   1.0000000   1.0000000   1.0000000   1.0000000   1.0000000   1.0000000   1.0000000   1.0000000   1.0000000   1.0000000

  Atom        71          72          73          74          75
 IAtWgt=           1           1           1           1          63
 AtmWgt=   1.0078250   1.0078250   1.0078250   1.0078250  62.9295992
 NucSpn=           1           1           1           1           3
 AtZEff=  -0.0000000  -0.0000000  -0.0000000  -0.0000000  -0.0000000
 NQMom=    0.0000000   0.0000000   0.0000000   0.0000000 -22.0000000
 NMagM=    2.7928460   2.7928460   2.7928460   2.7928460   2.2233000
 AtZNuc=   1.0000000   1.0000000   1.0000000   1.0000000  29.0000000
 Leave Link  101 at Sat Jul  5 16:21:13 2025, MaxMem= 13421772800 cpu:               6.1 elap:               0.2
 (Enter /public/software/apps/Gaussian/g16/l103.exe)

 GradGradGradGradGradGradGradGradGradGradGradGradGradGradGradGradGradGrad
 Berny optimization.
 Initialization pass.
                           ----------------------------
                           !    Initial Parameters    !
                           ! (Angstroms and Degrees)  !
 --------------------------                            --------------------------
 ! Name  Definition              Value          Derivative Info.                !
 --------------------------------------------------------------------------------
 ! R1    R(1,2)                  1.4241         estimate D2E/DX2                !
 ! R2    R(1,39)                 1.1105         estimate D2E/DX2                !
 ! R3    R(1,40)                 1.1105         estimate D2E/DX2                !
 ! R4    R(1,41)                 1.1092         estimate D2E/DX2                !
 ! R5    R(2,3)                  1.4049         estimate D2E/DX2                !
 ! R6    R(3,4)                  1.3976         estimate D2E/DX2                !
 ! R7    R(3,36)                 1.4013         estimate D2E/DX2                !
 ! R8    R(4,5)                  1.4006         estimate D2E/DX2                !
 ! R9    R(4,42)                 1.0813         estimate D2E/DX2                !
 ! R10   R(5,6)                  1.4101         estimate D2E/DX2                !
 ! R11   R(5,31)                 1.4214         estimate D2E/DX2                !
 ! R12   R(6,7)                  1.3943         estimate D2E/DX2                !
 ! R13   R(6,8)                  1.4017         estimate D2E/DX2                !
 ! R14   R(7,75)                 1.9627         estimate D2E/DX2                !
 ! R15   R(8,9)                  1.4859         estimate D2E/DX2                !
 ! R16   R(8,28)                 1.4091         estimate D2E/DX2                !
 ! R17   R(9,10)                 1.4102         estimate D2E/DX2                !
 ! R18   R(9,26)                 1.4026         estimate D2E/DX2                !
 ! R19   R(10,11)                1.5087         estimate D2E/DX2                !
 ! R20   R(10,12)                1.4018         estimate D2E/DX2                !
 ! R21   R(11,43)                1.1089         estimate D2E/DX2                !
 ! R22   R(11,44)                1.1109         estimate D2E/DX2                !
 ! R23   R(11,45)                1.1095         estimate D2E/DX2                !
 ! R24   R(12,13)                1.4143         estimate D2E/DX2                !
 ! R25   R(12,46)                1.079          estimate D2E/DX2                !
 ! R26   R(13,14)                1.4296         estimate D2E/DX2                !
 ! R27   R(13,25)                1.4162         estimate D2E/DX2                !
 ! R28   R(14,15)                1.5393         estimate D2E/DX2                !
 ! R29   R(14,18)                1.4225         estimate D2E/DX2                !
 ! R30   R(15,16)                1.5407         estimate D2E/DX2                !
 ! R31   R(15,17)                1.5317         estimate D2E/DX2                !
 ! R32   R(15,47)                1.1066         estimate D2E/DX2                !
 ! R33   R(16,48)                1.1116         estimate D2E/DX2                !
 ! R34   R(16,49)                1.1087         estimate D2E/DX2                !
 ! R35   R(16,50)                1.1111         estimate D2E/DX2                !
 ! R36   R(17,51)                1.1109         estimate D2E/DX2                !
 ! R37   R(17,52)                1.1103         estimate D2E/DX2                !
 ! R38   R(17,53)                1.1108         estimate D2E/DX2                !
 ! R39   R(18,19)                1.4092         estimate D2E/DX2                !
 ! R40   R(18,21)                1.4161         estimate D2E/DX2                !
 ! R41   R(19,20)                1.4234         estimate D2E/DX2                !
 ! R42   R(20,54)                1.11           estimate D2E/DX2                !
 ! R43   R(20,55)                1.1103         estimate D2E/DX2                !
 ! R44   R(20,56)                1.1091         estimate D2E/DX2                !
 ! R45   R(21,22)                1.4048         estimate D2E/DX2                !
 ! R46   R(21,24)                1.401          estimate D2E/DX2                !
 ! R47   R(22,23)                1.4245         estimate D2E/DX2                !
 ! R48   R(23,57)                1.1104         estimate D2E/DX2                !
 ! R49   R(23,58)                1.1105         estimate D2E/DX2                !
 ! R50   R(23,59)                1.1092         estimate D2E/DX2                !
 ! R51   R(24,25)                1.3987         estimate D2E/DX2                !
 ! R52   R(24,60)                1.081          estimate D2E/DX2                !
 ! R53   R(25,26)                1.4101         estimate D2E/DX2                !
 ! R54   R(26,27)                1.3942         estimate D2E/DX2                !
 ! R55   R(27,75)                1.9627         estimate D2E/DX2                !
 ! R56   R(28,29)                1.5087         estimate D2E/DX2                !
 ! R57   R(28,30)                1.4015         estimate D2E/DX2                !
 ! R58   R(29,61)                1.1088         estimate D2E/DX2                !
 ! R59   R(29,62)                1.1096         estimate D2E/DX2                !
 ! R60   R(29,63)                1.111          estimate D2E/DX2                !
 ! R61   R(30,31)                1.4116         estimate D2E/DX2                !
 ! R62   R(30,64)                1.0713         estimate D2E/DX2                !
 ! R63   R(31,32)                1.4343         estimate D2E/DX2                !
 ! R64   R(32,33)                1.5406         estimate D2E/DX2                !
 ! R65   R(32,36)                1.4204         estimate D2E/DX2                !
 ! R66   R(33,34)                1.5349         estimate D2E/DX2                !
 ! R67   R(33,35)                1.5427         estimate D2E/DX2                !
 ! R68   R(33,65)                1.1099         estimate D2E/DX2                !
 ! R69   R(34,66)                1.1111         estimate D2E/DX2                !
 ! R70   R(34,67)                1.1066         estimate D2E/DX2                !
 ! R71   R(34,68)                1.111          estimate D2E/DX2                !
 ! R72   R(35,69)                1.1117         estimate D2E/DX2                !
 ! R73   R(35,70)                1.1086         estimate D2E/DX2                !
 ! R74   R(35,71)                1.111          estimate D2E/DX2                !
 ! R75   R(36,37)                1.4005         estimate D2E/DX2                !
 ! R76   R(37,38)                1.4234         estimate D2E/DX2                !
 ! R77   R(38,72)                1.1091         estimate D2E/DX2                !
 ! R78   R(38,73)                1.1086         estimate D2E/DX2                !
 ! R79   R(38,74)                1.1106         estimate D2E/DX2                !
 ! A1    A(2,1,39)             110.1211         estimate D2E/DX2                !
 ! A2    A(2,1,40)             110.1359         estimate D2E/DX2                !
 ! A3    A(2,1,41)             109.0296         estimate D2E/DX2                !
 ! A4    A(39,1,40)            110.2667         estimate D2E/DX2                !
 ! A5    A(39,1,41)            108.6215         estimate D2E/DX2                !
 ! A6    A(40,1,41)            108.624          estimate D2E/DX2                !
 ! A7    A(1,2,3)              124.9            estimate D2E/DX2                !
 ! A8    A(2,3,4)              121.7233         estimate D2E/DX2                !
 ! A9    A(2,3,36)             118.5672         estimate D2E/DX2                !
 ! A10   A(4,3,36)             119.7027         estimate D2E/DX2                !
 ! A11   A(3,4,5)              121.0327         estimate D2E/DX2                !
 ! A12   A(3,4,42)             119.3022         estimate D2E/DX2                !
 ! A13   A(5,4,42)             119.6641         estimate D2E/DX2                !
 ! A14   A(4,5,6)              119.6397         estimate D2E/DX2                !
 ! A15   A(4,5,31)             119.972          estimate D2E/DX2                !
 ! A16   A(6,5,31)             120.388          estimate D2E/DX2                !
 ! A17   A(5,6,7)              120.3568         estimate D2E/DX2                !
 ! A18   A(5,6,8)              120.6827         estimate D2E/DX2                !
 ! A19   A(7,6,8)              118.9603         estimate D2E/DX2                !
 ! A20   A(6,7,75)             106.0043         estimate D2E/DX2                !
 ! A21   A(6,8,9)              118.9316         estimate D2E/DX2                !
 ! A22   A(6,8,28)             119.5552         estimate D2E/DX2                !
 ! A23   A(9,8,28)             121.5054         estimate D2E/DX2                !
 ! A24   A(8,9,10)             121.5433         estimate D2E/DX2                !
 ! A25   A(8,9,26)             118.9046         estimate D2E/DX2                !
 ! A26   A(10,9,26)            119.5022         estimate D2E/DX2                !
 ! A27   A(9,10,11)            122.0827         estimate D2E/DX2                !
 ! A28   A(9,10,12)            119.4847         estimate D2E/DX2                !
 ! A29   A(11,10,12)           118.4276         estimate D2E/DX2                !
 ! A30   A(10,11,43)           109.6236         estimate D2E/DX2                !
 ! A31   A(10,11,44)           110.332          estimate D2E/DX2                !
 ! A32   A(10,11,45)           111.9859         estimate D2E/DX2                !
 ! A33   A(43,11,44)           108.4993         estimate D2E/DX2                !
 ! A34   A(43,11,45)           109.3538         estimate D2E/DX2                !
 ! A35   A(44,11,45)           106.9539         estimate D2E/DX2                !
 ! A36   A(10,12,13)           121.6752         estimate D2E/DX2                !
 ! A37   A(10,12,46)           116.7775         estimate D2E/DX2                !
 ! A38   A(13,12,46)           121.4509         estimate D2E/DX2                !
 ! A39   A(12,13,14)           122.4478         estimate D2E/DX2                !
 ! A40   A(12,13,25)           117.9864         estimate D2E/DX2                !
 ! A41   A(14,13,25)           119.5363         estimate D2E/DX2                !
 ! A42   A(13,14,15)           121.1309         estimate D2E/DX2                !
 ! A43   A(13,14,18)           118.9634         estimate D2E/DX2                !
 ! A44   A(15,14,18)           119.8988         estimate D2E/DX2                !
 ! A45   A(14,15,16)           113.8492         estimate D2E/DX2                !
 ! A46   A(14,15,17)           110.9685         estimate D2E/DX2                !
 ! A47   A(14,15,47)           109.8816         estimate D2E/DX2                !
 ! A48   A(16,15,17)           111.4389         estimate D2E/DX2                !
 ! A49   A(16,15,47)           102.5338         estimate D2E/DX2                !
 ! A50   A(17,15,47)           107.6787         estimate D2E/DX2                !
 ! A51   A(15,16,48)           109.6981         estimate D2E/DX2                !
 ! A52   A(15,16,49)           112.4646         estimate D2E/DX2                !
 ! A53   A(15,16,50)           110.4751         estimate D2E/DX2                !
 ! A54   A(48,16,49)           106.5861         estimate D2E/DX2                !
 ! A55   A(48,16,50)           107.8987         estimate D2E/DX2                !
 ! A56   A(49,16,50)           109.5471         estimate D2E/DX2                !
 ! A57   A(15,17,51)           110.0959         estimate D2E/DX2                !
 ! A58   A(15,17,52)           110.9603         estimate D2E/DX2                !
 ! A59   A(15,17,53)           110.0476         estimate D2E/DX2                !
 ! A60   A(51,17,52)           108.7086         estimate D2E/DX2                !
 ! A61   A(51,17,53)           108.2483         estimate D2E/DX2                !
 ! A62   A(52,17,53)           108.7168         estimate D2E/DX2                !
 ! A63   A(14,18,19)           117.722          estimate D2E/DX2                !
 ! A64   A(14,18,21)           119.9596         estimate D2E/DX2                !
 ! A65   A(19,18,21)           122.3154         estimate D2E/DX2                !
 ! A66   A(18,19,20)           127.4652         estimate D2E/DX2                !
 ! A67   A(19,20,54)           110.3071         estimate D2E/DX2                !
 ! A68   A(19,20,55)           110.3524         estimate D2E/DX2                !
 ! A69   A(19,20,56)           108.7257         estimate D2E/DX2                !
 ! A70   A(54,20,55)           111.2814         estimate D2E/DX2                !
 ! A71   A(54,20,56)           107.9505         estimate D2E/DX2                !
 ! A72   A(55,20,56)           108.1309         estimate D2E/DX2                !
 ! A73   A(18,21,22)           119.9471         estimate D2E/DX2                !
 ! A74   A(18,21,24)           119.5027         estimate D2E/DX2                !
 ! A75   A(22,21,24)           120.5483         estimate D2E/DX2                !
 ! A76   A(21,22,23)           125.3735         estimate D2E/DX2                !
 ! A77   A(22,23,57)           110.1552         estimate D2E/DX2                !
 ! A78   A(22,23,58)           110.1536         estimate D2E/DX2                !
 ! A79   A(22,23,59)           108.9858         estimate D2E/DX2                !
 ! A80   A(57,23,58)           110.3557         estimate D2E/DX2                !
 ! A81   A(57,23,59)           108.5643         estimate D2E/DX2                !
 ! A82   A(58,23,59)           108.5805         estimate D2E/DX2                !
 ! A83   A(21,24,25)           121.3239         estimate D2E/DX2                !
 ! A84   A(21,24,60)           119.3963         estimate D2E/DX2                !
 ! A85   A(25,24,60)           119.2394         estimate D2E/DX2                !
 ! A86   A(13,25,24)           119.7665         estimate D2E/DX2                !
 ! A87   A(13,25,26)           120.2716         estimate D2E/DX2                !
 ! A88   A(24,25,26)           119.959          estimate D2E/DX2                !
 ! A89   A(9,26,25)            120.6335         estimate D2E/DX2                !
 ! A90   A(9,26,27)            119.0087         estimate D2E/DX2                !
 ! A91   A(25,26,27)           120.3554         estimate D2E/DX2                !
 ! A92   A(26,27,75)           112.3545         estimate D2E/DX2                !
 ! A93   A(8,28,29)            121.9945         estimate D2E/DX2                !
 ! A94   A(8,28,30)            119.5311         estimate D2E/DX2                !
 ! A95   A(29,28,30)           118.4575         estimate D2E/DX2                !
 ! A96   A(28,29,61)           109.648          estimate D2E/DX2                !
 ! A97   A(28,29,62)           111.8087         estimate D2E/DX2                !
 ! A98   A(28,29,63)           110.4195         estimate D2E/DX2                !
 ! A99   A(61,29,62)           109.4268         estimate D2E/DX2                !
 ! A100  A(61,29,63)           108.4891         estimate D2E/DX2                !
 ! A101  A(62,29,63)           106.9606         estimate D2E/DX2                !
 ! A102  A(28,30,31)           121.9877         estimate D2E/DX2                !
 ! A103  A(28,30,64)           116.521          estimate D2E/DX2                !
 ! A104  A(31,30,64)           121.4903         estimate D2E/DX2                !
 ! A105  A(5,31,30)            117.76           estimate D2E/DX2                !
 ! A106  A(5,31,32)            119.5335         estimate D2E/DX2                !
 ! A107  A(30,31,32)           122.7065         estimate D2E/DX2                !
 ! A108  A(31,32,33)           123.7475         estimate D2E/DX2                !
 ! A109  A(31,32,36)           118.5202         estimate D2E/DX2                !
 ! A110  A(33,32,36)           117.7184         estimate D2E/DX2                !
 ! A111  A(32,33,34)           112.0621         estimate D2E/DX2                !
 ! A112  A(32,33,35)           113.9564         estimate D2E/DX2                !
 ! A113  A(32,33,65)           109.0728         estimate D2E/DX2                !
 ! A114  A(34,33,35)           113.1542         estimate D2E/DX2                !
 ! A115  A(34,33,65)           104.2308         estimate D2E/DX2                !
 ! A116  A(35,33,65)           103.4336         estimate D2E/DX2                !
 ! A117  A(33,34,66)           109.6552         estimate D2E/DX2                !
 ! A118  A(33,34,67)           112.6051         estimate D2E/DX2                !
 ! A119  A(33,34,68)           109.9147         estimate D2E/DX2                !
 ! A120  A(66,34,67)           108.1296         estimate D2E/DX2                !
 ! A121  A(66,34,68)           108.0644         estimate D2E/DX2                !
 ! A122  A(67,34,68)           108.3499         estimate D2E/DX2                !
 ! A123  A(33,35,69)           109.9094         estimate D2E/DX2                !
 ! A124  A(33,35,70)           112.5699         estimate D2E/DX2                !
 ! A125  A(33,35,71)           111.0656         estimate D2E/DX2                !
 ! A126  A(69,35,70)           106.0105         estimate D2E/DX2                !
 ! A127  A(69,35,71)           107.5707         estimate D2E/DX2                !
 ! A128  A(70,35,71)           109.4758         estimate D2E/DX2                !
 ! A129  A(3,36,32)            121.1072         estimate D2E/DX2                !
 ! A130  A(3,36,37)            118.8639         estimate D2E/DX2                !
 ! A131  A(32,36,37)           120.0203         estimate D2E/DX2                !
 ! A132  A(36,37,38)           122.2719         estimate D2E/DX2                !
 ! A133  A(37,38,72)           109.0564         estimate D2E/DX2                !
 ! A134  A(37,38,73)           110.9674         estimate D2E/DX2                !
 ! A135  A(37,38,74)           109.8409         estimate D2E/DX2                !
 ! A136  A(72,38,73)           108.6129         estimate D2E/DX2                !
 ! A137  A(72,38,74)           108.7841         estimate D2E/DX2                !
 ! A138  A(73,38,74)           109.5367         estimate D2E/DX2                !
 ! A139  A(7,75,27)            100.0            estimate D2E/DX2                !
 ! D1    D(39,1,2,3)            60.6243         estimate D2E/DX2                !
 ! D2    D(40,1,2,3)           -61.1958         estimate D2E/DX2                !
 ! D3    D(41,1,2,3)           179.7083         estimate D2E/DX2                !
 ! D4    D(1,2,3,4)              1.137          estimate D2E/DX2                !
 ! D5    D(1,2,3,36)          -179.8124         estimate D2E/DX2                !
 ! D6    D(2,3,4,5)            179.0266         estimate D2E/DX2                !
 ! D7    D(2,3,4,42)            -1.3464         estimate D2E/DX2                !
 ! D8    D(36,3,4,5)            -0.0134         estimate D2E/DX2                !
 ! D9    D(36,3,4,42)          179.6135         estimate D2E/DX2                !
 ! D10   D(2,3,36,32)         -176.1741         estimate D2E/DX2                !
 ! D11   D(2,3,36,37)            2.7622         estimate D2E/DX2                !
 ! D12   D(4,3,36,32)            2.8962         estimate D2E/DX2                !
 ! D13   D(4,3,36,37)         -178.1675         estimate D2E/DX2                !
 ! D14   D(3,4,5,6)            178.6276         estimate D2E/DX2                !
 ! D15   D(3,4,5,31)            -1.1896         estimate D2E/DX2                !
 ! D16   D(42,4,5,6)            -0.9981         estimate D2E/DX2                !
 ! D17   D(42,4,5,31)          179.1848         estimate D2E/DX2                !
 ! D18   D(4,5,6,7)              1.4982         estimate D2E/DX2                !
 ! D19   D(4,5,6,8)           -178.6832         estimate D2E/DX2                !
 ! D20   D(31,5,6,7)          -178.6854         estimate D2E/DX2                !
 ! D21   D(31,5,6,8)             1.1332         estimate D2E/DX2                !
 ! D22   D(4,5,31,30)          179.5751         estimate D2E/DX2                !
 ! D23   D(4,5,31,32)           -0.4431         estimate D2E/DX2                !
 ! D24   D(6,5,31,30)           -0.2407         estimate D2E/DX2                !
 ! D25   D(6,5,31,32)          179.7411         estimate D2E/DX2                !
 ! D26   D(5,6,7,75)           101.4045         estimate D2E/DX2                !
 ! D27   D(8,6,7,75)           -78.4172         estimate D2E/DX2                !
 ! D28   D(5,6,8,9)            178.1238         estimate D2E/DX2                !
 ! D29   D(5,6,8,28)            -2.8758         estimate D2E/DX2                !
 ! D30   D(7,6,8,9)             -2.0551         estimate D2E/DX2                !
 ! D31   D(7,6,8,28)           176.9453         estimate D2E/DX2                !
 ! D32   D(6,7,75,27)           52.1659         estimate D2E/DX2                !
 ! D33   D(6,8,9,10)          -107.4376         estimate D2E/DX2                !
 ! D34   D(6,8,9,26)            69.9797         estimate D2E/DX2                !
 ! D35   D(28,8,9,10)           73.5823         estimate D2E/DX2                !
 ! D36   D(28,8,9,26)         -109.0004         estimate D2E/DX2                !
 ! D37   D(6,8,28,29)         -177.7993         estimate D2E/DX2                !
 ! D38   D(6,8,28,30)            3.7213         estimate D2E/DX2                !
 ! D39   D(9,8,28,29)            1.1746         estimate D2E/DX2                !
 ! D40   D(9,8,28,30)         -177.3048         estimate D2E/DX2                !
 ! D41   D(8,9,10,11)            2.5693         estimate D2E/DX2                !
 ! D42   D(8,9,10,12)         -176.6092         estimate D2E/DX2                !
 ! D43   D(26,9,10,11)        -174.8328         estimate D2E/DX2                !
 ! D44   D(26,9,10,12)           5.9887         estimate D2E/DX2                !
 ! D45   D(8,9,26,25)          177.9944         estimate D2E/DX2                !
 ! D46   D(8,9,26,27)           -2.5717         estimate D2E/DX2                !
 ! D47   D(10,9,26,25)          -4.5346         estimate D2E/DX2                !
 ! D48   D(10,9,26,27)         174.8993         estimate D2E/DX2                !
 ! D49   D(9,10,11,43)         -97.0385         estimate D2E/DX2                !
 ! D50   D(9,10,11,44)         143.5316         estimate D2E/DX2                !
 ! D51   D(9,10,11,45)          24.521          estimate D2E/DX2                !
 ! D52   D(12,10,11,43)         82.1484         estimate D2E/DX2                !
 ! D53   D(12,10,11,44)        -37.2815         estimate D2E/DX2                !
 ! D54   D(12,10,11,45)       -156.2922         estimate D2E/DX2                !
 ! D55   D(9,10,12,13)          -1.4528         estimate D2E/DX2                !
 ! D56   D(9,10,12,46)        -177.9317         estimate D2E/DX2                !
 ! D57   D(11,10,12,13)        179.3387         estimate D2E/DX2                !
 ! D58   D(11,10,12,46)          2.8598         estimate D2E/DX2                !
 ! D59   D(10,12,13,14)        177.4952         estimate D2E/DX2                !
 ! D60   D(10,12,13,25)         -4.4909         estimate D2E/DX2                !
 ! D61   D(46,12,13,14)         -6.1899         estimate D2E/DX2                !
 ! D62   D(46,12,13,25)        171.824          estimate D2E/DX2                !
 ! D63   D(12,13,14,15)        -12.0856         estimate D2E/DX2                !
 ! D64   D(12,13,14,18)        166.9571         estimate D2E/DX2                !
 ! D65   D(25,13,14,15)        169.9302         estimate D2E/DX2                !
 ! D66   D(25,13,14,18)        -11.0271         estimate D2E/DX2                !
 ! D67   D(12,13,25,24)       -173.4285         estimate D2E/DX2                !
 ! D68   D(12,13,25,26)          5.9463         estimate D2E/DX2                !
 ! D69   D(14,13,25,24)          4.6452         estimate D2E/DX2                !
 ! D70   D(14,13,25,26)       -175.98           estimate D2E/DX2                !
 ! D71   D(13,14,15,16)       -134.7542         estimate D2E/DX2                !
 ! D72   D(13,14,15,17)         98.5622         estimate D2E/DX2                !
 ! D73   D(13,14,15,47)        -20.4121         estimate D2E/DX2                !
 ! D74   D(18,14,15,16)         46.2119         estimate D2E/DX2                !
 ! D75   D(18,14,15,17)        -80.4717         estimate D2E/DX2                !
 ! D76   D(18,14,15,47)        160.554          estimate D2E/DX2                !
 ! D77   D(13,14,18,19)       -169.0429         estimate D2E/DX2                !
 ! D78   D(13,14,18,21)         10.3452         estimate D2E/DX2                !
 ! D79   D(15,14,18,19)         10.0119         estimate D2E/DX2                !
 ! D80   D(15,14,18,21)       -170.6            estimate D2E/DX2                !
 ! D81   D(14,15,16,48)        158.2537         estimate D2E/DX2                !
 ! D82   D(14,15,16,49)        -83.3133         estimate D2E/DX2                !
 ! D83   D(14,15,16,50)         39.4291         estimate D2E/DX2                !
 ! D84   D(17,15,16,48)        -75.3088         estimate D2E/DX2                !
 ! D85   D(17,15,16,49)         43.1242         estimate D2E/DX2                !
 ! D86   D(17,15,16,50)        165.8666         estimate D2E/DX2                !
 ! D87   D(47,15,16,48)         39.6215         estimate D2E/DX2                !
 ! D88   D(47,15,16,49)        158.0545         estimate D2E/DX2                !
 ! D89   D(47,15,16,50)        -79.2031         estimate D2E/DX2                !
 ! D90   D(14,15,17,51)       -175.9318         estimate D2E/DX2                !
 ! D91   D(14,15,17,52)         63.6768         estimate D2E/DX2                !
 ! D92   D(14,15,17,53)        -56.6929         estimate D2E/DX2                !
 ! D93   D(16,15,17,51)         56.0666         estimate D2E/DX2                !
 ! D94   D(16,15,17,52)        -64.3247         estimate D2E/DX2                !
 ! D95   D(16,15,17,53)        175.3055         estimate D2E/DX2                !
 ! D96   D(47,15,17,51)        -55.6405         estimate D2E/DX2                !
 ! D97   D(47,15,17,52)       -176.0318         estimate D2E/DX2                !
 ! D98   D(47,15,17,53)         63.5984         estimate D2E/DX2                !
 ! D99   D(14,18,19,20)        176.0406         estimate D2E/DX2                !
 ! D100  D(21,18,19,20)         -3.3322         estimate D2E/DX2                !
 ! D101  D(14,18,21,22)        176.244          estimate D2E/DX2                !
 ! D102  D(14,18,21,24)         -3.2499         estimate D2E/DX2                !
 ! D103  D(19,18,21,22)         -4.3968         estimate D2E/DX2                !
 ! D104  D(19,18,21,24)        176.1092         estimate D2E/DX2                !
 ! D105  D(18,19,20,54)         65.4974         estimate D2E/DX2                !
 ! D106  D(18,19,20,55)        -57.8726         estimate D2E/DX2                !
 ! D107  D(18,19,20,56)       -176.3106         estimate D2E/DX2                !
 ! D108  D(18,21,22,23)        179.8165         estimate D2E/DX2                !
 ! D109  D(24,21,22,23)         -0.6949         estimate D2E/DX2                !
 ! D110  D(18,21,24,25)         -3.3319         estimate D2E/DX2                !
 ! D111  D(18,21,24,60)        178.9985         estimate D2E/DX2                !
 ! D112  D(22,21,24,25)        177.1773         estimate D2E/DX2                !
 ! D113  D(22,21,24,60)         -0.4923         estimate D2E/DX2                !
 ! D114  D(21,22,23,57)         61.4141         estimate D2E/DX2                !
 ! D115  D(21,22,23,58)        -60.5516         estimate D2E/DX2                !
 ! D116  D(21,22,23,59)       -179.5782         estimate D2E/DX2                !
 ! D117  D(21,24,25,13)          2.6108         estimate D2E/DX2                !
 ! D118  D(21,24,25,26)       -176.766          estimate D2E/DX2                !
 ! D119  D(60,24,25,13)       -179.716          estimate D2E/DX2                !
 ! D120  D(60,24,25,26)          0.9072         estimate D2E/DX2                !
 ! D121  D(13,25,26,9)          -1.5255         estimate D2E/DX2                !
 ! D122  D(13,25,26,27)        179.0482         estimate D2E/DX2                !
 ! D123  D(24,25,26,9)         177.8481         estimate D2E/DX2                !
 ! D124  D(24,25,26,27)         -1.5782         estimate D2E/DX2                !
 ! D125  D(9,26,27,75)         -71.6645         estimate D2E/DX2                !
 ! D126  D(25,26,27,75)        107.771          estimate D2E/DX2                !
 ! D127  D(26,27,75,7)          39.7467         estimate D2E/DX2                !
 ! D128  D(8,28,29,61)         -94.1273         estimate D2E/DX2                !
 ! D129  D(8,28,29,62)          27.4234         estimate D2E/DX2                !
 ! D130  D(8,28,29,63)         146.3859         estimate D2E/DX2                !
 ! D131  D(30,28,29,61)         84.3678         estimate D2E/DX2                !
 ! D132  D(30,28,29,62)       -154.0814         estimate D2E/DX2                !
 ! D133  D(30,28,29,63)        -35.119          estimate D2E/DX2                !
 ! D134  D(8,28,30,31)          -2.9069         estimate D2E/DX2                !
 ! D135  D(8,28,30,64)         176.7273         estimate D2E/DX2                !
 ! D136  D(29,28,30,31)        178.5599         estimate D2E/DX2                !
 ! D137  D(29,28,30,64)         -1.8058         estimate D2E/DX2                !
 ! D138  D(28,30,31,5)           1.1474         estimate D2E/DX2                !
 ! D139  D(28,30,31,32)       -178.8338         estimate D2E/DX2                !
 ! D140  D(64,30,31,5)        -178.4688         estimate D2E/DX2                !
 ! D141  D(64,30,31,32)          1.55           estimate D2E/DX2                !
 ! D142  D(5,31,32,33)        -178.1952         estimate D2E/DX2                !
 ! D143  D(5,31,32,36)           3.1922         estimate D2E/DX2                !
 ! D144  D(30,31,32,33)          1.7857         estimate D2E/DX2                !
 ! D145  D(30,31,32,36)       -176.827          estimate D2E/DX2                !
 ! D146  D(31,32,33,34)        -73.0582         estimate D2E/DX2                !
 ! D147  D(31,32,33,35)         57.0584         estimate D2E/DX2                !
 ! D148  D(31,32,33,65)        172.0576         estimate D2E/DX2                !
 ! D149  D(36,32,33,34)        105.5648         estimate D2E/DX2                !
 ! D150  D(36,32,33,35)       -124.3186         estimate D2E/DX2                !
 ! D151  D(36,32,33,65)         -9.3194         estimate D2E/DX2                !
 ! D152  D(31,32,36,3)          -4.4536         estimate D2E/DX2                !
 ! D153  D(31,32,36,37)        176.6222         estimate D2E/DX2                !
 ! D154  D(33,32,36,3)         176.8494         estimate D2E/DX2                !
 ! D155  D(33,32,36,37)         -2.0747         estimate D2E/DX2                !
 ! D156  D(32,33,34,66)        -57.4212         estimate D2E/DX2                !
 ! D157  D(32,33,34,67)         63.0183         estimate D2E/DX2                !
 ! D158  D(32,33,34,68)       -176.0812         estimate D2E/DX2                !
 ! D159  D(35,33,34,66)        172.0502         estimate D2E/DX2                !
 ! D160  D(35,33,34,67)        -67.5103         estimate D2E/DX2                !
 ! D161  D(35,33,34,68)         53.3902         estimate D2E/DX2                !
 ! D162  D(65,33,34,66)         60.3884         estimate D2E/DX2                !
 ! D163  D(65,33,34,67)       -179.1721         estimate D2E/DX2                !
 ! D164  D(65,33,34,68)        -58.2716         estimate D2E/DX2                !
 ! D165  D(32,33,35,69)        139.9445         estimate D2E/DX2                !
 ! D166  D(32,33,35,70)       -102.1371         estimate D2E/DX2                !
 ! D167  D(32,33,35,71)         21.0256         estimate D2E/DX2                !
 ! D168  D(34,33,35,69)        -90.484          estimate D2E/DX2                !
 ! D169  D(34,33,35,70)         27.4345         estimate D2E/DX2                !
 ! D170  D(34,33,35,71)        150.5971         estimate D2E/DX2                !
 ! D171  D(65,33,35,69)         21.666          estimate D2E/DX2                !
 ! D172  D(65,33,35,70)        139.5845         estimate D2E/DX2                !
 ! D173  D(65,33,35,71)        -97.2529         estimate D2E/DX2                !
 ! D174  D(3,36,37,38)          67.9264         estimate D2E/DX2                !
 ! D175  D(32,36,37,38)       -113.1254         estimate D2E/DX2                !
 ! D176  D(36,37,38,72)        175.7514         estimate D2E/DX2                !
 ! D177  D(36,37,38,73)        -64.645          estimate D2E/DX2                !
 ! D178  D(36,37,38,74)         56.6201         estimate D2E/DX2                !
 --------------------------------------------------------------------------------
 Trust Radius=3.00D-01 FncErr=1.00D-07 GrdErr=1.00D-06 EigMax=2.50D+02 EigMin=1.00D-04
 Number of steps in this run=    406 maximum allowed number of steps=    450.
 GradGradGradGradGradGradGradGradGradGradGradGradGradGradGradGradGradGrad

 Leave Link  103 at Sat Jul  5 16:21:13 2025, MaxMem= 13421772800 cpu:               1.2 elap:               0.1
 (Enter /public/software/apps/Gaussian/g16/l202.exe)
 Symmetry turned off by external request.
 Stoichiometry    C32H36CuO6(2)
 Framework group  C1[X(C32H36CuO6)]
 Deg. of freedom   219
 Full point group                 C1      NOp   1
                          Input orientation:                          
 ---------------------------------------------------------------------
 Center     Atomic      Atomic             Coordinates (Angstroms)
 Number     Number       Type             X           Y           Z
 ---------------------------------------------------------------------
      1          6           0        5.650173   -2.821117    2.752749
      2          8           0        6.124790   -1.770509    1.916668
      3          6           0        5.309873   -0.936099    1.133419
      4          6           0        3.917920   -1.061168    1.130279
      5          6           0        3.118094   -0.208295    0.359286
      6          6           0        1.718350   -0.379236    0.355452
      7          8           0        1.127373   -1.370564    1.137827
      8          6           0        0.899348    0.444198   -0.429417
      9          6           0       -0.566770    0.202786   -0.436571
     10          6           0       -1.215818   -0.363127   -1.553334
     11          6           0       -0.458414   -0.808213   -2.779877
     12          6           0       -2.610296   -0.506182   -1.541665
     13          6           0       -3.386695   -0.124437   -0.422810
     14          6           0       -4.813482   -0.214188   -0.412645
     15          6           0       -5.603984   -0.470850   -1.708311
     16          6           0       -6.836100    0.438749   -1.876893
     17          6           0       -5.978437   -1.950452   -1.837980
     18          6           0       -5.503163   -0.082713    0.824512
     19          8           0       -6.874310   -0.406926    0.848310
     20          6           0       -7.740003   -0.426036    1.978019
     21          6           0       -4.807118    0.348688    1.979816
     22          8           0       -5.503709    0.554362    3.182260
     23          6           0       -4.921309    0.981952    4.409921
     24          6           0       -3.426679    0.577110    1.908535
     25          6           0       -2.706976    0.322045    0.736600
     26          6           0       -1.307975    0.497300    0.717171
     27          8           0       -0.639478    0.955676    1.851576
     28          6           0        1.476839    1.491395   -1.174689
     29          6           0        0.642562    2.440506   -1.998890
     30          6           0        2.869656    1.646810   -1.183134
     31          6           0        3.719003    0.820035   -0.416494
     32          6           0        5.144048    0.981015   -0.394671
     33          6           0        5.892438    2.085713   -1.164706
     34          6           0        5.921391    1.816923   -2.675620
     35          6           0        5.434152    3.515807   -0.811679
     36          6           0        5.919606    0.056424    0.354421
     37          8           0        7.317428    0.141213    0.340419
     38          6           0        8.133981   -0.864546   -0.249341
     39          1           0        5.111554   -3.578911    2.145445
     40          1           0        4.980965   -2.411580    3.538617
     41          1           0        6.515402   -3.311024    3.244309
     42          1           0        3.454631   -1.833293    1.728856
     43          1           0       -0.494578   -0.010808   -3.549668
     44          1           0       -0.915616   -1.727838   -3.203260
     45          1           0        0.599790   -1.049437   -2.549801
     46          1           0       -3.058038   -0.975652   -2.403856
     47          1           0       -4.985545   -0.202559   -2.585878
     48          1           0       -7.119485    0.490576   -2.950542
     49          1           0       -7.723275    0.055344   -1.333543
     50          1           0       -6.607351    1.470489   -1.533922
     51          1           0       -6.483255   -2.132612   -2.810691
     52          1           0       -6.660863   -2.260686   -1.018983
     53          1           0       -5.063903   -2.579654   -1.797508
     54          1           0       -7.863915    0.598918    2.385786
     55          1           0       -7.351653   -1.122808    2.750381
     56          1           0       -8.737478   -0.788769    1.656151
     57          1           0       -4.463556    1.986155    4.286967
     58          1           0       -4.158855    0.248599    4.747583
     59          1           0       -5.714785    1.047716    5.182145
     60          1           0       -2.899882    0.922026    2.787171
     61          1           0        0.588656    2.077222   -3.045129
     62          1           0       -0.384161    2.546813   -1.591769
     63          1           0        1.096960    3.454280   -2.000928
     64          1           0        3.260454    2.424234   -1.808070
     65          1           0        6.961209    2.076149   -0.865333
     66          1           0        6.392212    0.829630   -2.870608
     67          1           0        4.910675    1.811394   -3.126102
     68          1           0        6.527938    2.594841   -3.186839
     69          1           0        6.314452    4.192474   -0.755717
     70          1           0        4.763385    3.949629   -1.580424
     71          1           0        4.928752    3.540458    0.177425
     72          1           0        9.194172   -0.541618   -0.206177
     73          1           0        8.034410   -1.825560    0.294245
     74          1           0        7.846773   -1.007757   -1.312541
     75         29           0        0.411544   -0.456144    2.720162
 ---------------------------------------------------------------------
 Rotational constants (GHZ):           0.1836313           0.0402921           0.0367199
 Leave Link  202 at Sat Jul  5 16:21:13 2025, MaxMem= 13421772800 cpu:               2.0 elap:               0.1
 (Enter /public/software/apps/Gaussian/g16/l301.exe)
 Standard basis: def2SVPP (5D, 7F)
 Ernie: Thresh=  0.10000D-02 Tol=  0.10000D-05 Strict=F.
   628 basis functions,  1165 primitive gaussians,   668 cartesian basis functions
   153 alpha electrons      152 beta electrons
       nuclear repulsion energy      5023.1651808051 Hartrees.
 IExCor=  402 DFT=T Ex+Corr=B3LYP ExCW=0 ScaHFX=  0.200000
 ScaDFX=  0.800000  0.720000  1.000000  0.810000 ScalE2=  1.000000  1.000000
 IRadAn=      5 IRanWt=     -1 IRanGd=            0 ICorTp=0 IEmpDi=141
 NAtoms=   75 NActive=   75 NUniq=   75 SFac= 1.00D+00 NAtFMM=   60 NAOKFM=T Big=T
 Integral buffers will be    131072 words long.
 Raffenetti 2 integral format.
 Two-electron integral symmetry is turned off.
 R6Disp:  Grimme-D3(BJ) Dispersion energy=       -0.1792440743 Hartrees.
 Nuclear repulsion after empirical dispersion term =     5022.9859367308 Hartrees.
 Leave Link  301 at Sat Jul  5 16:21:13 2025, MaxMem= 13421772800 cpu:               1.9 elap:               0.1
 (Enter /public/software/apps/Gaussian/g16/l302.exe)
 NPDir=0 NMtPBC=     1 NCelOv=     1 NCel=       1 NClECP=     1 NCelD=      1
         NCelK=      1 NCelE2=     1 NClLst=     1 CellRange=     0.0.
 One-electron integrals computed using PRISM.
   1 Symmetry operations used in ECPInt.
 ECPInt:  NShTT=   48205 NPrTT=  198148 LenC2=   37331 LenP2D=   94744.
 LDataN:  DoStor=T MaxTD1= 4 Len=   56
 NBasis=   628 RedAO= T EigKep=  1.55D-04  NBF=   628
 NBsUse=   628 1.00D-06 EigRej= -1.00D+00 NBFU=   628
 Precomputing XC quadrature grid using
 IXCGrd= 4 IRadAn=           5 IRanWt=          -1 IRanGd=           0 AccXCQ= 0.00D+00.
 Generated NRdTot=       0 NPtTot=           0 NUsed=           0 NTot=          32
 NSgBfM=   640   638   639   639   640 MxSgAt=    75 MxSgA2=    75.
 Leave Link  302 at Sat Jul  5 16:21:14 2025, MaxMem= 13421772800 cpu:              25.0 elap:               0.8
 (Enter /public/software/apps/Gaussian/g16/l303.exe)
 DipDrv:  MaxL=1.
 Leave Link  303 at Sat Jul  5 16:21:14 2025, MaxMem= 13421772800 cpu:               4.0 elap:               0.2
 (Enter /public/software/apps/Gaussian/g16/l401.exe)
 ExpMin= 3.30D-02 ExpMax= 7.64D+04 ExpMxC= 1.15D+04 IAcc=3 IRadAn=         5 AccDes= 0.00D+00
 Harris functional with IExCor=  402 and IRadAn=       5 diagonalized for initial guess.
 HarFok:  IExCor=  402 AccDes= 0.00D+00 IRadAn=         5 IDoV= 1 UseB2=F ITyADJ=14
 ICtDFT=  3500011 ScaDFX=  1.000000  1.000000  1.000000  1.000000
 FoFCou: FMM=F IPFlag=           0 FMFlag=      100000 FMFlg1=        2001
         NFxFlg=           0 DoJE=T BraDBF=F KetDBF=T FulRan=T
         wScrn=  0.000000 ICntrl=       500 IOpCl=  0 I1Cent=   200000004 NGrid=           0
         NMat0=    1 NMatS0=      1 NMatT0=    0 NMatD0=    1 NMtDS0=    0 NMtDT0=    0
 Symmetry not used in FoFCou.
 Harris En= -3331.72047823732    
 JPrj=0 DoOrth=F DoCkMO=F.
 Initial guess <Sx>= 0.0000 <Sy>= 0.0000 <Sz>= 0.5000 <S**2>= 0.7500 S= 0.5000
 Leave Link  401 at Sat Jul  5 16:21:16 2025, MaxMem= 13421772800 cpu:              59.5 elap:               1.9
 (Enter /public/software/apps/Gaussian/g16/l502.exe)
 Two-electron integral symmetry not used.
 UHF open shell SCF:
 Using DIIS extrapolation, IDIIS=  1040.
 NGot= 13421772800 LenX= 13420851420 LenY= 13420404528
 Requested convergence on RMS density matrix=1.00D-08 within 128 cycles.
 Requested convergence on MAX density matrix=1.00D-06.
 Requested convergence on             energy=1.00D-06.
 No special actions if energy rises.
 Fock matrices will be formed incrementally for  20 cycles.

 Cycle   1  Pass 1  IDiag  1:
 FoFJK:  IHMeth= 1 ICntrl=       0 DoSepK=F KAlg= 0 I1Cent=           0 FoldK=F
 IRaf= 930000000 NMat=       1 IRICut=       1 DoRegI=T DoRafI=F ISym2E= 0 IDoP0=0 IntGTp=1.
 FoFCou: FMM=T IPFlag=           0 FMFlag=      100000 FMFlg1=        2001
         NFxFlg=           0 DoJE=F BraDBF=F KetDBF=F FulRan=T
         wScrn=  0.000000 ICntrl=         0 IOpCl=  1 I1Cent=           0 NGrid=           0
         NMat0=    1 NMatS0=      1 NMatT0=    0 NMatD0=    1 NMtDS0=    0 NMtDT0=    0
 Symmetry not used in FoFCou.
 FMM levels:  10  Number of levels for PrismC:   9
 E= -3320.14105451386    
 DIIS: error= 2.77D-01 at cycle   1 NSaved=   1.
 NSaved= 1 IEnMin= 1 EnMin= -3320.14105451386     IErMin= 1 ErrMin= 2.77D-01
 ErrMax= 2.77D-01  0.00D+00 EMaxC= 1.00D-01 BMatC= 4.85D+01 BMatP= 4.85D+01
 IDIUse=3 WtCom= 0.00D+00 WtEn= 1.00D+00
 Coeff-Com:  0.100D+01
 Coeff-En:   0.100D+01
 Coeff:      0.100D+01
 Gap=     0.017 Goal=   None    Shift=    0.000
 Gap=     0.388 Goal=   None    Shift=    0.000
 GapD=    0.017 DampG=0.250 DampE=0.125 DampFc=0.1250 IDamp=-1.
 Damping current iteration by 1.25D-01
 RMSDP=3.74D-02 MaxDP=7.19D+00              OVMax= 9.70D-01

 Cycle   2  Pass 1  IDiag  1:
 RMSU=  4.67D-03    CP:  1.01D+00
 E= -3323.73927700810     Delta-E=       -3.598222494242 Rises=F Damp=T
 DIIS: error= 1.82D-01 at cycle   2 NSaved=   2.
 NSaved= 2 IEnMin= 2 EnMin= -3323.73927700810     IErMin= 2 ErrMin= 1.82D-01
 ErrMax= 1.82D-01  0.00D+00 EMaxC= 1.00D-01 BMatC= 1.82D+01 BMatP= 4.85D+01
 IDIUse=3 WtCom= 0.00D+00 WtEn= 1.00D+00
 Coeff-Com: -0.124D+01 0.224D+01
 Coeff-En:   0.000D+00 0.100D+01
 Coeff:      0.000D+00 0.100D+01
 Gap=     0.044 Goal=   None    Shift=    0.000
 Gap=    -0.021 Goal=   None    Shift=    0.000
 RMSDP=1.23D-02 MaxDP=2.63D+00 DE=-3.60D+00 OVMax= 9.45D-01

 Cycle   3  Pass 1  IDiag  1:
 RMSU=  1.03D-02    CP:  9.64D-01  2.42D+00
 E= -3316.90305519030     Delta-E=        6.836221817808 Rises=F Damp=F
 DIIS: error= 1.56D-01 at cycle   3 NSaved=   3.
 NSaved= 3 IEnMin= 2 EnMin= -3323.73927700810     IErMin= 3 ErrMin= 1.56D-01
 ErrMax= 1.56D-01  0.00D+00 EMaxC= 1.00D-01 BMatC= 3.84D+01 BMatP= 1.82D+01
 IDIUse=2 WtCom= 0.00D+00 WtEn= 1.00D+00
 EnCoef did   100 forward-backward iterations
 Coeff-En:   0.521D+00 0.279D-01 0.451D+00
 Coeff:      0.521D+00 0.279D-01 0.451D+00
 Gap=    -0.109 Goal=   None    Shift=    0.000
 Gap=    -0.028 Goal=   None    Shift=    0.000
 RMSDP=1.44D-02 MaxDP=3.70D+00 DE= 6.84D+00 OVMax= 6.98D-01

 Cycle   4  Pass 1  IDiag  1:
 RMSU=  5.77D-03    CP:  9.02D-01  2.92D-01  1.62D-01
 E= -3327.15326965121     Delta-E=      -10.250214460910 Rises=F Damp=F
 DIIS: error= 1.00D-01 at cycle   4 NSaved=   4.
 NSaved= 4 IEnMin= 4 EnMin= -3327.15326965121     IErMin= 4 ErrMin= 1.00D-01
 ErrMax= 1.00D-01  0.00D+00 EMaxC= 1.00D-01 BMatC= 1.56D+01 BMatP= 1.82D+01
 IDIUse=3 WtCom= 0.00D+00 WtEn= 1.00D+00
 EnCoef did   100 forward-backward iterations
 Coeff-Com: -0.684D+00 0.139D+01 0.153D+00 0.145D+00
 Coeff-En:   0.346D+00 0.817D-02 0.153D+00 0.493D+00
 Coeff:      0.346D+00 0.817D-02 0.153D+00 0.493D+00
 Gap=    -0.364 Goal=   None    Shift=    0.000
 Gap=     0.330 Goal=   None    Shift=    0.000
 RMSDP=1.03D-02 MaxDP=1.08D+00 DE=-1.03D+01 OVMax= 9.85D-01

 Cycle   5  Pass 1  IDiag  1:
 RMSU=  9.34D-03    CP:  9.12D-01  1.47D-01  2.16D-01  2.54D-01
 E= -3317.35057297537     Delta-E=        9.802696675841 Rises=F Damp=F
 DIIS: error= 6.91D-02 at cycle   5 NSaved=   5.
 NSaved= 5 IEnMin= 4 EnMin= -3327.15326965121     IErMin= 5 ErrMin= 6.91D-02
 ErrMax= 6.91D-02  0.00D+00 EMaxC= 1.00D-01 BMatC= 3.59D+01 BMatP= 1.56D+01
 IDIUse=2 WtCom= 0.00D+00 WtEn= 1.00D+00
 EnCoef did   100 forward-backward iterations
 Coeff-En:   0.201D+00 0.631D-02 0.000D+00 0.583D+00 0.210D+00
 Coeff:      0.201D+00 0.631D-02 0.000D+00 0.583D+00 0.210D+00
 Gap=    -0.006 Goal=   None    Shift=    0.000
 Gap=     0.073 Goal=   None    Shift=    0.000
 RMSDP=8.90D-03 MaxDP=7.88D-01 DE= 9.80D+00 OVMax= 9.44D-01

 Cycle   6  Pass 1  IDiag  1:
 RMSU=  3.69D-03    CP:  9.11D-01  1.10D-01  1.84D-01  3.48D-01  1.36D-01
 E= -3330.71365934092     Delta-E=      -13.363086365553 Rises=F Damp=F
 DIIS: error= 1.42D-02 at cycle   6 NSaved=   6.
 NSaved= 6 IEnMin= 6 EnMin= -3330.71365934092     IErMin= 6 ErrMin= 1.42D-02
 ErrMax= 1.42D-02  0.00D+00 EMaxC= 1.00D-01 BMatC= 2.39D+00 BMatP= 1.56D+01
 IDIUse=3 WtCom= 8.58D-01 WtEn= 1.42D-01
 EnCoef did     3 forward-backward iterations
 Coeff-Com: -0.146D+00 0.347D+00-0.209D-01 0.200D+00 0.514D-01 0.569D+00
 Coeff-En:   0.797D-01 0.000D+00 0.000D+00 0.151D+00 0.000D+00 0.770D+00
 Coeff:     -0.114D+00 0.298D+00-0.180D-01 0.193D+00 0.441D-01 0.598D+00
 Gap=     0.051 Goal=   None    Shift=    0.000
 Gap=    -0.035 Goal=   None    Shift=    0.000
 RMSDP=4.55D-03 MaxDP=8.08D-01 DE=-1.34D+01 OVMax= 6.62D-01

 Cycle   7  Pass 1  IDiag  1:
 RMSU=  4.02D-03    CP:  9.29D-01  4.44D-03  1.16D-01  3.78D-01  8.46D-02
                    CP:  4.97D-01
 E= -3330.78320008434     Delta-E=       -0.069540743418 Rises=F Damp=F
 DIIS: error= 2.52D-02 at cycle   7 NSaved=   7.
 NSaved= 7 IEnMin= 7 EnMin= -3330.78320008434     IErMin= 6 ErrMin= 1.42D-02
 ErrMax= 2.52D-02  0.00D+00 EMaxC= 1.00D-01 BMatC= 2.52D+00 BMatP= 2.39D+00
 IDIUse=3 WtCom= 8.58D-01 WtEn= 1.42D-01
 EnCoef did     1 forward-backward iterations
 Coeff-Com: -0.187D+00 0.336D+00-0.181D-01 0.959D-01 0.221D-02 0.419D+00
 Coeff-Com:  0.351D+00
 Coeff-En:   0.000D+00 0.000D+00 0.000D+00 0.264D-01 0.000D+00 0.468D+00
 Coeff-En:   0.506D+00
 Coeff:     -0.160D+00 0.289D+00-0.155D-01 0.860D-01 0.190D-02 0.426D+00
 Coeff:      0.373D+00
 Gap=     0.084 Goal=   None    Shift=    0.000
 Gap=     0.101 Goal=   None    Shift=    0.000
 RMSDP=2.95D-03 MaxDP=3.33D-01 DE=-6.95D-02 OVMax= 4.88D-01

 Cycle   8  Pass 1  IDiag  1:
 RMSU=  1.56D-03    CP:  9.10D-01 -1.86D-03  1.33D-01  4.09D-01  1.08D-01
                    CP:  6.57D-01  4.05D-01
 E= -3331.44297156113     Delta-E=       -0.659771476800 Rises=F Damp=F
 DIIS: error= 2.66D-02 at cycle   8 NSaved=   8.
 NSaved= 8 IEnMin= 8 EnMin= -3331.44297156113     IErMin= 6 ErrMin= 1.42D-02
 ErrMax= 2.66D-02  0.00D+00 EMaxC= 1.00D-01 BMatC= 5.87D-01 BMatP= 2.39D+00
 IDIUse=3 WtCom= 8.58D-01 WtEn= 1.42D-01
 Coeff-Com: -0.174D+00 0.309D+00-0.109D-01-0.705D-02-0.188D-01 0.227D+00
 Coeff-Com:  0.241D+00 0.434D+00
 Coeff-En:   0.000D+00 0.000D+00 0.000D+00 0.000D+00 0.000D+00 0.000D+00
 Coeff-En:   0.123D-01 0.988D+00
 Coeff:     -0.149D+00 0.265D+00-0.938D-02-0.606D-02-0.161D-01 0.195D+00
 Coeff:      0.208D+00 0.513D+00
 Gap=     0.140 Goal=   None    Shift=    0.000
 Gap=     0.023 Goal=   None    Shift=    0.000
 RMSDP=1.03D-03 MaxDP=7.58D-02 DE=-6.60D-01 OVMax= 3.29D-01

 Cycle   9  Pass 1  IDiag  1:
 RMSU=  7.94D-04    CP:  9.12D-01  1.83D-02  1.37D-01  4.00D-01  9.56D-02
                    CP:  6.87D-01  4.85D-01  6.55D-01
 E= -3331.48863017028     Delta-E=       -0.045658609150 Rises=F Damp=F
 DIIS: error= 1.70D-02 at cycle   9 NSaved=   9.
 NSaved= 9 IEnMin= 9 EnMin= -3331.48863017028     IErMin= 6 ErrMin= 1.42D-02
 ErrMax= 1.70D-02  0.00D+00 EMaxC= 1.00D-01 BMatC= 3.09D-01 BMatP= 5.87D-01
 IDIUse=3 WtCom= 8.58D-01 WtEn= 1.42D-01
 Coeff-Com: -0.159D+00 0.291D+00-0.133D-01-0.309D-01-0.145D-01 0.117D+00
 Coeff-Com:  0.932D-01 0.322D+00 0.395D+00
 Coeff-En:   0.000D+00 0.000D+00 0.000D+00 0.000D+00 0.000D+00 0.000D+00
 Coeff-En:   0.000D+00 0.297D+00 0.703D+00
 Coeff:     -0.137D+00 0.250D+00-0.114D-01-0.265D-01-0.124D-01 0.100D+00
 Coeff:      0.800D-01 0.318D+00 0.439D+00
 Gap=     0.121 Goal=   None    Shift=    0.000
 Gap=     0.020 Goal=   None    Shift=    0.000
 RMSDP=7.80D-04 MaxDP=5.05D-02 DE=-4.57D-02 OVMax= 3.28D-01

 Cycle  10  Pass 1  IDiag  1:
 RMSU=  3.97D-04    CP:  9.11D-01  2.04D-02  1.38D-01  4.09D-01  9.91D-02
                    CP:  6.96D-01  3.87D-01  8.47D-01  4.35D-01
 E= -3331.51029407631     Delta-E=       -0.021663906024 Rises=F Damp=F
 DIIS: error= 2.01D-02 at cycle  10 NSaved=  10.
 NSaved=10 IEnMin=10 EnMin= -3331.51029407631     IErMin= 6 ErrMin= 1.42D-02
 ErrMax= 2.01D-02  0.00D+00 EMaxC= 1.00D-01 BMatC= 2.58D-01 BMatP= 3.09D-01
 IDIUse=3 WtCom= 8.58D-01 WtEn= 1.42D-01
 Coeff-Com: -0.139D+00 0.262D+00-0.161D-01-0.368D-01-0.113D-01 0.752D-01
 Coeff-Com:  0.499D-01 0.843D-01 0.294D+00 0.438D+00
 Coeff-En:   0.000D+00 0.000D+00 0.000D+00 0.000D+00 0.000D+00 0.000D+00
 Coeff-En:   0.000D+00 0.000D+00 0.290D+00 0.710D+00
 Coeff:     -0.120D+00 0.225D+00-0.138D-01-0.316D-01-0.968D-02 0.645D-01
 Coeff:      0.428D-01 0.724D-01 0.294D+00 0.476D+00
 Gap=     0.120 Goal=   None    Shift=    0.000
 Gap=     0.023 Goal=   None    Shift=    0.000
 RMSDP=4.63D-04 MaxDP=4.00D-02 DE=-2.17D-02 OVMax= 2.46D-01

 Cycle  11  Pass 1  IDiag  1:
 RMSU=  2.46D-04    CP:  9.11D-01  1.95D-02  1.37D-01  4.01D-01  1.01D-01
                    CP:  6.88D-01  3.92D-01  8.16D-01  7.30D-01  2.31D-01
 E= -3331.52083526537     Delta-E=       -0.010541189065 Rises=F Damp=F
 DIIS: error= 1.82D-02 at cycle  11 NSaved=  11.
 NSaved=11 IEnMin=11 EnMin= -3331.52083526537     IErMin= 6 ErrMin= 1.42D-02
 ErrMax= 1.82D-02  0.00D+00 EMaxC= 1.00D-01 BMatC= 1.98D-01 BMatP= 2.58D-01
 IDIUse=3 WtCom= 8.58D-01 WtEn= 1.42D-01
 Coeff-Com: -0.820D-01 0.166D+00-0.171D-01-0.330D-01-0.124D-01 0.525D-01
 Coeff-Com:  0.626D-01-0.355D+00-0.316D+00 0.519D+00 0.102D+01
 Coeff-En:   0.000D+00 0.000D+00 0.000D+00 0.000D+00 0.000D+00 0.000D+00
 Coeff-En:   0.000D+00 0.000D+00 0.000D+00 0.196D+00 0.804D+00
 Coeff:     -0.704D-01 0.143D+00-0.147D-01-0.284D-01-0.106D-01 0.451D-01
 Coeff:      0.537D-01-0.305D+00-0.271D+00 0.473D+00 0.985D+00
 Gap=     0.127 Goal=   None    Shift=    0.000
 Gap=     0.031 Goal=   None    Shift=    0.000
 RMSDP=3.79D-04 MaxDP=2.95D-02 DE=-1.05D-02 OVMax= 1.58D-01

 Cycle  12  Pass 1  IDiag  1:
 RMSU=  2.16D-04    CP:  9.13D-01  1.80D-02  1.34D-01  3.91D-01  9.61D-02
                    CP:  7.01D-01  3.96D-01  8.03D-01  6.18D-01  7.34D-01
                    CP:  1.99D-01
 E= -3331.54127710081     Delta-E=       -0.020441835441 Rises=F Damp=F
 DIIS: error= 9.20D-03 at cycle  12 NSaved=  12.
 NSaved=12 IEnMin=12 EnMin= -3331.54127710081     IErMin=12 ErrMin= 9.20D-03
 ErrMax= 9.20D-03  0.00D+00 EMaxC= 1.00D-01 BMatC= 6.30D-02 BMatP= 1.98D-01
 IDIUse=3 WtCom= 9.08D-01 WtEn= 9.20D-02
 Coeff-Com: -0.206D-01 0.392D-01-0.177D-02-0.297D-02-0.253D-02-0.112D-01
 Coeff-Com:  0.537D-01-0.410D+00-0.722D+00-0.296D+00 0.101D+01 0.137D+01
 Coeff-En:   0.000D+00 0.000D+00 0.000D+00 0.000D+00 0.000D+00 0.000D+00
 Coeff-En:   0.000D+00 0.000D+00 0.000D+00 0.000D+00 0.000D+00 0.100D+01
 Coeff:     -0.187D-01 0.356D-01-0.161D-02-0.270D-02-0.229D-02-0.102D-01
 Coeff:      0.487D-01-0.372D+00-0.656D+00-0.269D+00 0.916D+00 0.133D+01
 Gap=     0.128 Goal=   None    Shift=    0.000
 Gap=     0.035 Goal=   None    Shift=    0.000
 RMSDP=3.69D-04 MaxDP=3.76D-02 DE=-2.04D-02 OVMax= 1.03D-01

 Cycle  13  Pass 1  IDiag  1:
 RMSU=  2.83D-04    CP:  9.13D-01  1.73D-02  1.29D-01  3.81D-01  9.44D-02
                    CP:  6.90D-01  3.81D-01  7.94D-01  7.09D-01  4.97D-01
                    CP:  8.19D-01  1.37D+00
 E= -3331.54967275200     Delta-E=       -0.008395651188 Rises=F Damp=F
 DIIS: error= 3.51D-03 at cycle  13 NSaved=  13.
 NSaved=13 IEnMin=13 EnMin= -3331.54967275200     IErMin=13 ErrMin= 3.51D-03
 ErrMax= 3.51D-03  0.00D+00 EMaxC= 1.00D-01 BMatC= 1.62D-02 BMatP= 6.30D-02
 IDIUse=3 WtCom= 9.65D-01 WtEn= 3.51D-02
 Coeff-Com: -0.171D-01 0.284D-01 0.599D-03 0.153D-02-0.363D-03-0.988D-02
 Coeff-Com:  0.134D-01-0.178D+00-0.292D+00-0.147D+00 0.397D+00 0.747D+00
 Coeff-Com:  0.456D+00
 Coeff-En:   0.000D+00 0.000D+00 0.000D+00 0.000D+00 0.000D+00 0.000D+00
 Coeff-En:   0.000D+00 0.000D+00 0.000D+00 0.000D+00 0.000D+00 0.238D+00
 Coeff-En:   0.762D+00
 Coeff:     -0.165D-01 0.274D-01 0.578D-03 0.147D-02-0.351D-03-0.953D-02
 Coeff:      0.129D-01-0.171D+00-0.282D+00-0.142D+00 0.383D+00 0.729D+00
 Coeff:      0.467D+00
 Gap=     0.118 Goal=   None    Shift=    0.000
 Gap=     0.036 Goal=   None    Shift=    0.000
 RMSDP=1.76D-04 MaxDP=1.38D-02 DE=-8.40D-03 OVMax= 4.53D-02

 Cycle  14  Pass 1  IDiag  1:
 RMSU=  1.10D-04    CP:  9.13D-01  2.01D-02  1.31D-01  3.88D-01  9.34D-02
                    CP:  6.90D-01  3.67D-01  8.03D-01  7.03D-01  6.43D-01
                    CP:  7.22D-01  1.25D+00  6.68D-01
 E= -3331.55326754543     Delta-E=       -0.003594793423 Rises=F Damp=F
 DIIS: error= 4.51D-04 at cycle  14 NSaved=  14.
 NSaved=14 IEnMin=14 EnMin= -3331.55326754543     IErMin=14 ErrMin= 4.51D-04
 ErrMax= 4.51D-04  0.00D+00 EMaxC= 1.00D-01 BMatC= 1.55D-03 BMatP= 1.62D-02
 IDIUse=3 WtCom= 9.95D-01 WtEn= 4.51D-03
 Coeff-Com: -0.797D-02 0.132D-01 0.134D-03 0.239D-02-0.355D-03-0.708D-03
 Coeff-Com: -0.156D-03-0.811D-01-0.982D-01-0.193D-01 0.146D+00 0.226D+00
 Coeff-Com:  0.260D+00 0.560D+00
 Coeff-En:   0.000D+00 0.000D+00 0.000D+00 0.000D+00 0.000D+00 0.000D+00
 Coeff-En:   0.000D+00 0.000D+00 0.000D+00 0.000D+00 0.000D+00 0.000D+00
 Coeff-En:   0.000D+00 0.100D+01
 Coeff:     -0.793D-02 0.131D-01 0.134D-03 0.237D-02-0.353D-03-0.705D-03
 Coeff:     -0.155D-03-0.808D-01-0.977D-01-0.192D-01 0.146D+00 0.225D+00
 Coeff:      0.259D+00 0.562D+00
 Gap=     0.112 Goal=   None    Shift=    0.000
 Gap=     0.036 Goal=   None    Shift=    0.000
 RMSDP=6.99D-05 MaxDP=6.82D-03 DE=-3.59D-03 OVMax= 1.41D-02

 Cycle  15  Pass 1  IDiag  1:
 RMSU=  5.23D-05    CP:  9.13D-01  2.15D-02  1.31D-01  3.88D-01  9.32D-02
                    CP:  6.89D-01  3.63D-01  7.95D-01  7.23D-01  6.28D-01
                    CP:  7.60D-01  1.14D+00  7.52D-01  8.85D-01
 E= -3331.55364807429     Delta-E=       -0.000380528869 Rises=F Damp=F
 DIIS: error= 2.53D-04 at cycle  15 NSaved=  15.
 NSaved=15 IEnMin=15 EnMin= -3331.55364807429     IErMin=15 ErrMin= 2.53D-04
 ErrMax= 2.53D-04  0.00D+00 EMaxC= 1.00D-01 BMatC= 4.62D-04 BMatP= 1.55D-03
 IDIUse=3 WtCom= 9.97D-01 WtEn= 2.53D-03
 Coeff-Com: -0.866D-03 0.142D-02-0.106D-03 0.183D-02-0.467D-03 0.278D-02
 Coeff-Com: -0.320D-02-0.299D-01-0.232D-01 0.374D-01 0.415D-01-0.502D-01
 Coeff-Com:  0.186D-01 0.324D+00 0.681D+00
 Coeff-En:   0.000D+00 0.000D+00 0.000D+00 0.000D+00 0.000D+00 0.000D+00
 Coeff-En:   0.000D+00 0.000D+00 0.000D+00 0.000D+00 0.000D+00 0.000D+00
 Coeff-En:   0.000D+00 0.000D+00 0.100D+01
 Coeff:     -0.864D-03 0.142D-02-0.106D-03 0.182D-02-0.465D-03 0.277D-02
 Coeff:     -0.319D-02-0.298D-01-0.232D-01 0.373D-01 0.414D-01-0.501D-01
 Coeff:      0.185D-01 0.323D+00 0.681D+00
 Gap=     0.109 Goal=   None    Shift=    0.000
 Gap=     0.036 Goal=   None    Shift=    0.000
 RMSDP=4.48D-05 MaxDP=5.55D-03 DE=-3.81D-04 OVMax= 1.20D-02

 Cycle  16  Pass 1  IDiag  1:
 RMSU=  2.94D-05    CP:  9.13D-01  2.26D-02  1.31D-01  3.88D-01  9.31D-02
                    CP:  6.89D-01  3.58D-01  7.93D-01  7.24D-01  6.53D-01
                    CP:  7.42D-01  1.14D+00  7.63D-01  1.09D+00  1.08D+00
 E= -3331.55377418545     Delta-E=       -0.000126111157 Rises=F Damp=F
 DIIS: error= 5.96D-04 at cycle  16 NSaved=  16.
 NSaved=16 IEnMin=16 EnMin= -3331.55377418545     IErMin=15 ErrMin= 2.53D-04
 ErrMax= 5.96D-04  0.00D+00 EMaxC= 1.00D-01 BMatC= 3.32D-04 BMatP= 4.62D-04
 IDIUse=3 WtCom= 9.97D-01 WtEn= 2.53D-03
 Coeff-Com:  0.138D-03-0.259D-03-0.132D-03 0.748D-03-0.212D-03 0.141D-02
 Coeff-Com: -0.194D-02-0.348D-02-0.210D-02 0.381D-01 0.176D-01-0.903D-01
 Coeff-Com: -0.784D-01-0.123D-01 0.417D+00 0.715D+00
 Coeff-En:   0.000D+00 0.000D+00 0.000D+00 0.000D+00 0.000D+00 0.000D+00
 Coeff-En:   0.000D+00 0.000D+00 0.000D+00 0.000D+00 0.000D+00 0.000D+00
 Coeff-En:   0.000D+00 0.000D+00 0.000D+00 0.100D+01
 Coeff:      0.137D-03-0.258D-03-0.131D-03 0.746D-03-0.211D-03 0.140D-02
 Coeff:     -0.194D-02-0.347D-02-0.209D-02 0.380D-01 0.175D-01-0.901D-01
 Coeff:     -0.782D-01-0.123D-01 0.416D+00 0.715D+00
 Gap=     0.108 Goal=   None    Shift=    0.000
 Gap=     0.036 Goal=   None    Shift=    0.000
 RMSDP=2.73D-05 MaxDP=3.01D-03 DE=-1.26D-04 OVMax= 4.84D-03

 Cycle  17  Pass 1  IDiag  1:
 RMSU=  1.27D-05    CP:  9.12D-01  2.31D-02  1.32D-01  3.89D-01  9.30D-02
                    CP:  6.89D-01  3.55D-01  7.92D-01  7.23D-01  6.60D-01
                    CP:  7.44D-01  1.08D+00  7.78D-01  1.17D+00  1.33D+00
                    CP:  9.61D-01
 E= -3331.55384627974     Delta-E=       -0.000072094288 Rises=F Damp=F
 DIIS: error= 3.06D-04 at cycle  17 NSaved=  17.
 NSaved=17 IEnMin=17 EnMin= -3331.55384627974     IErMin=15 ErrMin= 2.53D-04
 ErrMax= 3.06D-04  0.00D+00 EMaxC= 1.00D-01 BMatC= 8.04D-05 BMatP= 3.32D-04
 IDIUse=3 WtCom= 9.97D-01 WtEn= 2.53D-03
 Coeff-Com: -0.334D-04 0.200D-04-0.761D-04 0.852D-04-0.537D-04 0.273D-04
 Coeff-Com: -0.305D-03 0.282D-02-0.864D-03 0.184D-01 0.161D-01-0.491D-01
 Coeff-Com: -0.631D-01-0.101D+00 0.117D+00 0.449D+00 0.611D+00
 Coeff-En:   0.000D+00 0.000D+00 0.000D+00 0.000D+00 0.000D+00 0.000D+00
 Coeff-En:   0.000D+00 0.000D+00 0.000D+00 0.000D+00 0.000D+00 0.000D+00
 Coeff-En:   0.000D+00 0.000D+00 0.000D+00 0.000D+00 0.100D+01
 Coeff:     -0.333D-04 0.200D-04-0.759D-04 0.849D-04-0.535D-04 0.272D-04
 Coeff:     -0.304D-03 0.282D-02-0.862D-03 0.184D-01 0.160D-01-0.490D-01
 Coeff:     -0.629D-01-0.101D+00 0.117D+00 0.448D+00 0.612D+00
 Gap=     0.107 Goal=   None    Shift=    0.000
 Gap=     0.036 Goal=   None    Shift=    0.000
 RMSDP=1.43D-05 MaxDP=1.18D-03 DE=-7.21D-05 OVMax= 4.66D-03

 Cycle  18  Pass 1  IDiag  1:
 RMSU=  7.33D-06    CP:  9.12D-01  2.34D-02  1.32D-01  3.90D-01  9.31D-02
                    CP:  6.89D-01  3.54D-01  7.93D-01  7.20D-01  6.67D-01
                    CP:  7.41D-01  1.06D+00  7.77D-01  1.21D+00  1.41D+00
                    CP:  1.14D+00  9.25D-01
 E= -3331.55386420697     Delta-E=       -0.000017927234 Rises=F Damp=F
 DIIS: error= 5.18D-05 at cycle  18 NSaved=  18.
 NSaved=18 IEnMin=18 EnMin= -3331.55386420697     IErMin=18 ErrMin= 5.18D-05
 ErrMax= 5.18D-05  0.00D+00 EMaxC= 1.00D-01 BMatC= 7.85D-06 BMatP= 8.04D-05
 IDIUse=1 WtCom= 1.00D+00 WtEn= 0.00D+00
 Coeff-Com: -0.189D-04 0.108D-04-0.215D-04-0.708D-04-0.113D-04-0.220D-03
 Coeff-Com:  0.239D-03 0.160D-02-0.751D-03 0.410D-02 0.110D-01-0.176D-01
 Coeff-Com: -0.240D-01-0.512D-01 0.163D-01 0.120D+00 0.359D+00 0.581D+00
 Coeff:     -0.189D-04 0.108D-04-0.215D-04-0.708D-04-0.113D-04-0.220D-03
 Coeff:      0.239D-03 0.160D-02-0.751D-03 0.410D-02 0.110D-01-0.176D-01
 Coeff:     -0.240D-01-0.512D-01 0.163D-01 0.120D+00 0.359D+00 0.581D+00
 Gap=     0.107 Goal=   None    Shift=    0.000
 Gap=     0.036 Goal=   None    Shift=    0.000
 RMSDP=5.08D-06 MaxDP=2.71D-04 DE=-1.79D-05 OVMax= 1.22D-03

 Cycle  19  Pass 1  IDiag  1:
 RMSU=  3.48D-06    CP:  9.12D-01  2.34D-02  1.32D-01  3.90D-01  9.31D-02
                    CP:  6.89D-01  3.54D-01  7.93D-01  7.19D-01  6.67D-01
                    CP:  7.43D-01  1.05D+00  7.76D-01  1.22D+00  1.44D+00
                    CP:  1.16D+00  1.10D+00  1.02D+00
 E= -3331.55386653810     Delta-E=       -0.000002331126 Rises=F Damp=F
 DIIS: error= 2.44D-05 at cycle  19 NSaved=  19.
 NSaved=19 IEnMin=19 EnMin= -3331.55386653810     IErMin=19 ErrMin= 2.44D-05
 ErrMax= 2.44D-05  0.00D+00 EMaxC= 1.00D-01 BMatC= 2.71D-06 BMatP= 7.85D-06
 IDIUse=1 WtCom= 1.00D+00 WtEn= 0.00D+00
 Coeff-Com: -0.498D-05-0.588D-07-0.729D-07-0.833D-04 0.115D-04-0.771D-04
 Coeff-Com:  0.252D-03 0.481D-03 0.577D-03-0.212D-02 0.475D-02-0.427D-02
 Coeff-Com: -0.170D-02-0.664D-02 0.330D-03-0.249D-01 0.880D-01 0.317D+00
 Coeff-Com:  0.628D+00
 Coeff:     -0.498D-05-0.588D-07-0.729D-07-0.833D-04 0.115D-04-0.771D-04
[...]
 002868,0.00005563,0.00003177,0.00005530,-0.00000077,0.00000070,-0.0000
 0397,0.00000009,0.00000015,-0.00000073,0.00000057,-0.00000389,0.000001
 72,0.00000024,-0.00000409,0.00000120,0.00000037,0.00000010,-0.00000008
 ,-0.00000090,0.00000020,-0.00000104,0.00000013,0.00000007,0.00000034,0
 .00000022,-0.00000017,0.00000038,-0.00000096,-0.00000077,-0.00000080,0
 .00000008,-0.00000005,0.00000034,0.00000029,0.00000022,0.00000053,0.00
 000044,-0.00000009,0.00000031,0.00000024,-0.00000051,0.00000036,-0.000
 00072,-0.00000023,-0.00000008,0.00000083,0.00000024,0.00000012,0.00000
 091,0.00000009,0.00000022,-0.00000035,0.00000020,0.00000048,0.00000044
 ,0.00000020,-0.00000008,0.00000057,-0.00000145,0.00000147,0.00000168,-
 0.00000095,-0.00000180,0.00000002,-0.00000002,-0.00000109,0.00000005,-
 0.00000653,-0.00000208,0.00004231,0.00011855,-0.00030799,0.00008451,0.
 00009892,0.00010509,-0.00001629,0.00007649,0.00005501,0.00000848,-0.00
 002545,0.00003573,-0.00000600,-0.00002060,0.00000230,0.00001064,0.0000
 0472,0.00000789,-0.00001508,0.00004066,0.00002774,-0.00096195,-0.00455
 877,0.00229080,-0.01879327,-0.08259211,0.08261815,-0.00002537,0.000056
 71,-0.00001710,-0.00010921,0.00005015,0.00010387,-0.00057816,-0.000387
 57,-0.00031135,0.00017509,-0.00020506,0.00010045,-0.00007665,0.0001048
 8,-0.00003691,0.00002230,0.00005437,-0.00003469,-0.00002641,-0.0000501
 0,0.00004267,0.00003544,-0.00000632,0.00000816,0.00002650,-0.00001248,
 -0.00003650,0.00003883,0.00000682,0.00001219,0.00000047,0.00000113,-0.
 00000320,-0.00001832,0.00000292,0.00000967,-0.00000931,0.00000336,0.00
 000940,0.00000668,-0.00000340,-0.00001165,-0.00000081,-0.00000110,-0.0
 0000226,0.00000010,0.00000276,0.00000044,0.00000007,-0.00000124,0.0000
 0203,-0.00001704,0.00000391,0.00001034,0.00001847,0.00000198,-0.000002
 86,-0.00000493,-0.00000429,0.00000555,-0.00003207,0.00000061,0.0000054
 3,0.00001484,-0.00000924,-0.00002155,0.00000390,0.00000561,0.00000997,
 0.00002529,-0.00000293,-0.00001100,-0.00002822,0.00000312,0.00001587,-
 0.00000027,0.00001977,0.00005230,-0.00001660,-0.00002295,-0.00005037,0
 .00000801,-0.00000662,0.00001437,0.00000539,0.00000258,-0.00000176,0.0
 0006706,0.00001294,-0.00000266,-0.00013271,-0.00017314,-0.00004047,0.0
 0054469,0.00023240,-0.00067803,0.00018547,0.00001937,0.00000132,-0.000
 09751,0.00015765,0.00001774,-0.00004042,0.00000356,-0.00001288,0.00490
 072,-0.00057014,0.00282079,0.00169881,0.00422472,0.02347948,-0.0792735
 3,0.00739791,-0.07851798,-0.00000304,-0.00000622,0.00000325,-0.0000038
 3,-0.00001286,0.00000675,0.00000312,-0.00001524,0.00000315,-0.00003311
 ,0.00000954,0.00002175,-0.00000245,-0.00000086,0.00000222,0.00000020,0
 .00000059,0.00000071,-0.00000160,0.00000149,0.00000236,-0.00000060,0.0
 0000061,0.00000092,-0.00000035,-0.00000009,-0.00000050,0.00000150,-0.0
 0000016,0.00000188,0.00000005,-0.00000021,-0.00000074,-0.00000071,-0.0
 0000003,-0.00000054,0.00000116,0.00000145,0.00000121,0.00000014,-0.000
 00010,-0.00000070,-0.00000040,-0.00000075,-0.00000019,-0.00000069,0.00
 000009,-0.00000091,-0.00000026,0.00000087,-0.00000069,0.00000147,0.000
 00062,0.00000013,-0.00000189,-0.00000054,-0.00000025,-0.00000179,-0.00
 000027,-0.00000049,0.00000091,-0.00000036,-0.00000108,-0.00000144,0.00
 000071,0.,0.00000052,0.00000040,-0.00000289,0.00000056,0.00000233,0.00
 000120,-0.00000287,-0.00000245,0.00000052,0.00000372,-0.00000991,-0.00
 000178,-0.00001380,-0.00007131,0.00005091,0.00003580,0.00004832,-0.000
 03291,-0.00002454,0.00001279,-0.00002066,0.00001302,-0.00005246,0.0000
 0694,-0.00000166,-0.00001281,0.00000391,-0.00000766,0.00002548,0.00000
 382,0.00000755,-0.00000581,-0.00000335,-0.00536743,0.00486209,-0.02757
 361,0.00329379,-0.00141738,0.00553322,0.07480593,0.00004282,0.00020287
 ,-0.00004786,-0.00113850,0.00032603,0.00045600,0.00128602,-0.00048765,
 0.00059925,-0.00039419,0.00022242,-0.00014507,0.00014487,-0.00011821,0
 .00007765,-0.00024128,0.00013968,-0.00006285,0.00000359,-0.00009172,0.
 00005809,0.00015270,-0.00016498,0.00010986,0.00005659,-0.00003498,-0.0
 0009504,0.00010529,0.00002058,0.00003230,0.00000260,0.00000085,-0.0000
 0719,-0.00004955,0.00000823,0.00002804,-0.00002154,0.00000814,0.000022
 10,0.00001502,-0.00000905,-0.00003194,-0.00000311,-0.00000318,-0.00000
 531,0.00000037,0.00000755,0.00000121,0.00000034,-0.00000391,0.00000595
 ,-0.00005482,0.00000904,0.00002389,0.00006282,0.00000783,-0.00001263,-
 0.00001765,-0.00001588,0.00002129,-0.00009586,0.00000643,0.00002697,0.
 00004842,-0.00003191,-0.00007590,0.00001405,0.00001823,0.00003660,0.00
 007430,-0.00000675,-0.00002962,-0.00007568,0.00000921,0.00004028,0.000
 00604,0.00005410,0.00014911,-0.00004031,-0.00005951,-0.00014631,0.0001
 5677,0.00008584,-0.00006562,0.00001007,0.00000802,0.00000603,-0.000043
 95,0.00007024,-0.00006262,-0.00005836,-0.00007066,-0.00011089,0.000183
 92,0.00017512,0.00020295,0.00024953,0.00011156,0.00002949,-0.00006280,
 -0.00025242,0.00000555,-0.00017233,-0.00003433,0.00002585,-0.00503819,
 0.00018743,-0.00019813,0.00143333,-0.00288741,-0.03127534,0.01005184,-
 0.05626453,0.03405590,-0.00000572,-0.00002508,-0.00000731,-0.00004871,
 -0.00004388,0.00005804,0.00000725,0.00002514,-0.00005668,0.00006173,-0
 .00000233,-0.00001752,-0.00000524,-0.00000004,0.00000364,0.00000036,0.
 00000198,0.00000208,-0.00000487,0.00000203,0.00000583,-0.00000144,0.00
 000129,0.00000302,-0.00000034,-0.00000053,-0.00000207,0.00000369,-0.00
 000063,0.00000531,0.00000048,-0.00000069,-0.00000225,-0.00000191,0.000
 00070,-0.00000132,0.00000295,0.00000413,0.00000336,0.00000102,-0.00000
 041,-0.00000229,-0.00000156,-0.00000183,-0.00000040,-0.00000204,0.0000
 0006,-0.00000357,-0.00000090,0.00000335,-0.00000216,0.00000479,0.00000
 214,0.00000044,-0.00000619,-0.00000168,-0.00000115,-0.00000653,-0.0000
 0033,-0.00000210,0.00000342,-0.00000141,-0.00000364,-0.00000480,0.0000
 0155,0.00000029,0.00000097,-0.00000179,-0.00000453,0.,0.00000604,0.000
 00131,-0.00000540,-0.00000635,0.00000345,0.00000997,-0.00001743,0.0000
 0899,-0.00015459,-0.00010092,-0.00020664,0.00012233,0.00006365,0.00007
 628,-0.00003870,0.00006271,0.00002022,0.00001450,-0.00005402,0.0000434
 5,0.00000714,-0.00004629,-0.00000261,-0.00001394,0.00005543,0.00002537
 ,0.00000166,0.00004053,0.00003032,-0.00263605,0.00177072,-0.00784188,0
 .01035237,0.00062384,0.02649062,-0.01426586,0.05651348,-0.00003949,-0.
 00020941,0.00012461,0.00026819,-0.00022703,-0.00001998,0.00046663,0.00
 050102,-0.00038660,0.00004019,0.00017188,0.00008528,0.00006939,0.00002
 827,-0.00004973,-0.00026213,0.00032207,-0.00020291,-0.00004889,-0.0002
 6376,0.00021976,0.00030071,-0.00028142,0.00021884,0.00015324,-0.000080
 51,-0.00024744,0.00029368,0.00003290,0.00007154,-0.00000023,-0.0000020
 7,-0.00000876,-0.00014430,0.00002566,0.00008126,-0.00005752,0.00001659
 ,0.00005685,0.00004064,-0.00002185,-0.00007834,-0.00000502,-0.00000901
 ,-0.00001555,0.00000048,0.00001852,0.00000389,0.00000059,-0.00000938,0
 .00001481,-0.00012149,0.00002524,0.00006650,0.00013369,0.00001731,-0.0
 0002288,-0.00003651,-0.00003421,0.00004264,-0.00022623,0.00000716,0.00
 004296,0.00010657,-0.00006598,-0.00015666,0.00002815,0.00003785,0.0000
 7420,0.00017979,-0.00001622,-0.00007707,-0.00019325,0.00001933,0.00010
 976,0.00000621,0.00014745,0.00035924,-0.00011353,-0.00014230,-0.000344
 84,0.00032497,0.00014497,-0.00011267,0.00001799,0.00000703,0.00000379,
 -0.00007277,0.00013788,-0.00006158,-0.00012722,-0.00026759,-0.00005031
 ,0.00133511,-0.00023097,0.00016410,0.00045204,-0.00005664,-0.00003919,
 -0.00007912,-0.00035949,-0.00024803,-0.00016928,-0.00000842,0.00006099
 ,-0.00688263,0.00001741,0.00134083,0.00845602,-0.01164292,-0.02340263,
 -0.07371566,0.03137244,-0.26915342,0.00004332,0.00005265,-0.00001009,0
 .00002502,0.00002703,-0.00001963,-0.00000712,0.00000216,0.00000009,0.0
 0004343,0.00000004,-0.00002873,-0.00000755,-0.00001232,0.00001599,0.00
 000190,0.00000520,0.00000676,-0.00000750,0.00001920,0.00000429,-0.0000
 0079,0.00000737,0.00000543,-0.00000217,-0.00000087,-0.00000299,0.00000
 991,-0.00000149,0.00001281,0.00000018,-0.00000141,-0.00000501,-0.00000
 424,0.00000107,-0.00000381,0.00000842,0.00000988,0.00000848,0.00000112
 ,-0.00000065,-0.00000493,-0.00000334,-0.00000425,-0.00000227,-0.000004
 89,0.00000045,-0.00000685,-0.00000224,0.00000722,-0.00000491,0.0000105
 4,0.00000440,0.00000093,-0.00001315,-0.00000327,-0.00000224,-0.0000136
 1,-0.00000110,-0.00000391,0.00000688,-0.00000288,-0.00000761,-0.000010
 27,0.00000323,0.00000083,0.00000652,0.00000104,-0.00001524,-0.00000153
 ,0.00001508,0.00000718,-0.00001426,-0.00001331,0.00000288,0.00000286,-
 0.00003561,-0.00000245,-0.00007188,0.00000697,-0.00031795,0.00008744,0
 .00022671,0.00025131,-0.00004347,0.00015127,0.00005489,0.00001725,0.00
 000449,0.00009144,-0.00000845,-0.00006112,-0.00000589,0.00000720,0.000
 03762,0.00001940,-0.00000724,0.00005861,0.00005198,-0.00099052,0.00096
 873,0.00090610,-0.00455246,0.00173457,-0.00700442,0.07506988,-0.022290
 91,0.29753401,-0.00038534,-0.00075247,0.00070104,-0.00114156,0.0013864
 7,-0.00101373,0.00338226,0.00050065,-0.00034460,-0.00349093,0.00137182
 ,-0.00112803,0.00478846,-0.00148783,0.00085499,-0.01117664,-0.01746078
 ,0.01846083,-0.01904075,0.03559738,0.02300573,-0.00105361,0.00671764,-
 0.00419125,-0.00090006,0.00397000,0.00745962,-0.00682229,-0.00143968,-
 0.00336005,0.00013951,0.00007143,0.00036879,0.00353345,-0.00007256,-0.
 00070334,0.00096716,-0.00050968,-0.00126640,-0.00083781,0.00040772,0.0
 0119287,0.00007202,0.00010336,0.00004280,0.00000121,-0.00016264,-0.000
 03829,-0.00000005,0.00009427,-0.00012138,0.00096793,-0.00062500,-0.001
 55926,-0.00082762,-0.00010678,0.00024501,0.00023305,0.00027648,-0.0002
 9676,0.00339459,0.00031343,0.00048474,-0.00095762,0.00062754,0.0015311
 0,-0.00041945,-0.00031594,-0.00086316,-0.00339117,0.00053322,0.0020567
 3,0.00510691,-0.00089720,-0.00166079,-0.01470734,-0.00447128,-0.026638
 33,-0.02205043,0.04452313,0.00140251,-0.00639896,-0.00299718,0.0026615
 3,0.00011232,0.00028543,-0.00023097,0.00368422,-0.00042931,0.00033840,
 0.00082478,-0.00087462,0.00051475,-0.00074964,0.00088539,-0.00051549,0
 .00016681,0.00010674,-0.00001895,0.00000805,-0.00014990,-0.00000412,0.
 00003394,-0.00004135,0.00014272,0.00098123,-0.00115812,0.00081863,-0.0
 0079225,0.00014819,0.00005484,0.00024640,-0.00023426,-0.00021349,0.000
 14125,0.00005727,-0.00000639,0.00017948,-0.00001903,-0.00011506,-0.000
 02830,0.00005925,-0.00005963,-0.00044870,0.00023761,-0.00000302,0.0000
 8415,0.00005463,-0.00029080,0.00006765,0.00003118,0.00006736,0.0001151
 4,-0.00028038,-0.00011047,0.00011007,-0.00007318,0.00002760,0.00001222
 ,0.00000747,0.00004475,-0.00006950,0.00002484,-0.00008447,-0.00000829,
 0.00001347,0.00002850,0.00003081,-0.00001426,0.00002403,-0.00005585,-0
 .00007479,-0.00004214,-0.00001751,0.00000092,0.00003438,0.00003137,0.0
 0001292,0.00001241,0.00002651,0.00000112,0.00004548,0.00001223,-0.0000
 6904,0.00001610,-0.00006064,-0.00003793,-0.00000280,0.00013411,0.00004
 027,0.00000600,0.00016704,-0.00006005,0.00007753,-0.00002007,0.0000151
 1,0.00007871,-0.00046560,0.00022877,0.00016230,0.00011083,-0.00012434,
 0.00027747,0.00012702,-0.00028807,-0.00008521,0.00006784,0.00005404,-0
 .00003629,0.00011786,-0.00006422,-0.00011498,-0.00004381,-0.00001511,0
 .00001719,-0.00001487,0.00002530,-0.00003737,-0.00001716,0.00005193,-0
 .00006842,-0.00005711,-0.00005029,0.00007005,-0.00005437,-0.00008503,0
 .00001087,-0.00002063,0.00007157,-0.00000786,-0.00003412,0.00003614,-0
 .00002439,-0.00006933,-0.00000225,0.00001571,0.00002566,0.00003638,-0.
 00000517,0.00001010,0.00001697,0.00004579,0.06641373,0.00024537,0.0005
 5684,-0.00036460,0.00057986,-0.00090280,0.00060881,-0.00159284,-0.0000
 2458,0.00001693,0.00151603,-0.00054948,0.00030685,-0.00350759,-0.00095
 533,0.00102243,0.00057354,0.01117145,-0.00456694,0.02086897,-0.0270878
 8,-0.02526827,0.00037608,-0.00351344,0.00508017,0.00085297,-0.00248859
 ,-0.00559667,0.00411046,0.00096561,0.00197824,-0.00017893,-0.00009286,
 -0.00028715,-0.00191842,-0.00024161,0.00012231,-0.00111225,0.00028585,
 0.00110283,0.00032794,-0.00025351,-0.00065920,-0.00007526,0.00000687,0
 .00001966,-0.00000994,0.00002946,-0.00000969,-0.00002811,0.00001630,-0
 .00000382,-0.00020906,0.00028218,0.00076006,0.00002778,-0.00006638,-0.
 00003597,-0.00001961,0.00005231,-0.00001731,-0.00144442,-0.00028394,-0
 .00048275,0.00024405,-0.00022577,-0.00045513,0.00012722,0.00025547,0.0
 0021593,0.00162921,-0.00052492,-0.00107798,-0.00498724,-0.00030784,-0.
 00161009,0.01100895,0.00437764,0.02197362,0.03511141,-0.05509584,0.007
 90373,0.00297994,0.00107612,-0.00121932,-0.00015543,-0.00020895,0.0001
 3796,-0.00188068,-0.00011974,-0.00009513,-0.00055272,0.00017640,-0.000
 29735,0.00012938,-0.00048436,0.00026045,-0.00009372,-0.00000388,0.0000
 4270,-0.00000503,0.00005047,0.00001012,-0.00000784,0.00002591,-0.00004
 583,-0.00051609,0.00037277,-0.00027019,0.00053403,-0.00013953,-0.00005
 305,-0.00017658,0.00020169,0.00015139,-0.00006421,-0.00007785,-0.00004
 399,-0.00007585,0.00002755,0.00006336,0.00001777,-0.00004436,0.0000275
 5,0.00036768,-0.00002689,0.00002654,-0.00002518,-0.00003264,0.00014809
 ,-0.00000971,-0.00004614,-0.00009106,0.00000582,0.00011429,-0.00000733
 ,-0.00006824,0.00002087,-0.00005693,0.00000102,-0.00000002,-0.00002377
 ,0.00001540,-0.00000235,0.00001720,0.00000676,-0.00000232,-0.00000664,
 -0.00001074,-0.00001015,0.00000242,0.00001096,0.00000488,0.00001727,0.
 00000429,-0.00000321,-0.00000569,0.00000322,-0.00002943,0.00000403,-0.
 00001024,0.00000440,-0.00000138,0.00000240,-0.00002271,-0.00000659,0.0
 0001208,-0.00000261,0.00001169,-0.00002241,-0.00008196,0.00003565,-0.0
 0001975,0.00002616,-0.00000608,-0.00000067,-0.00001745,-0.00001826,0.0
 0060701,-0.00008741,-0.00018303,-0.00005654,0.00005009,-0.00015927,0.0
 0002606,0.00008335,0.00008065,-0.00000997,-0.00002374,0.00000526,-0.00
 004211,0.00003741,0.00004373,0.00001754,-0.00000569,-0.00000678,0.0000
 0851,-0.00002241,0.00000703,0.00000581,-0.00001450,0.00002808,0.000024
 62,0.00002757,-0.00003191,0.00003319,0.00003725,-0.00002379,0.00001793
 ,-0.00003669,0.00002640,-0.00002068,-0.00002146,-0.00000783,0.00004391
 ,-0.00000162,-0.00001051,-0.00000987,-0.00003384,0.00000234,-0.0000043
 5,-0.00001545,-0.00003762,-0.06355290,0.07389701,-0.00014842,-0.000144
 98,0.00038791,-0.00019478,0.00045393,-0.00032948,-0.00050676,-0.000968
 25,0.00060507,0.00113234,-0.00110413,0.00052184,-0.00410894,-0.0006291
 3,0.00096654,0.01767752,0.01372472,-0.02470122,0.02889651,-0.03773924,
 -0.03715879,0.00169454,-0.00480858,-0.00155869,-0.00092107,0.00344867,
 -0.00348177,0.00010794,-0.00072252,-0.00024267,-0.00001481,-0.00000695
 ,-0.00001968,-0.00080546,0.00007625,0.00023033,0.00052920,-0.00040786,
 -0.00070339,-0.00012460,-0.00008206,-0.00025565,0.00001935,-0.00001013
 ,-0.00011597,0.00000122,0.00011036,0.00002419,0.00001212,-0.00006638,0
 .00011376,-0.00085169,0.00005636,-0.00001243,0.00115325,0.00014075,-0.
 00026064,-0.00030193,-0.00028727,0.00043835,-0.00123721,0.00034950,0.0
 0089918,0.00072961,-0.00065930,-0.00148801,0.00041189,0.00023764,0.000
 88668,0.00065331,0.00026508,0.00018214,0.00062391,0.00012546,0.0005788
 9,-0.01466531,0.00601317,-0.01383683,-0.01274217,0.01815697,-0.0053710
 3,0.00351045,0.00225105,-0.00123656,-0.00005150,-0.00015722,0.00019486
 ,-0.00112977,-0.00005299,-0.00011350,-0.00142413,0.00129487,-0.0008012
 7,0.00054410,-0.00035263,0.00027823,-0.00007654,0.00003365,-0.00005106
 ,-0.00001950,-0.00000947,-0.00001996,-0.00003010,0.00002399,0.00004242
 ,0.00011540,0.00063183,-0.00045710,-0.00050123,-0.00000047,-0.00000205
 ,0.00010316,-0.00013421,-0.00004119,0.00003244,-0.00000491,-0.00006305
 ,0.00005816,-0.00000493,-0.00006664,-0.00001782,0.00001126,-0.00002967
 ,0.00062261,-0.00024945,0.00012567,-0.00006440,-0.00006213,0.00011268,
 -0.00002569,0.00004124,0.00010937,0.00002613,0.00009072,0.00001248,0.0
 0001596,0.00004863,0.00008607,0.00000012,-0.00000105,-0.00000523,0.000
 05005,-0.00001190,0.00007070,0.00000206,-0.00000842,-0.00003198,-0.000
 02247,0.00001064,-0.00002026,0.00004676,0.00006407,0.00003927,0.000015
 11,-0.00000827,-0.00002971,-0.00002699,-0.00001680,-0.00000772,-0.0000
 1043,-0.00000349,-0.00006735,-0.00001597,0.00007810,-0.00003173,0.0000
 7295,0.00003872,-0.00001152,-0.00010790,-0.00002865,-0.00004111,-0.000
 14174,0.00006012,-0.00008225,0.00003683,-0.00001431,-0.00007716,-0.000
 29950,0.00010549,0.00017775,-0.00000378,0.00004090,-0.00007586,-0.0000
 5002,0.00009800,0.00001637,-0.00001529,-0.00013567,0.00008850,-0.00007
 920,-0.00005134,0.00010767,-0.00002998,-0.00002860,0.00001080,0.000013
 32,-0.00000383,-0.00001185,0.00000865,0.00000299,0.00000478,-0.0000023
 9,-0.00001029,0.00001799,0.00000757,-0.00002766,-0.00000585,0.00002228
 ,-0.00000896,0.00001099,-0.00001189,0.00000316,-0.00001685,-0.00003099
 ,0.00000465,0.00001096,0.00000485,0.00002304,0.00001192,-0.00000228,0.
 00002499,0.00001086,-0.01813702,0.00088345,0.08555952\\0.00000036,-0.0
 0000422,0.00000292,-0.00000298,0.00000392,-0.00000524,0.00000981,-0.00
 000379,0.00000351,-0.00000709,-0.00000184,-0.00000130,0.00001202,0.000
 00462,-0.00000318,-0.00000409,-0.00001677,0.00000823,0.00000875,0.0000
 1243,-0.00000507,-0.00000808,0.00000806,-0.00000874,0.00000290,0.00000
 534,0.00001452,-0.00001452,-0.00000421,-0.00000882,0.00000023,0.000002
 85,0.00000026,0.00001110,-0.00000186,-0.00000284,-0.00000513,0.0000036
 4,0.00000137,0.00000896,0.00000002,-0.00000061,0.00000067,-0.00000306,
 0.00000437,-0.00000326,-0.00000041,-0.00000050,0.00000271,0.00000340,-
 0.00000367,-0.00000396,0.00000118,0.00000582,0.00000030,-0.00000140,-0
 .00000035,-0.00000297,0.00000477,-0.00000038,0.00000543,-0.00000030,-0
 .00000572,-0.00000105,-0.00000156,0.00000413,0.00000100,-0.00000133,-0
 .00000395,-0.00000761,-0.00000047,0.00000560,0.00000640,-0.00000165,-0
 .00000356,-0.00000524,-0.00000996,-0.00001420,0.00000886,0.00000867,0.
 00001242,-0.00000722,-0.00000599,0.00000535,0.00000098,0.00000210,-0.0
 0000280,0.00000886,-0.00000081,0.00000075,-0.00000870,0.00000066,0.000
 00156,0.00000378,-0.00000861,0.00000003,0.00000310,0.00001103,-0.00000
 326,-0.00000244,-0.00000250,0.00000040,0.00000039,-0.00000335,0.000000
 41,-0.00001450,0.00000744,-0.00000788,0.00000982,-0.00000397,0.0000109
 6,-0.00000157,0.00000333,-0.00000472,0.00000029,0.00000013,-0.00000097
 ,0.00000044,-0.00000016,-0.00000084,-0.00000021,-0.00000067,-0.0000003
 6,0.,0.00000106,-0.00000031,0.00000006,-0.00000018,0.00000067,-0.00000
 002,-0.00000066,-0.00000008,0.00000060,-0.00000123,-0.00000017,0.00000
 032,-0.00000027,0.00000092,-0.00000169,0.00000416,-0.00000166,0.000000
 58,-0.00000037,0.00000024,0.00000020,0.00000102,0.00000052,-0.00000013
 ,0.00000100,-0.00000014,-0.00000047,-0.00000090,0.00000012,-0.00000088
 ,0.00000104,0.00000087,-0.00000165,-0.00000110,0.00000068,0.00000111,-
 0.00000088,0.00000003,0.00000082,-0.00000180,0.00000017,0.00000083,-0.
 00000117,-0.00000089,0.00000098,-0.00000028,-0.00000029,0.00000085,-0.
 00000113,0.00000047,0.00000002,-0.00000009,0.00000075,0.00000026,0.000
 00088,0.00000101,0.00000030,-0.00000044,0.00000130,-0.00000014,0.00000
 009,0.00000092,0.00000006,0.00000048,0.00000096,-0.00000117,0.00000016
 ,-0.00000088,0.00000033,0.00000053,0.00000037,0.00000097,0.00000018,0.
 00000204,-0.00000029,-0.00000005,-0.00000012,-0.00000016,0.00000075,-0
 .00000052,-0.00000059,0.00000065,0.00000097,0.00000022,-0.00000057,0.0
 0000075,0.00000044,-0.00000147,0.00000010,0.00000054,-0.00000003,-0.00
 000149,0.00000040,-0.00000146,0.00000054,-0.00000053,-0.00000131,0.000
 00012,-0.00000877,-0.00000129,-0.00000161\\\@
 The archive entry for this job was punched.


 COLLEGE PROFESSOR: SOMEONE WHO TALKS IN OTHER PEOPLE'S SLEEP.
 Job cpu time:       0 days 21 hours 34 minutes 24.7 seconds.
 Elapsed time:       0 days  0 hours 40 minutes 38.1 seconds.
 File lengths (MBytes):  RWF=   6715 Int=      0 D2E=      0 Chk=     48 Scr=      2
 Normal termination of Gaussian 16 at Sat Jul  5 18:04:19 2025.
