 Entering Gaussian System, Link 0=g16
 Initial command:
 /public/software/apps/Gaussian/g16/l1.exe "/public/home/LJQ_HG/tmp/Gau-25540.inp" -scrdir="/public/home/LJQ_HG/tmp/"
 Entering Link 1 = /public/software/apps/Gaussian/g16/l1.exe PID=     25541.
  
 Copyright (c) 1988-2019, Gaussian, Inc.  All Rights Reserved.
  
 This is part of the Gaussian(R) 16 program.  It is based on
 the Gaussian(R) 09 system (copyright 2009, Gaussian, Inc.),
 the Gaussian(R) 03 system (copyright 2003, Gaussian, Inc.),
 the Gaussian(R) 98 system (copyright 1998, Gaussian, Inc.),
 the Gaussian(R) 94 system (copyright 1995, Gaussian, Inc.),
 the Gaussian 92(TM) system (copyright 1992, Gaussian, Inc.),
 the Gaussian 90(TM) system (copyright 1990, Gaussian, Inc.),
 the Gaussian 88(TM) system (copyright 1988, Gaussian, Inc.),
 the Gaussian 86(TM) system (copyright 1986, Carnegie Mellon
 University), and the Gaussian 82(TM) system (copyright 1983,
 Carnegie Mellon University). Gaussian is a federally registered
 trademark of Gaussian, Inc.
  
 This software contains proprietary and confidential information,
 including trade secrets, belonging to Gaussian, Inc.
  
 This software is provided under written license and may be
 used, copied, transmitted, or stored only in accord with that
 written license.
  
 The following legend is applicable only to US Government
 contracts under FAR:
  
                    RESTRICTED RIGHTS LEGEND
  
 Use, reproduction and disclosure by the US Government is
 subject to restrictions as set forth in subparagraphs (a)
 and (c) of the Commercial Computer Software - Restricted
 Rights clause in FAR 52.227-19.
  
 Gaussian, Inc.
 340 Quinnipiac St., Bldg. 40, Wallingford CT 06492
  
  
 ---------------------------------------------------------------
 Warning -- This program may not be used in any manner that
 competes with the business of Gaussian, Inc. or will provide
 assistance to any competitor of Gaussian, Inc.  The licensee
 of this program is prohibited from giving any competitor of
 Gaussian, Inc. access to this program.  By using this program,
 the user acknowledges that Gaussian, Inc. is engaged in the
 business of creating and licensing software in the field of
 computational chemistry and represents and warrants to the
 licensee that it is not a competitor of Gaussian, Inc. and that
 it will not use this program in any manner prohibited above.
 ---------------------------------------------------------------
  

 Cite this work as:
 Gaussian 16, Revision C.01,
 M. J. Frisch, G. W. Trucks, H. B. Schlegel, G. E. Scuseria, 
 M. A. Robb, J. R. Cheeseman, G. Scalmani, V. Barone, 
 G. A. Petersson, H. Nakatsuji, X. Li, M. Caricato, A. V. Marenich, 
 J. Bloino, B. G. Janesko, R. Gomperts, B. Mennucci, H. P. Hratchian, 
 J. V. Ortiz, A. F. Izmaylov, J. L. Sonnenberg, D. Williams-Young, 
 F. Ding, F. Lipparini, F. Egidi, J. Goings, B. Peng, A. Petrone, 
 T. Henderson, D. Ranasinghe, V. G. Zakrzewski, J. Gao, N. Rega, 
 G. Zheng, W. Liang, M. Hada, M. Ehara, K. Toyota, R. Fukuda, 
 J. Hasegawa, M. Ishida, T. Nakajima, Y. Honda, O. Kitao, H. Nakai, 
 T. Vreven, K. Throssell, J. A. Montgomery, Jr., J. E. Peralta, 
 F. Ogliaro, M. J. Bearpark, J. J. Heyd, E. N. Brothers, K. N. Kudin, 
 V. N. Staroverov, T. A. Keith, R. Kobayashi, J. Normand, 
 K. Raghavachari, A. P. Rendell, J. C. Burant, S. S. Iyengar, 
 J. Tomasi, M. Cossi, J. M. Millam, M. Klene, C. Adamo, R. Cammi, 
 J. W. Ochterski, R. L. Martin, K. Morokuma, O. Farkas, 
 J. B. Foresman, and D. J. Fox, Gaussian, Inc., Wallingford CT, 2019.
 
 ******************************************
 Gaussian 16:  ES64L-G16RevC.01  3-Jul-2019
                 7-Mar-2024 
 ******************************************
 %nprocshared=32
 Will use up to   32 processors via shared memory.
 %mem=100GB
 ------------------------------------------
 #p opt freq b3lyp/def2svpp em=gd3bj nosymm
 ------------------------------------------
 1/18=20,19=15,26=3,38=1/1,3;
 2/9=110,12=2,15=1,17=6,18=5,40=1/2;
 3/5=43,7=202,11=2,25=1,30=1,71=1,74=-5,124=41/1,2,3;
 4//1;
 5/5=2,38=5/2;
 6/7=2,8=2,9=2,10=2,28=1/1;
 7/30=1/1,2,3,16;
 1/18=20,19=15,26=3/3(2);
 2/9=110,15=1/2;
 99//99;
 2/9=110,15=1/2;
 3/5=43,7=202,11=2,25=1,30=1,71=1,74=-5,124=41/1,2,3;
 4/5=5,16=3,69=1/1;
 5/5=2,38=5/2;
 7/30=1/1,2,3,16;
 1/18=20,19=15,26=3/3(-5);
 2/9=110,15=1/2;
 6/7=2,8=2,9=2,10=2,19=2,28=1/1;
 99/9=1/99;
 Leave Link    1 at Thu Mar  7 22:58:43 2024, MaxMem= 13421772800 cpu:               1.4 elap:               0.1
 (Enter /public/software/apps/Gaussian/g16/l101.exe)
 ------------------
 $$$$Title####2????
 ------------------
 Symbolic Z-matrix:
 Charge =  2 Multiplicity = 2
 C                    -2.51135   1.31605   2.75023 
 C                    -2.19286   1.17838   1.25141 
 C                    -3.39358   1.66352   0.42091 
 C                    -1.89693  -0.27326   0.95069 
 N                    -0.75733  -0.81743   1.21453 
 C                    -0.77947  -2.20694   0.78218 
 C                     0.11402  -2.40396  -0.38421 
 C                     1.50716  -2.29439  -0.40188 
 C                     2.18405  -2.50103  -1.61338 
 C                     1.46408  -2.80608  -2.78224 
 C                     0.06495  -2.90835  -2.74254 
 C                    -0.59018  -2.70095  -1.52602 
 C                    -2.05252  -2.76693  -1.28596 
 C                    -2.20051  -2.41467   0.20918 
 O                    -2.80582  -1.14287   0.37497 
 C                    -0.98565   2.01381   0.8909 
 N                    -0.29411   1.80731  -0.17848 
 C                     0.8116    2.7526   -0.2228 
 C                     2.10287   2.05398  -0.01749 
 C                     2.70153   1.12787  -0.87602 
 C                     3.92619   0.55497  -0.50102 
 C                     4.52758   0.90863   0.72001 
 C                     3.90747   1.83869   1.56857 
 C                     2.68933   2.39923   1.17612 
 C                     1.88827   3.3931    1.93174 
 C                     0.64064   3.61298   1.05054 
 O                    -0.51615   3.06355   1.6599 
 H                    -2.76333   2.36851   3.00427 
 H                    -3.37753   0.67555   3.02507 
 H                    -1.63845   1.00619   3.3655 
 H                    -3.19527   1.53424  -0.66559 
 H                    -3.59163   2.7403    0.61422 
 H                    -4.30964   1.08989   0.68069 
 H                    -0.54385  -2.89886   1.61908 
 H                     2.05481  -2.05089   0.49952 
 H                     3.26269  -2.42428  -1.64885 
 H                     1.99032  -2.96283  -3.71479 
 H                    -0.4947   -3.14301  -3.63877 
 H                    -2.58571  -2.03884  -1.93489 
 H                    -2.42124  -3.79634  -1.48272 
 H                    -2.76539  -3.19134   0.76911 
 H                     0.79796   3.35353  -1.15733 
 H                     2.22924   0.85348  -1.81057 
 H                     4.40865  -0.16176  -1.15229 
 H                     5.4713    0.46276   1.00591 
 H                     4.36549   2.11501   2.50952 
 H                     2.4624    4.3383    2.03814 
 H                     1.61914   2.99392   2.93361 
 H                     0.48165   4.6864    0.80904 
 Cu                    0.41699  -0.02193  -0.14238 
 
 ITRead=  0  0  0  0  0  0  0  0  0  0  0  0  0  0  0  0  0  0  0  0
 ITRead=  0  0  0  0  0  0  0  0  0  0  0  0  0  0  0  0  0  0  0  0
 ITRead=  0  0  0  0  0  0  0  0  0  0
 MicOpt= -1 -1 -1 -1 -1 -1 -1 -1 -1 -1 -1 -1 -1 -1 -1 -1 -1 -1 -1 -1
 MicOpt= -1 -1 -1 -1 -1 -1 -1 -1 -1 -1 -1 -1 -1 -1 -1 -1 -1 -1 -1 -1
 MicOpt= -1 -1 -1 -1 -1 -1 -1 -1 -1 -1
 NAtoms=     50 NQM=       50 NQMF=       0 NMMI=      0 NMMIF=      0
                NMic=       0 NMicF=      0.
                    Isotopes and Nuclear Properties:
 (Nuclear quadrupole moments (NQMom) in fm**2, nuclear magnetic moments (NMagM)
  in nuclear magnetons)

  Atom         1           2           3           4           5           6           7           8           9          10
 IAtWgt=          12          12          12          12          14          12          12          12          12          12
 AtmWgt=  12.0000000  12.0000000  12.0000000  12.0000000  14.0030740  12.0000000  12.0000000  12.0000000  12.0000000  12.0000000
 NucSpn=           0           0           0           0           2           0           0           0           0           0
 AtZEff=  -0.0000000  -0.0000000  -0.0000000  -0.0000000  -0.0000000  -0.0000000  -0.0000000  -0.0000000  -0.0000000  -0.0000000
 NQMom=    0.0000000   0.0000000   0.0000000   0.0000000   2.0440000   0.0000000   0.0000000   0.0000000   0.0000000   0.0000000
 NMagM=    0.0000000   0.0000000   0.0000000   0.0000000   0.4037610   0.0000000   0.0000000   0.0000000   0.0000000   0.0000000
 AtZNuc=   6.0000000   6.0000000   6.0000000   6.0000000   7.0000000   6.0000000   6.0000000   6.0000000   6.0000000   6.0000000

  Atom        11          12          13          14          15          16          17          18          19          20
 IAtWgt=          12          12          12          12          16          12          14          12          12          12
 AtmWgt=  12.0000000  12.0000000  12.0000000  12.0000000  15.9949146  12.0000000  14.0030740  12.0000000  12.0000000  12.0000000
 NucSpn=           0           0           0           0           0           0           2           0           0           0
 AtZEff=  -0.0000000  -0.0000000  -0.0000000  -0.0000000  -0.0000000  -0.0000000  -0.0000000  -0.0000000  -0.0000000  -0.0000000
 NQMom=    0.0000000   0.0000000   0.0000000   0.0000000   0.0000000   0.0000000   2.0440000   0.0000000   0.0000000   0.0000000
 NMagM=    0.0000000   0.0000000   0.0000000   0.0000000   0.0000000   0.0000000   0.4037610   0.0000000   0.0000000   0.0000000
 AtZNuc=   6.0000000   6.0000000   6.0000000   6.0000000   8.0000000   6.0000000   7.0000000   6.0000000   6.0000000   6.0000000

  Atom        21          22          23          24          25          26          27          28          29          30
 IAtWgt=          12          12          12          12          12          12          16           1           1           1
 AtmWgt=  12.0000000  12.0000000  12.0000000  12.0000000  12.0000000  12.0000000  15.9949146   1.0078250   1.0078250   1.0078250
 NucSpn=           0           0           0           0           0           0           0           1           1           1
 AtZEff=  -0.0000000  -0.0000000  -0.0000000  -0.0000000  -0.0000000  -0.0000000  -0.0000000  -0.0000000  -0.0000000  -0.0000000
 NQMom=    0.0000000   0.0000000   0.0000000   0.0000000   0.0000000   0.0000000   0.0000000   0.0000000   0.0000000   0.0000000
 NMagM=    0.0000000   0.0000000   0.0000000   0.0000000   0.0000000   0.0000000   0.0000000   2.7928460   2.7928460   2.7928460
 AtZNuc=   6.0000000   6.0000000   6.0000000   6.0000000   6.0000000   6.0000000   8.0000000   1.0000000   1.0000000   1.0000000

  Atom        31          32          33          34          35          36          37          38          39          40
 IAtWgt=           1           1           1           1           1           1           1           1           1           1
 AtmWgt=   1.0078250   1.0078250   1.0078250   1.0078250   1.0078250   1.0078250   1.0078250   1.0078250   1.0078250   1.0078250
 NucSpn=           1           1           1           1           1           1           1           1           1           1
 AtZEff=  -0.0000000  -0.0000000  -0.0000000  -0.0000000  -0.0000000  -0.0000000  -0.0000000  -0.0000000  -0.0000000  -0.0000000
 NQMom=    0.0000000   0.0000000   0.0000000   0.0000000   0.0000000   0.0000000   0.0000000   0.0000000   0.0000000   0.0000000
 NMagM=    2.7928460   2.7928460   2.7928460   2.7928460   2.7928460   2.7928460   2.7928460   2.7928460   2.7928460   2.7928460
 AtZNuc=   1.0000000   1.0000000   1.0000000   1.0000000   1.0000000   1.0000000   1.0000000   1.0000000   1.0000000   1.0000000

  Atom        41          42          43          44          45          46          47          48          49          50
 IAtWgt=           1           1           1           1           1           1           1           1           1          63
 AtmWgt=   1.0078250   1.0078250   1.0078250   1.0078250   1.0078250   1.0078250   1.0078250   1.0078250   1.0078250  62.9295992
 NucSpn=           1           1           1           1           1           1           1           1           1           3
 AtZEff=  -0.0000000  -0.0000000  -0.0000000  -0.0000000  -0.0000000  -0.0000000  -0.0000000  -0.0000000  -0.0000000  -0.0000000
 NQMom=    0.0000000   0.0000000   0.0000000   0.0000000   0.0000000   0.0000000   0.0000000   0.0000000   0.0000000 -22.0000000
 NMagM=    2.7928460   2.7928460   2.7928460   2.7928460   2.7928460   2.7928460   2.7928460   2.7928460   2.7928460   2.2233000
 AtZNuc=   1.0000000   1.0000000   1.0000000   1.0000000   1.0000000   1.0000000   1.0000000   1.0000000   1.0000000  29.0000000
 Leave Link  101 at Thu Mar  7 22:58:43 2024, MaxMem= 13421772800 cpu:               6.1 elap:               0.2
 (Enter /public/software/apps/Gaussian/g16/l103.exe)

 GradGradGradGradGradGradGradGradGradGradGradGradGradGradGradGradGradGrad
 Berny optimization.
 Initialization pass.
                           ----------------------------
                           !    Initial Parameters    !
                           ! (Angstroms and Degrees)  !
 --------------------------                            --------------------------
 ! Name  Definition              Value          Derivative Info.                !
 --------------------------------------------------------------------------------
 ! R1    R(1,2)                  1.5384         estimate D2E/DX2                !
 ! R2    R(1,28)                 1.1116         estimate D2E/DX2                !
 ! R3    R(1,29)                 1.1118         estimate D2E/DX2                !
 ! R4    R(1,30)                 1.112          estimate D2E/DX2                !
 ! R5    R(2,3)                  1.5384         estimate D2E/DX2                !
 ! R6    R(2,4)                  1.5117         estimate D2E/DX2                !
 ! R7    R(2,16)                 1.5117         estimate D2E/DX2                !
 ! R8    R(3,31)                 1.112          estimate D2E/DX2                !
 ! R9    R(3,32)                 1.1118         estimate D2E/DX2                !
 ! R10   R(3,33)                 1.1116         estimate D2E/DX2                !
 ! R11   R(4,5)                  1.2901         estimate D2E/DX2                !
 ! R12   R(4,15)                 1.3834         estimate D2E/DX2                !
 ! R13   R(5,6)                  1.4554         estimate D2E/DX2                !
 ! R14   R(5,50)                 1.9629         estimate D2E/DX2                !
 ! R15   R(6,7)                  1.4824         estimate D2E/DX2                !
 ! R16   R(6,14)                 1.5462         estimate D2E/DX2                !
 ! R17   R(6,34)                 1.1112         estimate D2E/DX2                !
 ! R18   R(7,8)                  1.3976         estimate D2E/DX2                !
 ! R19   R(7,12)                 1.374          estimate D2E/DX2                !
 ! R20   R(8,9)                  1.4031         estimate D2E/DX2                !
 ! R21   R(8,35)                 1.0825         estimate D2E/DX2                !
 ! R22   R(9,10)                 1.4063         estimate D2E/DX2                !
 ! R23   R(9,36)                 1.082          estimate D2E/DX2                !
 ! R24   R(10,11)                1.4034         estimate D2E/DX2                !
 ! R25   R(10,37)                1.0822         estimate D2E/DX2                !
 ! R26   R(11,12)                1.3972         estimate D2E/DX2                !
 ! R27   R(11,38)                1.0824         estimate D2E/DX2                !
 ! R28   R(12,13)                1.4834         estimate D2E/DX2                !
 ! R29   R(13,14)                1.5432         estimate D2E/DX2                !
 ! R30   R(13,39)                1.1115         estimate D2E/DX2                !
 ! R31   R(13,40)                1.111          estimate D2E/DX2                !
 ! R32   R(14,15)                1.4182         estimate D2E/DX2                !
 ! R33   R(14,41)                1.1117         estimate D2E/DX2                !
 ! R34   R(16,17)                1.2901         estimate D2E/DX2                !
 ! R35   R(16,27)                1.3834         estimate D2E/DX2                !
 ! R36   R(17,18)                1.4554         estimate D2E/DX2                !
 ! R37   R(17,50)                1.9629         estimate D2E/DX2                !
 ! R38   R(18,19)                1.4824         estimate D2E/DX2                !
 ! R39   R(18,26)                1.5462         estimate D2E/DX2                !
 ! R40   R(18,42)                1.1112         estimate D2E/DX2                !
 ! R41   R(19,20)                1.3976         estimate D2E/DX2                !
 ! R42   R(19,24)                1.374          estimate D2E/DX2                !
 ! R43   R(20,21)                1.4031         estimate D2E/DX2                !
 ! R44   R(20,43)                1.0825         estimate D2E/DX2                !
 ! R45   R(21,22)                1.4063         estimate D2E/DX2                !
 ! R46   R(21,44)                1.082          estimate D2E/DX2                !
 ! R47   R(22,23)                1.4034         estimate D2E/DX2                !
 ! R48   R(22,45)                1.0822         estimate D2E/DX2                !
 ! R49   R(23,24)                1.3972         estimate D2E/DX2                !
 ! R50   R(23,46)                1.0824         estimate D2E/DX2                !
 ! R51   R(24,25)                1.4834         estimate D2E/DX2                !
 ! R52   R(25,26)                1.5432         estimate D2E/DX2                !
 ! R53   R(25,47)                1.111          estimate D2E/DX2                !
 ! R54   R(25,48)                1.1115         estimate D2E/DX2                !
 ! R55   R(26,27)                1.4182         estimate D2E/DX2                !
 ! R56   R(26,49)                1.1117         estimate D2E/DX2                !
 ! A1    A(2,1,28)             110.7498         estimate D2E/DX2                !
 ! A2    A(2,1,29)             110.5227         estimate D2E/DX2                !
 ! A3    A(2,1,30)             110.5859         estimate D2E/DX2                !
 ! A4    A(28,1,29)            108.2006         estimate D2E/DX2                !
 ! A5    A(28,1,30)            108.3795         estimate D2E/DX2                !
 ! A6    A(29,1,30)            108.3166         estimate D2E/DX2                !
 ! A7    A(1,2,3)              109.6418         estimate D2E/DX2                !
 ! A8    A(1,2,4)              108.6784         estimate D2E/DX2                !
 ! A9    A(1,2,16)             110.3776         estimate D2E/DX2                !
 ! A10   A(3,2,4)              110.3777         estimate D2E/DX2                !
 ! A11   A(3,2,16)             108.6784         estimate D2E/DX2                !
 ! A12   A(4,2,16)             109.0811         estimate D2E/DX2                !
 ! A13   A(2,3,31)             110.5859         estimate D2E/DX2                !
 ! A14   A(2,3,32)             110.5227         estimate D2E/DX2                !
 ! A15   A(2,3,33)             110.7499         estimate D2E/DX2                !
 ! A16   A(31,3,32)            108.3165         estimate D2E/DX2                !
 ! A17   A(31,3,33)            108.3795         estimate D2E/DX2                !
 ! A18   A(32,3,33)            108.2007         estimate D2E/DX2                !
 ! A19   A(2,4,5)              122.4982         estimate D2E/DX2                !
 ! A20   A(2,4,15)             123.9042         estimate D2E/DX2                !
 ! A21   A(5,4,15)             113.5975         estimate D2E/DX2                !
 ! A22   A(4,5,6)              109.1787         estimate D2E/DX2                !
 ! A23   A(4,5,50)             102.4824         estimate D2E/DX2                !
 ! A24   A(6,5,50)             100.9916         estimate D2E/DX2                !
 ! A25   A(5,6,7)              110.5764         estimate D2E/DX2                !
 ! A26   A(5,6,14)             104.6154         estimate D2E/DX2                !
 ! A27   A(5,6,34)             111.5644         estimate D2E/DX2                !
 ! A28   A(7,6,14)             104.1516         estimate D2E/DX2                !
 ! A29   A(7,6,34)             112.4605         estimate D2E/DX2                !
 ! A30   A(14,6,34)            112.9749         estimate D2E/DX2                !
 ! A31   A(6,7,8)              126.8943         estimate D2E/DX2                !
 ! A32   A(6,7,12)             111.9429         estimate D2E/DX2                !
 ! A33   A(8,7,12)             121.154          estimate D2E/DX2                !
 ! A34   A(7,8,9)              118.7037         estimate D2E/DX2                !
 ! A35   A(7,8,35)             120.7599         estimate D2E/DX2                !
 ! A36   A(9,8,35)             120.5359         estimate D2E/DX2                !
 ! A37   A(8,9,10)             120.1747         estimate D2E/DX2                !
 ! A38   A(8,9,36)             119.922          estimate D2E/DX2                !
 ! A39   A(10,9,36)            119.9033         estimate D2E/DX2                !
 ! A40   A(9,10,11)            120.1783         estimate D2E/DX2                !
 ! A41   A(9,10,37)            119.914          estimate D2E/DX2                !
 ! A42   A(11,10,37)           119.9077         estimate D2E/DX2                !
 ! A43   A(10,11,12)           118.7684         estimate D2E/DX2                !
 ! A44   A(10,11,38)           120.5212         estimate D2E/DX2                !
 ! A45   A(12,11,38)           120.7104         estimate D2E/DX2                !
 ! A46   A(7,12,11)            121.02           estimate D2E/DX2                !
 ! A47   A(7,12,13)            112.3569         estimate D2E/DX2                !
 ! A48   A(11,12,13)           126.6229         estimate D2E/DX2                !
 ! A49   A(12,13,14)           103.9564         estimate D2E/DX2                !
 ! A50   A(12,13,39)           110.4425         estimate D2E/DX2                !
 ! A51   A(12,13,40)           109.8602         estimate D2E/DX2                !
 ! A52   A(14,13,39)           111.722          estimate D2E/DX2                !
 ! A53   A(14,13,40)           110.5645         estimate D2E/DX2                !
 ! A54   A(39,13,40)           110.1406         estimate D2E/DX2                !
 ! A55   A(6,14,13)            107.5517         estimate D2E/DX2                !
 ! A56   A(6,14,15)            103.2061         estimate D2E/DX2                !
 ! A57   A(6,14,41)            111.9747         estimate D2E/DX2                !
 ! A58   A(13,14,15)           111.0324         estimate D2E/DX2                !
 ! A59   A(13,14,41)           112.1634         estimate D2E/DX2                !
 ! A60   A(15,14,41)           110.5338         estimate D2E/DX2                !
 ! A61   A(4,15,14)            109.3871         estimate D2E/DX2                !
 ! A62   A(2,16,17)            122.4982         estimate D2E/DX2                !
 ! A63   A(2,16,27)            123.9042         estimate D2E/DX2                !
 ! A64   A(17,16,27)           113.5975         estimate D2E/DX2                !
 ! A65   A(16,17,18)           109.1787         estimate D2E/DX2                !
 ! A66   A(16,17,50)           109.1537         estimate D2E/DX2                !
 ! A67   A(18,17,50)           109.3057         estimate D2E/DX2                !
 ! A68   A(17,18,19)           110.5764         estimate D2E/DX2                !
 ! A69   A(17,18,26)           104.6154         estimate D2E/DX2                !
 ! A70   A(17,18,42)           111.5645         estimate D2E/DX2                !
 ! A71   A(19,18,26)           104.1516         estimate D2E/DX2                !
 ! A72   A(19,18,42)           112.4605         estimate D2E/DX2                !
 ! A73   A(26,18,42)           112.9749         estimate D2E/DX2                !
 ! A74   A(18,19,20)           126.8943         estimate D2E/DX2                !
 ! A75   A(18,19,24)           111.9429         estimate D2E/DX2                !
 ! A76   A(20,19,24)           121.154          estimate D2E/DX2                !
 ! A77   A(19,20,21)           118.7038         estimate D2E/DX2                !
 ! A78   A(19,20,43)           120.76           estimate D2E/DX2                !
 ! A79   A(21,20,43)           120.5358         estimate D2E/DX2                !
 ! A80   A(20,21,22)           120.1747         estimate D2E/DX2                !
 ! A81   A(20,21,44)           119.922          estimate D2E/DX2                !
 ! A82   A(22,21,44)           119.9033         estimate D2E/DX2                !
 ! A83   A(21,22,23)           120.1783         estimate D2E/DX2                !
 ! A84   A(21,22,45)           119.914          estimate D2E/DX2                !
 ! A85   A(23,22,45)           119.9077         estimate D2E/DX2                !
 ! A86   A(22,23,24)           118.7684         estimate D2E/DX2                !
 ! A87   A(22,23,46)           120.5212         estimate D2E/DX2                !
 ! A88   A(24,23,46)           120.7104         estimate D2E/DX2                !
 ! A89   A(19,24,23)           121.02           estimate D2E/DX2                !
 ! A90   A(19,24,25)           112.357          estimate D2E/DX2                !
 ! A91   A(23,24,25)           126.6228         estimate D2E/DX2                !
 ! A92   A(24,25,26)           103.9564         estimate D2E/DX2                !
 ! A93   A(24,25,47)           109.8602         estimate D2E/DX2                !
 ! A94   A(24,25,48)           110.4425         estimate D2E/DX2                !
 ! A95   A(26,25,47)           110.5644         estimate D2E/DX2                !
 ! A96   A(26,25,48)           111.722          estimate D2E/DX2                !
 ! A97   A(47,25,48)           110.1406         estimate D2E/DX2                !
 ! A98   A(18,26,25)           107.5517         estimate D2E/DX2                !
 ! A99   A(18,26,27)           103.2061         estimate D2E/DX2                !
 ! A100  A(18,26,49)           111.9747         estimate D2E/DX2                !
 ! A101  A(25,26,27)           111.0323         estimate D2E/DX2                !
 ! A102  A(25,26,49)           112.1634         estimate D2E/DX2                !
 ! A103  A(27,26,49)           110.5339         estimate D2E/DX2                !
 ! A104  A(16,27,26)           109.387          estimate D2E/DX2                !
 ! A105  A(5,50,17)            100.0            estimate D2E/DX2                !
 ! D1    D(28,1,2,3)           -57.6557         estimate D2E/DX2                !
 ! D2    D(28,1,2,4)          -178.3815         estimate D2E/DX2                !
 ! D3    D(28,1,2,16)           62.035          estimate D2E/DX2                !
 ! D4    D(29,1,2,3)            62.243          estimate D2E/DX2                !
 ! D5    D(29,1,2,4)           -58.4829         estimate D2E/DX2                !
 ! D6    D(29,1,2,16)         -178.0664         estimate D2E/DX2                !
 ! D7    D(30,1,2,3)          -177.8197         estimate D2E/DX2                !
 ! D8    D(30,1,2,4)            61.4544         estimate D2E/DX2                !
 ! D9    D(30,1,2,16)          -58.1291         estimate D2E/DX2                !
 ! D10   D(1,2,3,31)          -177.8198         estimate D2E/DX2                !
 ! D11   D(1,2,3,32)            62.2431         estimate D2E/DX2                !
 ! D12   D(1,2,3,33)           -57.6557         estimate D2E/DX2                !
 ! D13   D(4,2,3,31)           -58.1292         estimate D2E/DX2                !
 ! D14   D(4,2,3,32)          -178.0663         estimate D2E/DX2                !
 ! D15   D(4,2,3,33)            62.0349         estimate D2E/DX2                !
 ! D16   D(16,2,3,31)           61.4544         estimate D2E/DX2                !
 ! D17   D(16,2,3,32)          -58.4828         estimate D2E/DX2                !
 ! D18   D(16,2,3,33)         -178.3815         estimate D2E/DX2                !
 ! D19   D(1,2,4,5)            -79.1281         estimate D2E/DX2                !
 ! D20   D(1,2,4,15)           100.7784         estimate D2E/DX2                !
 ! D21   D(3,2,4,5)            160.601          estimate D2E/DX2                !
 ! D22   D(3,2,4,15)           -19.4924         estimate D2E/DX2                !
 ! D23   D(16,2,4,5)            41.2613         estimate D2E/DX2                !
 ! D24   D(16,2,4,15)         -138.8322         estimate D2E/DX2                !
 ! D25   D(1,2,16,17)          160.6011         estimate D2E/DX2                !
 ! D26   D(1,2,16,27)          -19.4924         estimate D2E/DX2                !
 ! D27   D(3,2,16,17)          -79.1281         estimate D2E/DX2                !
 ! D28   D(3,2,16,27)          100.7785         estimate D2E/DX2                !
 ! D29   D(4,2,16,17)           41.2613         estimate D2E/DX2                !
 ! D30   D(4,2,16,27)         -138.8321         estimate D2E/DX2                !
 ! D31   D(2,4,5,6)           -178.7627         estimate D2E/DX2                !
 ! D32   D(2,4,5,50)           -72.2784         estimate D2E/DX2                !
 ! D33   D(15,4,5,6)             1.3219         estimate D2E/DX2                !
 ! D34   D(15,4,5,50)          107.8063         estimate D2E/DX2                !
 ! D35   D(2,4,15,14)          178.8971         estimate D2E/DX2                !
 ! D36   D(5,4,15,14)           -1.1889         estimate D2E/DX2                !
 ! D37   D(4,5,6,7)            110.667          estimate D2E/DX2                !
 ! D38   D(4,5,6,14)            -0.9115         estimate D2E/DX2                !
 ! D39   D(4,5,6,34)          -123.3775         estimate D2E/DX2                !
 ! D40   D(50,5,6,7)             3.169          estimate D2E/DX2                !
 ! D41   D(50,5,6,14)         -108.4095         estimate D2E/DX2                !
 ! D42   D(50,5,6,34)          129.1245         estimate D2E/DX2                !
 ! D43   D(4,5,50,17)           38.3213         estimate D2E/DX2                !
 ! D44   D(6,5,50,17)          151.0118         estimate D2E/DX2                !
 ! D45   D(5,6,7,8)             66.6087         estimate D2E/DX2                !
 ! D46   D(5,6,7,12)          -112.3136         estimate D2E/DX2                !
 ! D47   D(14,6,7,8)           178.4857         estimate D2E/DX2                !
 ! D48   D(14,6,7,12)           -0.4366         estimate D2E/DX2                !
 ! D49   D(34,6,7,8)           -58.8427         estimate D2E/DX2                !
 ! D50   D(34,6,7,12)          122.235          estimate D2E/DX2                !
 ! D51   D(5,6,14,13)          117.6541         estimate D2E/DX2                !
 ! D52   D(5,6,14,15)            0.211          estimate D2E/DX2                !
 ! D53   D(5,6,14,41)         -118.6837         estimate D2E/DX2                !
 ! D54   D(7,6,14,13)            1.5293         estimate D2E/DX2                !
 ! D55   D(7,6,14,15)         -115.9137         estimate D2E/DX2                !
 ! D56   D(7,6,14,41)          125.1915         estimate D2E/DX2                !
 ! D57   D(34,6,14,13)        -120.8043         estimate D2E/DX2                !
 ! D58   D(34,6,14,15)         121.7527         estimate D2E/DX2                !
 ! D59   D(34,6,14,41)           2.858          estimate D2E/DX2                !
 ! D60   D(6,7,8,9)           -179.1643         estimate D2E/DX2                !
 ! D61   D(6,7,8,35)             0.5842         estimate D2E/DX2                !
 ! D62   D(12,7,8,9)            -0.3324         estimate D2E/DX2                !
 ! D63   D(12,7,8,35)          179.4161         estimate D2E/DX2                !
 ! D64   D(6,7,12,11)          179.2382         estimate D2E/DX2                !
 ! D65   D(6,7,12,13)           -0.9047         estimate D2E/DX2                !
 ! D66   D(8,7,12,11)            0.2453         estimate D2E/DX2                !
 ! D67   D(8,7,12,13)         -179.8976         estimate D2E/DX2                !
 ! D68   D(7,8,9,10)             0.2787         estimate D2E/DX2                !
 ! D69   D(7,8,9,36)          -179.7995         estimate D2E/DX2                !
 ! D70   D(35,8,9,10)         -179.4703         estimate D2E/DX2                !
 ! D71   D(35,8,9,36)            0.4515         estimate D2E/DX2                !
 ! D72   D(8,9,10,11)           -0.1411         estimate D2E/DX2                !
 ! D73   D(8,9,10,37)          179.8858         estimate D2E/DX2                !
 ! D74   D(36,9,10,11)         179.9371         estimate D2E/DX2                !
 ! D75   D(36,9,10,37)          -0.036          estimate D2E/DX2                !
 ! D76   D(9,10,11,12)           0.0473         estimate D2E/DX2                !
 ! D77   D(9,10,11,38)        -179.9904         estimate D2E/DX2                !
 ! D78   D(37,10,11,12)       -179.9796         estimate D2E/DX2                !
 ! D79   D(37,10,11,38)         -0.0172         estimate D2E/DX2                !
 ! D80   D(10,11,12,7)          -0.0984         estimate D2E/DX2                !
 ! D81   D(10,11,12,13)       -179.9337         estimate D2E/DX2                !
 ! D82   D(38,11,12,7)         179.9393         estimate D2E/DX2                !
 ! D83   D(38,11,12,13)          0.104          estimate D2E/DX2                !
 ! D84   D(7,12,13,14)           1.8183         estimate D2E/DX2                !
 ! D85   D(7,12,13,39)         121.7936         estimate D2E/DX2                !
 ! D86   D(7,12,13,40)        -116.5152         estimate D2E/DX2                !
 ! D87   D(11,12,13,14)       -178.3343         estimate D2E/DX2                !
 ! D88   D(11,12,13,39)        -58.359          estimate D2E/DX2                !
 ! D89   D(11,12,13,40)         63.3322         estimate D2E/DX2                !
 ! D90   D(12,13,14,6)          -2.0006         estimate D2E/DX2                !
 ! D91   D(12,13,14,15)        110.2298         estimate D2E/DX2                !
 ! D92   D(12,13,14,41)       -125.5477         estimate D2E/DX2                !
 ! D93   D(39,13,14,6)        -121.1055         estimate D2E/DX2                !
 ! D94   D(39,13,14,15)         -8.8751         estimate D2E/DX2                !
 ! D95   D(39,13,14,41)        115.3474         estimate D2E/DX2                !
 ! D96   D(40,13,14,6)         115.847          estimate D2E/DX2                !
 ! D97   D(40,13,14,15)       -131.9226         estimate D2E/DX2                !
 ! D98   D(40,13,14,41)         -7.7001         estimate D2E/DX2                !
 ! D99   D(6,14,15,4)            0.5073         estimate D2E/DX2                !
 ! D100  D(13,14,15,4)        -114.4598         estimate D2E/DX2                !
 ! D101  D(41,14,15,4)         120.3971         estimate D2E/DX2                !
 ! D102  D(2,16,17,18)        -178.7627         estimate D2E/DX2                !
 ! D103  D(2,16,17,50)         -59.3328         estimate D2E/DX2                !
 ! D104  D(27,16,17,18)          1.322          estimate D2E/DX2                !
 ! D105  D(27,16,17,50)        120.7518         estimate D2E/DX2                !
 ! D106  D(2,16,27,26)         178.8971         estimate D2E/DX2                !
 ! D107  D(17,16,27,26)         -1.1889         estimate D2E/DX2                !
 ! D108  D(16,17,18,19)        110.6669         estimate D2E/DX2                !
 ! D109  D(16,17,18,26)         -0.9115         estimate D2E/DX2                !
 ! D110  D(16,17,18,42)       -123.3775         estimate D2E/DX2                !
 ! D111  D(50,17,18,19)         -8.6687         estimate D2E/DX2                !
 ! D112  D(50,17,18,26)       -120.2472         estimate D2E/DX2                !
 ! D113  D(50,17,18,42)        117.2869         estimate D2E/DX2                !
 ! D114  D(16,17,50,5)          17.7973         estimate D2E/DX2                !
 ! D115  D(18,17,50,5)         137.1484         estimate D2E/DX2                !
 ! D116  D(17,18,19,20)         66.6088         estimate D2E/DX2                !
 ! D117  D(17,18,19,24)       -112.3136         estimate D2E/DX2                !
 ! D118  D(26,18,19,20)        178.4857         estimate D2E/DX2                !
 ! D119  D(26,18,19,24)         -0.4367         estimate D2E/DX2                !
 ! D120  D(42,18,19,20)        -58.8427         estimate D2E/DX2                !
 ! D121  D(42,18,19,24)        122.2349         estimate D2E/DX2                !
 ! D122  D(17,18,26,25)        117.654          estimate D2E/DX2                !
 ! D123  D(17,18,26,27)          0.2111         estimate D2E/DX2                !
 ! D124  D(17,18,26,49)       -118.6838         estimate D2E/DX2                !
 ! D125  D(19,18,26,25)          1.5294         estimate D2E/DX2                !
 ! D126  D(19,18,26,27)       -115.9136         estimate D2E/DX2                !
 ! D127  D(19,18,26,49)        125.1915         estimate D2E/DX2                !
 ! D128  D(42,18,26,25)       -120.8042         estimate D2E/DX2                !
 ! D129  D(42,18,26,27)        121.7528         estimate D2E/DX2                !
 ! D130  D(42,18,26,49)          2.8579         estimate D2E/DX2                !
 ! D131  D(18,19,20,21)       -179.1643         estimate D2E/DX2                !
 ! D132  D(18,19,20,43)          0.5842         estimate D2E/DX2                !
 ! D133  D(24,19,20,21)         -0.3323         estimate D2E/DX2                !
 ! D134  D(24,19,20,43)        179.4162         estimate D2E/DX2                !
 ! D135  D(18,19,24,23)        179.2382         estimate D2E/DX2                !
 ! D136  D(18,19,24,25)         -0.9047         estimate D2E/DX2                !
 ! D137  D(20,19,24,23)          0.2452         estimate D2E/DX2                !
 ! D138  D(20,19,24,25)       -179.8976         estimate D2E/DX2                !
 ! D139  D(19,20,21,22)          0.2787         estimate D2E/DX2                !
 ! D140  D(19,20,21,44)       -179.7995         estimate D2E/DX2                !
 ! D141  D(43,20,21,22)       -179.4703         estimate D2E/DX2                !
 ! D142  D(43,20,21,44)          0.4514         estimate D2E/DX2                !
 ! D143  D(20,21,22,23)         -0.1411         estimate D2E/DX2                !
 ! D144  D(20,21,22,45)        179.8858         estimate D2E/DX2                !
 ! D145  D(44,21,22,23)        179.9372         estimate D2E/DX2                !
 ! D146  D(44,21,22,45)         -0.036          estimate D2E/DX2                !
 ! D147  D(21,22,23,24)          0.0472         estimate D2E/DX2                !
 ! D148  D(21,22,23,46)       -179.9904         estimate D2E/DX2                !
 ! D149  D(45,22,23,24)       -179.9796         estimate D2E/DX2                !
 ! D150  D(45,22,23,46)         -0.0172         estimate D2E/DX2                !
 ! D151  D(22,23,24,19)         -0.0983         estimate D2E/DX2                !
 ! D152  D(22,23,24,25)       -179.9337         estimate D2E/DX2                !
 ! D153  D(46,23,24,19)        179.9394         estimate D2E/DX2                !
 ! D154  D(46,23,24,25)          0.104          estimate D2E/DX2                !
 ! D155  D(19,24,25,26)          1.8182         estimate D2E/DX2                !
 ! D156  D(19,24,25,47)       -116.5151         estimate D2E/DX2                !
 ! D157  D(19,24,25,48)        121.7935         estimate D2E/DX2                !
 ! D158  D(23,24,25,26)       -178.3343         estimate D2E/DX2                !
 ! D159  D(23,24,25,47)         63.3323         estimate D2E/DX2                !
 ! D160  D(23,24,25,48)        -58.359          estimate D2E/DX2                !
 ! D161  D(24,25,26,18)         -2.0006         estimate D2E/DX2                !
 ! D162  D(24,25,26,27)        110.2297         estimate D2E/DX2                !
 ! D163  D(24,25,26,49)       -125.5477         estimate D2E/DX2                !
 ! D164  D(47,25,26,18)        115.847          estimate D2E/DX2                !
 ! D165  D(47,25,26,27)       -131.9227         estimate D2E/DX2                !
 ! D166  D(47,25,26,49)         -7.7001         estimate D2E/DX2                !
 ! D167  D(48,25,26,18)       -121.1055         estimate D2E/DX2                !
 ! D168  D(48,25,26,27)         -8.8751         estimate D2E/DX2                !
 ! D169  D(48,25,26,49)        115.3475         estimate D2E/DX2                !
 ! D170  D(18,26,27,16)          0.5073         estimate D2E/DX2                !
 ! D171  D(25,26,27,16)       -114.4599         estimate D2E/DX2                !
 ! D172  D(49,26,27,16)        120.3971         estimate D2E/DX2                !
 --------------------------------------------------------------------------------
 Trust Radius=3.00D-01 FncErr=1.00D-07 GrdErr=1.00D-06 EigMax=2.50D+02 EigMin=1.00D-04
 Number of steps in this run=    300 maximum allowed number of steps=    300.
 GradGradGradGradGradGradGradGradGradGradGradGradGradGradGradGradGradGrad

 Leave Link  103 at Thu Mar  7 22:58:43 2024, MaxMem= 13421772800 cpu:               0.8 elap:               0.0
 (Enter /public/software/apps/Gaussian/g16/l202.exe)
                          Input orientation:                          
 ---------------------------------------------------------------------
 Center     Atomic      Atomic             Coordinates (Angstroms)
 Number     Number       Type             X           Y           Z
 ---------------------------------------------------------------------
      1          6           0       -2.511349    1.316045    2.750225
      2          6           0       -2.192864    1.178383    1.251413
      3          6           0       -3.393582    1.663518    0.420906
      4          6           0       -1.896931   -0.273256    0.950689
      5          7           0       -0.757330   -0.817429    1.214533
      6          6           0       -0.779466   -2.206938    0.782181
      7          6           0        0.114018   -2.403955   -0.384210
      8          6           0        1.507157   -2.294388   -0.401879
      9          6           0        2.184048   -2.501031   -1.613380
     10          6           0        1.464078   -2.806079   -2.782240
     11          6           0        0.064950   -2.908349   -2.742538
     12          6           0       -0.590175   -2.700946   -1.526024
     13          6           0       -2.052516   -2.766933   -1.285960
     14          6           0       -2.200512   -2.414668    0.209182
     15          8           0       -2.805820   -1.142871    0.374974
     16          6           0       -0.985652    2.013809    0.890897
     17          7           0       -0.294112    1.807306   -0.178476
     18          6           0        0.811603    2.752601   -0.222795
     19          6           0        2.102870    2.053977   -0.017486
     20          6           0        2.701533    1.127871   -0.876021
     21          6           0        3.926188    0.554972   -0.501020
     22          6           0        4.527576    0.908631    0.720005
     23          6           0        3.907474    1.838685    1.568573
     24          6           0        2.689329    2.399232    1.176120
     25          6           0        1.888271    3.393101    1.931738
     26          6           0        0.640637    3.612976    1.050539
     27          8           0       -0.516152    3.063550    1.659902
     28          1           0       -2.763326    2.368507    3.004266
     29          1           0       -3.377533    0.675546    3.025069
     30          1           0       -1.638451    1.006189    3.365495
     31          1           0       -3.195274    1.534235   -0.665593
     32          1           0       -3.591630    2.740300    0.614223
     33          1           0       -4.309645    1.089894    0.680691
     34          1           0       -0.543852   -2.898858    1.619075
     35          1           0        2.054812   -2.050886    0.499519
     36          1           0        3.262692   -2.424275   -1.648853
     37          1           0        1.990318   -2.962825   -3.714793
     38          1           0       -0.494701   -3.143010   -3.638771
     39          1           0       -2.585714   -2.038839   -1.934890
     40          1           0       -2.421236   -3.796337   -1.482720
     41          1           0       -2.765390   -3.191338    0.769114
     42          1           0        0.797958    3.353526   -1.157332
     43          1           0        2.229236    0.853478   -1.810569
     44          1           0        4.408650   -0.161760   -1.152285
     45          1           0        5.471299    0.462763    1.005915
     46          1           0        4.365486    2.115011    2.509519
     47          1           0        2.462400    4.338297    2.038137
     48          1           0        1.619144    2.993920    2.933613
     49          1           0        0.481651    4.686395    0.809040
     50         29           0        0.416992   -0.021925   -0.142376
 ---------------------------------------------------------------------
                    Distance matrix (angstroms):
                    1          2          3          4          5
     1  C    0.000000
     2  C    1.538448   0.000000
     3  C    2.514915   1.538448   0.000000
     4  C    2.478249   1.511710   2.504342   0.000000
     5  N    3.160165   2.458736   3.706045   1.290127   0.000000
     6  C    4.391358   3.698415   4.684501   2.239698   1.455388
     7  C    5.527715   4.564002   5.431004   3.219588   2.415014
     8  C    6.254548   5.337009   6.352892   4.183567   3.149936
     9  C    7.460420   6.395505   7.252017   5.309597   4.413991
    10  C    7.962669   6.746815   7.337186   5.625507   4.986339
    11  C    7.392785   6.144164   6.547579   4.942936   4.550440
    12  C    6.173608   5.033087   5.540593   3.706130   3.329599
    13  C    5.759516   4.692918   4.933634   3.353391   3.424987
    14  C    4.524571   3.741166   4.254391   2.286403   2.375853
    15  O    3.431443   2.555794   2.867646   1.383386   2.237651
    16  C    2.504342   1.511711   2.478250   2.462655   2.858807
    17  N    3.706045   2.458737   3.160166   2.858808   3.007371
    18  C    4.684501   3.698415   4.391359   4.227178   4.156029
    19  C    5.431002   4.564000   5.527715   4.727767   4.235987
    20  C    6.352890   5.337007   6.254547   5.142557   4.485347
    21  C    7.252014   6.395503   7.460419   6.058229   5.173195
    22  C    7.337182   6.746812   7.962667   6.536388   5.581583
    23  C    6.547575   6.144161   7.392783   6.207511   5.379654
    24  C    5.540591   5.033086   6.173607   5.312889   4.714641
    25  C    4.933633   4.692918   5.759517   5.360260   5.024157
    26  C    4.254391   3.741166   4.524571   4.642415   4.648623
    27  O    2.867645   2.555794   3.431443   3.680191   3.913888
    28  H    1.111623   2.194155   2.750996   3.456404   4.168615
    29  H    1.111779   2.191379   2.785321   2.719459   3.517453
    30  H    1.111989   2.192343   3.490440   2.745010   2.954419
    31  H    3.490440   2.192343   1.111989   2.750470   3.874115
    32  H    2.785321   2.191379   1.111780   3.473720   4.588144
    33  H    2.750997   2.194155   1.111622   2.784289   4.067162
    34  H    4.787061   4.413424   5.511066   3.028423   2.131097
    35  H    6.103419   5.388532   6.594541   4.356581   3.152904
    36  H    8.165870   7.152187   8.080838   6.164918   5.190521
    37  H    8.964942   7.701417   8.215439   6.641627   6.037429
    38  H    8.047938   6.743300   6.927279   5.591501   5.388122
    39  H    5.762905   4.545039   4.462048   3.452285   3.841054
    40  H    6.637951   5.681151   5.863383   4.313754   4.349442
    41  H    4.930095   4.433380   4.907698   3.049982   3.141042
    42  H    5.511066   4.413424   4.787063   4.985953   5.043960
    43  H    6.594540   5.388531   6.103419   5.091103   4.567576
    44  H    8.080834   7.152184   8.165868   6.647953   5.720059
    45  H    8.215435   7.701414   8.964941   7.405105   6.362251
    46  H    6.927275   6.743297   8.047937   6.881253   6.043131
    47  H    5.863383   5.681151   6.637952   6.438380   6.134044
    48  H    4.462048   4.545039   5.762906   5.193189   4.809287
    49  H    4.907699   4.433382   4.930098   5.502350   5.656110
    50  Cu   4.328104   3.192920   4.204578   2.571419   1.962921
                    6          7          8          9         10
     6  C    0.000000
     7  C    1.482430   0.000000
     8  C    2.576488   1.397553   0.000000
     9  C    3.821991   2.409420   1.403074   0.000000
    10  C    4.254122   2.781171   2.435118   1.406288   0.000000
    11  C    3.691701   2.412163   2.817019   2.435463   1.403422
    12  C    2.368055   1.373983   2.414082   2.782788   2.410205
    13  C    2.492280   2.374611   3.698131   4.257509   3.821887
    14  C    1.546238   2.389410   3.759611   4.749059   4.746686
    15  O    2.324686   3.269885   4.531144   5.540481   5.564736
    16  C    4.227178   4.727770   5.142560   6.058233   6.536393
    17  N    4.156030   4.235991   4.485351   5.173200   5.581589
    18  C    5.304574   5.206030   5.097839   5.605174   6.154300
    19  C    5.206028   4.895220   4.405781   4.827170   5.627794
    20  C    5.097837   4.405781   3.655571   3.739040   4.543229
    21  C    5.605170   4.827166   3.739036   3.689384   4.750012
    22  C    6.154294   5.627789   4.543224   4.750011   5.953974
    23  C    6.241225   6.016948   5.169767   5.650501   6.817154
    24  C    5.779665   5.668991   5.090941   5.661201   6.653203
    25  C    6.308624   6.489796   6.159428   6.884485   7.799446
    26  C    5.996675   6.208002   6.144699   6.845412   7.521470
    27  O    5.349558   5.871041   6.087053   6.997858   7.622761
    28  H    5.459676   6.522060   7.182022   8.337360   8.839171
    29  H    4.482099   5.770393   6.665184   7.908036   8.323926
    30  H    4.211360   5.362883   5.914538   7.190361   7.871068
    31  H    4.682793   5.151692   6.069659   6.791081   6.710297
    32  H    5.693122   6.418104   7.237277   8.111240   8.237625
    33  H    4.831311   5.736705   6.816195   7.766953   7.778584
    34  H    1.111152   2.165842   2.942155   4.248349   4.838591
    35  H    2.852610   2.161554   1.082468   2.164180   3.418951
    36  H    4.721886   3.393211   2.157248   1.081953   2.159943
    37  H    5.335339   3.863369   3.414037   2.160260   1.082198
    38  H    4.527929   3.392478   3.899367   3.419070   2.164251
    39  H    3.266996   3.134720   4.378016   4.802876   4.208025
    40  H    3.217355   3.094021   4.342389   4.785763   4.214858
    41  H    2.216553   3.200175   4.520000   5.536221   5.536148
    42  H    6.096617   5.849280   5.742178   6.033661   6.405059
    43  H    5.014059   4.137574   3.523474   3.360604   3.862896
    44  H    5.902665   4.905226   3.678298   3.260928   4.280150
    45  H    6.800693   6.233055   5.029730   5.143034   6.410403
    46  H    6.937829   6.846145   6.007419   6.562379   7.787041
    47  H    7.411290   7.539272   7.131527   7.758058   8.676105
    48  H    6.118081   6.512327   6.253339   7.154631   8.144631
    49  H    7.007794   7.199449   7.158863   7.773376   8.366578
    50  Cu   2.657179   2.413368   2.533750   3.381169   3.977032
                   11         12         13         14         15
    11  C    0.000000
    12  C    1.397180   0.000000
    13  C    2.573962   1.483383   0.000000
    14  C    3.753490   2.384550   1.543192   0.000000
    15  O    4.590982   3.309150   2.442078   1.418222   0.000000
    16  C    6.207516   5.312892   5.360261   4.642416   3.680192
    17  N    5.379660   4.714645   5.024158   4.648624   3.913889
    18  C    6.241230   5.779668   6.308625   5.996675   5.349559
    19  C    6.016952   5.668992   6.489794   6.208000   5.871039
    20  C    5.169771   5.090941   6.159426   6.144696   6.087051
    21  C    5.650500   5.661199   6.884481   6.845407   6.997855
    22  C    6.817153   6.653200   7.799441   7.521464   7.622756
    23  C    7.475627   7.100255   8.054909   7.566138   7.441953
    24  C    7.100258   6.638414   7.432106   6.929585   6.586728
    25  C    8.054913   7.432107   7.989330   7.308593   6.710667
    26  C    7.566144   6.929588   7.308594   6.716584   5.912067
    27  O    7.441958   6.586730   6.710667   5.912066   4.958588
    28  H    8.298802   7.137609   6.729341   5.568484   4.386885
    29  H    7.613165   6.315260   5.673738   4.343273   3.264429
    30  H    7.452063   6.226451   6.003660   4.688335   3.863214
    31  H    5.888914   5.046151   4.493417   4.165167   2.898508
    32  H    7.519685   6.572408   6.025710   5.354714   3.969100
    33  H    6.844087   5.751045   4.882362   4.117368   2.709279
    34  H    4.403907   3.151660   3.276080   2.228623   3.122143
    35  H    3.899452   3.394313   4.535505   4.280703   4.946286
    36  H    3.414093   3.864740   5.338590   5.770527   6.524164
    37  H    2.157612   3.393852   4.720393   5.767245   6.560592
    38  H    1.082363   2.160610   2.846742   4.271653   5.044995
    39  H    2.904197   2.141899   1.111544   2.210582   2.487303
    40  H    2.925198   2.134137   1.111009   2.195509   3.261873
    41  H    4.519138   3.199954   2.216222   1.111678   2.086432
    42  H    6.500866   6.222498   6.752908   6.643060   5.962614
    43  H    4.438924   4.545764   5.631695   5.863688   5.840702
    44  H    5.379627   5.619199   6.967888   7.114085   7.439333
    45  H    7.392152   7.291175   8.502436   8.232319   8.454989
    46  H    8.444694   8.002351   8.912339   8.301920   8.160742
    47  H    9.006470   8.460047   9.050877   8.407756   7.782253
    48  H    8.334926   7.563131   8.029527   7.159967   6.575711
    49  H    8.394491   7.821390   8.146357   7.614389   6.706431
    50  Cu   3.900797   3.178997   3.865401   3.563725   3.451186
                   16         17         18         19         20
    16  C    0.000000
    17  N    1.290128   0.000000
    18  C    2.239698   1.455387   0.000000
    19  C    3.219587   2.415013   1.482430   0.000000
    20  C    4.183565   3.149935   2.576487   1.397552   0.000000
    21  C    5.309596   4.413990   3.821992   2.409421   1.403075
    22  C    5.625505   4.986337   4.254122   2.781171   2.435118
    23  C    4.942934   4.550438   3.691701   2.412163   2.817018
    24  C    3.706128   3.329599   2.368056   1.373983   2.414082
    25  C    3.353391   3.424988   2.492281   2.374612   3.698131
    26  C    2.286403   2.375853   1.546239   2.389410   3.759611
    27  O    1.383385   2.237652   2.324687   3.269884   4.531143
    28  H    2.784289   4.067163   4.831311   5.736704   6.816193
    29  H    3.473720   4.588144   5.693122   6.418102   7.237275
    30  H    2.750469   3.874115   4.682792   5.151689   6.069656
    31  H    2.745010   2.954419   4.211360   5.362882   5.914537
    32  H    2.719459   3.517453   4.482099   5.770392   6.665182
    33  H    3.456405   4.168615   5.459676   6.522059   7.182020
    34  H    4.985953   5.043961   6.096616   5.849277   5.742175
    35  H    5.091104   4.567578   5.014060   4.137572   3.523472
    36  H    6.647958   5.720065   5.902671   4.905231   3.678303
    37  H    7.405111   6.362257   6.800699   6.233061   5.029736
    38  H    6.881258   6.043137   6.937835   6.846149   6.007422
    39  H    5.193190   4.809289   6.118082   6.512327   6.253338
    40  H    6.438381   6.134046   7.411292   7.539272   7.131527
    41  H    5.502350   5.656110   7.007794   7.199446   7.158860
    42  H    3.028423   2.131096   1.111151   2.165842   2.942155
    43  H    4.356580   3.152904   2.852609   2.161553   1.082468
    44  H    6.164916   5.190520   4.721885   3.393211   2.157248
    45  H    6.641625   6.037428   5.335340   3.863370   3.414038
    46  H    5.591499   5.388121   4.527929   3.392479   3.899367
    47  H    4.313753   4.349442   3.217355   3.094021   4.342388
    48  H    3.452285   3.841054   3.266997   3.134720   4.378015
    49  H    3.049983   3.141043   2.216554   3.200175   4.520000
    50  Cu   2.679417   1.962921   2.803601   2.677154   2.660713
                   21         22         23         24         25
    21  C    0.000000
    22  C    1.406287   0.000000
    23  C    2.435464   1.403422   0.000000
    24  C    2.782789   2.410204   1.397179   0.000000
    25  C    4.257510   3.821887   2.573962   1.483384   0.000000
    26  C    4.749060   4.746686   3.753491   2.384551   1.543194
    27  O    5.540481   5.564735   4.590981   3.309150   2.442079
    28  H    7.766952   7.778582   6.844085   5.751044   4.882363
    29  H    8.111238   8.237621   7.519681   6.572406   6.025709
    30  H    6.791078   6.710292   5.888910   5.046148   4.493415
    31  H    7.190359   7.871066   7.452061   6.226450   6.003661
    32  H    7.908035   8.323924   7.613163   6.315259   5.673739
    33  H    8.337357   8.839167   8.298799   7.137608   6.729342
    34  H    6.033656   6.405051   6.500859   6.222494   6.752905
    35  H    3.360599   3.862890   4.438918   4.545762   5.631694
    36  H    3.260929   4.280150   5.379628   5.619203   6.967893
    37  H    5.143037   6.410404   7.392154   7.291180   8.502442
    38  H    6.562379   7.787040   8.444694   8.002354   8.912344
    39  H    7.154628   8.144627   8.334923   7.563130   8.029528
    40  H    7.758055   8.676100   9.006466   8.460046   9.050878
    41  H    7.773371   8.366571   8.394485   7.821386   8.146355
    42  H    4.248349   4.838590   4.403906   3.151660   3.276080
    43  H    2.164179   3.418949   3.899451   3.394312   4.535505
    44  H    1.081952   2.159942   3.414092   3.864740   5.338590
    45  H    2.160260   1.082200   2.157613   3.393853   4.720394
    46  H    3.419071   2.164252   1.082363   2.160610   2.846742
    47  H    4.785764   4.214859   2.925199   2.134138   1.111009
    48  H    4.802877   4.208024   2.904196   2.141899   1.111543
    49  H    5.536221   5.536148   4.519138   3.199954   2.216222
    50  Cu   3.574338   4.301922   4.309603   3.572667   4.257818
                   26         27         28         29         30
    26  C    0.000000
    27  O    1.418222   0.000000
    28  H    4.117368   2.709279   0.000000
    29  H    5.354713   3.969099   1.801055   0.000000
    30  H    4.165165   2.898506   1.803258   1.802670   0.000000
    31  H    4.688335   3.863214   3.788199   3.793620   4.353413
    32  H    4.343273   3.264430   2.556682   3.181387   3.793619
    33  H    5.568485   4.386885   3.070009   2.556682   3.788200
    34  H    6.643059   5.962612   5.881322   4.773147   4.415600
    35  H    5.863689   5.840702   7.001375   6.581961   5.585671
    36  H    7.114091   7.439338   8.996398   8.691779   7.805957
    37  H    8.232326   8.454995   9.806426   9.352930   8.891092
    38  H    8.301926   8.160746   8.924876   8.203588   8.220934
    39  H    7.159968   6.575712   6.622047   5.709296   6.185757
    40  H    8.407758   7.782253   7.632521   6.421246   6.868930
    41  H    7.614388   6.706430   5.992311   4.518500   5.062649
    42  H    2.228623   3.122143   5.565241   6.488357   5.648189
    43  H    4.280703   4.946286   7.099551   7.406140   6.463278
    44  H    5.770527   6.524162   8.666972   8.875585   7.638185
    45  H    5.767246   6.560592   8.685293   9.078771   7.510757
    46  H    4.271653   5.044994   7.150454   7.892540   6.165180
    47  H    2.195509   3.261873   5.667600   6.963806   5.448101
    48  H    2.210582   2.487303   4.427435   5.509084   3.840511
    49  H    1.111677   2.086433   4.552087   5.990909   4.957238
    50  Cu   3.832175   3.693118   5.072469   4.991753   4.193689
                   31         32         33         34         35
    31  H    0.000000
    32  H    1.802670   0.000000
    33  H    1.803259   1.801056   0.000000
    34  H    5.648191   6.488357   5.565241   0.000000
    35  H    6.463279   7.406141   7.099552   2.953899   0.000000
    36  H    7.638189   8.875589   8.666974   5.039282   2.492769
    37  H    7.510761   9.078775   8.685295   5.905612   4.312333
    38  H    6.165185   7.892545   7.150456   5.263741   4.981786
    39  H    3.840512   5.509085   4.427434   4.188019   5.240322
    40  H    5.448103   6.963808   5.667600   3.735127   5.197199
    41  H    4.957240   5.990909   4.552086   2.396499   4.960611
    42  H    4.415601   4.773147   5.881324   6.971456   5.790726
    43  H    5.585670   6.581960   7.001374   5.790725   3.715139
    44  H    7.805955   8.691777   8.996394   6.300747   3.440611
    45  H    8.891090   9.352929   9.806423   6.917984   4.271680
    46  H    8.220932   8.203586   8.924874   7.073427   5.170494
    47  H    6.868930   6.421246   7.632521   7.847903   6.584461
    48  H    6.185757   5.709296   6.622047   6.413376   5.618246
    49  H    5.062651   4.518502   5.992313   7.697004   6.925431
    50  Cu   3.967853   4.926599   4.924904   3.507517   2.685361
                   36         37         38         39         40
    36  H    0.000000
    37  H    2.485373   0.000000
    38  H    4.312117   2.492702   0.000000
    39  H    5.868069   4.996186   2.914574   0.000000
    40  H    5.849546   5.013851   2.964275   1.822172   0.000000
    41  H    6.540086   6.540214   4.958610   2.944856   2.356952
    42  H    6.300753   6.917992   7.073435   6.413379   7.847906
    43  H    3.440617   4.271688   5.170500   5.618247   6.584463
    44  H    2.584332   4.501193   6.254064   7.284025   7.743816
    45  H    4.501192   6.792420   8.376626   8.934305   9.307274
    46  H    6.254065   8.376628   9.437673   9.237230   9.845893
    47  H    7.743820   9.307279   9.845897   9.051865  10.120208
    48  H    7.284029   8.934309   9.237233   8.167730   9.051865
    49  H    8.021038   9.013973   9.057365   7.884583   9.253954
    50  Cu   4.017308   4.887373   4.774634   4.036990   4.908996
                   41         42         43         44         45
    41  H    0.000000
    42  H    7.697005   0.000000
    43  H    6.925431   2.953898   0.000000
    44  H    8.021033   5.039281   2.492768   0.000000
    45  H    9.013966   5.905613   4.312333   2.485373   0.000000
    46  H    9.057358   5.263741   4.981786   4.312118   2.492704
    47  H    9.253951   3.735126   5.197198   5.849547   5.013853
    48  H    7.884581   4.188018   5.240321   5.868068   4.996186
    49  H    8.520771   2.396499   4.960611   6.540086   6.540215
    50  Cu   4.582963   3.545270   2.614082   4.119806   5.205719
                   46         47         48         49         50
    46  H    0.000000
    47  H    2.964277   0.000000
    48  H    2.914572   1.822171   0.000000
    49  H    4.958611   2.356951   2.944855   0.000000
    50  Cu   5.214369   5.286763   4.472382   4.803920   0.000000
 Symmetry turned off by external request.
 Stoichiometry    C23H22CuN2O2(2+,2)
 Framework group  C1[X(C23H22CuN2O2)]
 Deg. of freedom   144
 Full point group                 C1      NOp   1
 Rotational constants (GHZ):           0.2543222           0.2003787           0.1281272
 Leave Link  202 at Thu Mar  7 22:58:44 2024, MaxMem= 13421772800 cpu:               0.5 elap:               0.0
 (Enter /public/software/apps/Gaussian/g16/l301.exe)
 Standard basis: def2SVPP (5D, 7F)
 Ernie: Thresh=  0.10000D-02 Tol=  0.10000D-05 Strict=F.
   446 basis functions,   834 primitive gaussians,   475 cartesian basis functions
   109 alpha electrons      108 beta electrons
       nuclear repulsion energy      3413.2255936537 Hartrees.
 IExCor=  402 DFT=T Ex+Corr=B3LYP ExCW=0 ScaHFX=  0.200000
 ScaDFX=  0.800000  0.720000  1.000000  0.810000 ScalE2=  1.000000  1.000000
 IRadAn=      5 IRanWt=     -1 IRanGd=            0 ICorTp=0 IEmpDi=141
 NAtoms=   50 NActive=   50 NUniq=   50 SFac= 1.00D+00 NAtFMM=   60 NAOKFM=F Big=F
 Integral buffers will be    131072 words long.
 Raffenetti 2 integral format.
 Two-electron integral symmetry is turned off.
 R6Disp:  Grimme-D3(BJ) Dispersion energy=       -0.1361948937 Hartrees.
 Nuclear repulsion after empirical dispersion term =     3413.0893987600 Hartrees.
 Leave Link  301 at Thu Mar  7 22:58:44 2024, MaxMem= 13421772800 cpu:               1.5 elap:               0.1
 (Enter /public/software/apps/Gaussian/g16/l302.exe)
 NPDir=0 NMtPBC=     1 NCelOv=     1 NCel=       1 NClECP=     1 NCelD=      1
         NCelK=      1 NCelE2=     1 NClLst=     1 CellRange=     0.0.
 One-electron integrals computed using PRISM.
   1 Symmetry operations used in ECPInt.
 ECPInt:  NShTT=   23436 NPrTT=   97477 LenC2=   21970 LenP2D=   60752.
 LDataN:  DoStor=T MaxTD1= 4 Len=   56
 NBasis=   446 RedAO= T EigKep=  2.33D-04  NBF=   446
 NBsUse=   446 1.00D-06 EigRej= -1.00D+00 NBFU=   446
 Precomputing XC quadrature grid using
 IXCGrd= 4 IRadAn=           5 IRanWt=          -1 IRanGd=           0 AccXCQ= 0.00D+00.
 Generated NRdTot=       0 NPtTot=           0 NUsed=           0 NTot=          32
 NSgBfM=   470   470   470   470   470 MxSgAt=    50 MxSgA2=    50.
 Leave Link  302 at Thu Mar  7 22:58:44 2024, MaxMem= 13421772800 cpu:              14.7 elap:               0.5
 (Enter /public/software/apps/Gaussian/g16/l303.exe)
 DipDrv:  MaxL=1.
 Leave Link  303 at Thu Mar  7 22:58:44 2024, MaxMem= 13421772800 cpu:               2.0 elap:               0.1
 (Enter /public/software/apps/Gaussian/g16/l401.exe)
 ExpMin= 3.30D-02 ExpMax= 7.64D+04 ExpMxC= 1.15D+04 IAcc=3 IRadAn=         5 AccDes= 0.00D+00
 Harris functional with IExCor=  402 and IRadAn=       5 diagonalized for initial guess.
 HarFok:  IExCor=  402 AccDes= 0.00D+00 IRadAn=         5 IDoV= 1 UseB2=F ITyADJ=14
 ICtDFT=  3500011 ScaDFX=  1.000000  1.000000  1.000000  1.000000
 FoFCou: FMM=F IPFlag=           0 FMFlag=      100000 FMFlg1=           0
         NFxFlg=           0 DoJE=T BraDBF=F KetDBF=T FulRan=T
         wScrn=  0.000000 ICntrl=       500 IOpCl=  0 I1Cent=   200000004 NGrid=           0
         NMat0=    1 NMatS0=      1 NMatT0=    0 NMatD0=    1 NMtDS0=    0 NMtDT0=    0
 Symmetry not used in FoFCou.
 Harris En= -2788.90127264220    
 JPrj=0 DoOrth=F DoCkMO=F.
 Initial guess <Sx>= 0.0000 <Sy>= 0.0000 <Sz>= 0.5000 <S**2>= 0.7500 S= 0.5000
 Leave Link  401 at Thu Mar  7 22:58:45 2024, MaxMem= 13421772800 cpu:              38.5 elap:               1.2
 (Enter /public/software/apps/Gaussian/g16/l502.exe)
 Two-electron integral symmetry not used.
 UHF open shell SCF:
 Using DIIS extrapolation, IDIIS=  1040.
 NGot= 13421772800 LenX= 13421301109 LenY= 13421075009
 Requested convergence on RMS density matrix=1.00D-08 within 128 cycles.
 Requested convergence on MAX density matrix=1.00D-06.
 Requested convergence on             energy=1.00D-06.
 No special actions if energy rises.
 Fock matrices will be formed incrementally for  20 cycles.

 Cycle   1  Pass 1  IDiag  1:
 FoFJK:  IHMeth= 1 ICntrl=       0 DoSepK=F KAlg= 0 I1Cent=           0 FoldK=F
 IRaf= 880000000 NMat=       1 IRICut=       1 DoRegI=T DoRafI=F ISym2E= 0 IDoP0=0 IntGTp=1.
 FoFCou: FMM=F IPFlag=           0 FMFlag=      100000 FMFlg1=           0
         NFxFlg=           0 DoJE=F BraDBF=F KetDBF=F FulRan=T
         wScrn=  0.000000 ICntrl=         0 IOpCl=  1 I1Cent=           0 NGrid=           0
         NMat0=    1 NMatS0=      1 NMatT0=    0 NMatD0=    1 NMtDS0=    0 NMtDT0=    0
 Symmetry not used in FoFCou.
 E= -2777.47837566418    
 DIIS: error= 1.97D-01 at cycle   1 NSaved=   1.
 NSaved= 1 IEnMin= 1 EnMin= -2777.47837566418     IErMin= 1 ErrMin= 1.97D-01
 ErrMax= 1.97D-01  0.00D+00 EMaxC= 1.00D-01 BMatC= 8.18D+01 BMatP= 8.18D+01
 IDIUse=3 WtCom= 0.00D+00 WtEn= 1.00D+00
 Coeff-Com:  0.100D+01
 Coeff-En:   0.100D+01
 Coeff:      0.100D+01
 Gap=     1.513 Goal=   None    Shift=    0.000
 Gap=    -1.138 Goal=   None    Shift=    0.000
 GapD=   -1.138 DampG=0.250 DampE=0.125 DampFc=0.1250 IDamp=-1.
 Damping current iteration by 1.25D-01
 RMSDP=1.01D-01 MaxDP=1.11D+01              OVMax= 9.80D-01

 Cycle   2  Pass 1  IDiag  1:
 RMSU=  1.26D-02    CP:  1.06D+00
 E= -2780.69056176701     Delta-E=       -3.212186102831 Rises=F Damp=T
 DIIS: error= 1.04D-01 at cycle   2 NSaved=   2.
 NSaved= 2 IEnMin= 2 EnMin= -2780.69056176701     IErMin= 2 ErrMin= 1.04D-01
 ErrMax= 1.04D-01  0.00D+00 EMaxC= 1.00D-01 BMatC= 2.84D+01 BMatP= 8.18D+01
 IDIUse=3 WtCom= 0.00D+00 WtEn= 1.00D+00
 Coeff-Com: -0.119D+01 0.219D+01
 Coeff-En:   0.000D+00 0.100D+01
 Coeff:      0.000D+00 0.100D+01
 Gap=    -0.028 Goal=   None    Shift=    0.000
 Gap=    -0.002 Goal=   None    Shift=    0.000
 RMSDP=2.56D-02 MaxDP=4.58D+00 DE=-3.21D+00 OVMax= 7.86D-01

 Cycle   3  Pass 1  IDiag  1:
 RMSU=  2.02D-02    CP:  1.03D+00  2.25D+00
 E= -2776.89041130667     Delta-E=        3.800150460350 Rises=F Damp=F
 DIIS: error= 9.82D-02 at cycle   3 NSaved=   3.
 NSaved= 3 IEnMin= 2 EnMin= -2780.69056176701     IErMin= 3 ErrMin= 9.82D-02
 ErrMax= 9.82D-02  0.00D+00 EMaxC= 1.00D-01 BMatC= 3.47D+01 BMatP= 2.84D+01
 IDIUse=2 WtCom= 0.00D+00 WtEn= 1.00D+00
 EnCoef did   100 forward-backward iterations
 Coeff-En:   0.489D+00 0.259D-01 0.485D+00
 Coeff:      0.489D+00 0.259D-01 0.485D+00
 Gap=     0.252 Goal=   None    Shift=    0.000
 Gap=    -0.205 Goal=   None    Shift=    0.000
 RMSDP=3.49D-02 MaxDP=5.41D+00 DE= 3.80D+00 OVMax= 9.43D-01

 Cycle   4  Pass 1  IDiag  1:
 RMSU=  1.45D-02    CP:  8.94D-01  2.10D-01  8.43D-02
 E= -2770.02504233035     Delta-E=        6.865368976317 Rises=F Damp=F
 DIIS: error= 6.29D-02 at cycle   4 NSaved=   4.
 NSaved= 4 IEnMin= 2 EnMin= -2780.69056176701     IErMin= 4 ErrMin= 6.29D-02
 ErrMax= 6.29D-02  0.00D+00 EMaxC= 1.00D-01 BMatC= 3.76D+01 BMatP= 2.84D+01
 IDIUse=2 WtCom= 0.00D+00 WtEn= 1.00D+00
 EnCoef did   100 forward-backward iterations
 Coeff-En:   0.450D+00 0.969D-02 0.392D+00 0.148D+00
 Coeff:      0.450D+00 0.969D-02 0.392D+00 0.148D+00
 Gap=    -0.451 Goal=   None    Shift=    0.000
 Gap=     0.188 Goal=   None    Shift=    0.000
 RMSDP=1.32D-02 MaxDP=1.11D+00 DE= 6.87D+00 OVMax= 8.02D-01

 Cycle   5  Pass 1  IDiag  1:
 RMSU=  5.84D-03    CP:  8.76D-01  3.24D-02  1.47D-01  2.02D-01
 E= -2787.74456991730     Delta-E=      -17.719527586954 Rises=F Damp=F
 DIIS: error= 5.15D-02 at cycle   5 NSaved=   5.
 NSaved= 5 IEnMin= 5 EnMin= -2787.74456991730     IErMin= 5 ErrMin= 5.15D-02
 ErrMax= 5.15D-02  0.00D+00 EMaxC= 1.00D-01 BMatC= 4.78D+00 BMatP= 2.84D+01
 IDIUse=3 WtCom= 4.85D-01 WtEn= 5.15D-01
 EnCoef did   100 forward-backward iterations
 Coeff-Com: -0.452D+00 0.905D+00-0.388D-01-0.590D-01 0.645D+00
 Coeff-En:   0.145D+00 0.170D-02 0.000D+00 0.000D+00 0.853D+00
 Coeff:     -0.144D+00 0.439D+00-0.188D-01-0.286D-01 0.753D+00
 Gap=     0.356 Goal=   None    Shift=    0.000
 Gap=     0.060 Goal=   None    Shift=    0.000
 RMSDP=5.17D-03 MaxDP=2.27D-01 DE=-1.77D+01 OVMax= 6.55D-01

 Cycle   6  Pass 1  IDiag  1:
 RMSU=  4.52D-03    CP:  8.94D-01  4.51D-03  8.00D-02  1.48D-01  6.79D-01
 E= -2787.54968019888     Delta-E=        0.194889718419 Rises=F Damp=F
 DIIS: error= 3.12D-02 at cycle   6 NSaved=   6.
 NSaved= 6 IEnMin= 5 EnMin= -2787.74456991730     IErMin= 6 ErrMin= 3.12D-02
 ErrMax= 3.12D-02  0.00D+00 EMaxC= 1.00D-01 BMatC= 3.71D+00 BMatP= 4.78D+00
 IDIUse=3 WtCom= 6.88D-01 WtEn= 3.12D-01
 EnCoef did     9 forward-backward iterations
 Coeff-Com: -0.337D+00 0.637D+00-0.580D-01-0.602D-01 0.447D+00 0.371D+00
 Coeff-En:   0.773D-01 0.000D+00 0.000D+00 0.000D+00 0.586D+00 0.336D+00
 Coeff:     -0.208D+00 0.439D+00-0.399D-01-0.415D-01 0.490D+00 0.360D+00
 Gap=     0.198 Goal=   None    Shift=    0.000
 Gap=     0.004 Goal=   None    Shift=    0.000
 RMSDP=3.84D-03 MaxDP=2.38D-01 DE= 1.95D-01 OVMax= 6.55D-01

 Cycle   7  Pass 1  IDiag  1:
 RMSU=  1.70D-03    CP:  8.81D-01 -1.59D-02  9.77D-02  1.59D-01  8.64D-01
                    CP:  2.88D-01
 E= -2788.49510979500     Delta-E=       -0.945429596116 Rises=F Damp=F
 DIIS: error= 1.52D-02 at cycle   7 NSaved=   7.
 NSaved= 7 IEnMin= 7 EnMin= -2788.49510979500     IErMin= 7 ErrMin= 1.52D-02
 ErrMax= 1.52D-02  0.00D+00 EMaxC= 1.00D-01 BMatC= 6.21D-01 BMatP= 3.71D+00
 IDIUse=3 WtCom= 8.48D-01 WtEn= 1.52D-01
 EnCoef did     2 forward-backward iterations
 Coeff-Com: -0.123D+00 0.240D+00-0.269D-01-0.110D-01-0.776D-01 0.184D+00
 Coeff-Com:  0.814D+00
 Coeff-En:   0.433D-02 0.000D+00 0.000D+00 0.000D+00 0.000D+00 0.115D+00
 Coeff-En:   0.881D+00
 Coeff:     -0.103D+00 0.204D+00-0.228D-01-0.933D-02-0.658D-01 0.174D+00
 Coeff:      0.824D+00
 Gap=     0.169 Goal=   None    Shift=    0.000
 Gap=    -0.027 Goal=   None    Shift=    0.000
 RMSDP=2.12D-03 MaxDP=1.27D-01 DE=-9.45D-01 OVMax= 6.37D-01

 Cycle   8  Pass 1  IDiag  1:
 RMSU=  1.74D-03    CP:  8.85D-01 -1.86D-02  8.63D-02  1.51D-01  7.70D-01
                    CP:  4.75D-01  6.26D-01
 E= -2788.55740926526     Delta-E=       -0.062299470260 Rises=F Damp=F
 DIIS: error= 6.47D-03 at cycle   8 NSaved=   8.
 NSaved= 8 IEnMin= 8 EnMin= -2788.55740926526     IErMin= 8 ErrMin= 6.47D-03
 ErrMax= 6.47D-03  0.00D+00 EMaxC= 1.00D-01 BMatC= 3.61D-01 BMatP= 6.21D-01
 IDIUse=3 WtCom= 9.35D-01 WtEn= 6.47D-02
 Coeff-Com: -0.719D-01 0.135D+00-0.274D-02 0.426D-02-0.186D+00 0.334D-01
 Coeff-Com:  0.656D+00 0.432D+00
 Coeff-En:   0.000D+00 0.000D+00 0.000D+00 0.000D+00 0.000D+00 0.000D+00
 Coeff-En:   0.381D+00 0.619D+00
 Coeff:     -0.673D-01 0.126D+00-0.256D-02 0.398D-02-0.174D+00 0.313D-01
 Coeff:      0.638D+00 0.444D+00
 Gap=     0.202 Goal=   None    Shift=    0.000
 Gap=     0.024 Goal=   None    Shift=    0.000
 RMSDP=1.20D-03 MaxDP=4.43D-02 DE=-6.23D-02 OVMax= 2.92D-01

 Cycle   9  Pass 1  IDiag  1:
 RMSU=  9.59D-04    CP:  8.83D-01 -2.00D-02  8.67D-02  1.57D-01  7.87D-01
                    CP:  3.88D-01  8.34D-01  7.29D-01
 E= -2788.64813288286     Delta-E=       -0.090723617596 Rises=F Damp=F
 DIIS: error= 2.56D-03 at cycle   9 NSaved=   9.
 NSaved= 9 IEnMin= 9 EnMin= -2788.64813288286     IErMin= 9 ErrMin= 2.56D-03
 ErrMax= 2.56D-03  0.00D+00 EMaxC= 1.00D-01 BMatC= 5.29D-02 BMatP= 3.61D-01
 IDIUse=3 WtCom= 9.74D-01 WtEn= 2.56D-02
 Coeff-Com: -0.612D-01 0.110D+00 0.241D-02 0.584D-02-0.122D+00-0.592D-02
 Coeff-Com:  0.356D+00 0.218D+00 0.497D+00
 Coeff-En:   0.000D+00 0.000D+00 0.000D+00 0.000D+00 0.000D+00 0.000D+00
 Coeff-En:   0.000D+00 0.000D+00 0.100D+01
 Coeff:     -0.597D-01 0.107D+00 0.234D-02 0.569D-02-0.119D+00-0.576D-02
 Coeff:      0.347D+00 0.212D+00 0.510D+00
 Gap=     0.199 Goal=   None    Shift=    0.000
 Gap=     0.033 Goal=   None    Shift=    0.000
 RMSDP=4.86D-04 MaxDP=2.52D-02 DE=-9.07D-02 OVMax= 6.92D-02

 Cycle  10  Pass 1  IDiag  1:
 RMSU=  4.40D-04    CP:  8.83D-01 -1.47D-02  8.95D-02  1.61D-01  7.96D-01
                    CP:  3.74D-01  7.92D-01  7.64D-01  8.68D-01
 E= -2788.65510440478     Delta-E=       -0.006971521921 Rises=F Damp=F
 DIIS: error= 4.06D-03 at cycle  10 NSaved=  10.
 NSaved=10 IEnMin=10 EnMin= -2788.65510440478     IErMin= 9 ErrMin= 2.56D-03
 ErrMax= 4.06D-03  0.00D+00 EMaxC= 1.00D-01 BMatC= 4.29D-02 BMatP= 5.29D-02
 IDIUse=3 WtCom= 9.74D-01 WtEn= 2.56D-02
 Coeff-Com: -0.491D-01 0.873D-01 0.157D-02 0.405D-02-0.707D-01-0.142D-01
 Coeff-Com:  0.107D+00-0.117D-01 0.338D+00 0.608D+00
 Coeff-En:   0.000D+00 0.000D+00 0.000D+00 0.000D+00 0.000D+00 0.000D+00
 Coeff-En:   0.000D+00 0.000D+00 0.118D+00 0.882D+00
 Coeff:     -0.478D-01 0.851D-01 0.153D-02 0.394D-02-0.689D-01-0.138D-01
 Coeff:      0.104D+00-0.114D-01 0.332D+00 0.615D+00
 Gap=     0.189 Goal=   None    Shift=    0.000
 Gap=     0.040 Goal=   None    Shift=    0.000
 RMSDP=3.36D-04 MaxDP=1.59D-02 DE=-6.97D-03 OVMax= 7.30D-02

 Cycle  11  Pass 1  IDiag  1:
 RMSU=  2.03D-04    CP:  8.83D-01 -1.17D-02  9.08D-02  1.64D-01  8.02D-01
                    CP:  3.52D-01  7.80D-01  7.11D-01  1.06D+00  1.25D+00
 E= -2788.66116407558     Delta-E=       -0.006059670799 Rises=F Damp=F
 DIIS: error= 4.20D-03 at cycle  11 NSaved=  11.
 NSaved=11 IEnMin=11 EnMin= -2788.66116407558     IErMin= 9 ErrMin= 2.56D-03
 ErrMax= 4.20D-03  0.00D+00 EMaxC= 1.00D-01 BMatC= 3.04D-02 BMatP= 4.29D-02
 IDIUse=3 WtCom= 9.74D-01 WtEn= 2.56D-02
 Coeff-Com: -0.283D-01 0.530D-01 0.145D-03 0.239D-02-0.699D-01-0.102D-01
 Coeff-Com:  0.500D-01-0.391D-01 0.108D+00 0.224D+00 0.710D+00
 Coeff-En:   0.000D+00 0.000D+00 0.000D+00 0.000D+00 0.000D+00 0.000D+00
 Coeff-En:   0.000D+00 0.000D+00 0.000D+00 0.000D+00 0.100D+01
 Coeff:     -0.276D-01 0.516D-01 0.141D-03 0.233D-02-0.681D-01-0.998D-02
 Coeff:      0.487D-01-0.381D-01 0.105D+00 0.219D+00 0.718D+00
 Gap=     0.182 Goal=   None    Shift=    0.000
 Gap=     0.046 Goal=   None    Shift=    0.000
 RMSDP=1.63D-04 MaxDP=1.12D-02 DE=-6.06D-03 OVMax= 4.96D-02

 Cycle  12  Pass 1  IDiag  1:
 RMSU=  1.24D-04    CP:  8.83D-01 -1.06D-02  9.01D-02  1.65D-01  7.99D-01
                    CP:  3.48D-01  7.81D-01  7.07D-01  1.11D+00  1.45D+00
                    CP:  1.11D+00
 E= -2788.66521049583     Delta-E=       -0.004046420250 Rises=F Damp=F
 DIIS: error= 2.46D-03 at cycle  12 NSaved=  12.
 NSaved=12 IEnMin=12 EnMin= -2788.66521049583     IErMin=12 ErrMin= 2.46D-03
 ErrMax= 2.46D-03  0.00D+00 EMaxC= 1.00D-01 BMatC= 1.12D-02 BMatP= 3.04D-02
 IDIUse=3 WtCom= 9.75D-01 WtEn= 2.46D-02
 Coeff-Com: -0.780D-02 0.153D-01 0.134D-02-0.128D-03-0.419D-01 0.141D-02
 Coeff-Com:  0.536D-01 0.683D-01 0.487D-01-0.459D+00-0.113D+00 0.143D+01
 Coeff-En:   0.000D+00 0.000D+00 0.000D+00 0.000D+00 0.000D+00 0.000D+00
 Coeff-En:   0.000D+00 0.000D+00 0.000D+00 0.000D+00 0.000D+00 0.100D+01
 Coeff:     -0.761D-02 0.149D-01 0.131D-02-0.125D-03-0.409D-01 0.138D-02
 Coeff:      0.523D-01 0.666D-01 0.475D-01-0.448D+00-0.110D+00 0.142D+01
 Gap=     0.181 Goal=   None    Shift=    0.000
 Gap=     0.048 Goal=   None    Shift=    0.000
 RMSDP=2.03D-04 MaxDP=1.90D-02 DE=-4.05D-03 OVMax= 6.79D-02

 Cycle  13  Pass 1  IDiag  1:
 RMSU=  1.30D-04    CP:  8.84D-01 -9.68D-03  8.89D-02  1.65D-01  7.90D-01
                    CP:  3.54D-01  7.88D-01  7.08D-01  1.13D+00  1.56D+00
                    CP:  1.56D+00  1.72D+00
 E= -2788.66727922957     Delta-E=       -0.002068733746 Rises=F Damp=F
 DIIS: error= 5.03D-04 at cycle  13 NSaved=  13.
 NSaved=13 IEnMin=13 EnMin= -2788.66727922957     IErMin=13 ErrMin= 5.03D-04
 ErrMax= 5.03D-04  0.00D+00 EMaxC= 1.00D-01 BMatC= 2.15D-03 BMatP= 1.12D-02
 IDIUse=3 WtCom= 9.95D-01 WtEn= 5.03D-03
 Coeff-Com: -0.313D-02 0.517D-02 0.120D-02-0.434D-03-0.815D-02 0.406D-02
 Coeff-Com:  0.163D-01 0.336D-01 0.128D-01-0.308D+00-0.232D+00 0.944D+00
 Coeff-Com:  0.534D+00
 Coeff-En:   0.000D+00 0.000D+00 0.000D+00 0.000D+00 0.000D+00 0.000D+00
 Coeff-En:   0.000D+00 0.000D+00 0.000D+00 0.000D+00 0.000D+00 0.000D+00
 Coeff-En:   0.100D+01
 Coeff:     -0.312D-02 0.515D-02 0.119D-02-0.431D-03-0.811D-02 0.403D-02
 Coeff:      0.163D-01 0.335D-01 0.128D-01-0.306D+00-0.231D+00 0.940D+00
 Coeff:      0.536D+00
 Gap=     0.179 Goal=   None    Shift=    0.000
 Gap=     0.048 Goal=   None    Shift=    0.000
 RMSDP=1.11D-04 MaxDP=6.69D-03 DE=-2.07D-03 OVMax= 2.41D-02

 Cycle  14  Pass 1  IDiag  1:
 RMSU=  6.28D-05    CP:  8.84D-01 -8.51D-03  8.94D-02  1.65D-01  7.91D-01
                    CP:  3.52D-01  7.79D-01  6.95D-01  1.15D+00  1.68D+00
                    CP:  1.74D+00  2.07D+00  7.97D-01
 E= -2788.66788441453     Delta-E=       -0.000605184960 Rises=F Damp=F
 DIIS: error= 4.14D-04 at cycle  14 NSaved=  14.
 NSaved=14 IEnMin=14 EnMin= -2788.66788441453     IErMin=14 ErrMin= 4.14D-04
 ErrMax= 4.14D-04  0.00D+00 EMaxC= 1.00D-01 BMatC= 4.28D-04 BMatP= 2.15D-03
 IDIUse=3 WtCom= 9.96D-01 WtEn= 4.14D-03
 Coeff-Com: -0.114D-02 0.166D-02 0.399D-03-0.120D-03 0.108D-02 0.278D-02
 Coeff-Com: -0.181D-02 0.350D-02-0.217D-01-0.127D+00-0.228D-01 0.349D+00
[...]
 1281,0.00000406,-0.00000182,0.00000293,0.00000154,0.00000467,0.0000011
 0,0.00000193,0.00000079,0.00000074,0.00000918,-0.00000748,-0.00000289,
 0.00000500,0.00000556,-0.00000002,0.,0.00000039,-0.00000041,-0.0000004
 0,-0.00000016,-0.00000110,-0.00000138,0.00000006,-0.00000149,0.0000002
 5,0.00000135,-0.00000295,0.00000229,-0.00000051,-0.00012576,0.00005767
 ,-0.00000472,0.00015613,-0.00010475,-0.00006885,-0.00006636,-0.0000702
 3,0.00005710,0.00000618,-0.00003963,-0.00000408,-0.00013497,-0.0004679
 9,0.00039594,0.11901838,0.26675156,-0.00000713,0.00003990,-0.00004810,
 0.00007213,-0.00010189,-0.00007703,-0.00000128,0.00001303,0.00000835,-
 0.00008952,-0.00000217,-0.00000087,0.00002714,0.00000480,0.00002210,0.
 00000851,-0.00001072,-0.00000158,0.00000774,-0.00000054,-0.00000409,-0
 .00000230,-0.00000150,-0.00000301,0.00000054,0.00000207,0.00000651,-0.
 00000561,-0.00000010,-0.00000152,0.00000252,0.00000015,-0.00000213,-0.
 00000198,0.00000018,0.00000132,0.00000097,-0.00000081,0.00000026,-0.00
 000185,-0.00000486,-0.00000250,0.00002775,0.00000179,0.00000244,-0.000
 44637,0.00030587,0.00017327,-0.00003783,-0.00021546,-0.00010525,-0.000
 56958,-0.00006966,-0.00139595,0.00061024,-0.00078792,-0.00079162,0.000
 32814,0.00058149,-0.00054966,0.00016479,0.00006583,0.00037503,0.000344
 63,-0.00026884,-0.00070381,-0.00105721,0.00085985,0.00039530,-0.003385
 91,-0.01050622,-0.00069228,-0.00128043,0.00097002,-0.04500013,-0.00964
 450,-0.01762500,-0.00049326,-0.00202695,-0.00092895,-0.00135645,-0.000
 01244,0.00000654,-0.00000387,0.00001641,-0.00000205,0.00002168,-0.0000
 1112,-0.00004328,0.00002648,0.00000275,-0.00000458,0.00000383,0.000006
 28,-0.00000217,0.00000388,-0.00000117,-0.00000208,0.00000001,-0.000000
 46,-0.00000197,-0.00000081,0.00000347,-0.00000130,0.00000188,0.0000008
 9,-0.00000183,0.00000117,-0.00000036,-0.00000136,-0.00000028,-0.000000
 25,-0.00000078,0.00000014,-0.00000072,-0.00000041,0.00000002,-0.000000
 15,0.00000005,0.00000006,0.00000040,-0.00000087,0.00000055,0.00008522,
 -0.00023328,-0.00021857,0.00000688,-0.00012513,-0.00002218,-0.00006925
 ,-0.00007655,0.00004094,0.00000877,0.00000235,-0.00000249,-0.00020804,
 -0.00002818,0.00009432,0.00304544,0.00267989,0.04676882,-0.00000800,0.
 00000100,-0.00005011,-0.00000040,0.00001619,-0.00001000,-0.00002362,0.
 00001229,0.00000110,-0.00007974,0.00001386,-0.00002891,0.00007217,-0.0
 0003014,-0.00000905,0.00000552,-0.00002104,0.00000769,0.00000499,-0.00
 000289,0.00000257,0.00000827,0.00000185,-0.00001524,-0.00000413,0.0000
 0513,0.00001831,0.00000739,0.00000376,-0.00000653,-0.00000994,-0.00000
 161,0.00000298,-0.00000119,0.00000281,0.00000012,-0.00000164,0.0000035
 2,0.00000053,0.00000951,-0.00002735,-0.00001472,0.00005440,0.00005524,
 0.00002568,0.00022755,-0.00077923,-0.00064464,-0.00006216,-0.00068203,
 0.00008119,-0.00313861,0.00074768,-0.00177673,-0.00177672,0.00151521,0
 .00037073,0.00052265,0.00036313,0.00015081,-0.00009499,0.00016896,0.00
 016590,0.00041374,0.00019947,-0.00015889,0.00099497,0.00007491,0.00030
 241,-0.00523103,-0.00403485,0.01575167,-0.08191681,-0.01403065,0.08970
 531,0.00909329,0.00373038,-0.02419261,0.00219823,0.00073661,0.00093778
 ,-0.00008434,-0.00001187,-0.00000808,0.00001354,0.00001736,0.00003860,
 0.00002010,-0.00005822,0.00002597,0.00001304,0.00000863,0.00001172,-0.
 00000032,0.00000637,-0.00001609,-0.00000339,-0.00000126,0.00000542,0.0
 0000017,0.00000269,0.00000258,-0.00000423,-0.00002210,0.00001310,0.000
 00404,-0.00000889,-0.00001065,-0.00000044,-0.00000015,-0.00000120,0.00
 000111,-0.00000081,-0.00000097,-0.00000083,-0.00000101,-0.00000267,-0.
 00000052,0.00000030,0.00000072,0.00000107,0.00000120,0.00000371,0.0001
 7921,-0.00054106,-0.00040008,-0.00001785,0.00014659,0.00003220,-0.0000
 0786,-0.00005062,-0.00000709,-0.00000745,-0.00001820,0.00000477,-0.000
 48811,-0.00005118,-0.00014158,-0.00429324,-0.00200062,0.01399160,0.084
 87359,-0.00006433,0.00009103,-0.00008392,-0.00000416,0.00000639,0.0001
 1068,-0.00000362,0.00005338,-0.00000910,0.00001226,-0.00013911,-0.0000
 3312,-0.00002659,0.00007371,0.00009275,0.00000543,-0.00002679,-0.00001
 225,-0.00002792,-0.00001776,-0.00002223,0.00000547,0.00000313,0.000016
 51,0.00000997,-0.00000789,-0.00001800,0.00001398,-0.00000060,0.0000052
 6,-0.00000118,-0.00000139,-0.00002023,0.00000340,0.00000646,0.00004971
 ,-0.00000006,0.00000209,-0.00000476,0.00000439,-0.00003460,-0.00000649
 ,0.00000942,0.00008957,0.00000144,0.00001195,-0.00065498,-0.00114681,-
 0.00020203,0.00019013,0.00032736,0.00032172,-0.00059613,-0.00132200,0.
 00185004,-0.00221958,-0.00102019,-0.00073712,-0.00100754,-0.00040983,-
 0.00000890,0.00005059,-0.00012059,-0.00059365,-0.00050131,0.00012646,-
 0.00108238,0.00105177,0.00011218,0.00857166,0.00391915,-0.02439450,-0.
 01347401,-0.05073304,0.04445790,-0.00237355,-0.00241456,0.00050044,0.0
 0033031,0.00129961,-0.00039998,-0.00000689,0.00001728,0.00003092,0.000
 03667,-0.00000824,0.00003473,-0.00001134,-0.00007247,0.00004928,0.0000
 0879,-0.00000679,0.00000784,-0.00001024,0.00000410,0.00000049,0.000006
 86,-0.00000497,0.00000928,-0.00000255,-0.00000539,-0.00000207,0.000006
 14,0.00000155,-0.00001104,-0.00000521,0.00000689,0.00000487,0.00000073
 ,-0.00000081,0.00000012,-0.00000075,-0.00000115,-0.00000106,-0.0000032
 0,-0.00000346,0.00000011,-0.00000277,0.00000050,0.00000164,-0.00000508
 ,0.00000208,-0.00000013,-0.00018481,-0.00007511,-0.00011108,0.00006043
 ,-0.00019936,-0.00006852,0.00007405,0.00007185,-0.00002440,0.00002138,
 0.00003046,0.00000642,0.00039991,0.00031111,0.00011771,-0.00852006,-0.
 00286256,0.02550822,0.01466813,0.05419595,0.00000085,0.00002506,-0.000
 03597,-0.00003717,0.00007044,-0.00000672,-0.00001762,0.00001894,-0.000
 01719,-0.00003415,-0.00003574,-0.00004687,0.00003369,0.00000356,0.0000
 1601,-0.00000127,-0.00002038,0.00001884,-0.00006503,0.00000745,0.00000
 396,0.00003327,0.00006502,0.00002670,0.00000701,0.00000736,-0.00004091
 ,0.00004335,0.00000612,0.00000569,-0.00001883,-0.00000547,0.00000034,-
 0.00000456,-0.00000225,0.00002799,-0.00000179,0.00000407,-0.00000061,0
 .00000442,-0.00002094,-0.00000577,0.00003412,0.00006073,0.00001046,0.0
 0025606,-0.00160260,-0.00103583,-0.00045875,0.00015833,0.00041282,-0.0
 0099991,0.00102293,-0.00128980,0.00045228,-0.00016137,-0.00037999,-0.0
 0034749,-0.00003618,-0.00010757,0.00026363,0.00024258,0.00052213,0.000
 08571,-0.00089301,-0.00037959,-0.00114051,0.00079424,0.00031717,0.0018
 4698,-0.00230888,-0.00372966,0.08657281,0.04216941,-0.27592775,0.00512
 084,0.00221707,-0.01636857,0.00289574,0.00140570,0.00259347,-0.0000376
 0,-0.00000491,0.00001863,0.00001560,0.00000854,0.00002238,-0.00001420,
 -0.00004627,0.00005298,0.00000992,0.00000307,0.00000738,-0.00001085,0.
 00000666,-0.00000638,0.00000004,0.00000348,0.00001249,-0.00000112,-0.0
 0000211,0.00000036,0.00000705,-0.00001795,0.00000595,-0.00000106,-0.00
 000129,-0.00000320,0.00000106,-0.00000092,-0.00000017,-0.00000023,-0.0
 0000093,-0.00000152,-0.00000061,-0.00000176,-0.00000216,-0.00000053,0.
 ,0.,-0.00000135,0.00000144,0.00000177,0.00000997,-0.00052680,-0.000387
 37,0.00001040,-0.00003267,-0.00000366,0.00007330,0.00003455,-0.0000119
 9,0.00001123,0.00000082,-0.00001618,0.00031799,0.00008993,-0.00007015,
 -0.00053907,0.00017853,0.00226226,-0.09355791,-0.04234083,0.29432979,0
 .00010272,-0.00002782,-0.00021093,-0.00051598,-0.00035296,-0.00114655,
 -0.00009486,-0.00035302,0.00016761,-0.00040591,0.00026168,0.00002836,0
 .00012707,-0.00004277,0.00002915,0.00002387,0.00000457,-0.00000887,0.0
 0007404,0.00000832,0.00001903,-0.00003353,-0.00003998,-0.00005063,-0.0
 0000741,-0.00000046,0.00005907,-0.00003637,-0.00000290,-0.00001036,0.0
 0000458,0.00000368,0.00002149,-0.00000770,-0.00000130,-0.00006552,0.00
 000739,-0.00001239,0.00000633,-0.00002200,0.00005136,-0.00000539,0.000
 06229,-0.00020812,-0.00003768,-0.00328112,0.00102924,0.00685053,0.0007
 9118,-0.00004928,-0.00130313,0.00111617,0.00428838,-0.00283802,-0.0003
 7755,0.00048896,0.00006191,0.00006772,0.00021519,0.00013213,-0.0001684
 0,0.00014990,-0.00013330,-0.00018637,0.00022412,-0.00002405,-0.0005246
 6,0.00044561,0.00059419,-0.00162743,0.00019344,-0.00251005,-0.00419771
 ,0.01622092,-0.00616357,-0.06736948,0.08560688,-0.02546554,-0.00377161
 ,-0.03888844,0.01036643,0.00004560,-0.00001256,-0.00001899,-0.00001415
 ,-0.00001507,0.00002142,0.00000392,0.00003081,-0.00001034,-0.00001602,
 -0.00000552,-0.00001997,-0.00000785,-0.00000451,0.00003498,-0.00008575
 ,0.00007592,-0.00009750,-0.00000233,-0.00000435,-0.00000308,-0.0000102
 2,0.00000396,0.00000165,0.00000362,-0.00000553,-0.00000663,-0.00000013
 ,0.00000148,-0.00000042,0.00000104,0.00000036,0.00000146,0.00000262,0.
 00000357,0.00000260,0.00000318,-0.00000058,-0.00000362,0.00000685,-0.0
 0000629,0.00000057,0.00029551,-0.00006503,0.00001744,-0.00004962,-0.00
 001035,0.00002878,-0.00000937,0.00000300,0.00000194,-0.00001096,0.0000
 7497,0.00003225,0.00004891,-0.00001505,0.00000993,0.00043035,0.0008360
 6,0.00014051,-0.00111658,0.00070335,-0.00084333,0.08098114,0.00004379,
 0.00002707,-0.00006761,-0.00004162,-0.00017870,-0.00025049,-0.00001071
 ,-0.00006061,0.00004891,-0.00016825,0.00004009,-0.00001128,0.00004467,
 -0.00001883,-0.00000176,0.00000880,-0.00001058,-0.00000062,0.00004122,
 -0.00000421,-0.00000030,-0.00001934,-0.00003154,-0.00001016,0.00000150
 ,-0.00000032,0.00002822,-0.00002539,-0.00000229,-0.00000546,0.00001044
 ,0.00000492,0.00000037,-0.00000031,0.00000531,-0.00001399,0.00000180,-
 0.00000276,0.00000106,-0.00000382,-0.00000392,-0.00000420,0.00003467,-
 0.00002853,0.00000364,-0.00067845,-0.00007665,0.00177136,0.00032522,-0
 .00102460,-0.00012047,0.00403180,-0.00879228,0.00412357,-0.00005665,-0
 .00100943,-0.00134760,0.00037043,0.00004116,0.00025470,0.00000907,-0.0
 0004209,-0.00008171,-0.00002011,0.00002883,-0.00008317,-0.00027711,0.0
 0022925,0.00013586,-0.00029299,0.00003863,-0.00050702,-0.00088944,0.00
 477062,-0.00232932,0.07401119,-0.29398986,0.07366717,-0.00475414,-0.01
 082757,0.00313642,0.00002245,-0.00000344,-0.00000883,0.00000073,-0.000
 00767,0.00000211,0.00000312,0.00001256,-0.00000571,-0.00000908,-0.0000
 2140,-0.00001227,-0.00000469,0.00000140,0.00002377,-0.00001304,0.00002
 686,-0.00003077,-0.00000133,-0.00000002,0.00000054,0.00000179,0.000001
 55,0.00000382,0.00000149,-0.00000110,-0.00000061,0.00000018,-0.0000011
 0,-0.00000050,0.00000032,-0.00000203,0.00000015,-0.00000123,-0.0000006
 9,0.00000058,-0.00000040,0.00000033,-0.00000030,0.00000171,-0.00000149
 ,0.00000142,-0.00035010,0.00119868,0.00025077,-0.00001751,-0.00001547,
 0.00000262,0.00000185,-0.00002737,0.00003216,-0.00000521,0.00002868,0.
 00000870,0.00000397,-0.00002245,0.00002131,-0.00008359,0.00107772,-0.0
 0006086,-0.00017114,0.00014257,-0.00038119,-0.07090537,0.30844232,-0.0
 0007561,0.00004105,0.00006776,0.00019595,0.00015124,0.00055998,0.00010
 332,0.00013083,-0.00004635,0.00023560,-0.00007899,-0.00003746,-0.00008
 494,0.00010593,0.00004304,0.00002606,0.00000294,-0.00003679,0.00017930
 ,-0.00001278,-0.00003249,-0.00008338,-0.00017368,-0.00008442,-0.000005
 41,-0.00001559,0.00014303,-0.00013828,-0.00002193,-0.00002404,0.000068
 41,0.00002017,-0.00002397,0.00002737,0.00001626,-0.00002857,0.00000589
 ,-0.00000220,-0.00000457,0.00001729,-0.00002704,-0.00000844,-0.0000464
 1,0.00009886,0.00001742,0.00113107,-0.00231746,-0.00442276,-0.00049055
 ,-0.00290993,-0.00040148,0.00552965,-0.02106301,0.00915293,0.00011639,
 -0.00226980,-0.00247889,0.00083332,0.00000818,0.00063507,0.00006165,-0
 .00010664,-0.00023642,-0.00014786,0.00016937,-0.00014910,-0.00046664,0
 .00049621,0.00077591,-0.00145464,-0.00042200,-0.00294347,-0.00682690,0
 .01827234,-0.00265122,-0.02415472,0.07071563,-0.07284706,0.00378121,0.
 01672523,-0.00152050,-0.00000762,0.00001445,0.00002929,0.00000838,0.00
 000095,-0.00000035,-0.00000619,-0.00001463,-0.00000142,0.00000330,-0.0
 0003430,0.00000184,-0.00004115,0.00001452,0.00002452,0.00001981,-0.000
 00418,0.00003108,-0.00000277,0.00000589,0.00000568,0.00000139,0.000029
 58,0.00000686,0.00000209,0.00000058,0.00000120,-0.00000229,0.00000100,
 0.00000044,0.00000183,-0.00000128,0.00000252,-0.00000374,-0.00000115,0
 .00000301,-0.00000420,0.00000154,0.00000562,-0.00000111,0.00000564,0.0
 0000398,-0.00041420,0.00068301,0.00135958,-0.00008427,-0.00002101,0.00
 003194,0.00002053,-0.00007175,0.00007273,-0.00000183,0.00008553,0.0000
 3024,0.00004352,-0.00004307,0.00004314,0.00073327,-0.00029781,0.001279
 26,-0.00051967,0.00013483,-0.00070199,0.02231968,-0.07813652,0.0744204
 9,0.00025479,-0.00134521,0.00091325,-0.00038529,0.00060880,-0.00050901
 ,-0.00012721,-0.00016415,-0.00034596,-0.02311403,-0.00158863,0.0051923
 1,-0.03716189,-0.01796973,0.02455027,-0.00102590,-0.00631065,0.0033865
 2,0.00525861,0.00015805,-0.00015738,0.00060141,-0.00360376,-0.00104093
 ,-0.00106664,0.00067238,0.00349365,-0.00032193,0.00002539,0.00054171,-
 0.00290440,-0.00033168,0.00219749,-0.00251511,0.00040493,-0.00673670,-
 0.00008144,-0.00003740,-0.00006951,0.00009190,-0.00194634,-0.00024796,
 0.00501999,0.00477730,0.00146055,-0.00571558,0.01216849,0.00441914,-0.
 02312453,0.02447736,0.00411727,0.00593425,-0.00242173,-0.00206255,0.00
 072394,-0.01129886,-0.00309846,0.00512161,0.00471907,0.00315131,-0.006
 65762,0.00225149,-0.00449160,-0.00089152,0.00138868,0.00138472,-0.0009
 5017,0.00042097,0.00053197,0.00093145,-0.00141240,0.00141076,0.0007513
 5,-0.00004067,0.00002307,0.00135875,-0.00001257,-0.00037310,-0.0022126
 1,-0.00602547,-0.00163817,0.00015665,0.00003202,-0.00043034,-0.0000879
 3,0.00009590,0.00001543,0.00000332,0.00015248,0.00008055,-0.00005891,0
 .00012592,-0.00010037,0.00016043,-0.00010285,0.00004533,-0.00001057,0.
 00003272,0.00005494,-0.00014423,0.00057706,0.00009875,-0.00132850,0.00
 435410,-0.00110782,-0.00023541,-0.00003166,0.00042142,-0.00005081,-0.0
 0004827,-0.00012146,-0.00002122,-0.00014613,0.00017027,-0.00029153,-0.
 00002573,0.00001971,-0.00015850,0.00014445,0.00026958,0.00010839,0.000
 14230,0.00025061,-0.00090232,-0.00027889,0.00005024,-0.00337948,-0.002
 96253,0.00189652,0.00003977,0.00016054,-0.00002205,0.00013089,0.000222
 29,0.00006514,-0.00001299,0.00007161,-0.00013482,-0.00052889,0.0002159
 1,-0.00004131,-0.00034445,0.00021598,0.00002763,-0.00024869,-0.0001712
 1,-0.00040190,0.08941280,-0.00037469,-0.00190188,0.00039920,-0.0000176
 8,0.00152430,-0.00187397,-0.00080269,-0.00214818,0.00117014,-0.0079863
 5,0.00976230,-0.00095237,-0.01068900,-0.02557764,0.01159297,-0.0083108
 1,-0.00614538,0.00687496,-0.00653577,-0.01065350,0.00012484,0.00195640
 ,0.00001696,0.00266080,0.00117534,0.00000822,-0.00502358,0.00333394,0.
 00003219,0.00209600,-0.00200648,-0.00053092,0.00260785,-0.00173879,-0.
 00087033,-0.00355548,-0.00021299,0.00023420,0.00042574,-0.00066636,-0.
 00086780,0.00021321,0.00517305,-0.00089176,0.00112121,0.01683535,-0.00
 892171,-0.01463829,0.01584090,-0.05660835,0.00564295,0.00172550,-0.013
 08386,0.00338968,-0.00459369,-0.00588222,0.00122543,-0.00250182,-0.002
 19539,0.00209724,0.00026542,0.00070333,-0.00030638,0.00041667,0.000750
 63,0.00314680,0.00376455,-0.00351240,0.00038929,-0.00362326,0.00006544
 ,-0.00672089,0.00019520,-0.00007509,0.00005428,-0.00119900,-0.00166419
 ,0.00025982,-0.00073009,0.00718382,0.00631525,0.00035832,0.00000837,-0
 .00047923,-0.00025459,0.00013416,0.00041128,0.00008899,0.00032924,0.00
 009347,0.00029520,0.00026819,0.00008950,0.00044607,-0.00011267,0.00004
 820,-0.00060360,0.00042932,-0.00022747,-0.00001927,-0.00088163,-0.0003
 6345,0.00200086,-0.00492460,-0.00003988,-0.00023170,0.00027016,0.00028
 376,0.00020167,0.00001693,0.00003813,-0.00010474,0.00013263,0.00000322
 ,0.00010406,0.00003617,-0.00019539,0.00017661,0.00000226,-0.00011749,-
 0.00006567,-0.00002885,-0.00014389,-0.00018949,-0.00033621,-0.00013241
 ,-0.00149338,-0.00018142,0.00064169,0.00058485,-0.00019256,0.00005182,
 -0.00014578,0.00001788,0.00008321,0.00015144,-0.00006032,0.00001573,0.
 00019939,0.00002662,0.00006928,0.00004367,-0.00002574,-0.00016160,0.00
 010391,0.00009044,0.00011501,-0.00033968,0.12623079,0.00012482,0.00062
 561,-0.00015688,0.00008077,-0.00041010,0.00016880,0.00012359,0.0001695
 0,0.00048284,0.01053930,-0.00317936,-0.00118861,0.02628453,0.01624238,
 -0.02142017,-0.00163383,0.00468804,0.00068168,-0.00426511,-0.00120937,
 0.00178204,0.00246657,0.00619668,0.00335886,0.00053702,-0.00127395,-0.
 00527776,-0.00000082,0.00017499,-0.00153569,0.00136568,-0.00038270,-0.
 00137327,-0.00074762,-0.00019831,0.00155175,-0.00042603,0.00039963,0.0
 0034458,-0.00066943,0.00080407,0.00055716,-0.00681679,-0.00412554,-0.0
 0152537,0.00083484,-0.00838588,0.00011641,0.00357507,0.00405228,-0.005
 26825,0.00092110,0.00062617,0.00060796,0.00093480,0.00251208,0.0016154
 3,0.00113917,0.00226442,0.00122548,-0.00014019,-0.00072029,-0.00040858
 ,-0.00020068,-0.00020191,-0.00167250,-0.00018816,-0.00038028,-0.000336
 58,-0.00052241,-0.00016082,-0.00285643,0.00032025,-0.00005387,-0.00018
 565,-0.00005278,-0.00054567,0.00009654,0.00135252,-0.00137001,-0.00233
 820,-0.00012341,0.00002002,0.00017138,0.00000758,-0.00004470,-0.000117
 87,-0.00003404,-0.00006173,-0.00024216,-0.00009512,-0.00000968,-0.0001
 2318,-0.00012789,0.00005337,-0.00012097,0.00003904,-0.00001617,-0.0000
 8420,0.00036278,0.00005495,-0.00031890,-0.00134279,0.00041196,-0.00076
 914,0.00014742,-0.00004329,-0.00000992,-0.00004784,0.00030484,-0.00001
 480,0.00002218,-0.00010699,-0.00007276,0.00016799,-0.00013376,-0.00020
 831,0.00026324,-0.00012241,-0.00035834,-0.00023896,-0.00014144,-0.0003
 0454,0.00026586,0.00060542,-0.00010716,0.00295807,0.00221532,-0.003547
 10,0.00004405,-0.00013442,0.00017474,0.00010385,0.00009122,-0.00019558
 ,-0.00009904,-0.00015136,0.00011579,-0.00004681,0.00004177,-0.00001244
 ,-0.00008171,-0.00012403,-0.00009200,0.00002802,-0.00004651,-0.0000668
 1,-0.03710868,-0.01882018,0.03925867\\0.00000293,0.00000086,0.00000169
 ,0.00002273,-0.00000561,-0.00001109,0.00001220,-0.00000132,0.00000497,
 -0.00001511,0.00001009,-0.00000202,0.00001820,0.00002784,-0.00000153,-
 0.00002252,-0.00006567,-0.00003938,0.00003377,0.00001054,0.00004090,-0
 .00004634,0.00000005,0.00002336,0.00000816,-0.00001379,-0.00003132,0.0
 0002292,0.00000795,0.00000281,-0.00002395,-0.00000296,0.00001963,-0.00
 002523,0.00000507,-0.00003243,0.00003540,-0.00000682,0.00001062,-0.000
 00326,0.00004053,0.00001511,0.00000672,-0.00002845,-0.00000608,-0.0000
 2230,-0.00001782,-0.00000640,0.00002021,-0.00005887,0.00003295,0.00002
 116,0.00003780,0.00000022,0.00000477,0.00000016,-0.00002760,-0.0000105
 9,0.00000944,-0.00000343,0.00001747,-0.00000325,0.00000989,0.00000534,
 -0.00001503,-0.00001231,-0.00001785,0.00002021,0.00000003,0.,0.0000064
 3,0.00003522,0.00001880,-0.00000962,-0.00002863,-0.00004259,-0.0000305
 7,0.00000406,0.00002350,0.00003411,-0.00000927,-0.00000160,0.00000165,
 0.00000169,-0.00000031,0.00000044,0.00000277,0.00000153,-0.00000235,-0
 .00000114,0.00000057,0.00000054,-0.00000079,-0.00000419,0.00000119,-0.
 00000140,-0.00000372,0.00000075,0.00000113,0.00000985,0.00001112,0.000
 00200,0.00000276,0.00000100,0.00000063,-0.00000431,0.00000370,0.000001
 21,-0.00000461,-0.00000174,0.00000025,0.00000479,-0.00000159,-0.000002
 05,-0.00000857,0.00000436,0.00000212,-0.00000714,0.00000216,-0.0000113
 7,-0.00000045,-0.00000308,-0.00000159,-0.00000490,-0.00000964,-0.00000
 301,0.00000075,0.00000203,-0.00000108,-0.00000391,0.00000049,0.0000019
 3,-0.00000050,0.00000256,-0.00000011,0.00000476,-0.00000261,-0.0000025
 3,0.00000210,-0.00000022,0.00001424,-0.00000322,-0.00000257,0.00000511
 ,0.00000808,0.00000354,0.00000424,-0.00003230,0.00003700,-0.00000220\\
 \@
 The archive entry for this job was punched.


 THERE IS MORE TO LIFE THAN INCREASING ITS SPEED.

                                       -- GANDHI
 Job cpu time:       0 days  9 hours 19 minutes 29.4 seconds.
 Elapsed time:       0 days  0 hours 17 minutes 36.3 seconds.
 File lengths (MBytes):  RWF=   2476 Int=      0 D2E=      0 Chk=     26 Scr=      2
 Normal termination of Gaussian 16 at Thu Mar  7 23:38:21 2024.
