 Entering Gaussian System, Link 0=g16
 Initial command:
 /public/software/apps/Gaussian/g16/l1.exe "/public/home/LJQ_HG/tmp/Gau-73367.inp" -scrdir="/public/home/LJQ_HG/tmp/"
 Entering Link 1 = /public/software/apps/Gaussian/g16/l1.exe PID=     73368.
  
 Copyright (c) 1988-2019, Gaussian, Inc.  All Rights Reserved.
  
 This is part of the Gaussian(R) 16 program.  It is based on
 the Gaussian(R) 09 system (copyright 2009, Gaussian, Inc.),
 the Gaussian(R) 03 system (copyright 2003, Gaussian, Inc.),
 the Gaussian(R) 98 system (copyright 1998, Gaussian, Inc.),
 the Gaussian(R) 94 system (copyright 1995, Gaussian, Inc.),
 the Gaussian 92(TM) system (copyright 1992, Gaussian, Inc.),
 the Gaussian 90(TM) system (copyright 1990, Gaussian, Inc.),
 the Gaussian 88(TM) system (copyright 1988, Gaussian, Inc.),
 the Gaussian 86(TM) system (copyright 1986, Carnegie Mellon
 University), and the Gaussian 82(TM) system (copyright 1983,
 Carnegie Mellon University). Gaussian is a federally registered
 trademark of Gaussian, Inc.
  
 This software contains proprietary and confidential information,
 including trade secrets, belonging to Gaussian, Inc.
  
 This software is provided under written license and may be
 used, copied, transmitted, or stored only in accord with that
 written license.
  
 The following legend is applicable only to US Government
 contracts under FAR:
  
                    RESTRICTED RIGHTS LEGEND
  
 Use, reproduction and disclosure by the US Government is
 subject to restrictions as set forth in subparagraphs (a)
 and (c) of the Commercial Computer Software - Restricted
 Rights clause in FAR 52.227-19.
  
 Gaussian, Inc.
 340 Quinnipiac St., Bldg. 40, Wallingford CT 06492
  
  
 ---------------------------------------------------------------
 Warning -- This program may not be used in any manner that
 competes with the business of Gaussian, Inc. or will provide
 assistance to any competitor of Gaussian, Inc.  The licensee
 of this program is prohibited from giving any competitor of
 Gaussian, Inc. access to this program.  By using this program,
 the user acknowledges that Gaussian, Inc. is engaged in the
 business of creating and licensing software in the field of
 computational chemistry and represents and warrants to the
 licensee that it is not a competitor of Gaussian, Inc. and that
 it will not use this program in any manner prohibited above.
 ---------------------------------------------------------------
  

 Cite this work as:
 Gaussian 16, Revision C.01,
 M. J. Frisch, G. W. Trucks, H. B. Schlegel, G. E. Scuseria, 
 M. A. Robb, J. R. Cheeseman, G. Scalmani, V. Barone, 
 G. A. Petersson, H. Nakatsuji, X. Li, M. Caricato, A. V. Marenich, 
 J. Bloino, B. G. Janesko, R. Gomperts, B. Mennucci, H. P. Hratchian, 
 J. V. Ortiz, A. F. Izmaylov, J. L. Sonnenberg, D. Williams-Young, 
 F. Ding, F. Lipparini, F. Egidi, J. Goings, B. Peng, A. Petrone, 
 T. Henderson, D. Ranasinghe, V. G. Zakrzewski, J. Gao, N. Rega, 
 G. Zheng, W. Liang, M. Hada, M. Ehara, K. Toyota, R. Fukuda, 
 J. Hasegawa, M. Ishida, T. Nakajima, Y. Honda, O. Kitao, H. Nakai, 
 T. Vreven, K. Throssell, J. A. Montgomery, Jr., J. E. Peralta, 
 F. Ogliaro, M. J. Bearpark, J. J. Heyd, E. N. Brothers, K. N. Kudin, 
 V. N. Staroverov, T. A. Keith, R. Kobayashi, J. Normand, 
 K. Raghavachari, A. P. Rendell, J. C. Burant, S. S. Iyengar, 
 J. Tomasi, M. Cossi, J. M. Millam, M. Klene, C. Adamo, R. Cammi, 
 J. W. Ochterski, R. L. Martin, K. Morokuma, O. Farkas, 
 J. B. Foresman, and D. J. Fox, Gaussian, Inc., Wallingford CT, 2019.
 
 ******************************************
 Gaussian 16:  ES64L-G16RevC.01  3-Jul-2019
                 8-Mar-2024 
 ******************************************
 %nprocshared=32
 Will use up to   32 processors via shared memory.
 %mem=100GB
 ------------------------------------------
 #p opt freq b3lyp/def2svpp em=gd3bj nosymm
 ------------------------------------------
 1/18=20,19=15,26=3,38=1/1,3;
 2/9=110,12=2,15=1,17=6,18=5,40=1/2;
 3/5=43,7=202,11=2,25=1,30=1,71=1,74=-5,124=41/1,2,3;
 4//1;
 5/5=2,38=5/2;
 6/7=2,8=2,9=2,10=2,28=1/1;
 7/30=1/1,2,3,16;
 1/18=20,19=15,26=3/3(2);
 2/9=110,15=1/2;
 99//99;
 2/9=110,15=1/2;
 3/5=43,7=202,11=2,25=1,30=1,71=1,74=-5,124=41/1,2,3;
 4/5=5,16=3,69=1/1;
 5/5=2,38=5/2;
 7/30=1/1,2,3,16;
 1/18=20,19=15,26=3/3(-5);
 2/9=110,15=1/2;
 6/7=2,8=2,9=2,10=2,19=2,28=1/1;
 99/9=1/99;
 Leave Link    1 at Fri Mar  8 00:39:29 2024, MaxMem= 13421772800 cpu:               0.7 elap:               0.0
 (Enter /public/software/apps/Gaussian/g16/l101.exe)
 ------------------
 $$$$Title####2????
 ------------------
 Symbolic Z-matrix:
 Charge =  2 Multiplicity = 2
 C                    -3.15179   2.46748  -0.42481 
 C                    -2.73077   3.3173    0.60126 
 C                    -1.37219   3.4162    0.91838 
 C                    -0.42119   2.66328   0.20855 
 C                     1.03854   2.7156    0.6023 
 C                     1.95433   3.26971  -0.51162 
 O                     2.86802   2.21033  -0.74521 
 C                     2.53573   1.14378   0.06548 
 C                     3.15035  -0.21377  -0.00633 
 C                     2.17959  -1.34577   0.03891 
 N                     1.05104  -1.26389  -0.5697 
 C                     0.24422  -2.42936  -0.24482 
 C                    -1.07149  -1.9821    0.35306 
 C                    -2.28563  -2.42736  -0.19719 
 C                    -3.50333  -1.9619    0.3094 
 C                    -3.52035  -1.04934   1.36733 
 C                    -2.31984  -0.60636   1.92707 
 C                    -1.10045  -1.07222   1.42765 
 C                     1.12038  -3.23805   0.73746 
 O                     2.3158   -2.47873   0.81545 
 C                     4.50322  -0.39681   0.65947 
 C                     4.39025  -0.3996   -0.86375 
 N                     1.5283    1.3656    0.83139 
 C                    -0.8552    1.81967  -0.83232 
 C                    -2.21446   1.72072  -1.14212 
 H                    -4.20436   2.38712  -0.66345 
 H                    -3.45851   3.89484   1.15646 
 H                    -1.06558   4.0694    1.72576 
 H                     1.18187   3.30893   1.53261 
 H                     1.40175   3.50203  -1.44765 
 H                     2.5039    4.17052  -0.16424 
 H                     0.08229  -3.02033  -1.17357 
 H                    -2.29139  -3.12369  -1.02642 
 H                    -4.43453  -2.30373  -0.12351 
 H                    -4.46375  -0.68498   1.75276 
 H                    -2.33354   0.10299   2.74443 
 H                    -0.17909  -0.71279   1.86793 
 H                     0.6654   -3.32661   1.74772 
 H                     1.34264  -4.24884   0.33364 
 H                     4.96968   0.5263    1.06588 
 H                     4.7114   -1.40068   1.08679 
 H                     4.80492   0.51566  -1.33709 
 H                     4.5187   -1.40735  -1.31412 
 H                    -0.14276   1.22806  -1.393 
 H                    -2.54145   1.06017  -1.93469 
 Cu                    0.0403    0.20813   0.26126 
 
 ITRead=  0  0  0  0  0  0  0  0  0  0  0  0  0  0  0  0  0  0  0  0
 ITRead=  0  0  0  0  0  0  0  0  0  0  0  0  0  0  0  0  0  0  0  0
 ITRead=  0  0  0  0  0  0
 MicOpt= -1 -1 -1 -1 -1 -1 -1 -1 -1 -1 -1 -1 -1 -1 -1 -1 -1 -1 -1 -1
 MicOpt= -1 -1 -1 -1 -1 -1 -1 -1 -1 -1 -1 -1 -1 -1 -1 -1 -1 -1 -1 -1
 MicOpt= -1 -1 -1 -1 -1 -1
 NAtoms=     46 NQM=       46 NQMF=       0 NMMI=      0 NMMIF=      0
                NMic=       0 NMicF=      0.
                    Isotopes and Nuclear Properties:
 (Nuclear quadrupole moments (NQMom) in fm**2, nuclear magnetic moments (NMagM)
  in nuclear magnetons)

  Atom         1           2           3           4           5           6           7           8           9          10
 IAtWgt=          12          12          12          12          12          12          16          12          12          12
 AtmWgt=  12.0000000  12.0000000  12.0000000  12.0000000  12.0000000  12.0000000  15.9949146  12.0000000  12.0000000  12.0000000
 NucSpn=           0           0           0           0           0           0           0           0           0           0
 AtZEff=  -0.0000000  -0.0000000  -0.0000000  -0.0000000  -0.0000000  -0.0000000  -0.0000000  -0.0000000  -0.0000000  -0.0000000
 NQMom=    0.0000000   0.0000000   0.0000000   0.0000000   0.0000000   0.0000000   0.0000000   0.0000000   0.0000000   0.0000000
 NMagM=    0.0000000   0.0000000   0.0000000   0.0000000   0.0000000   0.0000000   0.0000000   0.0000000   0.0000000   0.0000000
 AtZNuc=   6.0000000   6.0000000   6.0000000   6.0000000   6.0000000   6.0000000   8.0000000   6.0000000   6.0000000   6.0000000

  Atom        11          12          13          14          15          16          17          18          19          20
 IAtWgt=          14          12          12          12          12          12          12          12          12          16
 AtmWgt=  14.0030740  12.0000000  12.0000000  12.0000000  12.0000000  12.0000000  12.0000000  12.0000000  12.0000000  15.9949146
 NucSpn=           2           0           0           0           0           0           0           0           0           0
 AtZEff=  -0.0000000  -0.0000000  -0.0000000  -0.0000000  -0.0000000  -0.0000000  -0.0000000  -0.0000000  -0.0000000  -0.0000000
 NQMom=    2.0440000   0.0000000   0.0000000   0.0000000   0.0000000   0.0000000   0.0000000   0.0000000   0.0000000   0.0000000
 NMagM=    0.4037610   0.0000000   0.0000000   0.0000000   0.0000000   0.0000000   0.0000000   0.0000000   0.0000000   0.0000000
 AtZNuc=   7.0000000   6.0000000   6.0000000   6.0000000   6.0000000   6.0000000   6.0000000   6.0000000   6.0000000   8.0000000

  Atom        21          22          23          24          25          26          27          28          29          30
 IAtWgt=          12          12          14          12          12           1           1           1           1           1
 AtmWgt=  12.0000000  12.0000000  14.0030740  12.0000000  12.0000000   1.0078250   1.0078250   1.0078250   1.0078250   1.0078250
 NucSpn=           0           0           2           0           0           1           1           1           1           1
 AtZEff=  -0.0000000  -0.0000000  -0.0000000  -0.0000000  -0.0000000  -0.0000000  -0.0000000  -0.0000000  -0.0000000  -0.0000000
 NQMom=    0.0000000   0.0000000   2.0440000   0.0000000   0.0000000   0.0000000   0.0000000   0.0000000   0.0000000   0.0000000
 NMagM=    0.0000000   0.0000000   0.4037610   0.0000000   0.0000000   2.7928460   2.7928460   2.7928460   2.7928460   2.7928460
 AtZNuc=   6.0000000   6.0000000   7.0000000   6.0000000   6.0000000   1.0000000   1.0000000   1.0000000   1.0000000   1.0000000

  Atom        31          32          33          34          35          36          37          38          39          40
 IAtWgt=           1           1           1           1           1           1           1           1           1           1
 AtmWgt=   1.0078250   1.0078250   1.0078250   1.0078250   1.0078250   1.0078250   1.0078250   1.0078250   1.0078250   1.0078250
 NucSpn=           1           1           1           1           1           1           1           1           1           1
 AtZEff=  -0.0000000  -0.0000000  -0.0000000  -0.0000000  -0.0000000  -0.0000000  -0.0000000  -0.0000000  -0.0000000  -0.0000000
 NQMom=    0.0000000   0.0000000   0.0000000   0.0000000   0.0000000   0.0000000   0.0000000   0.0000000   0.0000000   0.0000000
 NMagM=    2.7928460   2.7928460   2.7928460   2.7928460   2.7928460   2.7928460   2.7928460   2.7928460   2.7928460   2.7928460
 AtZNuc=   1.0000000   1.0000000   1.0000000   1.0000000   1.0000000   1.0000000   1.0000000   1.0000000   1.0000000   1.0000000

  Atom        41          42          43          44          45          46
 IAtWgt=           1           1           1           1           1          63
 AtmWgt=   1.0078250   1.0078250   1.0078250   1.0078250   1.0078250  62.9295992
 NucSpn=           1           1           1           1           1           3
 AtZEff=  -0.0000000  -0.0000000  -0.0000000  -0.0000000  -0.0000000  -0.0000000
 NQMom=    0.0000000   0.0000000   0.0000000   0.0000000   0.0000000 -22.0000000
 NMagM=    2.7928460   2.7928460   2.7928460   2.7928460   2.7928460   2.2233000
 AtZNuc=   1.0000000   1.0000000   1.0000000   1.0000000   1.0000000  29.0000000
 Leave Link  101 at Fri Mar  8 00:39:29 2024, MaxMem= 13421772800 cpu:               4.4 elap:               0.2
 (Enter /public/software/apps/Gaussian/g16/l103.exe)

 GradGradGradGradGradGradGradGradGradGradGradGradGradGradGradGradGradGrad
 Berny optimization.
 Initialization pass.
                           ----------------------------
                           !    Initial Parameters    !
                           ! (Angstroms and Degrees)  !
 --------------------------                            --------------------------
 ! Name  Definition              Value          Derivative Info.                !
 --------------------------------------------------------------------------------
 ! R1    R(1,2)                  1.3972         estimate D2E/DX2                !
 ! R2    R(1,25)                 1.3967         estimate D2E/DX2                !
 ! R3    R(1,26)                 1.0823         estimate D2E/DX2                !
 ! R4    R(2,3)                  1.3986         estimate D2E/DX2                !
 ! R5    R(2,27)                 1.0823         estimate D2E/DX2                !
 ! R6    R(3,4)                  1.4054         estimate D2E/DX2                !
 ! R7    R(3,28)                 1.0828         estimate D2E/DX2                !
 ! R8    R(4,5)                  1.5128         estimate D2E/DX2                !
 ! R9    R(4,24)                 1.4084         estimate D2E/DX2                !
 ! R10   R(5,6)                  1.5448         estimate D2E/DX2                !
 ! R11   R(5,23)                 1.4543         estimate D2E/DX2                !
 ! R12   R(5,29)                 1.1127         estimate D2E/DX2                !
 ! R13   R(6,7)                  1.4183         estimate D2E/DX2                !
 ! R14   R(6,30)                 1.1115         estimate D2E/DX2                !
 ! R15   R(6,31)                 1.1109         estimate D2E/DX2                !
 ! R16   R(7,8)                  1.3803         estimate D2E/DX2                !
 ! R17   R(8,9)                  1.4919         estimate D2E/DX2                !
 ! R18   R(8,23)                 1.2848         estimate D2E/DX2                !
 ! R19   R(9,10)                 1.4919         estimate D2E/DX2                !
 ! R20   R(9,21)                 1.5189         estimate D2E/DX2                !
 ! R21   R(9,22)                 1.5189         estimate D2E/DX2                !
 ! R22   R(10,11)                1.2848         estimate D2E/DX2                !
 ! R23   R(10,20)                1.3803         estimate D2E/DX2                !
 ! R24   R(11,12)                1.4543         estimate D2E/DX2                !
 ! R25   R(11,46)                1.9695         estimate D2E/DX2                !
 ! R26   R(12,13)                1.5128         estimate D2E/DX2                !
 ! R27   R(12,19)                1.5448         estimate D2E/DX2                !
 ! R28   R(12,32)                1.1127         estimate D2E/DX2                !
 ! R29   R(13,14)                1.4054         estimate D2E/DX2                !
 ! R30   R(13,18)                1.4084         estimate D2E/DX2                !
 ! R31   R(14,15)                1.3986         estimate D2E/DX2                !
 ! R32   R(14,33)                1.0828         estimate D2E/DX2                !
 ! R33   R(15,16)                1.3972         estimate D2E/DX2                !
 ! R34   R(15,34)                1.0823         estimate D2E/DX2                !
 ! R35   R(16,17)                1.3967         estimate D2E/DX2                !
 ! R36   R(16,35)                1.0823         estimate D2E/DX2                !
 ! R37   R(17,18)                1.3976         estimate D2E/DX2                !
 ! R38   R(17,36)                1.0823         estimate D2E/DX2                !
 ! R39   R(18,37)                1.0826         estimate D2E/DX2                !
 ! R40   R(18,46)                2.0739         estimate D2E/DX2                !
 ! R41   R(19,20)                1.4183         estimate D2E/DX2                !
 ! R42   R(19,38)                1.1115         estimate D2E/DX2                !
 ! R43   R(19,39)                1.1109         estimate D2E/DX2                !
 ! R44   R(21,22)                1.5274         estimate D2E/DX2                !
 ! R45   R(21,40)                1.1113         estimate D2E/DX2                !
 ! R46   R(21,41)                1.1107         estimate D2E/DX2                !
 ! R47   R(22,42)                1.1107         estimate D2E/DX2                !
 ! R48   R(22,43)                1.1113         estimate D2E/DX2                !
 ! R49   R(23,46)                1.9695         estimate D2E/DX2                !
 ! R50   R(24,25)                1.3976         estimate D2E/DX2                !
 ! R51   R(24,44)                1.0826         estimate D2E/DX2                !
 ! R52   R(24,46)                2.1436         estimate D2E/DX2                !
 ! R53   R(25,45)                1.0823         estimate D2E/DX2                !
 ! A1    A(2,1,25)             120.0075         estimate D2E/DX2                !
 ! A2    A(2,1,26)             120.0095         estimate D2E/DX2                !
 ! A3    A(25,1,26)            119.9829         estimate D2E/DX2                !
 ! A4    A(1,2,3)              120.1468         estimate D2E/DX2                !
 ! A5    A(1,2,27)             119.9106         estimate D2E/DX2                !
 ! A6    A(3,2,27)             119.9411         estimate D2E/DX2                !
 ! A7    A(2,3,4)              120.3254         estimate D2E/DX2                !
 ! A8    A(2,3,28)             119.128          estimate D2E/DX2                !
 ! A9    A(4,3,28)             120.5414         estimate D2E/DX2                !
 ! A10   A(3,4,5)              120.1952         estimate D2E/DX2                !
 ! A11   A(3,4,24)             119.0558         estimate D2E/DX2                !
 ! A12   A(5,4,24)             120.6928         estimate D2E/DX2                !
 ! A13   A(4,5,6)              113.3745         estimate D2E/DX2                !
 ! A14   A(4,5,23)             109.5027         estimate D2E/DX2                !
 ! A15   A(4,5,29)             111.1215         estimate D2E/DX2                !
 ! A16   A(6,5,23)             104.2953         estimate D2E/DX2                !
 ! A17   A(6,5,29)             109.588          estimate D2E/DX2                !
 ! A18   A(23,5,29)            108.6584         estimate D2E/DX2                !
 ! A19   A(5,6,7)              103.4581         estimate D2E/DX2                !
 ! A20   A(5,6,30)             112.798          estimate D2E/DX2                !
 ! A21   A(5,6,31)             111.0161         estimate D2E/DX2                !
 ! A22   A(7,6,30)             109.7354         estimate D2E/DX2                !
 ! A23   A(7,6,31)             109.7831         estimate D2E/DX2                !
 ! A24   A(30,6,31)            109.8634         estimate D2E/DX2                !
 ! A25   A(6,7,8)              108.9852         estimate D2E/DX2                !
 ! A26   A(7,8,9)              125.1455         estimate D2E/DX2                !
 ! A27   A(7,8,23)             113.922          estimate D2E/DX2                !
 ! A28   A(9,8,23)             120.5851         estimate D2E/DX2                !
 ! A29   A(8,9,10)             114.8907         estimate D2E/DX2                !
 ! A30   A(8,9,21)             117.0967         estimate D2E/DX2                !
 ! A31   A(8,9,22)             118.3457         estimate D2E/DX2                !
 ! A32   A(10,9,21)            118.3479         estimate D2E/DX2                !
 ! A33   A(10,9,22)            117.0935         estimate D2E/DX2                !
 ! A34   A(9,10,11)            120.5854         estimate D2E/DX2                !
 ! A35   A(9,10,20)            125.1446         estimate D2E/DX2                !
 ! A36   A(11,10,20)           113.9222         estimate D2E/DX2                !
 ! A37   A(10,11,12)           109.2947         estimate D2E/DX2                !
 ! A38   A(10,11,46)           107.3707         estimate D2E/DX2                !
 ! A39   A(12,11,46)           102.7093         estimate D2E/DX2                !
 ! A40   A(11,12,13)           109.5038         estimate D2E/DX2                !
 ! A41   A(11,12,19)           104.2953         estimate D2E/DX2                !
 ! A42   A(11,12,32)           108.6579         estimate D2E/DX2                !
 ! A43   A(13,12,19)           113.3747         estimate D2E/DX2                !
 ! A44   A(13,12,32)           111.1212         estimate D2E/DX2                !
 ! A45   A(19,12,32)           109.5876         estimate D2E/DX2                !
 ! A46   A(12,13,14)           120.1952         estimate D2E/DX2                !
 ! A47   A(12,13,18)           120.693          estimate D2E/DX2                !
 ! A48   A(14,13,18)           119.0558         estimate D2E/DX2                !
 ! A49   A(13,14,15)           120.3255         estimate D2E/DX2                !
 ! A50   A(13,14,33)           120.5413         estimate D2E/DX2                !
 ! A51   A(15,14,33)           119.128          estimate D2E/DX2                !
 ! A52   A(14,15,16)           120.1468         estimate D2E/DX2                !
 ! A53   A(14,15,34)           119.941          estimate D2E/DX2                !
 ! A54   A(16,15,34)           119.9107         estimate D2E/DX2                !
 ! A55   A(15,16,17)           120.0075         estimate D2E/DX2                !
 ! A56   A(15,16,35)           120.0096         estimate D2E/DX2                !
 ! A57   A(17,16,35)           119.9829         estimate D2E/DX2                !
 ! A58   A(16,17,18)           120.0655         estimate D2E/DX2                !
 ! A59   A(16,17,36)           119.9758         estimate D2E/DX2                !
 ! A60   A(18,17,36)           119.9576         estimate D2E/DX2                !
 ! A61   A(13,18,17)           120.3938         estimate D2E/DX2                !
 ! A62   A(13,18,37)           120.4856         estimate D2E/DX2                !
 ! A63   A(13,18,46)            87.6167         estimate D2E/DX2                !
 ! A64   A(17,18,37)           119.1141         estimate D2E/DX2                !
 ! A65   A(17,18,46)           118.3653         estimate D2E/DX2                !
 ! A66   A(37,18,46)            63.6162         estimate D2E/DX2                !
 ! A67   A(12,19,20)           103.458          estimate D2E/DX2                !
 ! A68   A(12,19,38)           112.7975         estimate D2E/DX2                !
 ! A69   A(12,19,39)           111.0166         estimate D2E/DX2                !
 ! A70   A(20,19,38)           109.7349         estimate D2E/DX2                !
 ! A71   A(20,19,39)           109.7835         estimate D2E/DX2                !
 ! A72   A(38,19,39)           109.8636         estimate D2E/DX2                !
 ! A73   A(10,20,19)           108.9851         estimate D2E/DX2                !
 ! A74   A(9,21,40)            115.7269         estimate D2E/DX2                !
 ! A75   A(9,21,41)            116.3914         estimate D2E/DX2                !
 ! A76   A(22,21,40)           113.4083         estimate D2E/DX2                !
 ! A77   A(22,21,41)           113.321          estimate D2E/DX2                !
 ! A78   A(40,21,41)           122.1003         estimate D2E/DX2                !
 ! A79   A(9,22,42)            116.3922         estimate D2E/DX2                !
 ! A80   A(9,22,43)            115.7274         estimate D2E/DX2                !
 ! A81   A(21,22,42)           113.3207         estimate D2E/DX2                !
 ! A82   A(21,22,43)           113.4079         estimate D2E/DX2                !
 ! A83   A(42,22,43)           122.0999         estimate D2E/DX2                !
 ! A84   A(5,23,8)             109.295          estimate D2E/DX2                !
 ! A85   A(5,23,46)            104.213          estimate D2E/DX2                !
 ! A86   A(8,23,46)            108.565          estimate D2E/DX2                !
 ! A87   A(4,24,25)            120.3938         estimate D2E/DX2                !
 ! A88   A(4,24,44)            120.4856         estimate D2E/DX2                !
 ! A89   A(4,24,46)             86.8211         estimate D2E/DX2                !
 ! A90   A(25,24,44)           119.1142         estimate D2E/DX2                !
 ! A91   A(25,24,46)           117.7847         estimate D2E/DX2                !
 ! A92   A(44,24,46)            65.0672         estimate D2E/DX2                !
 ! A93   A(1,25,24)            120.0656         estimate D2E/DX2                !
 ! A94   A(1,25,45)            119.9758         estimate D2E/DX2                !
 ! A95   A(24,25,45)           119.9576         estimate D2E/DX2                !
 ! A96   A(11,46,18)            93.3339         estimate D2E/DX2                !
 ! A97   A(11,46,23)           100.0001         estimate D2E/DX2                !
 ! A98   A(11,46,24)           124.1283         estimate D2E/DX2                !
 ! A99   A(18,46,23)           127.9949         estimate D2E/DX2                !
 ! A100  A(18,46,24)           121.4176         estimate D2E/DX2                !
 ! A101  A(23,46,24)            91.2305         estimate D2E/DX2                !
 ! D1    D(25,1,2,3)            -0.4063         estimate D2E/DX2                !
 ! D2    D(25,1,2,27)         -179.9661         estimate D2E/DX2                !
 ! D3    D(26,1,2,3)           179.5453         estimate D2E/DX2                !
 ! D4    D(26,1,2,27)           -0.0145         estimate D2E/DX2                !
 ! D5    D(2,1,25,24)            0.1736         estimate D2E/DX2                !
 ! D6    D(2,1,25,45)          179.8016         estimate D2E/DX2                !
 ! D7    D(26,1,25,24)        -179.778          estimate D2E/DX2                !
 ! D8    D(26,1,25,45)          -0.15           estimate D2E/DX2                !
 ! D9    D(1,2,3,4)              0.0197         estimate D2E/DX2                !
 ! D10   D(1,2,3,28)          -179.1514         estimate D2E/DX2                !
 ! D11   D(27,2,3,4)           179.5794         estimate D2E/DX2                !
 ! D12   D(27,2,3,28)            0.4083         estimate D2E/DX2                !
 ! D13   D(2,3,4,5)           -176.7052         estimate D2E/DX2                !
 ! D14   D(2,3,4,24)             0.5894         estimate D2E/DX2                !
 ! D15   D(28,3,4,5)             2.4542         estimate D2E/DX2                !
 ! D16   D(28,3,4,24)          179.7488         estimate D2E/DX2                !
 ! D17   D(3,4,5,6)           -118.0946         estimate D2E/DX2                !
 ! D18   D(3,4,5,23)           125.9007         estimate D2E/DX2                !
 ! D19   D(3,4,5,29)             5.8571         estimate D2E/DX2                !
 ! D20   D(24,4,5,6)            64.6556         estimate D2E/DX2                !
 ! D21   D(24,4,5,23)          -51.3491         estimate D2E/DX2                !
 ! D22   D(24,4,5,29)         -171.3927         estimate D2E/DX2                !
 ! D23   D(3,4,24,25)           -0.8224         estimate D2E/DX2                !
 ! D24   D(3,4,24,44)         -179.8893         estimate D2E/DX2                !
 ! D25   D(3,4,24,46)         -121.3982         estimate D2E/DX2                !
 ! D26   D(5,4,24,25)          176.4583         estimate D2E/DX2                !
 ! D27   D(5,4,24,44)           -2.6085         estimate D2E/DX2                !
 ! D28   D(5,4,24,46)           55.8826         estimate D2E/DX2                !
 ! D29   D(4,5,6,7)           -121.0582         estimate D2E/DX2                !
 ! D30   D(4,5,6,30)            -2.5541         estimate D2E/DX2                !
 ! D31   D(4,5,6,31)           121.2475         estimate D2E/DX2                !
 ! D32   D(23,5,6,7)            -2.016          estimate D2E/DX2                !
 ! D33   D(23,5,6,30)          116.488          estimate D2E/DX2                !
 ! D34   D(23,5,6,31)         -119.7104         estimate D2E/DX2                !
 ! D35   D(29,5,6,7)           114.1581         estimate D2E/DX2                !
 ! D36   D(29,5,6,30)         -127.3378         estimate D2E/DX2                !
 ! D37   D(29,5,6,31)           -3.5362         estimate D2E/DX2                !
 ! D38   D(4,5,23,8)           123.0463         estimate D2E/DX2                !
 ! D39   D(4,5,23,46)            7.1558         estimate D2E/DX2                !
 ! D40   D(6,5,23,8)             1.4062         estimate D2E/DX2                !
 ! D41   D(6,5,23,46)         -114.4843         estimate D2E/DX2                !
 ! D42   D(29,5,23,8)         -115.4145         estimate D2E/DX2                !
 ! D43   D(29,5,23,46)         128.695          estimate D2E/DX2                !
 ! D44   D(5,6,7,8)              1.9687         estimate D2E/DX2                !
 ! D45   D(30,6,7,8)          -118.6377         estimate D2E/DX2                !
 ! D46   D(31,6,7,8)           120.521          estimate D2E/DX2                !
 ! D47   D(6,7,8,9)            171.9959         estimate D2E/DX2                !
 ! D48   D(6,7,8,23)            -1.2356         estimate D2E/DX2                !
 ! D49   D(7,8,9,10)          -134.345          estimate D2E/DX2                !
 ! D50   D(7,8,9,21)            80.0274         estimate D2E/DX2                !
 ! D51   D(7,8,9,22)            10.8191         estimate D2E/DX2                !
 ! D52   D(23,8,9,10)           38.4659         estimate D2E/DX2                !
 ! D53   D(23,8,9,21)         -107.1617         estimate D2E/DX2                !
 ! D54   D(23,8,9,22)         -176.37           estimate D2E/DX2                !
 ! D55   D(7,8,23,5)            -0.2011         estimate D2E/DX2                !
 ! D56   D(7,8,23,46)          112.8781         estimate D2E/DX2                !
 ! D57   D(9,8,23,5)          -173.7735         estimate D2E/DX2                !
 ! D58   D(9,8,23,46)          -60.6944         estimate D2E/DX2                !
 ! D59   D(8,9,10,11)           38.4924         estimate D2E/DX2                !
 ! D60   D(8,9,10,20)         -134.3144         estimate D2E/DX2                !
 ! D61   D(21,9,10,11)        -176.3336         estimate D2E/DX2                !
 ! D62   D(21,9,10,20)          10.8596         estimate D2E/DX2                !
 ! D63   D(22,9,10,11)        -107.1258         estimate D2E/DX2                !
 ! D64   D(22,9,10,20)          80.0674         estimate D2E/DX2                !
 ! D65   D(8,9,21,40)           -5.5263         estimate D2E/DX2                !
 ! D66   D(8,9,21,41)          148.3191         estimate D2E/DX2                !
 ! D67   D(10,9,21,40)        -149.9412         estimate D2E/DX2                !
 ! D68   D(10,9,21,41)           3.9041         estimate D2E/DX2                !
 ! D69   D(8,9,22,42)            3.9098         estimate D2E/DX2                !
 ! D70   D(8,9,22,43)         -149.9372         estimate D2E/DX2                !
 ! D71   D(10,9,22,42)         148.3158         estimate D2E/DX2                !
 ! D72   D(10,9,22,43)          -5.5311         estimate D2E/DX2                !
 ! D73   D(9,10,11,12)        -173.7733         estimate D2E/DX2                !
 ! D74   D(9,10,11,46)         -63.0563         estimate D2E/DX2                !
 ! D75   D(20,10,11,12)         -0.2046         estimate D2E/DX2                !
 ! D76   D(20,10,11,46)        110.5124         estimate D2E/DX2                !
 ! D77   D(9,10,20,19)         171.9907         estimate D2E/DX2                !
 ! D78   D(11,10,20,19)         -1.237          estimate D2E/DX2                !
 ! D79   D(10,11,12,13)        123.0536         estimate D2E/DX2                !
 ! D80   D(10,11,12,19)          1.4127         estimate D2E/DX2                !
 ! D81   D(10,11,12,32)       -115.4073         estimate D2E/DX2                !
 ! D82   D(46,11,12,13)          9.2739         estimate D2E/DX2                !
 ! D83   D(46,11,12,19)       -112.3671         estimate D2E/DX2                !
 ! D84   D(46,11,12,32)        130.813          estimate D2E/DX2                !
 ! D85   D(10,11,46,18)        -99.6693         estimate D2E/DX2                !
 ! D86   D(10,11,46,23)         29.8561         estimate D2E/DX2                !
 ! D87   D(10,11,46,24)        128.2428         estimate D2E/DX2                !
 ! D88   D(12,11,46,18)         15.5107         estimate D2E/DX2                !
 ! D89   D(12,11,46,23)        145.036          estimate D2E/DX2                !
 ! D90   D(12,11,46,24)       -116.5772         estimate D2E/DX2                !
 ! D91   D(11,12,13,14)        125.9081         estimate D2E/DX2                !
 ! D92   D(11,12,13,18)        -51.344          estimate D2E/DX2                !
 ! D93   D(19,12,13,14)       -118.0864         estimate D2E/DX2                !
 ! D94   D(19,12,13,18)         64.6615         estimate D2E/DX2                !
 ! D95   D(32,12,13,14)          5.8647         estimate D2E/DX2                !
 ! D96   D(32,12,13,18)       -171.3874         estimate D2E/DX2                !
 ! D97   D(11,12,19,20)         -2.023          estimate D2E/DX2                !
 ! D98   D(11,12,19,38)        116.4801         estimate D2E/DX2                !
 ! D99   D(11,12,19,39)       -119.7179         estimate D2E/DX2                !
 ! D100  D(13,12,19,20)       -121.0665         estimate D2E/DX2                !
 ! D101  D(13,12,19,38)         -2.5634         estimate D2E/DX2                !
 ! D102  D(13,12,19,39)        121.2385         estimate D2E/DX2                !
 ! D103  D(32,12,19,20)        114.1504         estimate D2E/DX2                !
 ! D104  D(32,12,19,38)       -127.3465         estimate D2E/DX2                !
 ! D105  D(32,12,19,39)         -3.5446         estimate D2E/DX2                !
 ! D106  D(12,13,14,15)       -176.7064         estimate D2E/DX2                !
 ! D107  D(12,13,14,33)          2.4532         estimate D2E/DX2                !
 ! D108  D(18,13,14,15)          0.5904         estimate D2E/DX2                !
 ! D109  D(18,13,14,33)        179.75           estimate D2E/DX2                !
 ! D110  D(12,13,18,17)        176.4582         estimate D2E/DX2                !
 ! D111  D(12,13,18,37)         -2.609          estimate D2E/DX2                !
 ! D112  D(12,13,18,46)         54.6652         estimate D2E/DX2                !
 ! D113  D(14,13,18,17)         -0.8248         estimate D2E/DX2                !
 ! D114  D(14,13,18,37)       -179.8921         estimate D2E/DX2                !
 ! D115  D(14,13,18,46)       -122.6178         estimate D2E/DX2                !
 ! D116  D(13,14,15,16)          0.0206         estimate D2E/DX2                !
 ! D117  D(13,14,15,34)        179.5803         estimate D2E/DX2                !
 ! D118  D(33,14,15,16)       -179.1508         estimate D2E/DX2                !
 ! D119  D(33,14,15,34)          0.4088         estimate D2E/DX2                !
 ! D120  D(14,15,16,17)         -0.4076         estimate D2E/DX2                !
 ! D121  D(14,15,16,35)        179.5445         estimate D2E/DX2                !
 ! D122  D(34,15,16,17)       -179.9674         estimate D2E/DX2                !
 ! D123  D(34,15,16,35)         -0.0153         estimate D2E/DX2                !
 ! D124  D(15,16,17,18)          0.1736         estimate D2E/DX2                !
 ! D125  D(15,16,17,36)        179.8018         estimate D2E/DX2                !
 ! D126  D(35,16,17,18)       -179.7786         estimate D2E/DX2                !
 ! D127  D(35,16,17,36)         -0.1503         estimate D2E/DX2                !
 ! D128  D(16,17,18,13)          0.4477         estimate D2E/DX2                !
 ! D129  D(16,17,18,37)        179.5276         estimate D2E/DX2                !
 ! D130  D(16,17,18,46)        105.6305         estimate D2E/DX2                !
 ! D131  D(36,17,18,13)       -179.1806         estimate D2E/DX2                !
 ! D132  D(36,17,18,37)         -0.1007         estimate D2E/DX2                !
 ! D133  D(36,17,18,46)        -73.9978         estimate D2E/DX2                !
 ! D134  D(13,18,46,11)        -35.4117         estimate D2E/DX2                !
 ! D135  D(13,18,46,23)       -140.8517         estimate D2E/DX2                !
 ! D136  D(13,18,46,24)         98.5463         estimate D2E/DX2                !
 ! D137  D(17,18,46,11)       -158.9848         estimate D2E/DX2                !
 ! D138  D(17,18,46,23)         95.5752         estimate D2E/DX2                !
 ! D139  D(17,18,46,24)        -25.0268         estimate D2E/DX2                !
 ! D140  D(37,18,46,11)         90.5642         estimate D2E/DX2                !
 ! D141  D(37,18,46,23)        -14.8757         estimate D2E/DX2                !
 ! D142  D(37,18,46,24)       -135.4778         estimate D2E/DX2                !
 ! D143  D(12,19,20,10)          1.9739         estimate D2E/DX2                !
 ! D144  D(38,19,20,10)       -118.6316         estimate D2E/DX2                !
 ! D145  D(39,19,20,10)        120.5269         estimate D2E/DX2                !
 ! D146  D(40,21,22,42)          0.8315         estimate D2E/DX2                !
 ! D147  D(40,21,22,43)        145.6361         estimate D2E/DX2                !
 ! D148  D(41,21,22,42)       -143.9747         estimate D2E/DX2                !
 ! D149  D(41,21,22,43)          0.8298         estimate D2E/DX2                !
 ! D150  D(5,23,46,11)         142.5171         estimate D2E/DX2                !
 ! D151  D(5,23,46,18)        -115.2039         estimate D2E/DX2                !
 ! D152  D(5,23,46,24)          17.5139         estimate D2E/DX2                !
 ! D153  D(8,23,46,11)          26.1166         estimate D2E/DX2                !
 ! D154  D(8,23,46,18)         128.3956         estimate D2E/DX2                !
 ! D155  D(8,23,46,24)         -98.8866         estimate D2E/DX2                !
 ! D156  D(4,24,25,1)            0.4457         estimate D2E/DX2                !
 ! D157  D(4,24,25,45)        -179.1823         estimate D2E/DX2                !
 ! D158  D(44,24,25,1)         179.5253         estimate D2E/DX2                !
 ! D159  D(44,24,25,45)         -0.1028         estimate D2E/DX2                !
 ! D160  D(46,24,25,1)         104.119          estimate D2E/DX2                !
 ! D161  D(46,24,25,45)        -75.509          estimate D2E/DX2                !
 ! D162  D(4,24,46,11)        -139.9291         estimate D2E/DX2                !
 ! D163  D(4,24,46,18)         100.314          estimate D2E/DX2                !
 ! D164  D(4,24,46,23)         -36.9624         estimate D2E/DX2                !
 ! D165  D(25,24,46,11)         97.1493         estimate D2E/DX2                !
 ! D166  D(25,24,46,18)        -22.6077         estimate D2E/DX2                !
 ! D167  D(25,24,46,23)       -159.8841         estimate D2E/DX2                !
 ! D168  D(44,24,46,11)        -14.0453         estimate D2E/DX2                !
 ! D169  D(44,24,46,18)       -133.8023         estimate D2E/DX2                !
 ! D170  D(44,24,46,23)         88.9214         estimate D2E/DX2                !
 --------------------------------------------------------------------------------
 Trust Radius=3.00D-01 FncErr=1.00D-07 GrdErr=1.00D-06 EigMax=2.50D+02 EigMin=1.00D-04
 Number of steps in this run=    276 maximum allowed number of steps=    276.
 GradGradGradGradGradGradGradGradGradGradGradGradGradGradGradGradGradGrad

 Leave Link  103 at Fri Mar  8 00:39:29 2024, MaxMem= 13421772800 cpu:               0.3 elap:               0.0
 (Enter /public/software/apps/Gaussian/g16/l202.exe)
                          Input orientation:                          
 ---------------------------------------------------------------------
 Center     Atomic      Atomic             Coordinates (Angstroms)
 Number     Number       Type             X           Y           Z
 ---------------------------------------------------------------------
      1          6           0       -3.151792    2.467485   -0.424809
      2          6           0       -2.730770    3.317302    0.601263
      3          6           0       -1.372187    3.416201    0.918380
      4          6           0       -0.421188    2.663281    0.208552
      5          6           0        1.038544    2.715604    0.602297
      6          6           0        1.954328    3.269708   -0.511619
      7          8           0        2.868023    2.210327   -0.745212
      8          6           0        2.535726    1.143781    0.065482
      9          6           0        3.150352   -0.213766   -0.006327
     10          6           0        2.179588   -1.345766    0.038910
     11          7           0        1.051044   -1.263887   -0.569703
     12          6           0        0.244217   -2.429362   -0.244815
     13          6           0       -1.071494   -1.982097    0.353057
     14          6           0       -2.285625   -2.427363   -0.197188
     15          6           0       -3.503330   -1.961904    0.309403
     16          6           0       -3.520351   -1.049343    1.367333
     17          6           0       -2.319836   -0.606356    1.927074
     18          6           0       -1.100451   -1.072220    1.427646
     19          6           0        1.120379   -3.238049    0.737458
     20          8           0        2.315802   -2.478726    0.815451
     21          6           0        4.503217   -0.396809    0.659467
     22          6           0        4.390248   -0.399595   -0.863747
     23          7           0        1.528297    1.365602    0.831387
     24          6           0       -0.855198    1.819668   -0.832318
     25          6           0       -2.214458    1.720720   -1.142117
     26          1           0       -4.204362    2.387117   -0.663447
     27          1           0       -3.458509    3.894836    1.156462
     28          1           0       -1.065583    4.069400    1.725758
     29          1           0        1.181867    3.308932    1.532607
     30          1           0        1.401750    3.502029   -1.447653
     31          1           0        2.503901    4.170517   -0.164238
     32          1           0        0.082293   -3.020332   -1.173574
     33          1           0       -2.291385   -3.123691   -1.026423
     34          1           0       -4.434532   -2.303727   -0.123514
     35          1           0       -4.463748   -0.684977    1.752755
     36          1           0       -2.333535    0.102985    2.744425
     37          1           0       -0.179094   -0.712794    1.867927
     38          1           0        0.665404   -3.326607    1.747720
     39          1           0        1.342641   -4.248838    0.333643
     40          1           0        4.969681    0.526304    1.065878
     41          1           0        4.711401   -1.400683    1.086786
     42          1           0        4.804921    0.515662   -1.337093
     43          1           0        4.518701   -1.407346   -1.314119
     44          1           0       -0.142755    1.228062   -1.393000
     45          1           0       -2.541452    1.060174   -1.934689
     46         29           0        0.040296    0.208129    0.261259
 ---------------------------------------------------------------------
                    Distance matrix (angstroms):
                    1          2          3          4          5
     1  C    0.000000
     2  C    1.397237   0.000000
     3  C    2.423059   1.398604   0.000000
     4  C    2.809925   2.432311   1.405398   0.000000
     5  C    4.321507   3.817037   2.530290   1.512809   0.000000
     6  C    5.169483   4.815695   3.623818   2.555284   1.544830
     7  O    6.033818   5.863861   4.711799   3.454525   2.327677
     8  C    5.860072   5.722520   4.600338   3.327565   2.236147
     9  C    6.861578   6.886596   5.872402   4.591238   3.662153
    10  C    6.571113   6.795003   6.005406   4.781765   4.256068
    11  N    5.622096   6.054797   5.476282   4.265653   4.148504
    12  C    5.961911   6.526143   6.175467   5.155901   5.274394
    13  C    4.973077   5.558636   5.436141   4.692901   5.155849
    14  C    4.976102   5.816945   6.018812   5.436488   6.175709
    15  C    4.503569   5.343412   5.816927   5.558966   6.526369
    16  C    3.964302   4.503098   4.975666   4.973044   5.961848
    17  C    3.958788   4.161939   4.253994   4.153156   4.906034
    18  C    4.491002   4.754866   4.525386   3.987676   4.427653
    19  C    7.221871   7.604112   7.108070   6.122244   5.955749
    20  O    7.476485   7.688154   6.954281   5.856593   5.353306
    21  C    8.244938   8.131948   7.009027   5.815259   4.657719
    22  C    8.080543   8.165199   7.137362   5.803529   4.804963
    23  N    4.969447   4.690601   3.553214   2.423301   1.454251
    24  C    2.420759   2.795681   2.425106   1.408353   2.539110
    25  C    1.396705   2.419716   2.798164   2.434860   3.822930
    26  H    1.082271   2.153186   3.403293   3.892179   5.403524
    27  H    2.152167   1.082310   2.153721   3.411829   4.682005
    28  H    3.397549   2.145458   1.082836   2.166640   2.742677
    29  H    4.829090   4.021965   2.629063   2.177102   1.112680
    30  H    4.780297   4.616265   3.646945   2.601849   2.225461
    31  H    5.912282   5.358708   4.094522   3.311628   2.202639
    32  H    6.413742   7.157442   6.922481   5.870879   6.080222
    33  H    5.688892   6.657989   6.884575   6.205791   6.916540
    34  H    4.949815   5.918114   6.571231   6.394401   7.461571
    35  H    4.049819   4.510807   5.203229   5.471534   6.569834
    36  H    4.037877   3.883655   3.903336   4.079564   4.773406
    37  H    4.920137   4.935298   4.401558   3.769618   3.852061
    38  H    7.270651   7.549165   7.092605   6.279210   6.161131
    39  H    8.116907   8.597137   8.152609   7.134713   6.976253
    40  H    8.482255   8.203809   6.970836   5.862009   4.523470
    41  H    8.892550   8.825023   7.761493   6.605344   5.537908
    42  H    8.243249   8.270009   7.187277   5.857773   4.773528
    43  H    8.639540   8.862608   7.934306   6.579592   5.725632
    44  H    3.395271   3.878122   3.412028   2.168490   2.754897
    45  H    2.152389   3.400224   3.880470   3.414521   4.689682
    46  Cu   3.970492   4.178680   3.566321   2.498703   2.720338
                    6          7          8          9         10
     6  C    0.000000
     7  O    1.418341   0.000000
     8  C    2.278296   1.380278   0.000000
     9  C    3.717578   2.549880   1.491930   0.000000
    10  C    4.653646   3.706020   2.515032   1.491929   0.000000
    11  N    4.623070   3.924586   2.899070   2.413968   1.284806
    12  C    5.956095   5.353641   4.256131   3.662153   2.236144
    13  C    6.122477   5.856826   4.781825   4.591311   3.327633
    14  C    7.108635   6.954753   6.005622   5.872502   4.600404
    15  C    7.604595   7.688554   6.795217   6.886738   5.722617
    16  C    7.221965   7.476605   6.571201   6.861735   5.860194
    17  C    6.264150   6.479869   5.486801   5.815077   4.935251
    18  C    5.651970   5.589742   4.470787   4.567554   3.572404
    19  C    6.678815   5.910784   4.653514   3.717566   2.278295
    20  O    5.910691   4.972709   3.705857   2.549870   1.380278
    21  C    4.616452   3.382919   2.568513   1.518891   2.585510
    22  C    4.418312   3.023725   2.585484   1.518896   2.568472
    23  N    2.368710   2.234746   1.284807   2.413966   2.898916
    24  C    3.177877   3.744673   3.572287   4.567444   4.470899
    25  C    4.491733   5.121412   4.935119   5.814933   5.486875
    26  H    6.223462   7.075067   6.892460   7.828679   7.428495
    27  H    5.698428   6.817547   6.685013   7.868274   7.778237
    28  H    3.842555   5.003509   4.928001   6.254577   6.534571
    29  H    2.185657   3.039492   2.945041   4.318872   4.989268
    30  H    1.111519   2.076505   3.022716   4.352259   5.129914
    31  H    1.110928   2.076646   3.035608   4.434498   5.529541
    32  H    6.596007   5.941682   4.989432   4.318827   2.944985
    33  H    7.691986   7.426326   6.534874   6.254659   4.928037
    34  H    8.487128   8.607584   7.778530   7.868426   6.685107
    35  H    7.871380   8.269068   7.428585   7.828852   6.892592
    36  H    6.246257   6.608681   5.654175   6.143288   5.457744
    37  H    5.106276   4.965688   3.750457   3.853189   3.051121
    38  H    7.090649   6.459402   5.129561   4.352175   3.022667
    39  H    7.590597   6.723952   5.529530   4.434547   3.035651
    40  H    4.371169   3.245450   2.703000   2.237696   3.513393
    41  H    5.654105   4.449006   3.500132   2.245115   2.740645
    42  H    4.048711   2.640793   2.740620   2.245128   3.500096
    43  H    5.393964   4.016958   3.513366   2.237707   2.702948
    44  H    3.056617   3.232531   3.050989   3.853088   3.750764
    45  H    5.207610   5.656865   5.457601   6.143137   5.654366
    46  Cu   3.692442   3.608022   2.672255   3.149928   2.653413
                   11         12         13         14         15
    11  N    0.000000
    12  C    1.454254   0.000000
    13  C    2.423320   1.512809   0.000000
    14  C    3.553281   2.530291   1.405399   0.000000
    15  C    4.690669   3.817039   2.432312   1.398604   0.000000
    16  C    4.969486   4.321510   2.809926   2.423059   1.397238
    17  C    4.246066   3.822933   2.434862   2.798165   2.419716
    18  C    2.941950   2.539112   1.408352   2.425105   2.795681
    19  C    2.368711   1.544828   2.555286   3.623760   4.815648
    20  O    2.234748   2.327674   3.454594   4.711816   5.863914
    21  C    3.765658   4.805006   5.803829   7.137603   8.165590
    22  C    3.461755   4.657532   5.815114   7.008810   8.131769
    23  N    3.017455   4.148352   4.265536   5.476363   6.054918
    24  C    3.634699   4.428107   3.988147   4.526233   4.755672
    25  C    4.460834   4.906467   4.153645   4.254944   4.162910
    26  H    6.399837   6.569899   5.471579   5.203669   4.511304
    27  H    7.065984   7.461182   6.393875   6.571014   5.917848
    28  H    6.180065   6.916115   6.205236   6.884341   6.657725
    29  H    5.034630   6.080003   5.870601   6.922483   7.157444
    30  H    4.858780   6.161826   6.279740   7.093524   7.549942
    31  H    5.639853   6.976465   7.134823   8.153077   8.597543
    32  H    2.094812   1.112681   2.177099   2.629064   4.021963
    33  H    3.852181   2.742678   2.166642   1.082837   2.145458
    34  H    5.601062   4.682007   3.411831   2.153721   1.082311
    35  H    6.011812   5.403527   3.892180   3.403293   2.153186
    36  H    4.930229   4.689685   3.414521   3.880469   3.400223
    37  H    2.785495   2.754900   2.168488   3.412026   3.878120
    38  H    3.126337   2.225453   2.601847   3.646900   4.616223
    39  H    3.132251   2.202644   3.311577   4.094370   5.358553
    40  H    4.608213   5.725722   6.579968   7.934668   8.863146
    41  H    4.020060   4.773581   5.858180   7.187561   8.270496
    42  H    4.224603   5.537712   6.605124   7.761226   8.824756
    43  H    3.549561   4.523178   5.861748   6.970425   8.203435
    44  H    2.883190   3.852898   3.770463   4.402725   4.936347
    45  H    4.491155   4.774148   4.080438   3.904775   3.885114
    46  Cu   1.969503   2.693335   2.457965   3.544841   4.155556
                   16         17         18         19         20
    16  C    0.000000
    17  C    1.396705   0.000000
    18  C    2.420760   1.397626   0.000000
    19  C    5.169483   4.491778   3.177933   0.000000
    20  O    6.033937   5.121583   3.744840   1.418341   0.000000
    21  C    8.081121   6.942967   5.696260   4.418407   3.023821
    22  C    8.244845   7.270259   5.987544   4.616570   3.383167
    23  N    5.622103   4.460636   3.634394   4.622642   3.924191
    24  C    4.491406   3.955376   3.678397   5.652221   5.589864
    25  C    3.959286   3.853092   3.955402   6.264450   6.480021
    26  H    4.049839   4.384418   5.096464   7.871334   8.268985
    27  H    4.949060   4.706501   5.505054   8.486450   8.607046
    28  H    5.688223   4.845242   5.150373   7.691162   7.425657
    29  H    6.413480   5.267543   4.941102   6.595377   5.941137
    30  H    7.270915   6.489824   5.954167   7.091018   6.459610
    31  H    8.116912   7.103558   6.558334   7.590391   6.723660
    32  H    4.829084   4.605597   3.458377   2.185650   3.039428
    33  H    3.397550   3.880841   3.413109   3.842459   5.003464
    34  H    2.152169   3.399694   3.877990   5.698356   6.817572
    35  H    1.082271   2.152424   3.401091   6.223462   7.075194
    36  H    2.152388   1.082319   2.153023   5.207682   5.657076
    37  H    3.395270   2.144202   1.082559   3.056714   3.232759
    38  H    4.780290   4.042721   2.881484   1.111519   2.076497
    39  H    5.912189   5.405593   4.154088   1.110928   2.076651
    40  H    8.640265   7.427088   6.287500   5.394010   4.016963
    41  H    8.244021   7.125681   5.831097   4.048874   2.640965
    42  H    8.892318   7.916810   6.711078   5.654198   4.449215
    43  H    8.482023   7.610027   6.261346   4.371388   3.245872
    44  H    4.920789   4.373518   3.763578   5.106908   4.966089
    45  H    4.038769   4.211846   4.234251   6.246927   6.609085
    46  Cu   3.934824   3.001424   2.073899   3.642731   3.564302
                   21         22         23         24         25
    21  C    0.000000
    22  C    1.527400   0.000000
    23  N    3.462051   3.765656   0.000000
    24  C    5.987554   5.695684   2.941962   0.000000
    25  C    7.270268   6.942288   4.246062   1.397624   0.000000
    26  H    9.237006   9.037323   6.011772   3.401090   2.152424
    27  H    9.058383   9.172043   5.600976   3.877989   3.399692
    28  H    7.217724   7.512892   3.852095   3.413108   3.880840
    29  H    5.052351   5.457966   2.094816   3.458383   4.605604
    30  H    5.409250   4.949216   3.126397   2.881456   4.042694
    31  H    5.053338   4.993350   3.132191   4.154078   5.405614
    32  H    5.457791   5.052003   5.034602   4.941755   5.268171
    33  H    7.512971   7.217436   6.180225   5.151418   4.846403
    34  H    9.172391   9.058168   7.066197   5.506035   4.707702
    35  H    9.037963   9.236924   6.399875   5.096811   4.384857
    36  H    7.165056   7.647271   4.490842   4.233860   4.211467
    37  H    4.846056   5.332825   2.882591   3.763217   4.373221
    38  H    4.949426   5.409401   4.858094   5.954240   6.490013
    39  H    4.993349   5.053546   5.639517   6.558714   7.103974
    40  H    1.111259   2.217315   3.550004   6.261402   7.610107
    41  H    1.110723   2.215828   4.224892   6.711233   7.916987
    42  H    2.215825   1.110723   4.020071   5.830281   7.124736
    43  H    2.217311   1.111259   4.608140   6.286855   7.426292
    44  H    5.332718   4.845358   2.785539   1.082560   2.144203
    45  H    7.647209   7.164238   4.930245   2.153022   1.082320
    46  Cu   4.521303   4.533988   1.969502   2.143567   3.056356
                   26         27         28         29         30
    26  H    0.000000
    27  H    2.478222   0.000000
    28  H    4.288393   2.465901   0.000000
    29  H    5.889300   4.692319   2.380473   0.000000
    30  H    5.769445   5.527914   4.059579   2.994593   0.000000
    31  H    6.959204   6.113148   4.040238   2.317193   1.819002
    32  H    6.919259   8.110850   7.745195   6.970801   6.660126
    33  H    5.844676   7.442237   7.798567   7.745370   7.597160
    34  H    4.727422   6.404150   7.442202   8.111018   8.338005
    35  H    3.917024   4.726601   5.844002   6.919013   7.885284
    36  H    4.508974   4.262080   4.286937   4.909649   6.563488
    37  H    5.676274   5.700088   4.865743   4.258983   5.590785
    38  H    7.885112   8.336995   7.595901   6.659083   7.575149
    39  H    8.706281   9.489336   8.771010   7.653970   7.953141
    40  H    9.519257   9.076872   7.029465   4.723176   5.282320
    41  H    9.843860   9.736262   7.981456   5.902274   6.435352
    42  H    9.226230   9.269353   7.514847   5.400376   4.529038
    43  H    9.534839   9.892057   8.391652   6.440620   5.816801
    44  H    4.286293   4.960410   4.318734   3.826724   2.749438
    45  H    2.478327   4.293194   4.963114   5.562568   4.663550
    46  Cu   4.860061   5.160895   4.275177   3.540408   3.952684
                   31         32         33         34         35
    31  H    0.000000
    32  H    7.654492   0.000000
    33  H    8.771750   2.380480   0.000000
    34  H    9.489960   4.692319   2.465900   0.000000
    35  H    8.706252   5.889293   4.288393   2.478223   0.000000
    36  H    6.957437   5.562558   4.963115   4.293195   2.478326
    37  H    5.930842   3.826720   4.318734   4.960409   4.286292
    38  H    7.952517   2.994625   4.059513   5.527852   5.769440
    39  H    8.513633   2.317198   4.040035   6.112952   6.959105
    40  H    4.568757   6.440523   8.391857   9.892570   9.535648
    41  H    6.121796   5.400105   7.514880   9.269758   9.227086
    42  H    4.475293   5.901966   7.981163   9.735976   9.843623
    43  H    6.041043   4.722626   7.028932   9.076421   9.519030
    44  H    4.143994   4.260005   4.867108   5.701270   5.676837
    45  H    6.185816   4.910587   4.288614   4.263794   4.509769
    46  Cu   4.685180   3.533195   4.265664   5.146023   4.827899
                   36         37         38         39         40
    36  H    0.000000
    37  H    2.464825   0.000000
    38  H    4.663599   2.749481   0.000000
    39  H    6.185831   4.144069   1.819004   0.000000
    40  H    7.505577   5.356168   5.816926   6.040991   0.000000
    41  H    7.391881   5.000031   4.529471   4.475238   1.944331
    42  H    8.233265   6.051584   6.435426   6.122026   2.408636
    43  H    8.105925   5.716388   5.282643   4.569087   3.099479
    44  H    4.814935   3.794982   5.591266   5.931621   5.716253
    45  H    4.780538   4.814981   6.564138   6.958241   8.105895
    46  Cu   3.436894   1.864836   3.885188   4.643910   5.004746
                   41         42         43         44         45
    41  H    0.000000
    42  H    3.091329   0.000000
    43  H    2.408635   1.944328   0.000000
    44  H    6.051650   4.999014   5.355443   0.000000
    45  H    8.233408   7.390725   7.504633   2.464825   0.000000
    46  Cu   5.008891   5.034973   5.014747   1.952010   3.494795
                   46
    46  Cu   0.000000
 Symmetry turned off by external request.
 Stoichiometry    C21H20CuN2O2(2+,2)
 Framework group  C1[X(C21H20CuN2O2)]
 Deg. of freedom   132
 Full point group                 C1      NOp   1
 Rotational constants (GHZ):           0.2953911           0.2276628           0.1433251
 Leave Link  202 at Fri Mar  8 00:39:29 2024, MaxMem= 13421772800 cpu:               1.3 elap:               0.1
 (Enter /public/software/apps/Gaussian/g16/l301.exe)
 Standard basis: def2SVPP (5D, 7F)
 Ernie: Thresh=  0.10000D-02 Tol=  0.10000D-05 Strict=F.
   414 basis functions,   776 primitive gaussians,   441 cartesian basis functions
   102 alpha electrons      101 beta electrons
       nuclear repulsion energy      3069.3469758884 Hartrees.
 IExCor=  402 DFT=T Ex+Corr=B3LYP ExCW=0 ScaHFX=  0.200000
 ScaDFX=  0.800000  0.720000  1.000000  0.810000 ScalE2=  1.000000  1.000000
 IRadAn=      5 IRanWt=     -1 IRanGd=            0 ICorTp=0 IEmpDi=141
 NAtoms=   46 NActive=   46 NUniq=   46 SFac= 1.00D+00 NAtFMM=   60 NAOKFM=F Big=F
 Integral buffers will be    131072 words long.
 Raffenetti 2 integral format.
 Two-electron integral symmetry is turned off.
 R6Disp:  Grimme-D3(BJ) Dispersion energy=       -0.1222151672 Hartrees.
 Nuclear repulsion after empirical dispersion term =     3069.2247607212 Hartrees.
 Leave Link  301 at Fri Mar  8 00:39:29 2024, MaxMem= 13421772800 cpu:               0.9 elap:               0.0
 (Enter /public/software/apps/Gaussian/g16/l302.exe)
 NPDir=0 NMtPBC=     1 NCelOv=     1 NCel=       1 NClECP=     1 NCelD=      1
         NCelK=      1 NCelE2=     1 NClLst=     1 CellRange=     0.0.
 One-electron integrals computed using PRISM.
   1 Symmetry operations used in ECPInt.
 ECPInt:  NShTT=   20100 NPrTT=   83861 LenC2=   18973 LenP2D=   53217.
 LDataN:  DoStor=T MaxTD1= 4 Len=   56
 NBasis=   414 RedAO= T EigKep=  2.64D-04  NBF=   414
 NBsUse=   414 1.00D-06 EigRej= -1.00D+00 NBFU=   414
 Precomputing XC quadrature grid using
 IXCGrd= 4 IRadAn=           5 IRanWt=          -1 IRanGd=           0 AccXCQ= 0.00D+00.
 Generated NRdTot=       0 NPtTot=           0 NUsed=           0 NTot=          32
 NSgBfM=   436   436   436   436   436 MxSgAt=    46 MxSgA2=    46.
 Leave Link  302 at Fri Mar  8 00:39:29 2024, MaxMem= 13421772800 cpu:              11.3 elap:               0.4
 (Enter /public/software/apps/Gaussian/g16/l303.exe)
 DipDrv:  MaxL=1.
 Leave Link  303 at Fri Mar  8 00:39:29 2024, MaxMem= 13421772800 cpu:               3.7 elap:               0.1
 (Enter /public/software/apps/Gaussian/g16/l401.exe)
 ExpMin= 3.30D-02 ExpMax= 7.64D+04 ExpMxC= 1.15D+04 IAcc=3 IRadAn=         5 AccDes= 0.00D+00
 Harris functional with IExCor=  402 and IRadAn=       5 diagonalized for initial guess.
 HarFok:  IExCor=  402 AccDes= 0.00D+00 IRadAn=         5 IDoV= 1 UseB2=F ITyADJ=14
 ICtDFT=  3500011 ScaDFX=  1.000000  1.000000  1.000000  1.000000
 FoFCou: FMM=F IPFlag=           0 FMFlag=      100000 FMFlg1=           0
         NFxFlg=           0 DoJE=T BraDBF=F KetDBF=T FulRan=T
         wScrn=  0.000000 ICntrl=       500 IOpCl=  0 I1Cent=   200000004 NGrid=           0
         NMat0=    1 NMatS0=      1 NMatT0=    0 NMatD0=    1 NMtDS0=    0 NMtDT0=    0
 Symmetry not used in FoFCou.
 Harris En= -2711.49334458394    
 JPrj=0 DoOrth=F DoCkMO=F.
 Initial guess <Sx>= 0.0000 <Sy>= 0.0000 <Sz>= 0.5000 <S**2>= 0.7500 S= 0.5000
 Leave Link  401 at Fri Mar  8 00:39:30 2024, MaxMem= 13421772800 cpu:              31.8 elap:               1.0
 (Enter /public/software/apps/Gaussian/g16/l502.exe)
 Two-electron integral symmetry not used.
 UHF open shell SCF:
 Using DIIS extrapolation, IDIIS=  1040.
 NGot= 13421772800 LenX= 13421364871 LenY= 13421169949
 Requested convergence on RMS density matrix=1.00D-08 within 128 cycles.
 Requested convergence on MAX density matrix=1.00D-06.
 Requested convergence on             energy=1.00D-06.
 No special actions if energy rises.
 Fock matrices will be formed incrementally for  20 cycles.

 Cycle   1  Pass 1  IDiag  1:
 FoFJK:  IHMeth= 1 ICntrl=       0 DoSepK=F KAlg= 0 I1Cent=           0 FoldK=F
 IRaf= 890000000 NMat=       1 IRICut=       1 DoRegI=T DoRafI=F ISym2E= 0 IDoP0=0 IntGTp=1.
 FoFCou: FMM=F IPFlag=           0 FMFlag=      100000 FMFlg1=           0
         NFxFlg=           0 DoJE=F BraDBF=F KetDBF=F FulRan=T
         wScrn=  0.000000 ICntrl=         0 IOpCl=  1 I1Cent=           0 NGrid=           0
         NMat0=    1 NMatS0=      1 NMatT0=    0 NMatD0=    1 NMtDS0=    0 NMtDT0=    0
 Symmetry not used in FoFCou.
 E= -2702.53050515574    
 DIIS: error= 2.07D-01 at cycle   1 NSaved=   1.
 NSaved= 1 IEnMin= 1 EnMin= -2702.53050515574     IErMin= 1 ErrMin= 2.07D-01
 ErrMax= 2.07D-01  0.00D+00 EMaxC= 1.00D-01 BMatC= 6.74D+01 BMatP= 6.74D+01
 IDIUse=3 WtCom= 0.00D+00 WtEn= 1.00D+00
 Coeff-Com:  0.100D+01
 Coeff-En:   0.100D+01
 Coeff:      0.100D+01
 Gap=    -0.393 Goal=   None    Shift=    0.000
 Gap=     2.060 Goal=   None    Shift=    0.000
 GapD=   -0.393 DampG=0.250 DampE=0.125 DampFc=0.1250 IDamp=-1.
 Damping current iteration by 1.25D-01
 RMSDP=9.65D-02 MaxDP=1.19D+01              OVMax= 9.45D-01

 Cycle   2  Pass 1  IDiag  1:
 RMSU=  1.20D-02    CP:  1.07D+00
 E= -2704.91371456622     Delta-E=       -2.383209410485 Rises=F Damp=T
 DIIS: error= 1.32D-01 at cycle   2 NSaved=   2.
 NSaved= 2 IEnMin= 2 EnMin= -2704.91371456622     IErMin= 2 ErrMin= 1.32D-01
 ErrMax= 1.32D-01  0.00D+00 EMaxC= 1.00D-01 BMatC= 2.32D+01 BMatP= 6.74D+01
 IDIUse=3 WtCom= 0.00D+00 WtEn= 1.00D+00
 Coeff-Com: -0.116D+01 0.216D+01
 Coeff-En:   0.000D+00 0.100D+01
 Coeff:      0.000D+00 0.100D+01
 Gap=    -0.218 Goal=   None    Shift=    0.000
 Gap=     0.168 Goal=   None    Shift=    0.000
 RMSDP=2.64D-02 MaxDP=4.02D+00 DE=-2.38D+00 OVMax= 8.18D-01

 Cycle   3  Pass 1  IDiag  1:
 RMSU=  1.94D-02    CP:  1.12D+00  2.49D+00
 E= -2703.64353573602     Delta-E=        1.270178830206 Rises=F Damp=F
 DIIS: error= 9.32D-02 at cycle   3 NSaved=   3.
 NSaved= 3 IEnMin= 2 EnMin= -2704.91371456622     IErMin= 3 ErrMin= 9.32D-02
 ErrMax= 9.32D-02  0.00D+00 EMaxC= 1.00D-01 BMatC= 2.72D+01 BMatP= 2.32D+01
 IDIUse=2 WtCom= 0.00D+00 WtEn= 1.00D+00
 EnCoef did   100 forward-backward iterations
 Coeff-En:   0.466D+00 0.135D-01 0.521D+00
 Coeff:      0.466D+00 0.135D-01 0.521D+00
 Gap=     0.462 Goal=   None    Shift=    0.000
 Gap=    -0.053 Goal=   None    Shift=    0.000
 RMSDP=3.45D-02 MaxDP=5.09D+00 DE= 1.27D+00 OVMax= 9.48D-01

 Cycle   4  Pass 1  IDiag  1:
 RMSU=  9.27D-03    CP:  8.97D-01  1.51D-01  1.16D-01
 E= -2704.63513007889     Delta-E=       -0.991594342875 Rises=F Damp=F
 DIIS: error= 5.89D-02 at cycle   4 NSaved=   4.
 NSaved= 4 IEnMin= 2 EnMin= -2704.91371456622     IErMin= 4 ErrMin= 5.89D-02
 ErrMax= 5.89D-02  0.00D+00 EMaxC= 1.00D-01 BMatC= 1.50D+01 BMatP= 2.32D+01
 IDIUse=3 WtCom= 4.11D-01 WtEn= 5.89D-01
 EnCoef did   100 forward-backward iterations
 Coeff-Com: -0.634D+00 0.132D+01 0.219D+00 0.942D-01
 Coeff-En:   0.400D+00 0.571D-02 0.339D+00 0.255D+00
 Coeff:     -0.250D-01 0.546D+00 0.290D+00 0.189D+00
 Gap=    -0.080 Goal=   None    Shift=    0.000
 Gap=    -0.006 Goal=   None    Shift=    0.000
 RMSDP=9.53D-03 MaxDP=3.94D-01 DE=-9.92D-01 OVMax= 7.44D-01

 Cycle   5  Pass 1  IDiag  1:
 RMSU=  6.45D-03    CP:  9.06D-01  3.89D-02  1.58D-01  2.62D-01
 E= -2707.24737619796     Delta-E=       -2.612246119071 Rises=F Damp=F
 DIIS: error= 5.65D-02 at cycle   5 NSaved=   5.
 NSaved= 5 IEnMin= 5 EnMin= -2707.24737619796     IErMin= 5 ErrMin= 5.65D-02
 ErrMax= 5.65D-02  0.00D+00 EMaxC= 1.00D-01 BMatC= 1.33D+01 BMatP= 1.50D+01
 IDIUse=3 WtCom= 4.35D-01 WtEn= 5.65D-01
 EnCoef did   100 forward-backward iterations
 Coeff-Com: -0.615D+00 0.116D+01 0.708D-02 0.899D-01 0.354D+00
 Coeff-En:   0.168D+00 0.622D-02 0.000D+00 0.372D+00 0.454D+00
 Coeff:     -0.173D+00 0.510D+00 0.308D-02 0.249D+00 0.410D+00
 Gap=    -0.082 Goal=   None    Shift=    0.000
 Gap=    -0.026 Goal=   None    Shift=    0.000
 RMSDP=5.52D-03 MaxDP=2.66D-01 DE=-2.61D+00 OVMax= 6.97D-01

 Cycle   6  Pass 1  IDiag  1:
 RMSU=  4.02D-03    CP:  8.97D-01  3.96D-02  1.42D-01  3.79D-01  4.41D-01
 E= -2710.31797295598     Delta-E=       -3.070596758020 Rises=F Damp=F
 DIIS: error= 4.66D-02 at cycle   6 NSaved=   6.
 NSaved= 6 IEnMin= 6 EnMin= -2710.31797295598     IErMin= 6 ErrMin= 4.66D-02
 ErrMax= 4.66D-02  0.00D+00 EMaxC= 1.00D-01 BMatC= 3.03D+00 BMatP= 1.33D+01
 IDIUse=3 WtCom= 5.34D-01 WtEn= 4.66D-01
 EnCoef did     4 forward-backward iterations
 Coeff-Com: -0.408D+00 0.794D+00-0.598D-01 0.787D-01 0.237D+00 0.357D+00
 Coeff-En:   0.125D+00 0.000D+00 0.000D+00 0.106D+00 0.113D-01 0.758D+00
 Coeff:     -0.160D+00 0.424D+00-0.319D-01 0.913D-01 0.132D+00 0.544D+00
 Gap=     0.463 Goal=   None    Shift=    0.000
 Gap=    -0.138 Goal=   None    Shift=    0.000
 RMSDP=4.29D-03 MaxDP=2.07D-01 DE=-3.07D+00 OVMax= 5.12D-01

 Cycle   7  Pass 1  IDiag  1:
 RMSU=  3.39D-03    CP:  8.91D-01 -2.01D-02  1.04D-01  4.10D-01  4.61D-01
                    CP:  4.05D-01
 E= -2710.39361308160     Delta-E=       -0.075640125615 Rises=F Damp=F
 DIIS: error= 3.30D-02 at cycle   7 NSaved=   7.
 NSaved= 7 IEnMin= 7 EnMin= -2710.39361308160     IErMin= 7 ErrMin= 3.30D-02
 ErrMax= 3.30D-02  0.00D+00 EMaxC= 1.00D-01 BMatC= 3.25D+00 BMatP= 3.03D+00
 IDIUse=3 WtCom= 6.70D-01 WtEn= 3.30D-01
 EnCoef did     3 forward-backward iterations
 Coeff-Com: -0.266D+00 0.514D+00-0.664D-01-0.606D-02 0.140D-01 0.422D+00
 Coeff-Com:  0.389D+00
 Coeff-En:   0.256D-01 0.000D+00 0.000D+00 0.000D+00 0.000D+00 0.480D+00
 Coeff-En:   0.495D+00
 Coeff:     -0.170D+00 0.344D+00-0.444D-01-0.406D-02 0.938D-02 0.441D+00
 Coeff:      0.424D+00
 Gap=     0.288 Goal=   None    Shift=    0.000
 Gap=    -0.004 Goal=   None    Shift=    0.000
 RMSDP=2.80D-03 MaxDP=1.69D-01 DE=-7.56D-02 OVMax= 4.01D-01

 Cycle   8  Pass 1  IDiag  1:
 RMSU=  1.81D-03    CP:  8.93D-01 -1.27D-02  8.99D-02  4.25D-01  3.60D-01
                    CP:  6.62D-01  4.92D-01
 E= -2711.12224276204     Delta-E=       -0.728629680447 Rises=F Damp=F
 DIIS: error= 1.16D-02 at cycle   8 NSaved=   8.
 NSaved= 8 IEnMin= 8 EnMin= -2711.12224276204     IErMin= 8 ErrMin= 1.16D-02
 ErrMax= 1.16D-02  0.00D+00 EMaxC= 1.00D-01 BMatC= 3.74D-01 BMatP= 3.03D+00
 IDIUse=3 WtCom= 8.84D-01 WtEn= 1.16D-01
 Coeff-Com: -0.141D+00 0.280D+00-0.364D-01-0.459D-01-0.927D-02 0.228D+00
 Coeff-Com:  0.249D+00 0.474D+00
 Coeff-En:   0.000D+00 0.000D+00 0.000D+00 0.000D+00 0.000D+00 0.000D+00
 Coeff-En:   0.000D+00 0.100D+01
 Coeff:     -0.124D+00 0.248D+00-0.322D-01-0.406D-01-0.820D-02 0.202D+00
 Coeff:      0.221D+00 0.535D+00
 Gap=     0.219 Goal=   None    Shift=    0.000
 Gap=     0.043 Goal=   None    Shift=    0.000
 RMSDP=1.38D-03 MaxDP=6.33D-02 DE=-7.29D-01 OVMax= 2.39D-01

 Cycle   9  Pass 1  IDiag  1:
 RMSU=  1.13D-03    CP:  8.95D-01 -9.74D-03  9.83D-02  3.94D-01  4.07D-01
                    CP:  6.69D-01  5.04D-01  6.35D-01
 E= -2711.17202092539     Delta-E=       -0.049778163346 Rises=F Damp=F
 DIIS: error= 8.90D-03 at cycle   9 NSaved=   9.
 NSaved= 9 IEnMin= 9 EnMin= -2711.17202092539     IErMin= 9 ErrMin= 8.90D-03
 ErrMax= 8.90D-03  0.00D+00 EMaxC= 1.00D-01 BMatC= 2.45D-01 BMatP= 3.74D-01
 IDIUse=3 WtCom= 9.11D-01 WtEn= 8.90D-02
 Coeff-Com: -0.699D-01 0.141D+00-0.137D-01-0.413D-01-0.628D-02-0.246D-01
 Coeff-Com: -0.301D-01 0.381D+00 0.664D+00
 Coeff-En:   0.000D+00 0.000D+00 0.000D+00 0.000D+00 0.000D+00 0.000D+00
 Coeff-En:   0.000D+00 0.320D+00 0.680D+00
 Coeff:     -0.637D-01 0.129D+00-0.124D-01-0.376D-01-0.572D-02-0.224D-01
 Coeff:     -0.274D-01 0.376D+00 0.665D+00
 Gap=     0.204 Goal=   None    Shift=    0.000
 Gap=     0.064 Goal=   None    Shift=    0.000
 RMSDP=6.67D-04 MaxDP=5.01D-02 DE=-4.98D-02 OVMax= 1.05D-01

 Cycle  10  Pass 1  IDiag  1:
 RMSU=  5.36D-04    CP:  8.97D-01 -5.62D-03  9.40D-02  3.92D-01  3.85D-01
                    CP:  6.84D-01  4.63D-01  7.80D-01  8.36D-01
 E= -2711.21718756292     Delta-E=       -0.045166637532 Rises=F Damp=F
 DIIS: error= 3.87D-03 at cycle  10 NSaved=  10.
 NSaved=10 IEnMin=10 EnMin= -2711.21718756292     IErMin=10 ErrMin= 3.87D-03
 ErrMax= 3.87D-03  0.00D+00 EMaxC= 1.00D-01 BMatC= 3.53D-02 BMatP= 2.45D-01
 IDIUse=3 WtCom= 9.61D-01 WtEn= 3.87D-02
 Coeff-Com: -0.325D-01 0.685D-01-0.108D-01-0.151D-01-0.699D-02-0.283D-01
 Coeff-Com: -0.244D-01 0.124D+00 0.226D+00 0.700D+00
 Coeff-En:   0.000D+00 0.000D+00 0.000D+00 0.000D+00 0.000D+00 0.000D+00
 Coeff-En:   0.000D+00 0.000D+00 0.000D+00 0.100D+01
 Coeff:     -0.313D-01 0.659D-01-0.104D-01-0.145D-01-0.672D-02-0.272D-01
 Coeff:     -0.234D-01 0.119D+00 0.217D+00 0.711D+00
 Gap=     0.199 Goal=   None    Shift=    0.000
 Gap=     0.067 Goal=   None    Shift=    0.000
 RMSDP=3.19D-04 MaxDP=2.94D-02 DE=-4.52D-02 OVMax= 4.41D-02

 Cycle  11  Pass 1  IDiag  1:
 RMSU=  2.67D-04    CP:  8.96D-01 -7.36D-03  9.50D-02  3.93D-01  3.82D-01
                    CP:  6.86D-01  4.64D-01  7.64D-01  8.43D-01  6.89D-01
 E= -2711.22038006818     Delta-E=       -0.003192505262 Rises=F Damp=F
 DIIS: error= 2.85D-03 at cycle  11 NSaved=  11.
 NSaved=11 IEnMin=11 EnMin= -2711.22038006818     IErMin=11 ErrMin= 2.85D-03
 ErrMax= 2.85D-03  0.00D+00 EMaxC= 1.00D-01 BMatC= 2.14D-02 BMatP= 3.53D-02
 IDIUse=3 WtCom= 9.72D-01 WtEn= 2.85D-02
 Coeff-Com: -0.109D-01 0.219D-01-0.338D-02 0.485D-02-0.440D-02-0.222D-01
 Coeff-Com: -0.171D-02-0.712D-01-0.192D+00 0.493D+00 0.786D+00
 Coeff-En:   0.000D+00 0.000D+00 0.000D+00 0.000D+00 0.000D+00 0.000D+00
 Coeff-En:   0.000D+00 0.000D+00 0.000D+00 0.254D+00 0.746D+00
 Coeff:     -0.106D-01 0.212D-01-0.328D-02 0.471D-02-0.427D-02-0.215D-01
 Coeff:     -0.167D-02-0.692D-01-0.186D+00 0.486D+00 0.785D+00
 Gap=     0.194 Goal=   None    Shift=    0.000
 Gap=     0.071 Goal=   None    Shift=    0.000
 RMSDP=2.39D-04 MaxDP=4.37D-02 DE=-3.19D-03 OVMax= 4.45D-02

 Cycle  12  Pass 1  IDiag  1:
 RMSU=  1.78D-04    CP:  8.96D-01 -6.85D-03  9.34D-02  3.94D-01  3.73D-01
                    CP:  6.79D-01  4.68D-01  7.82D-01  8.36D-01  9.44D-01
                    CP:  9.76D-01
 E= -2711.22538235313     Delta-E=       -0.005002284944 Rises=F Damp=F
 DIIS: error= 7.57D-04 at cycle  12 NSaved=  12.
 NSaved=12 IEnMin=12 EnMin= -2711.22538235313     IErMin=12 ErrMin= 7.57D-04
 ErrMax= 7.57D-04  0.00D+00 EMaxC= 1.00D-01 BMatC= 2.08D-03 BMatP= 2.14D-02
 IDIUse=3 WtCom= 9.92D-01 WtEn= 7.57D-03
 Coeff-Com: -0.716D-02 0.118D-01 0.115D-02 0.322D-02-0.232D-02-0.956D-02
 Coeff-Com:  0.226D-02-0.163D-01-0.898D-01 0.889D-01 0.314D+00 0.703D+00
 Coeff-En:   0.000D+00 0.000D+00 0.000D+00 0.000D+00 0.000D+00 0.000D+00
 Coeff-En:   0.000D+00 0.000D+00 0.000D+00 0.000D+00 0.000D+00 0.100D+01
 Coeff:     -0.711D-02 0.118D-01 0.114D-02 0.319D-02-0.230D-02-0.948D-02
 Coeff:      0.224D-02-0.162D-01-0.891D-01 0.882D-01 0.312D+00 0.706D+00
 Gap=     0.192 Goal=   None    Shift=    0.000
 Gap=     0.071 Goal=   None    Shift=    0.000
 RMSDP=1.09D-04 MaxDP=1.16D-02 DE=-5.00D-03 OVMax= 1.25D-02

 Cycle  13  Pass 1  IDiag  1:
 RMSU=  8.62D-05    CP:  8.97D-01 -4.72D-03  9.48D-02  3.95D-01  3.69D-01
                    CP:  6.82D-01  4.69D-01  7.80D-01  8.31D-01  9.67D-01
                    CP:  1.15D+00  9.78D-01
 E= -2711.22589889454     Delta-E=       -0.000516541410 Rises=F Damp=F
 DIIS: error= 4.74D-04 at cycle  13 NSaved=  13.
 NSaved=13 IEnMin=13 EnMin= -2711.22589889454     IErMin=13 ErrMin= 4.74D-04
 ErrMax= 4.74D-04  0.00D+00 EMaxC= 1.00D-01 BMatC= 8.41D-04 BMatP= 2.08D-03
 IDIUse=3 WtCom= 9.95D-01 WtEn= 4.74D-03
 Coeff-Com: -0.437D-02 0.661D-02 0.140D-02 0.148D-02-0.936D-03-0.324D-02
 Coeff-Com:  0.510D-03 0.155D-01-0.124D-01-0.176D-01 0.486D-01 0.399D+00
 Coeff-Com:  0.565D+00
 Coeff-En:   0.000D+00 0.000D+00 0.000D+00 0.000D+00 0.000D+00 0.000D+00
 Coeff-En:   0.000D+00 0.000D+00 0.000D+00 0.000D+00 0.000D+00 0.000D+00
 Coeff-En:   0.100D+01
 Coeff:     -0.435D-02 0.658D-02 0.139D-02 0.147D-02-0.932D-03-0.322D-02
 Coeff:      0.508D-03 0.155D-01-0.123D-01-0.175D-01 0.483D-01 0.397D+00
 Coeff:      0.567D+00
 Gap=     0.191 Goal=   None    Shift=    0.000
 Gap=     0.070 Goal=   None    Shift=    0.000
 RMSDP=5.34D-05 MaxDP=4.92D-03 DE=-5.17D-04 OVMax= 7.29D-03

 Cycle  14  Pass 1  IDiag  1:
 RMSU=  4.18D-05    CP:  8.97D-01 -3.88D-03  9.54D-02  3.96D-01  3.68D-01
                    CP:  6.82D-01  4.68D-01  7.81D-01  8.27D-01  9.67D-01
                    CP:  1.18D+00  1.12D+00  9.78D-01
 E= -2711.22610871479     Delta-E=       -0.000209820252 Rises=F Damp=F
 DIIS: error= 3.07D-04 at cycle  14 NSaved=  14.
 NSaved=14 IEnMin=14 EnMin= -2711.22610871479     IErMin=14 ErrMin= 3.07D-04
 ErrMax= 3.07D-04  0.00D+00 EMaxC= 1.00D-01 BMatC= 2.69D-04 BMatP= 8.41D-04
 IDIUse=3 WtCom= 9.97D-01 WtEn= 3.07D-03
 Coeff-Com: -0.825D-03 0.944D-03 0.489D-03 0.538D-03-0.305D-03 0.756D-04
 Coeff-Com: -0.136D-02 0.172D-01 0.191D-01 0.706D-02-0.422D-01-0.929D-01
 Coeff-Com:  0.196D+00 0.896D+00
 Coeff-En:   0.000D+00 0.000D+00 0.000D+00 0.000D+00 0.000D+00 0.000D+00
 Coeff-En:   0.000D+00 0.000D+00 0.000D+00 0.000D+00 0.000D+00 0.000D+00
 Coeff-En:   0.000D+00 0.100D+01
 Coeff:     -0.822D-03 0.941D-03 0.487D-03 0.537D-03-0.304D-03 0.753D-04
 Coeff:     -0.136D-02 0.171D-01 0.190D-01 0.704D-02-0.421D-01-0.926D-01
 Coeff:      0.195D+00 0.897D+00
 Gap=     0.191 Goal=   None    Shift=    0.000
 Gap=     0.070 Goal=   None    Shift=    0.000
 RMSDP=3.51D-05 MaxDP=4.34D-03 DE=-2.10D-04 OVMax= 6.01D-03

 Cycle  15  Pass 1  IDiag  1:
 RMSU=  1.85D-05    CP:  8.97D-01 -3.28D-03  9.59D-02  3.97D-01  3.67D-01
                    CP:  6.82D-01  4.68D-01  7.82D-01  8.23D-01  9.65D-01
                    CP:  1.21D+00  1.19D+00  1.19D+00  1.07D+00
 E= -2711.22616539622     Delta-E=       -0.000056681432 Rises=F Damp=F
 DIIS: error= 3.02D-04 at cycle  15 NSaved=  15.
 NSaved=15 IEnMin=15 EnMin= -2711.22616539622     IErMin=15 ErrMin= 3.02D-04
 ErrMax= 3.02D-04  0.00D+00 EMaxC= 1.00D-01 BMatC= 1.66D-04 BMatP= 2.69D-04
 IDIUse=3 WtCom= 9.97D-01 WtEn= 3.02D-03
 Coeff-Com: -0.164D-03 0.586D-04 0.148D-03 0.323D-03-0.573D-04 0.728D-03
 Coeff-Com: -0.964D-03 0.931D-02 0.147D-01 0.285D-01-0.193D-01-0.164D+00
 Coeff-Com: -0.258D-01 0.508D+00 0.648D+00
 Coeff-En:   0.000D+00 0.000D+00 0.000D+00 0.000D+00 0.000D+00 0.000D+00
 Coeff-En:   0.000D+00 0.000D+00 0.000D+00 0.000D+00 0.000D+00 0.000D+00
 Coeff-En:   0.000D+00 0.000D+00 0.100D+01
 Coeff:     -0.164D-03 0.585D-04 0.148D-03 0.322D-03-0.572D-04 0.726D-03
 Coeff:     -0.961D-03 0.928D-02 0.147D-01 0.284D-01-0.192D-01-0.164D+00
 Coeff:     -0.258D-01 0.507D+00 0.649D+00
 Gap=     0.191 Goal=   None    Shift=    0.000
 Gap=     0.070 Goal=   None    Shift=    0.000
 RMSDP=1.72D-05 MaxDP=1.12D-03 DE=-5.67D-05 OVMax= 2.28D-03

 Cycle  16  Pass 1  IDiag  1:
 RMSU=  1.06D-05    CP:  8.97D-01 -3.00D-03  9.62D-02  3.98D-01  3.67D-01
                    CP:  6.82D-01  4.68D-01  7.82D-01  8.20D-01  9.71D-01
                    CP:  1.22D+00  1.21D+00  1.26D+00  1.25D+00  9.21D-01
 E= -2711.22618668688     Delta-E=       -0.000021290662 Rises=F Damp=F
 DIIS: error= 2.08D-04 at cycle  16 NSaved=  16.
 NSaved=16 IEnMin=16 EnMin= -2711.22618668688     IErMin=16 ErrMin= 2.08D-04
 ErrMax= 2.08D-04  0.00D+00 EMaxC= 1.00D-01 BMatC= 7.34D-05 BMatP= 1.66D-04
 IDIUse=3 WtCom= 9.98D-01 WtEn= 2.08D-03
 Coeff-Com: -0.677D-04 0.638D-04 0.339D-04 0.140D-03-0.148D-04 0.551D-03
 Coeff-Com: -0.202D-03 0.841D-04 0.241D-02 0.327D-01 0.179D-01-0.918D-01
 Coeff-Com: -0.133D+00-0.105D+00 0.345D+00 0.932D+00
 Coeff-En:   0.000D+00 0.000D+00 0.000D+00 0.000D+00 0.000D+00 0.000D+00
 Coeff-En:   0.000D+00 0.000D+00 0.000D+00 0.000D+00 0.000D+00 0.000D+00
 Coeff-En:   0.000D+00 0.000D+00 0.000D+00 0.100D+01
 Coeff:     -0.676D-04 0.637D-04 0.339D-04 0.139D-03-0.148D-04 0.550D-03
 Coeff:     -0.202D-03 0.839D-04 0.241D-02 0.326D-01 0.179D-01-0.916D-01
 Coeff:     -0.133D+00-0.105D+00 0.344D+00 0.932D+00
 Gap=     0.191 Goal=   None    Shift=    0.000
 Gap=     0.070 Goal=   None    Shift=    0.000
 RMSDP=1.57D-05 MaxDP=9.78D-04 DE=-2.13D-05 OVMax= 2.35D-03

 Cycle  17  Pass 1  IDiag  1:
 RMSU=  7.00D-06    CP:  8.97D-01 -2.65D-03  9.65D-02  3.98D-01  3.67D-01
                    CP:  6.83D-01  4.67D-01  7.81D-01  8.20D-01  9.72D-01
                    CP:  1.24D+00  1.23D+00  1.34D+00  1.37D+00  1.19D+00
                    CP:  1.06D+00
 E= -2711.22619929412     Delta-E=       -0.000012607232 Rises=F Damp=F
 DIIS: error= 8.07D-05 at cycle  17 NSaved=  17.
 NSaved=17 IEnMin=17 EnMin= -2711.22619929412     IErMin=17 ErrMin= 8.07D-05
 ErrMax= 8.07D-05  0.00D+00 EMaxC= 1.00D-01 BMatC= 1.36D-05 BMatP= 7.34D-05
 IDIUse=1 WtCom= 1.00D+00 WtEn= 0.00D+00
 Coeff-Com: -0.880D-04 0.139D-03 0.182D-04 0.850D-04-0.392D-04 0.209D-03
 Coeff-Com: -0.246D-04-0.205D-02-0.112D-02 0.147D-01 0.151D-01-0.195D-01
 Coeff-Com: -0.755D-01-0.193D+00-0.398D-01 0.517D+00 0.784D+00
 Coeff:     -0.880D-04 0.139D-03 0.182D-04 0.850D-04-0.392D-04 0.209D-03
 Coeff:     -0.246D-04-0.205D-02-0.112D-02 0.147D-01 0.151D-01-0.195D-01
 Coeff:     -0.755D-01-0.193D+00-0.398D-01 0.517D+00 0.784D+00
[...]
 ,0.00000396,-0.00000056,0.00000202,0.00000053,0.00000100,-0.00000444,0
 .00000819,0.00000128,-0.00000328,-0.00000533,0.00003891,-0.00001644,0.
 00006792,0.00004148,-0.00001011,0.00002268,-0.00000725,0.00004686,0.00
 188101,-0.00035270,-0.00324430,-0.00094836,0.00054422,0.00185191,0.001
 98601,-0.00682388,-0.00534402,0.04201623,0.00000279,0.00001185,0.00001
 464,-0.00000110,-0.00000982,-0.00000400,-0.00001049,-0.00000263,0.0000
 0855,-0.00000810,-0.00000243,-0.00005291,0.00007383,-0.00007780,-0.000
 05603,-0.00006976,0.00014634,-0.00012717,0.00058069,0.00013747,-0.0002
 8982,0.00015624,-0.00107087,0.00084095,-0.00154207,0.00040845,0.001244
 23,-0.00071477,0.00110608,0.00022671,0.00005794,-0.00021126,0.00007104
 ,-0.00000952,0.00005855,-0.00005964,0.00000364,-0.00000165,0.00005358,
 -0.00001541,0.00001520,-0.00000093,-0.00000726,0.00002026,0.00001566,-
 0.00000584,-0.00002785,-0.00003285,0.00003092,-0.00000925,-0.00000628,
 -0.00000298,-0.00005135,0.00000753,0.00001102,0.00003616,0.00005433,-0
 .00015733,-0.00012923,-0.00000269,-0.00042048,0.00514986,0.00104280,0.
 01497891,-0.29675184,-0.11228701,-0.00059012,0.00010231,-0.00000406,0.
 00000615,0.00002259,-0.00001454,0.00002110,0.00000231,0.00000665,0.000
 00024,0.00000038,0.00000082,0.00000108,0.00000014,-0.00000119,0.000000
 13,0.00000026,-0.00000007,0.00000278,0.00000855,0.00000128,-0.00002094
 ,0.00000649,0.00001340,0.00001285,-0.00000975,0.00000194,-0.00001229,-
 0.00000271,0.00000207,-0.00000089,0.00000225,-0.00000153,0.00000082,0.
 00000047,0.00000160,0.00000035,0.00000088,-0.00000194,0.00000164,0.000
 00142,-0.00000182,-0.00000106,0.00001201,-0.00001123,-0.00001157,-0.00
 000629,-0.00001388,-0.00003192,-0.00001213,0.00001802,0.00007711,0.000
 70472,0.00088487,0.00030721,0.00076311,0.00019957,0.00230110,-0.012202
 46,-0.00929084,-0.01502471,0.30180438,0.00000106,0.00001034,0.00001097
 ,-0.00000365,-0.00000671,-0.00000782,-0.00002973,-0.00000270,-0.000007
 04,0.00000481,-0.00000950,0.00000557,-0.00014281,0.00012297,0.00001656
 ,0.00009597,-0.00023441,0.00017062,-0.00054260,0.00013212,0.00041993,-
 0.00117336,0.00159527,-0.00091643,0.00122459,-0.00096566,-0.00352670,0
 .00178522,-0.00217630,0.00072794,-0.00021603,0.00038244,-0.00022560,0.
 00000531,-0.00003055,0.00001212,0.00002423,0.00004141,-0.00006352,-0.0
 0002568,0.00000539,0.00001976,0.00001108,-0.00001198,-0.00000712,0.000
 00252,0.00001128,0.00001295,-0.00001505,-0.00000276,-0.00000378,-0.000
 00366,0.00000201,-0.00000351,0.00028562,0.00040177,-0.00001340,-0.0008
 2113,0.00025848,0.00010258,0.00134956,-0.02470191,-0.01130061,0.012229
 93,-0.10628641,-0.09793469,0.00007939,0.00011346,-0.00000586,-0.000006
 01,0.00002888,0.00001148,0.00000540,0.00000476,-0.00000024,0.00000052,
 -0.00000129,0.00000140,-0.00000127,-0.00000159,-0.00000018,0.00000207,
 -0.00000091,-0.00000167,-0.00001732,0.00000378,-0.00000221,0.00001476,
 -0.00000093,-0.00001245,-0.00002040,0.00001919,-0.00000899,-0.00002327
 ,-0.00001488,0.00000667,0.00000274,0.00000018,0.00000338,-0.00000173,0
 .00000238,0.00000048,0.00000055,-0.00000049,0.00000053,-0.00000176,0.0
 0000036,-0.00000022,-0.00000132,-0.00001242,-0.00000633,-0.00005919,-0
 .00005560,0.00001339,-0.00000433,-0.00001213,0.00000419,0.00260079,0.0
 0008555,-0.00338809,-0.00130018,-0.00002463,0.00194276,-0.00305761,0.0
 1389362,0.01075156,-0.01229320,0.11756907,0.10317558,-0.00531800,-0.00
 048789,-0.00204508,-0.00101570,-0.00065271,-0.00098660,0.00004822,-0.0
 0237664,-0.00210327,0.01115567,-0.00428304,-0.00641649,-0.00003231,0.0
 0031421,0.00009149,-0.00023565,0.00000285,-0.00032926,-0.00015536,-0.0
 0034936,0.00039622,0.00016042,0.00041192,-0.00099584,-0.00009320,0.000
 01164,-0.00000271,0.00031757,0.00028966,-0.00010870,-0.00063316,0.0002
 3683,-0.00026525,-0.00005384,-0.00003335,0.00000194,0.00002569,-0.0000
 3429,-0.00004520,0.00001147,0.00000570,-0.00002701,-0.00001453,-0.0000
 0864,-0.00001529,0.00000317,0.00002760,0.00003331,-0.00001759,-0.00000
 992,0.00000962,-0.00002686,-0.00003121,0.00004973,0.00001804,0.0000107
 4,0.00000520,-0.00015932,0.00004541,-0.00001844,-0.00000229,-0.0000407
 9,0.00000937,0.00001264,-0.00002794,0.00001358,-0.00176239,-0.00024113
 ,-0.00089744,-0.14593718,0.07095728,0.09884770,-0.01294817,0.01534362,
 0.02183662,-0.00042656,0.00109216,0.00067412,0.00001148,0.00001010,0.0
 0007220,0.00035909,-0.00068725,-0.00009195,0.00030892,0.00001274,0.000
 09333,-0.00011922,-0.00022882,0.00002146,0.00001159,-0.00005065,0.0000
 7045,0.00000840,-0.00002720,0.00000491,0.00000115,-0.00001601,0.000003
 62,-0.00000477,-0.00000351,0.00000363,0.00000157,0.00000341,-0.0000002
 4,-0.00000170,0.00000726,-0.00001179,0.00001338,0.00002603,-0.00002394
 ,-0.00000688,-0.00000093,-0.00000349,-0.00000832,-0.00000052,-0.000002
 04,-0.00001244,0.00000641,-0.00000120,0.00001332,0.00000311,0.00000118
 ,-0.00003662,0.00001156,-0.00000463,0.00000585,-0.00000041,0.00000347,
 0.15456794,0.00131970,0.00528068,-0.00245327,0.00004771,-0.00003785,0.
 00111225,-0.00476927,0.00223988,-0.00455571,0.01233676,-0.01092639,-0.
 01332036,0.00059233,-0.00178963,0.00156392,-0.00045411,0.00062228,-0.0
 0044248,-0.00003807,-0.00051218,0.00013270,-0.00037986,0.00064859,0.00
 007380,-0.00006662,-0.00013282,0.00016941,0.00081488,0.00032667,0.0002
 4820,-0.00047281,0.00001091,-0.00042478,-0.00008981,-0.00005385,0.0000
 8631,-0.00001830,-0.00006263,-0.00024561,0.00006474,-0.00004548,-0.000
 03747,0.00001671,-0.00008269,-0.00008200,0.00001002,0.00011738,0.00015
 227,-0.00019610,0.00010552,-0.00001647,0.00043565,0.00043739,-0.000047
 74,-0.00001202,-0.00004108,0.00003562,-0.00030826,0.00018072,-0.000194
 89,-0.00003625,-0.00008459,-0.00005018,0.00012294,-0.00006382,0.000000
 32,0.00157048,0.00072104,0.00112336,0.06612398,-0.09034593,-0.09055115
 ,0.00257302,0.00132048,-0.00062967,-0.00003120,-0.00002988,-0.00010435
 ,0.00002399,-0.00050821,0.00045646,0.00072994,-0.00020653,-0.00061758,
 -0.00002868,-0.00015604,0.00006096,-0.00028245,-0.00020292,0.00033276,
 0.00012123,-0.00008831,0.00015028,0.00000305,-0.00001933,-0.00000532,-
 0.00000857,-0.00001397,0.00000231,-0.00000694,-0.00000442,-0.00000220,
 0.00000190,-0.00000105,0.00000843,0.00000034,0.00001174,-0.00001017,-0
 .00005484,-0.00010641,0.00004910,0.00000428,-0.00000087,-0.00000181,-0
 .00001052,-0.00000494,-0.00000885,-0.00003325,0.00002135,-0.00000706,0
 .00002414,-0.00000744,-0.00000767,-0.00003400,0.00001992,-0.00000589,0
 .00001958,-0.00000517,-0.00000164,-0.07975203,0.09934651,-0.00241895,-
 0.00123897,0.00294983,-0.00152359,0.00005811,-0.00119350,-0.00149993,-
 0.00395680,-0.00039447,0.01253131,-0.00423665,-0.00735791,0.00096472,0
 .00055840,-0.00037077,-0.00006428,-0.00025928,-0.00004452,0.00009255,0
 .00043545,-0.00040289,-0.00130281,0.00012530,0.00054216,0.00027261,-0.
 00004568,-0.00003750,-0.00059557,-0.00016818,-0.00018208,0.00085653,-0
 .00046820,0.00059161,0.00019756,0.00010610,0.00002162,0.00003330,0.000
 18917,0.00036692,-0.00011513,0.00008139,0.00003610,-0.00002616,0.00012
 022,0.00011507,-0.00004095,-0.00015920,-0.00020643,0.00017603,-0.00010
 267,-0.00001709,-0.00020126,-0.00042336,-0.00001950,0.00006159,0.00005
 235,-0.00004608,0.00024823,-0.00035726,0.00017140,-0.00014683,0.000024
 10,0.00010374,-0.00018923,0.00000527,-0.00007686,0.00041949,-0.0002530
 1,0.00046719,0.10522944,-0.10113803,-0.16340562,-0.00527425,0.00401131
 ,0.00690026,-0.00023590,0.00024776,0.00012436,0.00005271,0.00033978,-0
 .00031521,0.00058725,-0.00086694,0.00025137,0.00013421,0.00009028,0.00
 001215,-0.00005274,-0.00004463,0.00019513,0.00001126,-0.00003573,0.000
 06759,-0.00000790,-0.00002634,0.00001174,0.00001119,-0.00000879,0.0000
 0485,0.00000265,0.00000195,0.00000898,-0.00000302,-0.00000516,-0.00000
 506,-0.00000042,-0.00001233,0.00001883,0.00002946,0.00003641,-0.000032
 21,-0.00001782,0.00000026,0.00000161,0.00000762,0.,0.00001412,0.000013
 10,-0.00001599,-0.00000842,0.00002196,0.00000854,-0.00001577,0.0000253
 8,-0.00001279,0.00002006,0.00002535,0.00000773,0.00000889,-0.10913991,
 0.10077596,0.16952585,0.01210971,0.01182092,0.01414509,-0.00211238,0.0
 0319421,0.00131618,-0.00016081,0.00029590,0.00038929,-0.00504779,0.002
 33026,-0.00005433,-0.00018463,-0.00094801,-0.00106970,0.00012473,-0.00
 001274,-0.00011507,-0.00005388,0.00005804,0.00001170,0.00002384,-0.000
 05201,0.00002640,0.00001851,0.00001176,-0.00000913,-0.00011367,-0.0000
 3801,-0.00001175,0.00008655,-0.00000508,0.00011214,0.00000467,0.000011
 08,-0.00002507,-0.00002147,0.00002102,0.00005959,-0.00000559,0.0000005
 9,0.00001844,0.00003309,0.00003442,0.00000599,0.00001325,-0.00000830,-
 0.00005914,0.00004337,0.00000854,0.00001761,-0.00004639,-0.00008093,-0
 .00000062,-0.00000502,0.00000979,-0.00000089,0.00004027,-0.00002414,0.
 00000048,-0.00000124,0.00001372,0.00000544,-0.00001253,0.00001535,0.00
 000107,0.00015082,-0.00010089,0.00004769,-0.00765948,-0.01851962,-0.02
 192415,-0.10198251,-0.06272021,-0.08017187,0.00077282,-0.00081890,0.00
 012114,0.00046849,0.00055870,0.00059003,0.00002755,-0.00015091,0.00007
 369,-0.00042582,0.00010595,-0.00012259,-0.00002025,0.00001082,0.000022
 19,-0.00000769,0.00000051,0.00001882,-0.00000340,0.00002378,-0.0000036
 9,0.00000453,0.00001146,-0.00000038,0.00000293,-0.00001806,0.00000356,
 -0.00000404,-0.00000652,0.00002365,-0.00000025,-0.00000075,0.00000375,
 -0.00000109,0.00000194,0.00000053,0.00000378,-0.00000047,0.00000305,0.
 00000151,0.00000142,-0.00000178,0.00000735,-0.00000356,0.00000062,-0.0
 0000418,0.00000127,0.00000187,0.00000302,-0.00000531,-0.00000412,-0.00
 000665,0.00000304,-0.00000308,0.00125257,-0.00032581,0.00032644,0.1027
 8334,-0.00802014,-0.00551656,-0.01418034,0.00371642,0.00233077,-0.0049
 2958,0.00052248,-0.00008224,0.00079326,0.00110380,0.00424462,-0.002631
 91,0.00013256,0.00049981,-0.00061344,0.00002175,-0.00003072,0.00011543
 ,-0.00000006,-0.00007791,0.00000489,0.00010531,-0.00000537,-0.00006046
 ,-0.00004056,0.00000541,0.00000578,0.00004867,-0.00003444,-0.00001623,
 0.00002767,-0.00001917,-0.00000319,0.00003458,0.00000922,0.00000370,0.
 00005418,0.00005370,0.00003445,-0.00001398,0.00002059,-0.00004917,-0.0
 0005351,0.00004051,0.00002703,-0.00002412,-0.00000569,-0.00006310,0.00
 000608,0.00001616,0.00000608,-0.00000252,-0.00001675,-0.00002988,0.000
 02148,-0.00000238,-0.00000240,-0.00001621,-0.00000087,0.00002583,0.000
 02447,-0.00000638,-0.00001209,0.00002004,-0.00000427,0.00001102,-0.000
 06564,-0.00010593,0.00001696,0.00269657,0.00414046,0.00296952,-0.06441
 227,-0.14442762,-0.12713409,-0.00057749,-0.00170925,0.00266386,-0.0005
 2106,-0.00066529,-0.00010116,-0.00017846,-0.00054147,0.00050393,-0.000
 15747,-0.00004381,0.00007264,-0.00002558,-0.00000215,-0.00000799,-0.00
 000234,0.00001279,-0.00000366,0.00000423,-0.00001584,0.00000083,0.0000
 0591,-0.00002480,0.00000720,-0.00001102,-0.00001362,0.00000996,-0.0000
 0234,0.00000171,0.00000164,0.00000047,-0.00000309,0.00000336,-0.000005
 14,0.00001341,-0.00001191,-0.00000312,-0.00000133,-0.00000078,-0.00000
 108,-0.00000153,0.00000171,-0.00000290,0.00000278,0.00000035,-0.000001
 30,-0.00000104,0.00000128,-0.00000237,0.00000376,-0.00000106,-0.000000
 34,-0.00000156,0.00000039,-0.00005013,-0.00198240,0.00163838,0.0654780
 3,0.14370127,-0.00837205,-0.00832007,-0.00479120,0.00139115,-0.0047655
 8,0.00235508,0.00080523,0.00033778,-0.00027299,-0.00070818,-0.00208572
 ,0.00396113,0.00014041,-0.00043247,0.00062062,-0.00005254,0.00001305,-
 0.00009828,0.00002229,0.00003463,-0.00001711,-0.00009405,0.00004687,0.
 00006725,0.00004384,-0.00001442,0.00000153,0.00002239,0.00004823,0.000
 04118,-0.00006723,0.00006160,-0.00000976,-0.00006096,-0.00001987,0.000
 03040,-0.00006021,-0.00005414,-0.00004685,0.00001894,0.00002694,0.0000
 4008,0.00006402,-0.00002073,-0.00000550,0.00005511,0.00001076,0.000081
 29,0.00000296,-0.00008657,-0.00001099,-0.00003371,0.00000329,0.0000717
 5,-0.00003224,-0.00000487,-0.00000096,0.00000413,0.00003388,-0.0000472
 9,-0.00002737,0.00000353,0.00001177,-0.00002065,0.00000039,-0.00001331
 ,0.00007365,0.00006550,-0.00002072,-0.00027375,-0.00198153,-0.00044099
 ,-0.07895815,-0.12905590,-0.19639015,0.00025746,0.00245101,-0.00130146
 ,-0.00039220,-0.00001091,-0.00056902,0.00006792,0.00046967,-0.00046660
 ,0.00013976,0.00003244,-0.00003180,0.00002022,0.00001096,0.00000123,-0
 .00000377,-0.00000993,0.00000859,0.00000373,0.00000863,-0.00000077,0.0
 0000185,0.00000634,-0.00000226,0.00000518,0.00001621,0.00000005,0.0000
 1700,0.00001307,-0.00002542,-0.00000455,0.00000474,-0.00001510,0.00001
 136,-0.00001431,0.00001804,0.00000099,0.00000356,-0.00000234,0.0000017
 1,0.00000140,-0.00000072,0.00000146,-0.00000208,-0.00000073,0.00000230
 ,0.00000094,-0.00000131,0.00000227,-0.00000248,0.00000246,0.00000399,0
 .00000065,0.00000148,-0.00019214,0.00251379,-0.00077178,0.08659985,0.1
 4104954,0.19802147,-0.00122023,0.00094890,0.00106809,-0.00185941,-0.00
 071756,-0.00163933,0.00199588,-0.00110366,-0.00137562,0.00208129,0.004
 25711,0.00374243,0.00197311,-0.00712873,-0.00250890,0.00124808,-0.0008
 0580,-0.00031838,0.00323349,0.00634041,-0.00256686,-0.01926872,-0.0051
 6887,0.00208381,-0.00011813,-0.00044031,0.00027975,-0.01096544,0.01182
 403,0.00146425,-0.03719190,0.03191887,0.00650624,0.00540607,0.00269173
 ,0.00118157,0.00025579,-0.00543364,-0.00445280,0.00064349,0.00007801,0
 .00056887,-0.00056774,0.00027458,0.00098658,-0.00095222,-0.00002961,-0
 .00014525,-0.00417109,0.00023805,0.00090647,0.00057924,0.00349109,0.00
 209309,0.00135660,-0.00005517,0.00026759,-0.00033735,-0.00550352,0.001
 13120,-0.00048460,-0.00048282,0.00017196,-0.00008268,0.00007888,-0.000
 22601,-0.05565083,-0.03388995,-0.00255665,-0.00084485,-0.00413696,-0.0
 0041833,-0.00365444,0.00099853,-0.00046756,-0.00000997,-0.00015054,0.0
 0015150,-0.00013782,0.00002515,-0.00005941,0.00013707,-0.00005246,-0.0
 0016352,-0.00028743,0.00087192,0.00032570,-0.00006540,0.00016957,-0.00
 004643,0.00013768,0.00002050,-0.00023381,-0.00058091,-0.00089174,-0.00
 011319,0.00015751,0.00003864,0.00012175,-0.00010492,0.00000754,0.00003
 386,-0.00000172,0.00015089,-0.00011346,0.00000960,-0.00011671,0.000333
 47,0.00008144,-0.00083188,-0.00030933,-0.00006778,-0.00013533,0.000032
 67,0.00016366,-0.00007065,0.00020870,-0.00011409,0.00001910,-0.0000507
 5,0.00020814,0.00000544,-0.00010618,0.00001646,-0.00000442,0.00005670,
 0.00006620,0.00002742,0.00003480,0.00071392,0.00045239,0.00052468,-0.0
 0009593,0.00016642,-0.00042740,0.11837086,-0.00117918,0.00281722,0.003
 16603,-0.00310320,-0.00157685,-0.00166807,0.00287575,-0.00150286,-0.00
 125014,-0.00240716,-0.00673809,-0.00272623,-0.00885801,-0.00839075,-0.
 00216373,-0.00064605,-0.00176839,0.00067216,0.00613804,0.00123339,-0.0
 0411436,-0.01627461,0.01053112,0.00528204,-0.00030593,-0.00315276,0.00
 202968,0.02314764,0.00234029,0.00236412,0.02170053,-0.05443919,-0.0114
 7986,0.00441943,-0.01174129,-0.00377232,-0.00010381,-0.00575114,-0.001
 71945,-0.00376588,-0.00071623,-0.00102589,0.00254637,-0.00255393,-0.00
 250223,0.00270958,0.00239924,0.00308898,-0.00349027,0.00092008,0.00081
 228,0.00076494,-0.00103136,0.00128070,-0.00017458,-0.00194514,0.000556
 52,-0.00626344,0.00473800,-0.00366841,-0.00138710,-0.00144690,-0.00020
 199,0.00096684,-0.00186917,-0.00031374,-0.02329089,-0.03855495,-0.0065
 2196,-0.00064583,0.00059494,0.00158746,0.00477597,-0.00035250,0.000401
 16,0.00000606,0.00013518,0.00011343,-0.00000688,0.00000227,-0.00016004
 ,-0.00003305,0.00021779,0.00000075,0.00017723,-0.00048788,0.00045949,-
 0.00021971,-0.00004800,0.00006281,-0.00007514,-0.00005413,0.00010927,-
 0.00006480,-0.00022364,0.00054932,0.00004651,0.00019341,-0.00004645,0.
 00001652,0.00000034,-0.00017574,0.00004497,0.00008488,0.00014992,0.000
 20557,0.00024708,-0.00054469,-0.00095146,-0.00348665,0.00521228,0.0002
 2847,-0.00006960,0.00002024,0.00002608,-0.00005691,0.00004033,-0.00053
 660,0.00022681,-0.00003422,0.00071717,0.00001007,-0.00017774,-0.000738
 59,0.00022405,-0.00009161,0.00057144,0.00006355,-0.00012967,0.00056414
 ,-0.00389422,0.00492176,-0.00018226,0.00024653,-0.00038783,0.00205519,
 0.12462627,0.00015973,-0.00101010,-0.00087164,-0.00111497,-0.00109073,
 -0.00141251,0.00416511,-0.00255230,-0.00220740,0.00138856,0.00583777,0
 .00072863,0.00065466,-0.00258557,0.00074308,0.00070204,0.00027812,-0.0
 0017499,0.00219754,0.00185687,-0.00071658,0.00103696,0.00332068,0.0006
 6785,-0.00002709,0.00001432,-0.00023697,0.00221389,0.00177064,0.000590
 51,0.01100409,-0.01633763,-0.00529473,-0.00193828,-0.00303196,0.000629
 93,0.00034959,0.00680967,0.00142300,-0.00524852,-0.00128976,-0.0016435
 4,0.00070703,-0.00142892,-0.00174900,-0.00035285,-0.00088516,-0.000766
 70,0.00486605,-0.00049053,-0.00231019,0.00022357,-0.00336867,0.0070916
 4,-0.00083808,0.00043322,-0.00010268,-0.00178512,0.00338549,-0.0007005
 4,-0.00001945,0.00000211,-0.00011845,0.00004292,-0.00005754,-0.0000901
 1,-0.00796757,-0.00839506,-0.00309177,0.00003422,-0.00277946,0.0074188
 1,-0.00451235,0.00074429,-0.00147746,0.00010941,-0.00025519,-0.0000076
 0,-0.00015416,0.00000477,0.00003546,0.00012699,-0.00020634,-0.00009366
 ,-0.00017427,-0.00030157,0.00001257,0.00020136,0.00016703,-0.00024130,
 0.00004917,0.00005377,-0.00013743,0.00018440,-0.00024125,0.00003145,-0
 .00021558,-0.00016321,-0.00009064,0.00017201,-0.00003949,0.00000344,-0
 .00017520,-0.00023598,0.00003248,0.00034447,-0.00020285,-0.00010702,-0
 .00129697,0.00531780,-0.00733304,-0.00016441,0.00024236,-0.00022179,-0
 .00007646,0.00007943,-0.00016375,-0.00006606,-0.00000554,0.00003335,-0
 .00007507,0.00001239,0.00004817,0.00006167,-0.00000386,0.00002620,0.00
 006777,-0.00002724,0.00001565,0.00148475,0.00477613,-0.00762778,-0.000
 36893,-0.00011657,0.00002001,-0.00597654,0.01199562,0.01943703\\-0.000
 00051,0.00000152,0.00000114,0.00000298,0.00000299,0.00000482,-0.000008
 72,0.00000825,0.00000768,0.00000838,-0.00003931,-0.00002224,-0.0000030
 2,0.00001533,-0.00000172,-0.00002842,0.00001630,0.00000371,0.00000767,
 -0.00002232,-0.00000159,0.00002158,0.00003188,0.00000812,-0.00001576,0
 .00000110,-0.00000697,0.00002711,-0.00004629,-0.00000067,0.00004319,0.
 00005799,0.00001636,-0.00000991,-0.00000169,-0.00000513,0.00001883,0.0
 0002978,0.00001335,-0.00001318,-0.00000471,-0.00000571,0.00000299,-0.0
 0000535,-0.00000530,0.00000041,0.00000250,0.00000127,0.00000423,-0.000
 00231,0.00001056,-0.00002993,0.00002882,-0.00003612,-0.00004135,-0.000
 01624,0.00000423,0.00001765,0.00002514,-0.00000653,-0.00001944,0.00000
 234,-0.00004032,-0.00001116,-0.00000211,0.00004258,0.00001273,-0.00003
 976,-0.00005154,-0.00003384,0.00003133,-0.00000415,0.00000459,-0.00000
 276,-0.00000480,0.00000082,-0.00000013,0.00000078,0.00000072,-0.000000
 23,-0.00000115,0.00000050,-0.00000070,-0.00000042,-0.00000230,0.000000
 38,0.00000025,0.00000784,0.00000192,-0.00000119,0.00000171,-0.00000003
 ,0.00000293,-0.00000403,-0.00000096,0.00000054,0.00000065,0.00000079,0
 .00000105,-0.00000025,0.00000122,0.00000284,0.00000106,0.00000006,0.00
 000113,-0.00000089,-0.00000192,-0.00000053,-0.00000160,-0.00000515,0.0
 0000848,0.00000781,-0.00000367,-0.00000092,0.00000201,0.00000012,-0.00
 000415,0.00001007,-0.00000720,0.00001537,0.00000634,0.00000480,0.00001
 490,0.00000117,-0.00000532,-0.00001520,0.00000818,0.00000416,-0.000017
 56,-0.00000336,-0.00000572,-0.00000016,0.00000036,0.00000245,0.0000014
 0,0.00000611,-0.00005729,0.00007057\\\@
 The archive entry for this job was punched.


 THE UNDERLYING PHYSICAL LAWS NECESSARY FOR THE 
 MATHEMATICAL THEORY OF A LARGE PART OF PHYSICS AND THE
 WHOLE OF CHEMISTRY ARE THUS COMPLETELY KNOWN, AND THE
 DIFFICULTY IS ONLY THAT THE EXACT APPLICATION OF THESE
 LAWS LEADS TO EQUATIONS MUCH TOO COMPLICATED 
 TO BE SOLUBLE.

                                        -- P. A. M. DIRAC, 1929
 Job cpu time:       0 days  6 hours 27 minutes  6.8 seconds.
 Elapsed time:       0 days  0 hours 12 minutes 11.2 seconds.
 File lengths (MBytes):  RWF=   2002 Int=      0 D2E=      0 Chk=     23 Scr=      2
 Normal termination of Gaussian 16 at Fri Mar  8 01:14:12 2024.
