 Entering Gaussian System, Link 0=g16
 Initial command:
 /public/software/apps/Gaussian/g16/l1.exe "/public/home/LJQ_HG/tmp/Gau-50443.inp" -scrdir="/public/home/LJQ_HG/tmp/"
 Entering Link 1 = /public/software/apps/Gaussian/g16/l1.exe PID=     50444.
  
 Copyright (c) 1988-2019, Gaussian, Inc.  All Rights Reserved.
  
 This is part of the Gaussian(R) 16 program.  It is based on
 the Gaussian(R) 09 system (copyright 2009, Gaussian, Inc.),
 the Gaussian(R) 03 system (copyright 2003, Gaussian, Inc.),
 the Gaussian(R) 98 system (copyright 1998, Gaussian, Inc.),
 the Gaussian(R) 94 system (copyright 1995, Gaussian, Inc.),
 the Gaussian 92(TM) system (copyright 1992, Gaussian, Inc.),
 the Gaussian 90(TM) system (copyright 1990, Gaussian, Inc.),
 the Gaussian 88(TM) system (copyright 1988, Gaussian, Inc.),
 the Gaussian 86(TM) system (copyright 1986, Carnegie Mellon
 University), and the Gaussian 82(TM) system (copyright 1983,
 Carnegie Mellon University). Gaussian is a federally registered
 trademark of Gaussian, Inc.
  
 This software contains proprietary and confidential information,
 including trade secrets, belonging to Gaussian, Inc.
  
 This software is provided under written license and may be
 used, copied, transmitted, or stored only in accord with that
 written license.
  
 The following legend is applicable only to US Government
 contracts under FAR:
  
                    RESTRICTED RIGHTS LEGEND
  
 Use, reproduction and disclosure by the US Government is
 subject to restrictions as set forth in subparagraphs (a)
 and (c) of the Commercial Computer Software - Restricted
 Rights clause in FAR 52.227-19.
  
 Gaussian, Inc.
 340 Quinnipiac St., Bldg. 40, Wallingford CT 06492
  
  
 ---------------------------------------------------------------
 Warning -- This program may not be used in any manner that
 competes with the business of Gaussian, Inc. or will provide
 assistance to any competitor of Gaussian, Inc.  The licensee
 of this program is prohibited from giving any competitor of
 Gaussian, Inc. access to this program.  By using this program,
 the user acknowledges that Gaussian, Inc. is engaged in the
 business of creating and licensing software in the field of
 computational chemistry and represents and warrants to the
 licensee that it is not a competitor of Gaussian, Inc. and that
 it will not use this program in any manner prohibited above.
 ---------------------------------------------------------------
  

 Cite this work as:
 Gaussian 16, Revision C.01,
 M. J. Frisch, G. W. Trucks, H. B. Schlegel, G. E. Scuseria, 
 M. A. Robb, J. R. Cheeseman, G. Scalmani, V. Barone, 
 G. A. Petersson, H. Nakatsuji, X. Li, M. Caricato, A. V. Marenich, 
 J. Bloino, B. G. Janesko, R. Gomperts, B. Mennucci, H. P. Hratchian, 
 J. V. Ortiz, A. F. Izmaylov, J. L. Sonnenberg, D. Williams-Young, 
 F. Ding, F. Lipparini, F. Egidi, J. Goings, B. Peng, A. Petrone, 
 T. Henderson, D. Ranasinghe, V. G. Zakrzewski, J. Gao, N. Rega, 
 G. Zheng, W. Liang, M. Hada, M. Ehara, K. Toyota, R. Fukuda, 
 J. Hasegawa, M. Ishida, T. Nakajima, Y. Honda, O. Kitao, H. Nakai, 
 T. Vreven, K. Throssell, J. A. Montgomery, Jr., J. E. Peralta, 
 F. Ogliaro, M. J. Bearpark, J. J. Heyd, E. N. Brothers, K. N. Kudin, 
 V. N. Staroverov, T. A. Keith, R. Kobayashi, J. Normand, 
 K. Raghavachari, A. P. Rendell, J. C. Burant, S. S. Iyengar, 
 J. Tomasi, M. Cossi, J. M. Millam, M. Klene, C. Adamo, R. Cammi, 
 J. W. Ochterski, R. L. Martin, K. Morokuma, O. Farkas, 
 J. B. Foresman, and D. J. Fox, Gaussian, Inc., Wallingford CT, 2019.
 
 ******************************************
 Gaussian 16:  ES64L-G16RevC.01  3-Jul-2019
                 7-Mar-2024 
 ******************************************
 %nprocshared=32
 Will use up to   32 processors via shared memory.
 %mem=100GB
 ------------------------------------------
 #p opt freq b3lyp nosymm def2svpp em=gd3bj
 ------------------------------------------
 1/18=20,19=15,26=3,38=1/1,3;
 2/9=110,12=2,15=1,17=6,18=5,40=1/2;
 3/5=43,7=202,11=2,25=1,30=1,71=1,74=-5,124=41/1,2,3;
 4//1;
 5/5=2,38=5/2;
 6/7=2,8=2,9=2,10=2,28=1/1;
 7/30=1/1,2,3,16;
 1/18=20,19=15,26=3/3(2);
 2/9=110,15=1/2;
 99//99;
 2/9=110,15=1/2;
 3/5=43,7=202,11=2,25=1,30=1,71=1,74=-5,124=41/1,2,3;
 4/5=5,16=3,69=1/1;
 5/5=2,38=5/2;
 7/30=1/1,2,3,16;
 1/18=20,19=15,26=3/3(-5);
 2/9=110,15=1/2;
 6/7=2,8=2,9=2,10=2,19=2,28=1/1;
 99/9=1/99;
 Leave Link    1 at Thu Mar  7 23:00:26 2024, MaxMem= 13421772800 cpu:               2.8 elap:               0.1
 (Enter /public/software/apps/Gaussian/g16/l101.exe)
 ------------------
 $$$$Title####2????
 ------------------
 Symbolic Z-matrix:
 Charge =  2 Multiplicity = 2
 C                    -5.74709  -0.50758  -0.53018 
 C                    -5.65243  -0.67294   0.85391 
 C                    -4.51583  -0.22977   1.53755 
 C                    -3.45825   0.37755   0.83843 
 C                    -2.24184   0.87435   1.58773 
 C                    -2.15515   2.41506   1.61381 
 O                    -0.91112   2.68369   0.99292 
 C                    -0.3214    1.49332   0.62072 
 C                     0.97279   1.42172  -0.05891 
 N                     1.52115   0.31072  -0.41005 
 C                     2.79503   0.5958   -1.06071 
 C                     3.93067  -0.09622  -0.34006 
 C                     4.89866  -0.8068   -1.07092 
 C                     5.96269  -1.4318   -0.41302 
 C                     6.07439  -1.34721   0.97708 
 C                     5.12403  -0.63443   1.71226 
 C                     4.05828  -0.0079    1.05931 
 C                     2.91754   2.13355  -1.01271 
 O                     1.71925   2.53787  -0.37561 
 N                    -1.01608   0.45113   0.92004 
 C                    -3.56814   0.5492   -0.55469 
 C                    -4.70668   0.10451  -1.23345 
 H                    -6.62816  -0.85041  -1.05711 
 H                    -6.46145  -1.1428    1.39818 
 H                    -4.46217  -0.36053   2.6112 
 H                    -2.22986   0.48184   2.62891 
 H                    -2.14346   2.79503   2.65776 
 H                    -2.97303   2.90605   1.04283 
 H                     2.73345   0.25883  -2.11945 
 H                     4.83126  -0.87755  -2.14942 
 H                     6.70249  -1.98015  -0.98182 
 H                     6.8993   -1.83086   1.4841 
 H                     5.21465  -0.56475   2.78856 
 H                     3.33545   0.54822   1.64311 
 H                     2.96073   2.56116  -2.03722 
 H                     3.79244   2.48153  -0.42154 
 H                    -2.77484   1.02977  -1.11353 
 H                    -4.78349   0.23724  -2.30488 
 Cu                    0.07864  -0.96469  -0.03856 
 
 ITRead=  0  0  0  0  0  0  0  0  0  0  0  0  0  0  0  0  0  0  0  0
 ITRead=  0  0  0  0  0  0  0  0  0  0  0  0  0  0  0  0  0  0  0
 MicOpt= -1 -1 -1 -1 -1 -1 -1 -1 -1 -1 -1 -1 -1 -1 -1 -1 -1 -1 -1 -1
 MicOpt= -1 -1 -1 -1 -1 -1 -1 -1 -1 -1 -1 -1 -1 -1 -1 -1 -1 -1 -1
 NAtoms=     39 NQM=       39 NQMF=       0 NMMI=      0 NMMIF=      0
                NMic=       0 NMicF=      0.
                    Isotopes and Nuclear Properties:
 (Nuclear quadrupole moments (NQMom) in fm**2, nuclear magnetic moments (NMagM)
  in nuclear magnetons)

  Atom         1           2           3           4           5           6           7           8           9          10
 IAtWgt=          12          12          12          12          12          12          16          12          12          14
 AtmWgt=  12.0000000  12.0000000  12.0000000  12.0000000  12.0000000  12.0000000  15.9949146  12.0000000  12.0000000  14.0030740
 NucSpn=           0           0           0           0           0           0           0           0           0           2
 AtZEff=  -0.0000000  -0.0000000  -0.0000000  -0.0000000  -0.0000000  -0.0000000  -0.0000000  -0.0000000  -0.0000000  -0.0000000
 NQMom=    0.0000000   0.0000000   0.0000000   0.0000000   0.0000000   0.0000000   0.0000000   0.0000000   0.0000000   2.0440000
 NMagM=    0.0000000   0.0000000   0.0000000   0.0000000   0.0000000   0.0000000   0.0000000   0.0000000   0.0000000   0.4037610
 AtZNuc=   6.0000000   6.0000000   6.0000000   6.0000000   6.0000000   6.0000000   8.0000000   6.0000000   6.0000000   7.0000000

  Atom        11          12          13          14          15          16          17          18          19          20
 IAtWgt=          12          12          12          12          12          12          12          12          16          14
 AtmWgt=  12.0000000  12.0000000  12.0000000  12.0000000  12.0000000  12.0000000  12.0000000  12.0000000  15.9949146  14.0030740
 NucSpn=           0           0           0           0           0           0           0           0           0           2
 AtZEff=  -0.0000000  -0.0000000  -0.0000000  -0.0000000  -0.0000000  -0.0000000  -0.0000000  -0.0000000  -0.0000000  -0.0000000
 NQMom=    0.0000000   0.0000000   0.0000000   0.0000000   0.0000000   0.0000000   0.0000000   0.0000000   0.0000000   2.0440000
 NMagM=    0.0000000   0.0000000   0.0000000   0.0000000   0.0000000   0.0000000   0.0000000   0.0000000   0.0000000   0.4037610
 AtZNuc=   6.0000000   6.0000000   6.0000000   6.0000000   6.0000000   6.0000000   6.0000000   6.0000000   8.0000000   7.0000000

  Atom        21          22          23          24          25          26          27          28          29          30
 IAtWgt=          12          12           1           1           1           1           1           1           1           1
 AtmWgt=  12.0000000  12.0000000   1.0078250   1.0078250   1.0078250   1.0078250   1.0078250   1.0078250   1.0078250   1.0078250
 NucSpn=           0           0           1           1           1           1           1           1           1           1
 AtZEff=  -0.0000000  -0.0000000  -0.0000000  -0.0000000  -0.0000000  -0.0000000  -0.0000000  -0.0000000  -0.0000000  -0.0000000
 NQMom=    0.0000000   0.0000000   0.0000000   0.0000000   0.0000000   0.0000000   0.0000000   0.0000000   0.0000000   0.0000000
 NMagM=    0.0000000   0.0000000   2.7928460   2.7928460   2.7928460   2.7928460   2.7928460   2.7928460   2.7928460   2.7928460
 AtZNuc=   6.0000000   6.0000000   1.0000000   1.0000000   1.0000000   1.0000000   1.0000000   1.0000000   1.0000000   1.0000000

  Atom        31          32          33          34          35          36          37          38          39
 IAtWgt=           1           1           1           1           1           1           1           1          63
 AtmWgt=   1.0078250   1.0078250   1.0078250   1.0078250   1.0078250   1.0078250   1.0078250   1.0078250  62.9295992
 NucSpn=           1           1           1           1           1           1           1           1           3
 AtZEff=  -0.0000000  -0.0000000  -0.0000000  -0.0000000  -0.0000000  -0.0000000  -0.0000000  -0.0000000  -0.0000000
 NQMom=    0.0000000   0.0000000   0.0000000   0.0000000   0.0000000   0.0000000   0.0000000   0.0000000 -22.0000000
 NMagM=    2.7928460   2.7928460   2.7928460   2.7928460   2.7928460   2.7928460   2.7928460   2.7928460   2.2233000
 AtZNuc=   1.0000000   1.0000000   1.0000000   1.0000000   1.0000000   1.0000000   1.0000000   1.0000000  29.0000000
 Leave Link  101 at Thu Mar  7 23:00:26 2024, MaxMem= 13421772800 cpu:              12.8 elap:               0.4
 (Enter /public/software/apps/Gaussian/g16/l103.exe)

 GradGradGradGradGradGradGradGradGradGradGradGradGradGradGradGradGradGrad
 Berny optimization.
 Initialization pass.
                           ----------------------------
                           !    Initial Parameters    !
                           ! (Angstroms and Degrees)  !
 --------------------------                            --------------------------
 ! Name  Definition              Value          Derivative Info.                !
 --------------------------------------------------------------------------------
 ! R1    R(1,2)                  1.3971         estimate D2E/DX2                !
 ! R2    R(1,22)                 1.397          estimate D2E/DX2                !
 ! R3    R(1,23)                 1.0823         estimate D2E/DX2                !
 ! R4    R(2,3)                  1.3984         estimate D2E/DX2                !
 ! R5    R(2,24)                 1.0824         estimate D2E/DX2                !
 ! R6    R(3,4)                  1.4057         estimate D2E/DX2                !
 ! R7    R(3,25)                 1.0829         estimate D2E/DX2                !
 ! R8    R(4,5)                  1.5126         estimate D2E/DX2                !
 ! R9    R(4,21)                 1.408          estimate D2E/DX2                !
 ! R10   R(5,6)                  1.5434         estimate D2E/DX2                !
 ! R11   R(5,20)                 1.4586         estimate D2E/DX2                !
 ! R12   R(5,26)                 1.1128         estimate D2E/DX2                !
 ! R13   R(6,7)                  1.4161         estimate D2E/DX2                !
 ! R14   R(6,27)                 1.111          estimate D2E/DX2                !
 ! R15   R(6,28)                 1.1118         estimate D2E/DX2                !
 ! R16   R(7,8)                  1.3796         estimate D2E/DX2                !
 ! R17   R(8,9)                  1.4635         estimate D2E/DX2                !
 ! R18   R(8,20)                 1.2878         estimate D2E/DX2                !
 ! R19   R(9,10)                 1.2878         estimate D2E/DX2                !
 ! R20   R(9,19)                 1.3796         estimate D2E/DX2                !
 ! R21   R(10,11)                1.4586         estimate D2E/DX2                !
 ! R22   R(10,39)                1.961          estimate D2E/DX2                !
 ! R23   R(11,12)                1.5126         estimate D2E/DX2                !
 ! R24   R(11,18)                1.5434         estimate D2E/DX2                !
 ! R25   R(11,29)                1.1128         estimate D2E/DX2                !
 ! R26   R(12,13)                1.4057         estimate D2E/DX2                !
 ! R27   R(12,17)                1.408          estimate D2E/DX2                !
 ! R28   R(13,14)                1.3984         estimate D2E/DX2                !
 ! R29   R(13,30)                1.0829         estimate D2E/DX2                !
 ! R30   R(14,15)                1.3971         estimate D2E/DX2                !
 ! R31   R(14,31)                1.0824         estimate D2E/DX2                !
 ! R32   R(15,16)                1.397          estimate D2E/DX2                !
 ! R33   R(15,32)                1.0823         estimate D2E/DX2                !
 ! R34   R(16,17)                1.3981         estimate D2E/DX2                !
 ! R35   R(16,33)                1.0824         estimate D2E/DX2                !
 ! R36   R(17,34)                1.0829         estimate D2E/DX2                !
 ! R37   R(18,19)                1.4161         estimate D2E/DX2                !
 ! R38   R(18,35)                1.111          estimate D2E/DX2                !
 ! R39   R(18,36)                1.1118         estimate D2E/DX2                !
 ! R40   R(20,39)                2.0302         estimate D2E/DX2                !
 ! R41   R(21,22)                1.3981         estimate D2E/DX2                !
 ! R42   R(21,37)                1.0829         estimate D2E/DX2                !
 ! R43   R(22,38)                1.0824         estimate D2E/DX2                !
 ! A1    A(2,1,22)             120.0063         estimate D2E/DX2                !
 ! A2    A(2,1,23)             119.9974         estimate D2E/DX2                !
 ! A3    A(22,1,23)            119.9959         estimate D2E/DX2                !
 ! A4    A(1,2,3)              120.1224         estimate D2E/DX2                !
 ! A5    A(1,2,24)             119.9269         estimate D2E/DX2                !
 ! A6    A(3,2,24)             119.9505         estimate D2E/DX2                !
 ! A7    A(2,3,4)              120.3488         estimate D2E/DX2                !
 ! A8    A(2,3,25)             119.1225         estimate D2E/DX2                !
 ! A9    A(4,3,25)             120.5287         estimate D2E/DX2                !
 ! A10   A(3,4,5)              120.0368         estimate D2E/DX2                !
 ! A11   A(3,4,21)             119.0809         estimate D2E/DX2                !
 ! A12   A(5,4,21)             120.8561         estimate D2E/DX2                !
 ! A13   A(4,5,6)              112.4217         estimate D2E/DX2                !
 ! A14   A(4,5,20)             110.7178         estimate D2E/DX2                !
 ! A15   A(4,5,26)             110.8735         estimate D2E/DX2                !
 ! A16   A(6,5,20)             104.489          estimate D2E/DX2                !
 ! A17   A(6,5,26)             109.6155         estimate D2E/DX2                !
 ! A18   A(20,5,26)            108.4771         estimate D2E/DX2                !
 ! A19   A(5,6,7)              103.3739         estimate D2E/DX2                !
 ! A20   A(5,6,27)             110.9704         estimate D2E/DX2                !
 ! A21   A(5,6,28)             113.0086         estimate D2E/DX2                !
 ! A22   A(7,6,27)             109.7476         estimate D2E/DX2                !
 ! A23   A(7,6,28)             109.7137         estimate D2E/DX2                !
 ! A24   A(27,6,28)            109.833          estimate D2E/DX2                !
 ! A25   A(6,7,8)              109.277          estimate D2E/DX2                !
 ! A26   A(7,8,9)              123.0579         estimate D2E/DX2                !
 ! A27   A(7,8,20)             113.8912         estimate D2E/DX2                !
 ! A28   A(9,8,20)             123.0502         estimate D2E/DX2                !
 ! A29   A(8,9,10)             123.0502         estimate D2E/DX2                !
 ! A30   A(8,9,19)             123.0579         estimate D2E/DX2                !
 ! A31   A(10,9,19)            113.8912         estimate D2E/DX2                !
 ! A32   A(9,10,11)            108.9606         estimate D2E/DX2                !
 ! A33   A(9,10,39)            101.3167         estimate D2E/DX2                !
 ! A34   A(11,10,39)           148.659          estimate D2E/DX2                !
 ! A35   A(10,11,12)           110.7179         estimate D2E/DX2                !
 ! A36   A(10,11,18)           104.4891         estimate D2E/DX2                !
 ! A37   A(10,11,29)           108.4769         estimate D2E/DX2                !
 ! A38   A(12,11,18)           112.4219         estimate D2E/DX2                !
 ! A39   A(12,11,29)           110.8735         estimate D2E/DX2                !
 ! A40   A(18,11,29)           109.6153         estimate D2E/DX2                !
 ! A41   A(11,12,13)           120.0367         estimate D2E/DX2                !
 ! A42   A(11,12,17)           120.8562         estimate D2E/DX2                !
 ! A43   A(13,12,17)           119.0808         estimate D2E/DX2                !
 ! A44   A(12,13,14)           120.3487         estimate D2E/DX2                !
 ! A45   A(12,13,30)           120.5285         estimate D2E/DX2                !
 ! A46   A(14,13,30)           119.1227         estimate D2E/DX2                !
 ! A47   A(13,14,15)           120.1225         estimate D2E/DX2                !
 ! A48   A(13,14,31)           119.9504         estimate D2E/DX2                !
 ! A49   A(15,14,31)           119.927          estimate D2E/DX2                !
 ! A50   A(14,15,16)           120.0062         estimate D2E/DX2                !
 ! A51   A(14,15,32)           119.9974         estimate D2E/DX2                !
 ! A52   A(16,15,32)           119.9961         estimate D2E/DX2                !
 ! A53   A(15,16,17)           120.0945         estimate D2E/DX2                !
 ! A54   A(15,16,33)           119.9467         estimate D2E/DX2                !
 ! A55   A(17,16,33)           119.9585         estimate D2E/DX2                !
 ! A56   A(12,17,16)           120.3414         estimate D2E/DX2                !
 ! A57   A(12,17,34)           120.5014         estimate D2E/DX2                !
 ! A58   A(16,17,34)           119.1569         estimate D2E/DX2                !
 ! A59   A(11,18,19)           103.3739         estimate D2E/DX2                !
 ! A60   A(11,18,35)           110.9706         estimate D2E/DX2                !
 ! A61   A(11,18,36)           113.0085         estimate D2E/DX2                !
 ! A62   A(19,18,35)           109.7475         estimate D2E/DX2                !
 ! A63   A(19,18,36)           109.7136         estimate D2E/DX2                !
 ! A64   A(35,18,36)           109.833          estimate D2E/DX2                !
 ! A65   A(9,19,18)            109.2769         estimate D2E/DX2                !
 ! A66   A(5,20,8)             108.9606         estimate D2E/DX2                !
 ! A67   A(5,20,39)            150.649          estimate D2E/DX2                !
 ! A68   A(8,20,39)             99.4252         estimate D2E/DX2                !
 ! A69   A(4,21,22)            120.3413         estimate D2E/DX2                !
 ! A70   A(4,21,37)            120.5016         estimate D2E/DX2                !
 ! A71   A(22,21,37)           119.1567         estimate D2E/DX2                !
 ! A72   A(1,22,21)            120.0945         estimate D2E/DX2                !
 ! A73   A(1,22,38)            119.9467         estimate D2E/DX2                !
 ! A74   A(21,22,38)           119.9586         estimate D2E/DX2                !
 ! A75   A(10,39,20)            91.8639         estimate D2E/DX2                !
 ! D1    D(22,1,2,3)            -0.1633         estimate D2E/DX2                !
 ! D2    D(22,1,2,24)          179.69           estimate D2E/DX2                !
 ! D3    D(23,1,2,3)          -179.9369         estimate D2E/DX2                !
 ! D4    D(23,1,2,24)           -0.0836         estimate D2E/DX2                !
 ! D5    D(2,1,22,21)            0.1701         estimate D2E/DX2                !
 ! D6    D(2,1,22,38)         -179.6492         estimate D2E/DX2                !
 ! D7    D(23,1,22,21)         179.9437         estimate D2E/DX2                !
 ! D8    D(23,1,22,38)           0.1243         estimate D2E/DX2                !
 ! D9    D(1,2,3,4)             -0.3602         estimate D2E/DX2                !
 ! D10   D(1,2,3,25)           179.62           estimate D2E/DX2                !
 ! D11   D(24,2,3,4)           179.7866         estimate D2E/DX2                !
 ! D12   D(24,2,3,25)           -0.2333         estimate D2E/DX2                !
 ! D13   D(2,3,4,5)            179.0177         estimate D2E/DX2                !
 ! D14   D(2,3,4,21)             0.8642         estimate D2E/DX2                !
 ! D15   D(25,3,4,5)            -0.9622         estimate D2E/DX2                !
 ! D16   D(25,3,4,21)         -179.1157         estimate D2E/DX2                !
 ! D17   D(3,4,5,6)           -110.0388         estimate D2E/DX2                !
 ! D18   D(3,4,5,20)           133.5104         estimate D2E/DX2                !
 ! D19   D(3,4,5,26)            13.0551         estimate D2E/DX2                !
 ! D20   D(21,4,5,6)            68.0815         estimate D2E/DX2                !
 ! D21   D(21,4,5,20)          -48.3693         estimate D2E/DX2                !
 ! D22   D(21,4,5,26)         -168.8246         estimate D2E/DX2                !
 ! D23   D(3,4,21,22)           -0.8573         estimate D2E/DX2                !
 ! D24   D(3,4,21,37)          178.9265         estimate D2E/DX2                !
 ! D25   D(5,4,21,22)         -178.9952         estimate D2E/DX2                !
 ! D26   D(5,4,21,37)            0.7885         estimate D2E/DX2                !
 ! D27   D(4,5,6,7)           -121.0129         estimate D2E/DX2                !
 ! D28   D(4,5,6,27)           121.4028         estimate D2E/DX2                !
 ! D29   D(4,5,6,28)            -2.4807         estimate D2E/DX2                !
 ! D30   D(20,5,6,7)            -0.8876         estimate D2E/DX2                !
 ! D31   D(20,5,6,27)         -118.4719         estimate D2E/DX2                !
 ! D32   D(20,5,6,28)          117.6446         estimate D2E/DX2                !
 ! D33   D(26,5,6,7)           115.1907         estimate D2E/DX2                !
 ! D34   D(26,5,6,27)           -2.3936         estimate D2E/DX2                !
 ! D35   D(26,5,6,28)         -126.2771         estimate D2E/DX2                !
 ! D36   D(4,5,20,8)           122.0599         estimate D2E/DX2                !
 ! D37   D(4,5,20,39)          -42.5632         estimate D2E/DX2                !
 ! D38   D(6,5,20,8)             0.7997         estimate D2E/DX2                !
 ! D39   D(6,5,20,39)         -163.8234         estimate D2E/DX2                !
 ! D40   D(26,5,20,8)         -116.0678         estimate D2E/DX2                !
 ! D41   D(26,5,20,39)          79.3091         estimate D2E/DX2                !
 ! D42   D(5,6,7,8)              0.6985         estimate D2E/DX2                !
 ! D43   D(27,6,7,8)           119.1358         estimate D2E/DX2                !
 ! D44   D(28,6,7,8)          -120.0966         estimate D2E/DX2                !
 ! D45   D(6,7,8,9)            179.4621         estimate D2E/DX2                !
 ! D46   D(6,7,8,20)            -0.2306         estimate D2E/DX2                !
 ! D47   D(7,8,9,10)          -179.773          estimate D2E/DX2                !
 ! D48   D(7,8,9,19)             0.5615         estimate D2E/DX2                !
 ! D49   D(20,8,9,10)           -0.1081         estimate D2E/DX2                !
 ! D50   D(20,8,9,19)         -179.7737         estimate D2E/DX2                !
 ! D51   D(7,8,20,5)            -0.3976         estimate D2E/DX2                !
 ! D52   D(7,8,20,39)          172.0315         estimate D2E/DX2                !
 ! D53   D(9,8,20,5)           179.9096         estimate D2E/DX2                !
 ! D54   D(9,8,20,39)           -7.6613         estimate D2E/DX2                !
 ! D55   D(8,9,10,11)          179.9085         estimate D2E/DX2                !
 ! D56   D(8,9,10,39)            8.1205         estimate D2E/DX2                !
 ! D57   D(19,9,10,11)          -0.3981         estimate D2E/DX2                !
 ! D58   D(19,9,10,39)        -172.1861         estimate D2E/DX2                !
 ! D59   D(8,9,19,18)          179.4628         estimate D2E/DX2                !
 ! D60   D(10,9,19,18)          -0.2306         estimate D2E/DX2                !
 ! D61   D(9,10,11,12)         122.061          estimate D2E/DX2                !
 ! D62   D(9,10,11,18)           0.8005         estimate D2E/DX2                !
 ! D63   D(9,10,11,29)        -116.0668         estimate D2E/DX2                !
 ! D64   D(39,10,11,12)        -73.5603         estimate D2E/DX2                !
 ! D65   D(39,10,11,18)        165.1791         estimate D2E/DX2                !
 ! D66   D(39,10,11,29)         48.3119         estimate D2E/DX2                !
 ! D67   D(9,10,39,20)          -9.5763         estimate D2E/DX2                !
 ! D68   D(11,10,39,20)       -174.523          estimate D2E/DX2                !
 ! D69   D(10,11,12,13)        133.509          estimate D2E/DX2                !
 ! D70   D(10,11,12,17)        -48.3708         estimate D2E/DX2                !
 ! D71   D(18,11,12,13)       -110.04           estimate D2E/DX2                !
 ! D72   D(18,11,12,17)         68.0803         estimate D2E/DX2                !
 ! D73   D(29,11,12,13)         13.0539         estimate D2E/DX2                !
 ! D74   D(29,11,12,17)       -168.8259         estimate D2E/DX2                !
 ! D75   D(10,11,18,19)         -0.8883         estimate D2E/DX2                !
 ! D76   D(10,11,18,35)       -118.4726         estimate D2E/DX2                !
 ! D77   D(10,11,18,36)        117.6438         estimate D2E/DX2                !
 ! D78   D(12,11,18,19)       -121.0139         estimate D2E/DX2                !
 ! D79   D(12,11,18,35)        121.4017         estimate D2E/DX2                !
 ! D80   D(12,11,18,36)         -2.4819         estimate D2E/DX2                !
 ! D81   D(29,11,18,19)        115.1897         estimate D2E/DX2                !
 ! D82   D(29,11,18,35)         -2.3946         estimate D2E/DX2                !
 ! D83   D(29,11,18,36)       -126.2782         estimate D2E/DX2                !
 ! D84   D(11,12,13,14)        179.0176         estimate D2E/DX2                !
 ! D85   D(11,12,13,30)         -0.9623         estimate D2E/DX2                !
 ! D86   D(17,12,13,14)          0.8641         estimate D2E/DX2                !
 ! D87   D(17,12,13,30)       -179.1158         estimate D2E/DX2                !
 ! D88   D(11,12,17,16)       -178.9949         estimate D2E/DX2                !
 ! D89   D(11,12,17,34)          0.7887         estimate D2E/DX2                !
 ! D90   D(13,12,17,16)         -0.8569         estimate D2E/DX2                !
 ! D91   D(13,12,17,34)        178.9266         estimate D2E/DX2                !
 ! D92   D(12,13,14,15)         -0.3604         estimate D2E/DX2                !
 ! D93   D(12,13,14,31)        179.7866         estimate D2E/DX2                !
 ! D94   D(30,13,14,15)        179.6198         estimate D2E/DX2                !
 ! D95   D(30,13,14,31)         -0.2333         estimate D2E/DX2                !
 ! D96   D(13,14,15,16)         -0.163          estimate D2E/DX2                !
 ! D97   D(13,14,15,32)       -179.9367         estimate D2E/DX2                !
 ! D98   D(31,14,15,16)        179.69           estimate D2E/DX2                !
 ! D99   D(31,14,15,32)         -0.0836         estimate D2E/DX2                !
 ! D100  D(14,15,16,17)          0.1701         estimate D2E/DX2                !
 ! D101  D(14,15,16,33)       -179.6492         estimate D2E/DX2                !
 ! D102  D(32,15,16,17)        179.9437         estimate D2E/DX2                !
 ! D103  D(32,15,16,33)          0.1244         estimate D2E/DX2                !
 ! D104  D(15,16,17,12)          0.3455         estimate D2E/DX2                !
 ! D105  D(15,16,17,34)       -179.441          estimate D2E/DX2                !
 ! D106  D(33,16,17,12)       -179.8352         estimate D2E/DX2                !
 ! D107  D(33,16,17,34)          0.3783         estimate D2E/DX2                !
 ! D108  D(11,18,19,9)           0.6989         estimate D2E/DX2                !
 ! D109  D(35,18,19,9)         119.1364         estimate D2E/DX2                !
 ! D110  D(36,18,19,9)        -120.0961         estimate D2E/DX2                !
 ! D111  D(5,20,39,10)         174.7445         estimate D2E/DX2                !
 ! D112  D(8,20,39,10)           9.4714         estimate D2E/DX2                !
 ! D113  D(4,21,22,1)            0.3458         estimate D2E/DX2                !
 ! D114  D(4,21,22,38)        -179.8349         estimate D2E/DX2                !
 ! D115  D(37,21,22,1)        -179.4409         estimate D2E/DX2                !
 ! D116  D(37,21,22,38)          0.3784         estimate D2E/DX2                !
 --------------------------------------------------------------------------------
 Trust Radius=3.00D-01 FncErr=1.00D-07 GrdErr=1.00D-06 EigMax=2.50D+02 EigMin=1.00D-04
 Number of steps in this run=    234 maximum allowed number of steps=    234.
 GradGradGradGradGradGradGradGradGradGradGradGradGradGradGradGradGradGrad

 Leave Link  103 at Thu Mar  7 23:00:26 2024, MaxMem= 13421772800 cpu:               0.4 elap:               0.0
 (Enter /public/software/apps/Gaussian/g16/l202.exe)
                          Input orientation:                          
 ---------------------------------------------------------------------
 Center     Atomic      Atomic             Coordinates (Angstroms)
 Number     Number       Type             X           Y           Z
 ---------------------------------------------------------------------
      1          6           0       -5.747094   -0.507577   -0.530179
      2          6           0       -5.652434   -0.672936    0.853910
      3          6           0       -4.515830   -0.229766    1.537545
      4          6           0       -3.458247    0.377547    0.838429
      5          6           0       -2.241835    0.874349    1.587727
      6          6           0       -2.155147    2.415064    1.613808
      7          8           0       -0.911120    2.683690    0.992915
      8          6           0       -0.321399    1.493316    0.620719
      9          6           0        0.972792    1.421723   -0.058909
     10          7           0        1.521145    0.310718   -0.410049
     11          6           0        2.795025    0.595798   -1.060713
     12          6           0        3.930665   -0.096223   -0.340057
     13          6           0        4.898656   -0.806797   -1.070915
     14          6           0        5.962687   -1.431804   -0.413017
     15          6           0        6.074386   -1.347209    0.977082
     16          6           0        5.124033   -0.634432    1.712258
     17          6           0        4.058277   -0.007898    1.059314
     18          6           0        2.917540    2.133550   -1.012708
     19          8           0        1.719250    2.537874   -0.375610
     20          7           0       -1.016075    0.451130    0.920042
     21          6           0       -3.568142    0.549199   -0.554692
     22          6           0       -4.706676    0.104509   -1.233447
     23          1           0       -6.628155   -0.850409   -1.057111
     24          1           0       -6.461453   -1.142800    1.398184
     25          1           0       -4.462174   -0.360530    2.611200
     26          1           0       -2.229860    0.481839    2.628911
     27          1           0       -2.143461    2.795034    2.657756
     28          1           0       -2.973027    2.906049    1.042829
     29          1           0        2.733450    0.258827   -2.119454
     30          1           0        4.831263   -0.877554   -2.149415
     31          1           0        6.702485   -1.980151   -0.981817
     32          1           0        6.899297   -1.830857    1.484099
     33          1           0        5.214646   -0.564750    2.788557
     34          1           0        3.335446    0.548220    1.643112
     35          1           0        2.960727    2.561162   -2.037219
     36          1           0        3.792438    2.481530   -0.421543
     37          1           0       -2.774838    1.029767   -1.113525
     38          1           0       -4.783494    0.237238   -2.304879
     39         29           0        0.078642   -0.964691   -0.038561
 ---------------------------------------------------------------------
                    Distance matrix (angstroms):
                    1          2          3          4          5
     1  C    0.000000
     2  C    1.397142   0.000000
     3  C    2.422534   1.398437   0.000000
     4  C    2.809867   2.432737   1.405729   0.000000
     5  C    4.322278   3.816381   2.528367   1.512586   0.000000
     6  C    5.102999   4.726966   3.545951   2.539834   1.543372
     7  O    5.990880   5.810879   4.666774   3.439479   2.323428
     8  C    5.896296   5.759076   4.626320   3.336488   2.237476
     9  C    7.007222   7.008171   5.949878   4.640003   3.653061
    10  N    7.315144   7.350197   6.366342   5.133956   4.297535
    11  C    8.629409   8.754144   7.802634   6.538944   5.697524
    12  C    9.688363   9.674396   8.653699   7.497287   6.538969
    13  C   10.663673  10.726060   9.786193   8.653675   7.802643
    14  C   11.746782  11.708630  10.726085   9.674392   8.754170
    15  C   11.946724  11.746835  10.663746   9.688400   8.629469
    16  C   11.100722  10.810665   9.649935   8.685805   7.519836
    17  C    9.945927   9.735624   8.590299   7.529641   6.383494
    18  C    9.071068   9.208967   8.206342   6.867380   5.913290
    19  O    8.065045   8.134049   7.084929   5.739981   4.723579
    20  N    5.040318   4.771134   3.618455   2.444643   1.458563
    21  C    2.421819   2.796792   2.425357   1.407952   2.540624
    22  C    1.397034   2.419905   2.797599   2.434296   3.824541
    23  H    1.082340   2.153028   3.402845   3.892206   5.404606
    24  H    2.152301   1.082367   2.153718   3.412335   4.680811
    25  H    3.397191   2.145317   1.082919   2.166874   2.739038
    26  H    4.830086   4.024692   2.631182   2.173853   1.112777
    27  H    5.835781   5.252958   4.004051   3.298917   2.200834
    28  H    4.671471   4.474824   3.529635   2.582739   2.226962
    29  H    8.662147   8.946068   8.134152   6.862964   6.235024
    30  H   10.707962  10.907325  10.068836   8.900476   8.189268
    31  H   12.544500  12.558771  11.630203  10.588320   9.734043
    32  H   12.873989  12.620771  11.526989  10.610026   9.533581
    33  H   11.453254  11.038478   9.816283   8.939239   7.688440
    34  H    9.398427   9.104727   7.890434   6.843311   5.587083
    35  H    9.354917   9.643887   8.744548   7.364832   6.561419
    36  H    9.997461  10.039076   8.956365   7.654195   6.559927
    37  H    3.396767   3.879505   3.412572   2.168539   2.757718
    38  H    2.152402   3.400209   3.879943   3.414140   4.692369
    39  Cu   5.864286   5.807483   4.912576   3.883336   3.378091
                    6          7          8          9         10
     6  C    0.000000
     7  O    1.416076   0.000000
     8  C    2.280017   1.379598   0.000000
     9  C    3.683573   2.499604   1.463540   0.000000
    10  N    4.694613   3.676305   2.419915   1.287759   0.000000
    11  C    5.913290   4.723578   3.653060   2.237475   1.458562
    12  C    6.867406   5.740001   4.640019   3.336498   2.444644
    13  C    8.206355   7.084941   5.949884   4.626323   3.618448
    14  C    9.208998   8.134074   7.008186   5.759085   4.771131
    15  C    9.071126   8.065091   7.007256   5.896314   5.040323
    16  C    7.892755   6.924627   5.947394   4.959598   4.286992
    17  C    6.692148   5.651899   4.650545   3.579729   2.949166
    18  C    5.719265   4.357042   3.683573   2.280016   2.373991
    19  O    4.357042   2.968665   2.499604   1.379599   2.236215
    20  N    2.373991   2.236213   1.287758   2.419915   2.868160
    21  C    3.190674   3.743114   3.579705   4.650503   5.096924
    22  C    4.467194   5.100501   4.959574   5.947348   6.285401
    23  H    6.148571   7.026874   6.934215   7.995836   8.256997
    24  H    5.590095   6.753700   6.727096   7.997993   8.312899
    25  H    3.744474   4.949354   4.954269   6.312271   6.736366
    26  H    2.184805   3.043634   2.949262   4.285410   4.830590
    27  H    1.111009   2.074309   3.027193   4.356293   5.386334
    28  H    1.111760   2.074463   3.033994   4.357354   5.389265
    29  H    6.518051   5.371191   4.285395   2.949252   2.096292
    30  H    8.591455   7.451957   6.312257   4.954260   3.923553
    31  H   10.223152   9.144286   7.998002   6.727101   5.693969
    32  H   10.001381   9.034656   7.995874   6.934235   6.090867
    33  H    8.035744   7.162521   6.291498   5.481557   4.963816
    34  H    5.799360   4.797532   3.912928   3.040069   2.750194
    35  H    6.286773   4.918122   4.356292   3.027196   3.128031
    36  H    6.286560   4.915793   4.357354   3.033990   3.141867
    37  H    3.121123   3.262820   3.040040   3.912873   4.412185
    38  H    5.196849   5.644099   5.481528   6.291440   6.583635
    39  Cu   4.375258   3.918451   2.576137   2.548508   1.960991
                   11         12         13         14         15
    11  C    0.000000
    12  C    1.512586   0.000000
    13  C    2.528367   1.405729   0.000000
    14  C    3.816381   2.432738   1.398437   0.000000
    15  C    4.322279   2.809868   2.422535   1.397143   0.000000
    16  C    3.824541   2.434295   2.797598   2.419904   1.397035
    17  C    2.540624   1.407951   2.425356   2.796792   2.421820
    18  C    1.543372   2.539836   3.545962   4.726976   5.103001
    19  O    2.323428   3.439489   4.666786   5.810895   5.990898
    20  N    4.297534   5.133973   6.366344   7.350211   7.315184
    21  C    6.383426   7.529591   8.590220   9.735561   9.945906
    22  C    7.519755   8.685741   9.649834  10.810581  11.100686
    23  H    9.533512  10.609978  11.526902  12.620704  12.873978
    24  H    9.734027  10.588339  11.630195  12.558791  12.544575
    25  H    8.189288   8.900535  10.068876  10.907394  10.708080
    26  H    6.235045   6.863016   8.134189   8.946127   8.662243
    27  H    6.561425   7.364866   8.744575   9.643933   9.354991
    28  H    6.559922   7.654213   8.956368  10.039096   9.997510
    29  H    1.112777   2.173853   2.631180   4.024690   4.830087
    30  H    2.739033   2.166871   1.082918   2.145318   3.397192
    31  H    4.680810   3.412334   2.153717   1.082367   2.152303
    32  H    5.404606   3.892207   3.402846   2.153028   1.082340
    33  H    4.692368   3.414140   3.879943   3.400209   2.152403
    34  H    2.757714   2.168537   3.412571   3.879505   3.396769
    35  H    2.200835   3.298914   4.004055   5.252959   5.835773
    36  H    2.226961   2.582742   3.529660   4.474845   4.671475
    37  H    5.586993   6.843236   7.890329   9.104635   9.398373
    38  H    7.688333   8.939144   9.816145  11.038354  11.453179
    39  Cu   3.295248   3.960204   4.931857   5.914423   6.093176
                   16         17         18         19         20
    16  C    0.000000
    17  C    1.398112   0.000000
    18  C    4.467189   3.190667   0.000000
    19  O    5.100516   3.743128   1.416076   0.000000
    20  N    6.285458   5.096975   4.694613   3.676305   0.000000
    21  C    9.060571   7.815218   6.692086   5.651850   2.949153
    22  C   10.289123   9.060562   7.892680   6.924570   4.286980
    23  H   12.076008  10.926523  10.001314   9.034604   6.090860
    24  H   11.600886  10.586196  10.223130   9.144266   5.693977
    25  H    9.632159   8.667802   8.591468   7.451965   3.923571
    26  H    7.494402   6.499550   6.518072   5.371210   2.096294
    27  H    8.091457   6.990923   6.286780   4.918127   3.128024
    28  H    8.862591   7.611215   6.286554   4.915789   3.141873
    29  H    4.603783   3.454110   2.184803   3.043624   4.830575
    30  H    3.880379   3.413173   3.744487   4.949359   6.736344
    31  H    3.400075   3.879154   5.590107   6.753715   8.312903
    32  H    2.152917   3.402208   6.148574   7.026892   8.257042
    33  H    1.082352   2.153498   5.196839   5.644114   6.583711
    34  H    2.145342   1.082854   3.121105   3.262829   4.412255
    35  H    5.380548   4.170516   1.111009   2.074308   5.386333
    36  H    4.004431   2.908756   1.111761   2.074462   5.389264
    37  H    8.552589   7.244960   5.799282   4.797471   2.750175
    38  H   10.726429   9.463340   8.035647   7.162450   4.963800
    39  Cu   5.350739   4.237720   4.313630   3.882417   2.030240
                   21         22         23         24         25
    21  C    0.000000
    22  C    1.398112   0.000000
    23  H    3.402206   2.152915   0.000000
    24  H    3.879154   3.400074   2.478257   0.000000
    25  H    3.413176   3.880381   4.288119   2.465861   0.000000
    26  H    3.454108   4.603782   5.891234   4.696863   2.386027
    27  H    4.170529   5.380563   6.870369   5.978136   3.916144
    28  H    2.908776   4.004447   5.646298   5.356171   3.917638
    29  H    6.499451   7.494284   9.486761   9.944072   8.633637
    30  H    8.667685   9.632016  11.511391  11.839816  10.454604
    31  H   10.586115  11.600779  13.378638  13.403538  11.839871
    32  H   10.926510  12.075981  13.798949  13.378731  11.511526
    33  H    9.463380  10.726465  12.454826  11.772789   9.680599
    34  H    7.244989   8.552613  10.417327   9.944786   7.909861
    35  H    6.990852   8.091370  10.224778  10.691062   9.232743
    36  H    7.611161   8.862525  10.958765  11.026761   9.241940
    37  H    1.082853   2.145340   4.287924   4.961840   4.318982
    38  H    2.153498   1.082351   2.478442   4.293335   4.962701
    39  Cu   3.982121   5.046802   6.784662   6.698418   5.291999
                   26         27         28         29         30
    26  H    0.000000
    27  H    2.314988   0.000000
    28  H    2.990777   1.818926   0.000000
    29  H    6.872492   7.282743   7.040717   0.000000
    30  H    8.633644   9.232744   9.241916   2.386017   0.000000
    31  H    9.944121  10.691101  11.026771   4.696858   2.465862
    32  H    9.486868  10.224862  10.958822   5.891235   4.288120
    33  H    7.519409   8.089932   9.062671   5.560862   4.962701
    34  H    5.652330   6.008003   6.761400   3.821394   4.318977
    35  H    7.282757   6.939036   6.694407   2.314987   3.916154
    36  H    7.040746   6.694420   6.935137   2.990780   3.917671
    37  H    3.821394   4.211575   2.865236   5.652210   7.909723
    38  H    5.560860   6.175746   4.648386   7.519262   9.680417
    39  Cu   3.812747   5.132582   5.046258   3.588192   5.201029
                   31         32         33         34         35
    31  H    0.000000
    32  H    2.478259   0.000000
    33  H    4.293337   2.478444   0.000000
    34  H    4.961841   4.287928   2.466199   0.000000
    35  H    5.978139   6.870360   6.175726   4.211554   0.000000
    36  H    5.356200   5.646302   4.648359   2.865193   1.818926
    37  H    9.944677  10.417279   9.033304   6.720603   6.007919
    38  H   11.772639  12.454757  11.249403   9.033301   8.089822
    39  Cu   6.767288   7.042021   5.876315   3.965311   4.973197
                   36         37         38         39
    36  H    0.000000
    37  H    6.761329   0.000000
    38  H    9.062583   2.466197   0.000000
    39  Cu   5.080885   3.643592   5.497381   0.000000
 Symmetry turned off by external request.
 Stoichiometry    C18H16CuN2O2(2+,2)
 Framework group  C1[X(C18H16CuN2O2)]
 Deg. of freedom   111
 Full point group                 C1      NOp   1
 Rotational constants (GHZ):           0.5899968           0.1116384           0.1059457
 Leave Link  202 at Thu Mar  7 23:00:26 2024, MaxMem= 13421772800 cpu:               1.4 elap:               0.1
 (Enter /public/software/apps/Gaussian/g16/l301.exe)
 Standard basis: def2SVPP (5D, 7F)
 Ernie: Thresh=  0.10000D-02 Tol=  0.10000D-05 Strict=F.
   364 basis functions,   685 primitive gaussians,   388 cartesian basis functions
    91 alpha electrons       90 beta electrons
       nuclear repulsion energy      2234.2380316222 Hartrees.
 IExCor=  402 DFT=T Ex+Corr=B3LYP ExCW=0 ScaHFX=  0.200000
 ScaDFX=  0.800000  0.720000  1.000000  0.810000 ScalE2=  1.000000  1.000000
 IRadAn=      5 IRanWt=     -1 IRanGd=            0 ICorTp=0 IEmpDi=141
 NAtoms=   39 NActive=   39 NUniq=   39 SFac= 1.00D+00 NAtFMM=   60 NAOKFM=F Big=F
 Integral buffers will be    131072 words long.
 Raffenetti 2 integral format.
 Two-electron integral symmetry is turned off.
 R6Disp:  Grimme-D3(BJ) Dispersion energy=       -0.0896389158 Hartrees.
 Nuclear repulsion after empirical dispersion term =     2234.1483927064 Hartrees.
 Leave Link  301 at Thu Mar  7 23:00:26 2024, MaxMem= 13421772800 cpu:               1.2 elap:               0.0
 (Enter /public/software/apps/Gaussian/g16/l302.exe)
 NPDir=0 NMtPBC=     1 NCelOv=     1 NCel=       1 NClECP=     1 NCelD=      1
         NCelK=      1 NCelE2=     1 NClLst=     1 CellRange=     0.0.
 One-electron integrals computed using PRISM.
   1 Symmetry operations used in ECPInt.
 ECPInt:  NShTT=   15225 NPrTT=   63920 LenC2=   13318 LenP2D=   36915.
 LDataN:  DoStor=T MaxTD1= 4 Len=   56
 NBasis=   364 RedAO= T EigKep=  3.04D-04  NBF=   364
 NBsUse=   364 1.00D-06 EigRej= -1.00D+00 NBFU=   364
 Precomputing XC quadrature grid using
 IXCGrd= 4 IRadAn=           5 IRanWt=          -1 IRanGd=           0 AccXCQ= 0.00D+00.
 Generated NRdTot=       0 NPtTot=           0 NUsed=           0 NTot=          32
 NSgBfM=   378   378   378   378   378 MxSgAt=    39 MxSgA2=    39.
 Leave Link  302 at Thu Mar  7 23:00:27 2024, MaxMem= 13421772800 cpu:              13.7 elap:               0.4
 (Enter /public/software/apps/Gaussian/g16/l303.exe)
 DipDrv:  MaxL=1.
 Leave Link  303 at Thu Mar  7 23:00:27 2024, MaxMem= 13421772800 cpu:               1.5 elap:               0.1
 (Enter /public/software/apps/Gaussian/g16/l401.exe)
 ExpMin= 3.30D-02 ExpMax= 7.64D+04 ExpMxC= 1.15D+04 IAcc=3 IRadAn=         5 AccDes= 0.00D+00
 Harris functional with IExCor=  402 and IRadAn=       5 diagonalized for initial guess.
 HarFok:  IExCor=  402 AccDes= 0.00D+00 IRadAn=         5 IDoV= 1 UseB2=F ITyADJ=14
 ICtDFT=  3500011 ScaDFX=  1.000000  1.000000  1.000000  1.000000
 FoFCou: FMM=F IPFlag=           0 FMFlag=      100000 FMFlg1=           0
         NFxFlg=           0 DoJE=T BraDBF=F KetDBF=T FulRan=T
         wScrn=  0.000000 ICntrl=       500 IOpCl=  0 I1Cent=   200000004 NGrid=           0
         NMat0=    1 NMatS0=      1 NMatT0=    0 NMatD0=    1 NMtDS0=    0 NMtDT0=    0
 Symmetry not used in FoFCou.
 Harris En= -2594.82097777509    
 JPrj=0 DoOrth=F DoCkMO=F.
 Initial guess <Sx>= 0.0000 <Sy>= 0.0000 <Sz>= 0.5000 <S**2>= 0.7500 S= 0.5000
 Leave Link  401 at Thu Mar  7 23:00:28 2024, MaxMem= 13421772800 cpu:              22.6 elap:               0.7
 (Enter /public/software/apps/Gaussian/g16/l502.exe)
 Two-electron integral symmetry not used.
 UHF open shell SCF:
 Using DIIS extrapolation, IDIIS=  1040.
 NGot= 13421772800 LenX= 13421455084 LenY= 13421304099
 Requested convergence on RMS density matrix=1.00D-08 within 128 cycles.
 Requested convergence on MAX density matrix=1.00D-06.
 Requested convergence on             energy=1.00D-06.
 No special actions if energy rises.
 Fock matrices will be formed incrementally for  20 cycles.

 Cycle   1  Pass 1  IDiag  1:
 FoFJK:  IHMeth= 1 ICntrl=       0 DoSepK=F KAlg= 0 I1Cent=           0 FoldK=F
 IRaf= 800000000 NMat=       1 IRICut=       1 DoRegI=T DoRafI=F ISym2E= 0 IDoP0=0 IntGTp=1.
 FoFCou: FMM=F IPFlag=           0 FMFlag=      100000 FMFlg1=           0
         NFxFlg=           0 DoJE=F BraDBF=F KetDBF=F FulRan=T
         wScrn=  0.000000 ICntrl=         0 IOpCl=  1 I1Cent=           0 NGrid=           0
         NMat0=    1 NMatS0=      1 NMatT0=    0 NMatD0=    1 NMtDS0=    0 NMtDT0=    0
 Symmetry not used in FoFCou.
 E= -2588.13693460936    
 DIIS: error= 2.83D-01 at cycle   1 NSaved=   1.
 NSaved= 1 IEnMin= 1 EnMin= -2588.13693460936     IErMin= 1 ErrMin= 2.83D-01
 ErrMax= 2.83D-01  0.00D+00 EMaxC= 1.00D-01 BMatC= 3.64D+01 BMatP= 3.64D+01
 IDIUse=3 WtCom= 0.00D+00 WtEn= 1.00D+00
 Coeff-Com:  0.100D+01
 Coeff-En:   0.100D+01
 Coeff:      0.100D+01
 Gap=     2.035 Goal=   None    Shift=    0.000
 Gap=     0.765 Goal=   None    Shift=    0.000
 GapD=    0.765 DampG=2.000 DampE=0.125 DampFc=0.2500 IDamp=-1.
 Damping current iteration by 2.50D-01
 RMSDP=3.73D-02 MaxDP=6.96D+00              OVMax= 9.62D-01

 Cycle   2  Pass 1  IDiag  1:
 RMSU=  9.33D-03    CP:  9.82D-01
 E= -2589.11078237928     Delta-E=       -0.973847769921 Rises=F Damp=T
 DIIS: error= 8.81D-02 at cycle   2 NSaved=   2.
 NSaved= 2 IEnMin= 2 EnMin= -2589.11078237928     IErMin= 2 ErrMin= 8.81D-02
 ErrMax= 8.81D-02  0.00D+00 EMaxC= 1.00D-01 BMatC= 4.21D+00 BMatP= 3.64D+01
 IDIUse=3 WtCom= 1.19D-01 WtEn= 8.81D-01
 Coeff-Com: -0.201D+00 0.120D+01
 Coeff-En:   0.403D+00 0.597D+00
 Coeff:      0.331D+00 0.669D+00
 Gap=    -0.323 Goal=   None    Shift=    0.000
 Gap=     0.091 Goal=   None    Shift=    0.000
 RMSDP=9.19D-03 MaxDP=7.18D-01 DE=-9.74D-01 OVMax= 9.48D-01

 Cycle   3  Pass 1  IDiag  1:
 RMSU=  8.55D-03    CP:  9.22D-01  6.68D-01
 E= -2588.60349721245     Delta-E=        0.507285166835 Rises=F Damp=F
 DIIS: error= 1.39D-01 at cycle   3 NSaved=   3.
 NSaved= 3 IEnMin= 2 EnMin= -2589.11078237928     IErMin= 2 ErrMin= 8.81D-02
 ErrMax= 1.39D-01  0.00D+00 EMaxC= 1.00D-01 BMatC= 1.89D+01 BMatP= 4.21D+00
 IDIUse=2 WtCom= 0.00D+00 WtEn= 1.00D+00
 EnCoef did   100 forward-backward iterations
 Coeff-En:   0.475D+00 0.186D-01 0.506D+00
 Coeff:      0.475D+00 0.186D-01 0.506D+00
 Gap=    -0.055 Goal=   None    Shift=    0.000
 Gap=    -0.043 Goal=   None    Shift=    0.000
 RMSDP=2.60D-02 MaxDP=2.60D+00 DE= 5.07D-01 OVMax= 9.72D-01

 Cycle   4  Pass 1  IDiag  1:
 RMSU=  2.44D-02    CP:  9.36D-01  1.15D+00  7.34D-02
 E= -2566.34210998816     Delta-E=       22.261387224285 Rises=F Damp=F
 DIIS: error= 2.03D-01 at cycle   4 NSaved=   4.
 NSaved= 4 IEnMin= 2 EnMin= -2589.11078237928     IErMin= 2 ErrMin= 8.81D-02
 ErrMax= 2.03D-01  0.00D+00 EMaxC= 1.00D-01 BMatC= 6.37D+01 BMatP= 4.21D+00
 IDIUse=2 WtCom= 0.00D+00 WtEn= 1.00D+00
 EnCoef did   100 forward-backward iterations
 Coeff-En:   0.448D+00 0.599D-02 0.454D+00 0.912D-01
 Coeff:      0.448D+00 0.599D-02 0.454D+00 0.912D-01
 Gap=     0.118 Goal=   None    Shift=    0.000
 Gap=    -0.196 Goal=   None    Shift=    0.000
 RMSDP=2.45D-02 MaxDP=2.54D+00 DE= 2.23D+01 OVMax= 9.69D-01

 Cycle   5  Pass 1  IDiag  1:
 RMSU=  6.27D-03    CP:  9.23D-01  3.53D-01  3.46D-01  8.02D-02
 E= -2591.03095979351     Delta-E=      -24.688849805342 Rises=F Damp=F
 DIIS: error= 7.64D-02 at cycle   5 NSaved=   5.
 NSaved= 5 IEnMin= 5 EnMin= -2591.03095979351     IErMin= 5 ErrMin= 7.64D-02
 ErrMax= 7.64D-02  0.00D+00 EMaxC= 1.00D-01 BMatC= 7.57D+00 BMatP= 4.21D+00
 IDIUse=2 WtCom= 0.00D+00 WtEn= 1.00D+00
 EnCoef did   100 forward-backward iterations
 Coeff-En:   0.342D+00 0.375D-02 0.266D+00 0.000D+00 0.388D+00
 Coeff:      0.342D+00 0.375D-02 0.266D+00 0.000D+00 0.388D+00
 Gap=    -0.309 Goal=   None    Shift=    0.000
 Gap=    -0.012 Goal=   None    Shift=    0.000
 RMSDP=8.22D-03 MaxDP=1.54D+00 DE=-2.47D+01 OVMax= 9.81D-01

 Cycle   6  Pass 1  IDiag  1:
 RMSU=  6.60D-03    CP:  9.15D-01  1.23D-01  3.83D-01  3.73D-02  3.21D-01
 E= -2587.60538660041     Delta-E=        3.425573193095 Rises=F Damp=F
 DIIS: error= 6.09D-02 at cycle   6 NSaved=   6.
 NSaved= 6 IEnMin= 5 EnMin= -2591.03095979351     IErMin= 6 ErrMin= 6.09D-02
 ErrMax= 6.09D-02  0.00D+00 EMaxC= 1.00D-01 BMatC= 8.99D+00 BMatP= 4.21D+00
 IDIUse=2 WtCom= 0.00D+00 WtEn= 1.00D+00
 EnCoef did     6 forward-backward iterations
 Coeff-En:   0.281D+00 0.000D+00 0.156D+00 0.000D+00 0.400D+00 0.163D+00
 Coeff:      0.281D+00 0.000D+00 0.156D+00 0.000D+00 0.400D+00 0.163D+00
 Gap=     0.310 Goal=   None    Shift=    0.000
 Gap=    -0.007 Goal=   None    Shift=    0.000
 RMSDP=5.85D-03 MaxDP=1.52D-01 DE= 3.43D+00 OVMax= 9.86D-01

 Cycle   7  Pass 1  IDiag  1:
 RMSU=  3.39D-03    CP:  9.22D-01  8.97D-02  4.69D-01  1.09D-02  2.57D-01
                    CP:  2.98D-01
 E= -2593.94021966602     Delta-E=       -6.334833065610 Rises=F Damp=F
 DIIS: error= 3.26D-02 at cycle   7 NSaved=   7.
 NSaved= 7 IEnMin= 7 EnMin= -2593.94021966602     IErMin= 7 ErrMin= 3.26D-02
 ErrMax= 3.26D-02  0.00D+00 EMaxC= 1.00D-01 BMatC= 2.14D+00 BMatP= 4.21D+00
 IDIUse=3 WtCom= 6.74D-01 WtEn= 3.26D-01
 EnCoef did     3 forward-backward iterations
 Coeff-Com: -0.165D-01 0.256D+00-0.142D+00-0.781D-02 0.154D+00 0.581D-01
 Coeff-Com:  0.699D+00
 Coeff-En:   0.988D-01 0.000D+00 0.000D+00 0.000D+00 0.186D+00 0.172D-02
 Coeff-En:   0.713D+00
 Coeff:      0.211D-01 0.172D+00-0.954D-01-0.526D-02 0.164D+00 0.397D-01
 Coeff:      0.703D+00
 Gap=     0.263 Goal=   None    Shift=    0.000
 Gap=     0.037 Goal=   None    Shift=    0.000
 RMSDP=2.96D-03 MaxDP=2.47D-01 DE=-6.33D+00 OVMax= 8.36D-01

 Cycle   8  Pass 1  IDiag  1:
 RMSU=  2.35D-03    CP:  9.21D-01  6.34D-02  3.28D-01  3.59D-02  3.76D-01
                    CP:  3.71D-01  7.85D-01
 E= -2594.42948960405     Delta-E=       -0.489269938032 Rises=F Damp=F
 DIIS: error= 2.03D-02 at cycle   8 NSaved=   8.
 NSaved= 8 IEnMin= 8 EnMin= -2594.42948960405     IErMin= 8 ErrMin= 2.03D-02
 ErrMax= 2.03D-02  0.00D+00 EMaxC= 1.00D-01 BMatC= 4.19D-01 BMatP= 2.14D+00
 IDIUse=3 WtCom= 7.97D-01 WtEn= 2.03D-01
 EnCoef did     1 forward-backward iterations
 Coeff-Com: -0.231D-01 0.181D+00-0.726D-01-0.518D-02-0.284D-02-0.741D-01
 Coeff-Com:  0.349D+00 0.648D+00
 Coeff-En:   0.462D-02 0.000D+00 0.000D+00 0.000D+00 0.000D+00 0.000D+00
 Coeff-En:   0.725D-01 0.923D+00
 Coeff:     -0.175D-01 0.144D+00-0.578D-01-0.412D-02-0.226D-02-0.590D-01
 Coeff:      0.293D+00 0.704D+00
 Gap=     0.210 Goal=   None    Shift=    0.000
 Gap=     0.016 Goal=   None    Shift=    0.000
 RMSDP=2.01D-03 MaxDP=1.17D-01 DE=-4.89D-01 OVMax= 9.43D-01

 Cycle   9  Pass 1  IDiag  1:
 RMSU=  1.72D-03    CP:  9.22D-01  6.42D-02  3.30D-01  3.00D-02  3.87D-01
                    CP:  2.93D-01  8.73D-01  6.41D-01
 E= -2594.44177257863     Delta-E=       -0.012282974581 Rises=F Damp=F
 DIIS: error= 1.22D-02 at cycle   9 NSaved=   9.
 NSaved= 9 IEnMin= 9 EnMin= -2594.44177257863     IErMin= 9 ErrMin= 1.22D-02
 ErrMax= 1.22D-02  0.00D+00 EMaxC= 1.00D-01 BMatC= 3.64D-01 BMatP= 4.19D-01
 IDIUse=3 WtCom= 8.78D-01 WtEn= 1.22D-01
 Coeff-Com: -0.160D-01 0.120D+00-0.355D-01-0.250D-02-0.598D-01-0.335D-01
 Coeff-Com:  0.962D-01 0.527D+00 0.404D+00
 Coeff-En:   0.000D+00 0.000D+00 0.000D+00 0.000D+00 0.000D+00 0.000D+00
 Coeff-En:   0.000D+00 0.483D+00 0.517D+00
 Coeff:     -0.140D-01 0.105D+00-0.311D-01-0.220D-02-0.525D-01-0.294D-01
 Coeff:      0.844D-01 0.521D+00 0.418D+00
 Gap=     0.160 Goal=   None    Shift=    0.000
 Gap=     0.016 Goal=   None    Shift=    0.000
 RMSDP=7.18D-04 MaxDP=2.56D-02 DE=-1.23D-02 OVMax= 4.97D-02

 Cycle  10  Pass 1  IDiag  1:
 RMSU=  6.26D-04    CP:  9.22D-01  6.61D-02  3.30D-01  3.03D-02  3.88D-01
                    CP:  3.11D-01  8.43D-01  6.64D-01  8.20D-01
 E= -2594.50973346936     Delta-E=       -0.067960890731 Rises=F Damp=F
 DIIS: error= 1.01D-02 at cycle  10 NSaved=  10.
 NSaved=10 IEnMin=10 EnMin= -2594.50973346936     IErMin=10 ErrMin= 1.01D-02
 ErrMax= 1.01D-02  0.00D+00 EMaxC= 1.00D-01 BMatC= 1.06D-01 BMatP= 3.64D-01
 IDIUse=3 WtCom= 8.99D-01 WtEn= 1.01D-01
 Coeff-Com: -0.938D-02 0.798D-01-0.287D-01-0.652D-03-0.586D-01 0.462D-02
 Coeff-Com:  0.199D-01 0.284D+00 0.140D+00 0.569D+00
 Coeff-En:   0.000D+00 0.000D+00 0.000D+00 0.000D+00 0.000D+00 0.000D+00
 Coeff-En:   0.000D+00 0.334D+00 0.000D+00 0.666D+00
 Coeff:     -0.843D-02 0.717D-01-0.258D-01-0.586D-03-0.526D-01 0.415D-02
 Coeff:      0.179D-01 0.289D+00 0.126D+00 0.579D+00
 Gap=     0.159 Goal=   None    Shift=    0.000
 Gap=    -0.000 Goal=   None    Shift=    0.000
 RMSDP=1.38D-03 MaxDP=6.61D-02 DE=-6.80D-02 OVMax= 8.33D-01

 Cycle  11  Pass 1  IDiag  1:
 RMSU=  8.79D-04    CP:  9.22D-01  6.64D-02  3.27D-01  3.14D-02  3.68D-01
                    CP:  3.44D-01  8.26D-01  8.18D-01  3.41D-01  2.18D-01
 E= -2594.53781577797     Delta-E=       -0.028082308603 Rises=F Damp=F
 DIIS: error= 8.32D-03 at cycle  11 NSaved=  11.
 NSaved=11 IEnMin=11 EnMin= -2594.53781577797     IErMin=11 ErrMin= 8.32D-03
 ErrMax= 8.32D-03  0.00D+00 EMaxC= 1.00D-01 BMatC= 7.09D-02 BMatP= 1.06D-01
 IDIUse=3 WtCom= 9.17D-01 WtEn= 8.32D-02
 Coeff-Com: -0.325D-02 0.457D-01-0.195D-01-0.858D-03-0.422D-01 0.108D-02
 Coeff-Com: -0.241D-01 0.853D-01 0.498D-01 0.495D+00 0.413D+00
 Coeff-En:   0.000D+00 0.000D+00 0.000D+00 0.000D+00 0.000D+00 0.000D+00
 Coeff-En:   0.000D+00 0.000D+00 0.000D+00 0.355D+00 0.645D+00
 Coeff:     -0.298D-02 0.419D-01-0.179D-01-0.787D-03-0.387D-01 0.991D-03
 Coeff:     -0.221D-01 0.782D-01 0.456D-01 0.483D+00 0.432D+00
 Gap=     0.146 Goal=   None    Shift=    0.000
 Gap=     0.002 Goal=   None    Shift=    0.000
 RMSDP=1.05D-03 MaxDP=6.00D-02 DE=-2.81D-02 OVMax= 6.40D-01

 Cycle  12  Pass 1  IDiag  1:
 RMSU=  2.98D-04    CP:  9.23D-01  6.55D-02  3.24D-01  3.09D-02  3.83D-01
                    CP:  3.20D-01  8.35D-01  6.92D-01  7.52D-01  8.69D-01
                    CP:  4.62D-01
 E= -2594.53285322816     Delta-E=        0.004962549810 Rises=F Damp=F
 DIIS: error= 5.33D-03 at cycle  12 NSaved=  12.
 NSaved=12 IEnMin=11 EnMin= -2594.53781577797     IErMin=12 ErrMin= 5.33D-03
 ErrMax= 5.33D-03  0.00D+00 EMaxC= 1.00D-01 BMatC= 4.91D-02 BMatP= 7.09D-02
 IDIUse=3 WtCom= 9.47D-01 WtEn= 5.33D-02
 Coeff-Com:  0.117D-02 0.102D-01-0.616D-02-0.438D-03-0.132D-01 0.521D-02
 Coeff-Com: -0.383D-01-0.996D-01-0.142D+00-0.212D-01 0.520D+00 0.784D+00
 Coeff-En:   0.000D+00 0.000D+00 0.000D+00 0.000D+00 0.000D+00 0.000D+00
 Coeff-En:   0.000D+00 0.000D+00 0.000D+00 0.000D+00 0.534D+00 0.466D+00
 Coeff:      0.111D-02 0.969D-02-0.583D-02-0.414D-03-0.125D-01 0.493D-02
 Coeff:     -0.363D-01-0.943D-01-0.134D+00-0.200D-01 0.521D+00 0.767D+00
 Gap=     0.132 Goal=   None    Shift=    0.000
 Gap=    -0.003 Goal=   None    Shift=    0.000
 RMSDP=1.26D-03 MaxDP=6.79D-02 DE= 4.96D-03 OVMax= 6.02D-01

 Cycle  13  Pass 1  IDiag  1:
 RMSU=  3.88D-04    CP:  9.23D-01  6.60D-02  3.17D-01  3.17D-02  3.57D-01
                    CP:  3.53D-01  8.17D-01  8.67D-01  2.41D-01  2.20D-01
                    CP:  8.88D-01 -4.25D-02
 E= -2594.52281173466     Delta-E=        0.010041493499 Rises=F Damp=F
 DIIS: error= 6.53D-03 at cycle  13 NSaved=  13.
 NSaved=13 IEnMin=11 EnMin= -2594.53781577797     IErMin=12 ErrMin= 5.33D-03
 ErrMax= 6.53D-03  0.00D+00 EMaxC= 1.00D-01 BMatC= 6.82D-02 BMatP= 4.91D-02
 IDIUse=3 WtCom= 9.47D-01 WtEn= 5.33D-02
 Coeff-Com:  0.200D-02 0.153D-03-0.239D-02 0.866D-04-0.279D-02-0.523D-02
 Coeff-Com: -0.254D-01-0.100D+00-0.790D-01-0.128D+00 0.278D+00 0.754D+00
 Coeff-Com:  0.310D+00
 Coeff-En:   0.000D+00 0.000D+00 0.000D+00 0.000D+00 0.000D+00 0.000D+00
 Coeff-En:   0.000D+00 0.000D+00 0.000D+00 0.000D+00 0.000D+00 0.545D+00
 Coeff-En:   0.455D+00
 Coeff:      0.189D-02 0.145D-03-0.226D-02 0.819D-04-0.264D-02-0.495D-02
 Coeff:     -0.240D-01-0.950D-01-0.748D-01-0.121D+00 0.263D+00 0.743D+00
 Coeff:      0.317D+00
 Gap=     0.129 Goal=   None    Shift=    0.000
 Gap=     0.013 Goal=   None    Shift=    0.000
 RMSDP=1.34D-04 MaxDP=4.99D-03 DE= 1.00D-02 OVMax= 1.62D-02

 Cycle  14  Pass 1  IDiag  1:
 RMSU=  1.04D-04    CP:  9.24D-01  6.56D-02  3.15D-01  3.17D-02  3.57D-01
                    CP:  3.49D-01  8.21D-01  8.70D-01  2.54D-01  1.09D-01
                    CP:  8.89D-01 -1.27D-01  1.02D+00
 E= -2594.52512844407     Delta-E=       -0.002316709415 Rises=F Damp=F
 DIIS: error= 6.18D-03 at cycle  14 NSaved=  14.
 NSaved=14 IEnMin=11 EnMin= -2594.53781577797     IErMin=12 ErrMin= 5.33D-03
 ErrMax= 6.18D-03  0.00D+00 EMaxC= 1.00D-01 BMatC= 5.73D-02 BMatP= 4.91D-02
 IDIUse=3 WtCom= 9.47D-01 WtEn= 5.33D-02
 Coeff-Com:  0.122D-02-0.533D-03-0.113D-02 0.177D-03-0.523D-03-0.317D-02
 Coeff-Com: -0.196D-01-0.759D-01-0.477D-01-0.979D-02 0.656D-01 0.605D+00
 Coeff-Com: -0.972D-01 0.583D+00
 Coeff-En:   0.000D+00 0.000D+00 0.000D+00 0.000D+00 0.000D+00 0.000D+00
 Coeff-En:   0.000D+00 0.000D+00 0.000D+00 0.000D+00 0.000D+00 0.535D+00
 Coeff-En:   0.000D+00 0.465D+00
 Coeff:      0.115D-02-0.505D-03-0.107D-02 0.168D-03-0.495D-03-0.300D-02
 Coeff:     -0.185D-01-0.719D-01-0.451D-01-0.927D-02 0.621D-01 0.602D+00
 Coeff:     -0.920D-01 0.577D+00
 Gap=     0.128 Goal=   None    Shift=    0.000
 Gap=     0.010 Goal=   None    Shift=    0.000
 RMSDP=1.80D-04 MaxDP=8.83D-03 DE=-2.32D-03 OVMax= 8.16D-02

 Cycle  15  Pass 1  IDiag  1:
 RMSU=  1.05D-04    CP:  9.24D-01  6.56D-02  3.15D-01  3.18D-02  3.59D-01
                    CP:  3.45D-01  8.24D-01  8.50D-01  3.14D-01  1.72D-01
                    CP:  9.51D-01  5.00D-02  1.04D+00  1.05D+00
 E= -2594.53669384989     Delta-E=       -0.011565405819 Rises=F Damp=F
 DIIS: error= 5.63D-03 at cycle  15 NSaved=  15.
 NSaved=15 IEnMin=11 EnMin= -2594.53781577797     IErMin=12 ErrMin= 5.33D-03
 ErrMax= 5.63D-03  0.00D+00 EMaxC= 1.00D-01 BMatC= 3.92D-02 BMatP= 4.91D-02
 IDIUse=3 WtCom= 9.47D-01 WtEn= 5.33D-02
 Coeff-Com:  0.752D-03 0.523D-03-0.908D-03 0.759D-04-0.265D-03-0.188D-02
 Coeff-Com: -0.172D-01-0.621D-01-0.497D-01 0.105D-02 0.506D-01 0.563D+00
 Coeff-Com: -0.214D+00 0.334D+00 0.395D+00
 Coeff-En:   0.000D+00 0.000D+00 0.000D+00 0.000D+00 0.000D+00 0.000D+00
 Coeff-En:   0.000D+00 0.000D+00 0.000D+00 0.000D+00 0.000D+00 0.478D+00
 Coeff-En:   0.000D+00 0.000D+00 0.522D+00
 Coeff:      0.712D-03 0.495D-03-0.860D-03 0.719D-04-0.251D-03-0.178D-02
 Coeff:     -0.162D-01-0.588D-01-0.471D-01 0.996D-03 0.479D-01 0.559D+00
 Coeff:     -0.202D+00 0.316D+00 0.402D+00
 Gap=     0.128 Goal=   None    Shift=    0.000
 Gap=     0.009 Goal=   None    Shift=    0.000
 RMSDP=1.30D-04 MaxDP=6.73D-03 DE=-1.16D-02 OVMax= 6.92D-02

 Cycle  16  Pass 1  IDiag  1:
 RMSU=  3.70D-05    CP:  9.23D-01  6.57D-02  3.15D-01  3.17D-02  3.61D-01
                    CP:  3.42D-01  8.25D-01  8.34D-01  3.57D-01  2.41D-01
                    CP:  9.80D-01  2.11D-01  1.01D+00  1.14D+00  1.51D+00
 E= -2594.54399709907     Delta-E=       -0.007303249173 Rises=F Damp=F
 DIIS: error= 4.99D-03 at cycle  16 NSaved=  16.
 NSaved=16 IEnMin=16 EnMin= -2594.54399709907     IErMin=16 ErrMin= 4.99D-03
 ErrMax= 4.99D-03  0.00D+00 EMaxC= 1.00D-01 BMatC= 2.76D-02 BMatP= 3.92D-02
 IDIUse=3 WtCom= 9.50D-01 WtEn= 4.99D-02
 Coeff-Com:  0.574D-03 0.955D-03-0.105D-02 0.207D-03-0.133D-02-0.123D-02
 Coeff-Com: -0.132D-01-0.440D-01-0.636D-01-0.625D-01 0.114D+00 0.516D+00
 Coeff-Com: -0.117D+00-0.635D-01-0.658D+00 0.139D+01
 Coeff-En:   0.000D+00 0.000D+00 0.000D+00 0.000D+00 0.000D+00 0.000D+00
 Coeff-En:   0.000D+00 0.000D+00 0.000D+00 0.000D+00 0.000D+00 0.425D+00
 Coeff-En:   0.000D+00 0.000D+00 0.000D+00 0.575D+00
 Coeff:      0.545D-03 0.907D-03-0.998D-03 0.197D-03-0.126D-02-0.117D-02
 Coeff:     -0.125D-01-0.418D-01-0.605D-01-0.594D-01 0.109D+00 0.511D+00
 Coeff:     -0.111D+00-0.603D-01-0.626D+00 0.135D+01
 Gap=     0.129 Goal=   None    Shift=    0.000
 Gap=     0.012 Goal=   None    Shift=    0.000
 RMSDP=1.46D-04 MaxDP=6.69D-03 DE=-7.30D-03 OVMax= 6.38D-02

 Cycle  17  Pass 1  IDiag  1:
 RMSU=  7.05D-05    CP:  9.23D-01  6.58D-02  3.15D-01  3.19D-02  3.62D-01
                    CP:  3.41D-01  8.25D-01  8.18D-01  3.83D-01  3.14D-01
                    CP:  9.75D-01  3.16D-01  1.09D+00  1.34D+00  2.25D+00
                    CP:  2.25D+00
 E= -2594.54685824089     Delta-E=       -0.002861141820 Rises=F Damp=F
 DIIS: error= 4.68D-03 at cycle  17 NSaved=  17.
 NSaved=17 IEnMin=17 EnMin= -2594.54685824089     IErMin=17 ErrMin= 4.68D-03
 ErrMax= 4.68D-03  0.00D+00 EMaxC= 1.00D-01 BMatC= 2.38D-02 BMatP= 2.76D-02
 IDIUse=3 WtCom= 9.53D-01 WtEn= 4.68D-02
 Coeff-Com:  0.568D-03 0.102D-02-0.110D-02 0.196D-03-0.132D-02-0.132D-02
 Coeff-Com: -0.132D-01-0.439D-01-0.613D-01-0.597D-01 0.111D+00 0.506D+00
 Coeff-Com: -0.105D+00 0.123D-01-0.835D+00 0.135D+01 0.143D+00
 Coeff-En:   0.000D+00 0.000D+00 0.000D+00 0.000D+00 0.000D+00 0.000D+00
 Coeff-En:   0.000D+00 0.000D+00 0.000D+00 0.000D+00 0.000D+00 0.398D+00
 Coeff-En:   0.000D+00 0.000D+00 0.000D+00 0.000D+00 0.602D+00
 Coeff:      0.541D-03 0.975D-03-0.105D-02 0.187D-03-0.126D-02-0.126D-02
 Coeff:     -0.125D-01-0.419D-01-0.585D-01-0.569D-01 0.106D+00 0.501D+00
 Coeff:     -0.997D-01 0.117D-01-0.796D+00 0.128D+01 0.164D+00
 Gap=     0.130 Goal=   None    Shift=    0.000
 Gap=     0.013 Goal=   None    Shift=    0.000
 RMSDP=2.86D-05 MaxDP=1.38D-03 DE=-2.86D-03 OVMax= 1.24D-02

 Cycle  18  Pass 1  IDiag  1:
 RMSU=  8.00D-06    CP:  9.23D-01  6.58D-02  3.15D-01  3.19D-02  3.62D-01
                    CP:  3.41D-01  8.24D-01  8.16D-01  3.82D-01  3.19D-01
                    CP:  9.70D-01  3.11D-01  1.12D+00  1.40D+00  2.36D+00
                    CP:  2.60D+00  1.21D+00
 E= -2594.54651625502     Delta-E=        0.000341985868 Rises=F Damp=F
 DIIS: error= 4.71D-03 at cycle  18 NSaved=  18.
 NSaved=18 IEnMin=17 EnMin= -2594.54685824089     IErMin=17 ErrMin= 4.68D-03
 ErrMax= 4.71D-03  0.00D+00 EMaxC= 1.00D-01 BMatC= 2.44D-02 BMatP= 2.38D-02
 IDIUse=3 WtCom= 9.53D-01 WtEn= 4.68D-02
 Rare condition: small coef for last iteration:  0.000D+00
 Coeff-Com:  0.344D-03 0.156D-02-0.912D-03 0.289D-04-0.518D-03-0.359D-03
 Coeff-Com: -0.104D-01-0.349D-01-0.605D-01-0.105D+00 0.136D+00 0.492D+00
 Coeff-Com: -0.236D-01-0.264D+00-0.999D+00 0.196D+01 0.418D+01-0.427D+01
 Coeff-En:   0.000D+00 0.000D+00 0.000D+00 0.000D+00 0.000D+00 0.000D+00
 Coeff-En:   0.000D+00 0.000D+00 0.000D+00 0.000D+00 0.000D+00 0.402D+00
 Coeff-En:   0.000D+00 0.000D+00 0.000D+00 0.000D+00 0.000D+00 0.598D+00
 Coeff:      0.344D-03 0.156D-02-0.912D-03 0.289D-04-0.518D-03-0.359D-03
 Coeff:     -0.104D-01-0.349D-01-0.605D-01-0.105D+00 0.136D+00 0.492D+00
 Coeff:     -0.236D-01-0.264D+00-0.999D+00 0.196D+01 0.418D+01-0.427D+01
 Gap=     0.129 Goal=   None    Shift=    0.000
 Gap=     0.013 Goal=   None    Shift=    0.000
 RMSDP=1.69D-04 MaxDP=8.54D-03 DE= 3.42D-04 OVMax= 7.18D-02

 Cycle  19  Pass 1  IDiag  1:
 RMSU=  2.95D-05    CP:  9.23D-01  6.57D-02  3.15D-01  3.17D-02  3.62D-01
                    CP:  3.42D-01  8.25D-01  8.29D-01  3.66D-01  2.65D-01
                    CP:  9.86D-01  2.74D-01  9.72D-01  1.06D+00  1.58D+00
                    CP:  5.97D-01  1.21D-02 -1.37D+00
 E= -2594.54556879462     Delta-E=        0.000947460403 Rises=F Damp=F
 DIIS: error= 4.85D-03 at cycle  19 NSaved=  19.
 NSaved=19 IEnMin=17 EnMin= -2594.54685824089     IErMin=17 ErrMin= 4.68D-03
 ErrMax= 4.85D-03  0.00D+00 EMaxC= 1.00D-01 BMatC= 2.57D-02 BMatP= 2.38D-02
 IDIUse=3 WtCom= 9.53D-01 WtEn= 4.68D-02
 EnCoef did   100 forward-backward iterations
 Rare condition: small coef for last iteration:  0.000D+00
 Coeff-Com:  0.346D-03 0.155D-02-0.919D-03 0.322D-04-0.522D-03-0.349D-03
 Coeff-Com: -0.104D-01-0.348D-01-0.600D-01-0.106D+00 0.135D+00 0.490D+00
 Coeff-Com: -0.203D-01-0.252D+00-0.105D+01 0.196D+01 0.427D+01-0.437D+01
 Coeff-Com:  0.403D-01
 Coeff-En:   0.000D+00 0.000D+00 0.000D+00 0.000D+00 0.000D+00 0.000D+00
 Coeff-En:   0.000D+00 0.000D+00 0.000D+00 0.000D+00 0.000D+00 0.411D+00
 Coeff-En:   0.000D+00 0.000D+00 0.000D+00 0.000D+00 0.000D+00 0.000D+00
 Coeff-En:   0.589D+00
 Coeff:      0.346D-03 0.155D-02-0.919D-03 0.322D-04-0.522D-03-0.349D-03
 Coeff:     -0.104D-01-0.348D-01-0.600D-01-0.106D+00 0.135D+00 0.490D+00
 Coeff:     -0.203D-01-0.252D+00-0.105D+01 0.196D+01 0.427D+01-0.437D+01
 Coeff:      0.403D-01
 Gap=     0.129 Goal=   None    Shift=    0.000
 Gap=     0.014 Goal=   None    Shift=    0.000
 RMSDP=3.31D-06 MaxDP=1.60D-04 DE= 9.47D-04 OVMax= 1.30D-03

 Cycle  20  Pass 1  IDiag  1:
 RMSU=  1.03D-06    CP:  9.23D-01  6.57D-02  3.15D-01  3.17D-02  3.62D-01
                    CP:  3.42D-01  8.25D-01  8.29D-01  3.65D-01  2.64D-01
                    CP:  9.86D-01  2.73D-01  9.70D-01  1.06D+00  1.56D+00
                    CP:  5.60D-01 -6.75D-03 -1.45D+00  1.02D+00
 E= -2594.54551518201     Delta-E=        0.000053612602 Rises=F Damp=F
 DIIS: error= 4.86D-03 at cycle  20 NSaved=  20.
 NSaved=20 IEnMin=17 EnMin= -2594.54685824089     IErMin=17 ErrMin= 4.68D-03
 ErrMax= 4.86D-03  0.00D+00 EMaxC= 1.00D-01 BMatC= 2.58D-02 BMatP= 2.38D-02
 IDIUse=3 WtCom= 9.53D-01 WtEn= 4.68D-02
 Large coefficients: NSaved= 20 BigCof=   15.23 CofMax=   10.00 Det=-4.34D-08
 Inversion failed.  Reducing to 19 matrices.
 Large coefficients: NSaved= 19 BigCof=   15.07 CofMax=   10.00 Det=-4.36D-08
 Inversion failed.  Reducing to 18 matrices.
 Large coefficients: NSaved= 18 BigCof=   14.94 CofMax=   10.00 Det=-4.37D-08
 Inversion failed.  Reducing to 17 matrices.
 Large coefficients: NSaved= 17 BigCof=   13.91 CofMax=   10.00 Det=-4.46D-08
 Inversion failed.  Reducing to 16 matrices.
 Large coefficients: NSaved= 16 BigCof=   13.48 CofMax=   10.00 Det=-4.47D-08
 Inversion failed.  Reducing to 15 matrices.
 Large coefficients: NSaved= 15 BigCof=   14.96 CofMax=   10.00 Det=-4.54D-08
 Inversion failed.  Reducing to 14 matrices.
 Large coefficients: NSaved= 14 BigCof=   14.79 CofMax=   10.00 Det=-4.57D-08
 Inversion failed.  Reducing to 13 matrices.
 Large coefficients: NSaved= 13 BigCof=   15.12 CofMax=   10.00 Det=-4.93D-08
 Inversion failed.  Reducing to 12 matrices.
 Large coefficients: NSaved= 12 BigCof=   10.36 CofMax=   10.00 Det=-5.53D-08
 Inversion failed.  Reducing to 11 matrices.
 Large coefficients: NSaved= 11 BigCof=   24.54 CofMax=   10.00 Det=-6.44D-08
 Inversion failed.  Reducing to 10 matrices.
 Large coefficients: NSaved= 10 BigCof=   26.29 CofMax=   10.00 Det=-6.48D-08
 Inversion failed.  Reducing to  9 matrices.
 Large coefficients: NSaved=  9 BigCof=   18.83 CofMax=   10.00 Det=-6.64D-08
 Inversion failed.  Reducing to  8 matrices.
 EnCoef did   100 forward-backward iterations
 Rare condition: small coef for last iteration:  0.000D+00
 Coeff-Com: -0.508D-01 0.229D+00-0.177D+01 0.220D+01 0.846D+01-0.829D+01
 Coeff-Com:  0.968D+01-0.945D+01
 Coeff-En:   0.000D+00 0.411D+00 0.000D+00 0.000D+00 0.000D+00 0.000D+00
 Coeff-En:   0.000D+00 0.589D+00
 Coeff:     -0.508D-01 0.229D+00-0.177D+01 0.220D+01 0.846D+01-0.829D+01
 Coeff:      0.968D+01-0.945D+01
 Gap=     0.126 Goal=   None    Shift=    0.000
 Gap=     0.012 Goal=   None    Shift=    0.000
 RMSDP=1.91D-04 MaxDP=8.29D-03 DE= 5.36D-05 OVMax= 9.98D-02

 Cycle  21  Pass 1  IDiag  1:
 Restarting incremental Fock formation.
 E= -2594.55424753450     Delta-E=       -0.008732352486 Rises=F Damp=F
 DIIS: error= 3.22D-03 at cycle  21 NSaved=   9.
 NSaved= 9 IEnMin= 9 EnMin= -2594.55424753450     IErMin= 9 ErrMin= 3.22D-03
 ErrMax= 3.22D-03  0.00D+00 EMaxC= 1.00D-01 BMatC= 1.09D-02 BMatP= 2.38D-02
 IDIUse=3 WtCom= 9.68D-01 WtEn= 3.22D-02
 Coeff-Com: -0.429D-01 0.272D+00-0.625D+00 0.114D+01 0.468D+01-0.438D+01
 Coeff-Com:  0.285D+01-0.344D+01 0.539D+00
 Coeff-En:   0.000D+00 0.286D+00 0.000D+00 0.000D+00 0.000D+00 0.000D+00
 Coeff-En:   0.000D+00 0.000D+00 0.714D+00
 Coeff:     -0.415D-01 0.273D+00-0.605D+00 0.111D+01 0.453D+01-0.424D+01
 Coeff:      0.276D+01-0.333D+01 0.544D+00
 Gap=     0.129 Goal=   None    Shift=    0.000
 Gap=     0.011 Goal=   None    Shift=    0.000
 RMSDP=1.06D-04 MaxDP=5.11D-03 DE=-8.73D-03 OVMax= 4.24D-02

 Cycle  22  Pass 1  IDiag  1:
 RMSU=  1.06D-04    CP:  1.00D+00
 E= -2594.55647484537     Delta-E=       -0.002227310867 Rises=F Damp=F
 DIIS: error= 2.54D-03 at cycle  22 NSaved=  10.
 NSaved=10 IEnMin=10 EnMin= -2594.55647484537     IErMin=10 ErrMin= 2.54D-03
 ErrMax= 2.54D-03  0.00D+00 EMaxC= 1.00D-01 BMatC= 6.53D-03 BMatP= 1.09D-02
 IDIUse=3 WtCom= 9.75D-01 WtEn= 2.54D-02
 Coeff-Com:  0.293D-01 0.190D+00 0.651D+00-0.185D+00-0.463D+00 0.711D+00
 Coeff-Com: -0.386D+01 0.238D+01 0.396D+00 0.115D+01
 Coeff-En:   0.000D+00 0.227D+00 0.000D+00 0.000D+00 0.000D+00 0.000D+00
 Coeff-En:   0.000D+00 0.000D+00 0.000D+00 0.773D+00
 Coeff:      0.285D-01 0.191D+00 0.635D+00-0.181D+00-0.452D+00 0.693D+00
 Coeff:     -0.377D+01 0.232D+01 0.386D+00 0.114D+01
 Gap=     0.131 Goal=   None    Shift=    0.000
 Gap=     0.011 Goal=   None    Shift=    0.000
 RMSDP=1.84D-04 MaxDP=9.43D-03 DE=-2.23D-03 OVMax= 9.52D-02

 Cycle  23  Pass 1  IDiag  1:
 RMSU=  1.32D-04    CP:  1.00D+00  2.19D+00
 E= -2594.55946971845     Delta-E=       -0.002994873082 Rises=F Damp=F
 DIIS: error= 9.67D-04 at cycle  23 NSaved=  11.
 NSaved=11 IEnMin=11 EnMin= -2594.55946971845     IErMin=11 ErrMin= 9.67D-04
 ErrMax= 9.67D-04  0.00D+00 EMaxC= 1.00D-01 BMatC= 1.19D-03 BMatP= 6.53D-03
 IDIUse=3 WtCom= 9.90D-01 WtEn= 9.67D-03
 Coeff-Com:  0.434D-01 0.118D+00 0.642D+00-0.341D+00-0.134D+01 0.130D+01
 Coeff-Com: -0.934D+01 0.833D+01 0.209D+00 0.905D+00 0.468D+00
 Coeff-En:   0.000D+00 0.570D-01 0.000D+00 0.000D+00 0.000D+00 0.000D+00
 Coeff-En:   0.000D+00 0.000D+00 0.000D+00 0.000D+00 0.943D+00
 Coeff:      0.430D-01 0.117D+00 0.636D+00-0.337D+00-0.132D+01 0.129D+01
 Coeff:     -0.925D+01 0.825D+01 0.207D+00 0.896D+00 0.472D+00
 Gap=     0.132 Goal=   None    Shift=    0.000
 Gap=     0.011 Goal=   None    Shift=    0.000
 RMSDP=3.62D-05 MaxDP=1.23D-03 DE=-2.99D-03 OVMax= 1.54D-02

 Cycle  24  Pass 1  IDiag  1:
 RMSU=  2.80D-05    CP:  1.00D+00  2.37D+00  1.10D+00
 E= -2594.55975369154     Delta-E=       -0.000283973094 Rises=F Damp=F
 DIIS: error= 7.31D-04 at cycle  24 NSaved=  12.
 NSaved=12 IEnMin=12 EnMin= -2594.55975369154     IErMin=12 ErrMin= 7.31D-04
 ErrMax= 7.31D-04  0.00D+00 EMaxC= 1.00D-01 BMatC= 5.30D-04 BMatP= 1.19D-03
 IDIUse=3 WtCom= 9.93D-01 WtEn= 7.31D-03
 Coeff-Com:  0.398D-01 0.364D-01 0.301D+00-0.100D+00-0.812D+00 0.749D+00
 Coeff-Com: -0.823D+01 0.764D+01 0.763D-01 0.374D+00 0.308D-01 0.890D+00
 Coeff-En:   0.000D+00 0.163D-01 0.000D+00 0.000D+00 0.000D+00 0.000D+00
 Coeff-En:   0.000D+00 0.000D+00 0.000D+00 0.000D+00 0.000D+00 0.984D+00
 Coeff:      0.395D-01 0.363D-01 0.298D+00-0.992D-01-0.806D+00 0.743D+00
 Coeff:     -0.817D+01 0.759D+01 0.757D-01 0.371D+00 0.306D-01 0.891D+00
 Gap=     0.133 Goal=   None    Shift=    0.000
 Gap=     0.012 Goal=   None    Shift=    0.000
 RMSDP=8.26D-05 MaxDP=4.49D-03 DE=-2.84D-04 OVMax= 3.27D-02

 Cycle  25  Pass 1  IDiag  1:
 RMSU=  2.97D-05    CP:  1.00D+00  2.90D+00  1.50D+00  1.05D+00
 E= -2594.56005285622     Delta-E=       -0.000299164680 Rises=F Damp=F
 DIIS: error= 4.82D-04 at cycle  25 NSaved=  13.
 NSaved=13 IEnMin=13 EnMin= -2594.56005285622     IErMin=13 ErrMin= 4.82D-04
 ErrMax= 4.82D-04  0.00D+00 EMaxC= 1.00D-01 BMatC= 1.92D-04 BMatP= 5.30D-04
 IDIUse=3 WtCom= 9.95D-01 WtEn= 4.82D-03
 Coeff-Com:  0.319D-01 0.217D-01 0.121D+00 0.516D-01-0.458D+00 0.435D+00
 Coeff-Com: -0.660D+01 0.622D+01 0.593D-01 0.136D+00-0.321D+00 0.825D+00
 Coeff-Com:  0.474D+00
 Coeff-En:   0.000D+00 0.000D+00 0.000D+00 0.000D+00 0.000D+00 0.000D+00
 Coeff-En:   0.000D+00 0.000D+00 0.000D+00 0.000D+00 0.000D+00 0.000D+00
 Coeff-En:   0.100D+01
 Coeff:      0.317D-01 0.216D-01 0.120D+00 0.514D-01-0.456D+00 0.433D+00
 Coeff:     -0.657D+01 0.619D+01 0.590D-01 0.136D+00-0.319D+00 0.821D+00
 Coeff:      0.477D+00
 Gap=     0.134 Goal=   None    Shift=    0.000
 Gap=     0.012 Goal=   None    Shift=    0.000
 RMSDP=4.44D-05 MaxDP=2.49D-03 DE=-2.99D-04 OVMax= 1.68D-02

 Cycle  26  Pass 1  IDiag  1:
 RMSU=  2.14D-05    CP:  1.00D+00  3.00D+00  1.63D+00  1.01D+00  1.99D+00
 E= -2594.56011569568     Delta-E=       -0.000062839462 Rises=F Damp=F
 DIIS: error= 4.55D-04 at cycle  26 NSaved=  14.
 NSaved=14 IEnMin=14 EnMin= -2594.56011569568     IErMin=14 ErrMin= 4.55D-04
 ErrMax= 4.55D-04  0.00D+00 EMaxC= 1.00D-01 BMatC= 1.91D-04 BMatP= 1.92D-04
 IDIUse=3 WtCom= 9.95D-01 WtEn= 4.55D-03
 Coeff-Com:  0.274D-01 0.208D-01 0.626D-01 0.102D+00-0.185D+00 0.197D+00
 Coeff-Com: -0.488D+01 0.459D+01 0.650D-01 0.432D-01-0.546D+00 0.611D+00
 Coeff-Com:  0.357D-01 0.855D+00
 Coeff-En:   0.000D+00 0.000D+00 0.000D+00 0.000D+00 0.000D+00 0.000D+00
 Coeff-En:   0.000D+00 0.000D+00 0.000D+00 0.000D+00 0.000D+00 0.000D+00
 Coeff-En:   0.000D+00 0.100D+01
 Coeff:      0.273D-01 0.207D-01 0.623D-01 0.102D+00-0.184D+00 0.197D+00
 Coeff:     -0.485D+01 0.457D+01 0.647D-01 0.430D-01-0.543D+00 0.608D+00
 Coeff:      0.355D-01 0.856D+00
 Gap=     0.136 Goal=   None    Shift=    0.000
 Gap=     0.013 Goal=   None    Shift=    0.000
 RMSDP=6.32D-05 MaxDP=3.92D-03 DE=-6.28D-05 OVMax= 2.36D-02

 Cycle  27  Pass 1  IDiag  1:
 RMSU=  2.15D-05    CP:  9.99D-01  3.00D+00  1.84D+00  9.75D-01  3.00D+00
                    CP:  2.65D+00
 E= -2594.56020918360     Delta-E=       -0.000093487915 Rises=F Damp=F
 DIIS: error= 4.74D-04 at cycle  27 NSaved=  15.
 NSaved=15 IEnMin=15 EnMin= -2594.56020918360     IErMin=14 ErrMin= 4.55D-04
 ErrMax= 4.74D-04  0.00D+00 EMaxC= 1.00D-01 BMatC= 1.88D-04 BMatP= 1.91D-04
 IDIUse=3 WtCom= 9.95D-01 WtEn= 4.55D-03
 Coeff-Com:  0.282D-01 0.263D-01 0.976D-01 0.557D-01-0.235D+00 0.240D+00
 Coeff-Com: -0.508D+01 0.478D+01 0.749D-01 0.989D-01-0.519D+00 0.506D+00
 Coeff-Com: -0.408D+00 0.539D+00 0.794D+00
 Coeff-En:   0.000D+00 0.000D+00 0.000D+00 0.000D+00 0.000D+00 0.000D+00
 Coeff-En:   0.000D+00 0.000D+00 0.000D+00 0.000D+00 0.000D+00 0.000D+00
 Coeff-En:   0.000D+00 0.000D+00 0.100D+01
 Coeff:      0.281D-01 0.262D-01 0.972D-01 0.554D-01-0.234D+00 0.239D+00
 Coeff:     -0.505D+01 0.476D+01 0.746D-01 0.985D-01-0.517D+00 0.504D+00
 Coeff:     -0.406D+00 0.537D+00 0.795D+00
 Gap=     0.138 Goal=   None    Shift=    0.000
 Gap=     0.013 Goal=   None    Shift=    0.000
 RMSDP=5.88D-05 MaxDP=3.31D-03 DE=-9.35D-05 OVMax= 2.07D-02

 Cycle  28  Pass 1  IDiag  1:
[...]
 0.00003838,-0.00009449,0.00004977,0.00017134,0.00012345,-0.00009562,0.
 00001776,0.00023951,0.00072926,-0.00074731,-0.00554478,-0.00209884,-0.
 00263501,-0.00114235,0.00161463,-0.00057534,-0.01296790,0.02197645,-0.
 00189513,-0.00191537,-0.00193235,0.00028813,0.00024231,0.00031758,-0.0
 0011802,0.00006086,-0.00060039,-0.00012498,0.00011820,0.00063796,-0.00
 015673,0.00014882,-0.00011942,0.00086378,-0.00010115,0.00095475,-0.012
 80998,-0.10923835,0.12060838,0.00792938,0.00961380,-0.01543285,0.00031
 410,0.00014693,-0.00010903,0.00018694,0.00008173,0.00054025,-0.0002817
 5,-0.00017791,0.00007141,0.00000997,0.00000885,0.00000839,0.00000950,-
 0.00000356,-0.00000269,-0.00000080,0.00000264,0.00001500,0.00004940,-0
 .00001245,0.00000010,0.00001781,0.00000999,-0.00000297,-0.00000506,-0.
 00001122,-0.00001903,0.00002894,0.00163445,0.00045448,-0.00000371,-0.0
 0007385,-0.00003655,-0.00000003,-0.00006300,0.00001003,0.00003263,0.00
 004024,-0.00000245,-0.00004878,-0.00009317,-0.00000251,-0.00004956,0.0
 0001796,0.00004309,0.00880586,0.11249644,0.00002566,0.00000996,0.00016
 479,-0.00008668,-0.00003793,-0.00028426,0.00012513,0.00008520,-0.00002
 220,-0.00005055,-0.00004004,-0.00018427,-0.00006675,-0.00000214,0.0000
 0101,-0.00000913,-0.00004922,0.00002294,0.00003851,0.00004848,-0.00002
 872,0.00013308,0.00016675,0.00018008,-0.00122980,-0.00368062,-0.001217
 04,-0.00179605,-0.00042968,0.00057946,-0.00086247,-0.00553315,0.006937
 73,-0.00069766,0.00000343,-0.00011855,0.00031251,0.00012410,-0.0000142
 7,-0.00009971,-0.00001662,-0.00012246,-0.00003856,0.00006372,0.0001056
 2,-0.00001843,0.00002306,0.00005373,0.00042319,0.00012628,0.00026855,0
 .01654481,0.11598511,-0.27579082,0.00925215,0.00382815,-0.00711723,0.0
 0020240,0.00005651,-0.00002519,0.00009166,0.00004199,0.00026743,-0.000
 13630,-0.00008616,0.00004037,0.00000512,0.00000394,0.00000476,0.000005
 04,-0.00000174,-0.00000173,0.00000042,0.00000170,0.00000730,0.00001661
 ,-0.00000217,0.00000067,0.00000702,0.00000480,-0.00000100,-0.00000376,
 -0.00000884,-0.00000858,0.00003396,-0.00030451,0.00161334,-0.00001317,
 0.00001122,0.00002181,-0.00000804,-0.00003210,0.00000585,0.00001283,0.
 00002096,0.00000338,-0.00002392,-0.00005951,0.00000490,-0.00007316,-0.
 00002327,0.00006136,-0.02341829,-0.11892686,0.28675885,0.00000526,0.00
 000175,0.00003947,-0.00002585,-0.00001564,-0.00007550,0.00003641,0.000
 02899,-0.00001540,-0.00004612,-0.00001852,-0.00003107,-0.00006275,-0.0
 0006031,-0.00007124,-0.00000631,-0.00001796,-0.00000723,0.00006760,-0.
 00013056,-0.00001096,0.00001693,-0.00056906,0.00046937,-0.00113501,0.0
 0598587,-0.00127443,0.00088540,-0.00065772,0.00037624,0.00238527,-0.00
 030575,-0.00112104,0.00058273,0.00097722,0.00059983,0.00017846,0.00000
 222,0.00011254,-0.00001973,-0.00004022,0.00022765,-0.00014929,0.000081
 75,-0.00014427,0.00023551,-0.00018405,0.00003148,0.00005682,0.00020004
 ,-0.00053285,-0.19402575,-0.05563196,-0.12650442,-0.03250834,-0.005737
 42,-0.00648033,-0.00022657,0.00002205,0.00020667,0.00002750,0.00000011
 ,0.00007742,-0.00004003,-0.00002132,0.00001165,0.00000143,0.00000074,0
 .00000132,0.00000009,-0.00000014,-0.00000111,-0.00000081,0.00000149,0.
 00000184,0.00000680,-0.00000558,0.00000150,-0.00000344,0.00000070,0.00
 000035,-0.00000038,-0.00000717,0.00000738,0.00042997,0.00032358,0.0003
 8366,0.00001240,0.00000131,0.00000554,-0.00000690,0.00000316,0.0000019
 2,-0.00001956,-0.00000023,0.00000679,0.00003842,0.00005421,-0.00000753
 ,-0.00015868,-0.00005555,0.00016417,0.00614550,0.00081614,0.00141379,0
 .21723689,0.00004388,0.00003531,-0.00016316,-0.00005440,-0.00002887,0.
 00003697,0.00017341,0.00008654,0.00005551,-0.00007085,-0.00011972,0.00
 011123,-0.00002543,0.00007794,0.00003811,-0.00010429,0.00000491,0.0000
 6883,0.00018332,-0.00027661,-0.00005967,-0.00024765,0.00065274,-0.0004
 9078,0.00061390,-0.00500450,0.00157216,-0.00244139,-0.00037045,0.00083
 690,-0.01653074,-0.00755228,-0.01758015,-0.00232855,0.00108211,0.00051
 249,0.00016379,0.00001191,-0.00014674,0.00065389,-0.00035614,0.0017421
 0,0.00020061,-0.00031101,-0.00186426,0.00053010,-0.00013047,0.00032926
 ,-0.00093188,0.00043765,-0.00188794,-0.05917686,-0.07000214,-0.0456431
 3,0.01539490,0.00669912,0.00400106,-0.00000665,-0.00015412,0.00009745,
 0.00005115,-0.00000558,-0.00004124,-0.00011673,-0.00005860,-0.00003235
 ,-0.00000117,-0.00000146,-0.00000265,-0.00000684,0.00000193,0.00000584
 ,-0.00000792,-0.00000131,0.00000067,0.00001963,-0.00000897,-0.00000572
 ,0.00001616,0.00001696,-0.00000223,0.00001319,0.00001202,-0.00000596,-
 0.00125065,-0.00420005,0.00014584,-0.00006832,0.00000337,0.00001740,0.
 00000746,0.00003976,0.00002166,-0.00003701,0.00001188,0.00000611,0.000
 01939,0.00002464,0.00004065,-0.00017025,-0.00013530,0.00032641,0.01066
 428,0.00625446,0.00850131,0.05474438,0.07302499,-0.00000134,-0.0000052
 6,0.00006193,-0.00001072,-0.00000028,-0.00006017,0.00001088,-0.0000027
 1,0.00000940,0.00001993,0.00000003,-0.00008636,0.00002253,0.00004184,0
 .00007812,-0.00001171,-0.00000029,0.00002098,0.00006638,0.00009232,-0.
 00002972,-0.00044314,0.00043786,-0.00053452,0.00185818,-0.00285743,-0.
 00034474,-0.00028940,0.00093100,-0.00045467,0.00143735,0.00021633,0.00
 161504,-0.00037925,0.00047463,0.00031044,0.00018790,0.00008624,0.00001
 835,-0.00020556,0.00016639,-0.00066035,-0.00022214,0.00017673,0.000774
 37,0.00005385,-0.00010674,-0.00004540,0.00046652,-0.00017697,0.0007733
 1,-0.13689101,-0.04583336,-0.16691588,0.02186929,0.00496744,0.01251488
 ,0.00030314,0.00001198,-0.00015797,0.00001150,0.00001830,0.00005699,0.
 00000095,0.00000221,0.00000824,0.00000128,0.00000016,0.00000078,0.0000
 0192,0.00000228,0.00000068,-0.00000061,-0.00000220,0.00000254,0.000003
 67,-0.00000004,0.00000123,0.00000842,0.00000071,0.00000071,0.00000827,
 0.00000163,-0.00000862,-0.00021273,-0.00006363,0.00065991,-0.00003048,
 -0.00004726,-0.00004877,-0.00001307,-0.00004479,-0.00000799,0.00000167
 ,-0.00002086,0.00000002,0.00004297,0.00004816,-0.00001527,0.00000610,0
 .00014899,-0.00010136,-0.01981685,-0.00817991,-0.01223944,0.13222590,0
 .04970872,0.16482969,-0.00125330,-0.00468054,-0.00343677,0.00040474,0.
 00078722,0.00014986,0.00087675,-0.00207378,-0.00086300,0.00484993,0.00
 072631,-0.00046066,-0.00144524,0.00084816,-0.00009165,0.00050693,-0.00
 005946,-0.00010624,-0.00020134,0.00023043,0.00028055,-0.00000437,-0.00
 018818,-0.00061886,0.00003082,-0.00020609,-0.00004638,0.00001825,0.000
 08649,0.00004930,0.00001368,0.00012913,0.00004193,0.00011755,-0.000125
 43,-0.00001698,-0.00022197,0.00012868,0.00008627,0.00006329,-0.0000310
 7,0.00019330,-0.00012575,0.00008081,0.00003112,0.00022804,-0.00015192,
 -0.00010406,-0.00006060,0.00003592,-0.00016901,-0.00001030,-0.00007174
 ,-0.00002883,0.00000491,0.00013640,-0.00001000,-0.00059484,-0.00048575
 ,-0.00132743,-0.19675276,-0.10127719,0.10097970,-0.01056934,-0.0115921
 7,0.01423589,-0.00080824,0.00006426,0.00076266,-0.00007199,0.00010519,
 0.00004147,0.00025065,-0.00016495,-0.00022441,0.00007261,0.00013697,0.
 00012349,-0.00015427,0.00006996,-0.00008537,-0.00011297,0.00022993,-0.
 00000514,-0.00001637,-0.00000658,0.00000319,-0.00000489,0.00000171,-0.
 00000194,0.00000019,0.00000271,0.00000096,-0.00000924,0.00000441,-0.00
 000379,-0.00000062,-0.00000069,-0.00000296,-0.00000846,0.00000525,0.00
 000329,-0.00000239,0.00000726,0.00000680,0.00000172,-0.00001097,0.0000
 0078,0.20531880,-0.00495290,0.00402523,-0.00177897,0.00125867,-0.00028
 663,0.00116655,-0.00272227,0.00237589,-0.00001364,-0.00014896,0.004294
 37,-0.00125690,0.00130333,-0.00156082,0.00015181,-0.00024457,0.0001914
 1,-0.00005526,0.00014780,-0.00034441,0.00026732,-0.00044715,0.00052978
 ,-0.00014417,0.00021282,-0.00007126,-0.00029703,0.00007949,0.00001664,
 -0.00014933,-0.00017148,0.00018668,0.00005810,-0.00001641,-0.00002237,
 -0.00001120,0.00006903,-0.00003169,-0.00000769,-0.00003506,0.00001684,
 -0.00010006,0.00003732,-0.00002035,0.00004065,-0.00006437,0.00004413,0
 .00002537,0.00002777,-0.00002474,0.00007764,0.00006201,0.00001076,-0.0
 0003369,0.00003840,-0.00002001,0.00004954,-0.00063755,-0.00000832,-0.0
 0033687,-0.10311175,-0.10302494,0.06492120,-0.00863131,0.00207066,0.00
 828752,0.00009211,-0.00097796,0.00038648,0.00005089,-0.00008210,0.0000
 2591,-0.00014886,0.00032701,-0.00010650,0.00005946,-0.00004204,0.00001
 921,0.00006804,-0.00000488,0.00002740,0.00003556,-0.00015027,-0.000215
 12,0.00000743,-0.00000474,0.00000585,0.00000066,0.00000152,0.00000353,
 0.00000066,-0.00000209,0.00000080,0.00000303,-0.00000046,0.00000080,0.
 00000036,0.00000068,-0.00000027,0.00000109,-0.00000544,-0.00000964,0.0
 0000414,0.00002184,0.00000918,0.00000557,0.00001259,-0.00000157,0.1147
 7328,0.09582400,-0.00267736,-0.00108087,-0.00082777,-0.00108679,-0.000
 63025,-0.00132086,-0.00119284,-0.00033486,-0.00528492,0.02251598,0.014
 32450,-0.01068814,0.00115393,0.00046498,0.00046395,-0.00022315,-0.0002
 1478,-0.00027429,0.00002241,-0.00009658,-0.00005263,-0.00117603,-0.000
 57595,-0.00013362,-0.00043354,0.00022878,0.00023235,0.00009917,-0.0000
 9878,-0.00004362,0.00010644,-0.00025452,-0.00002300,-0.00002654,0.0000
 9672,0.00000491,0.00002072,-0.00001853,0.00000210,0.00002317,-0.000016
 72,0.00005572,0.00001080,-0.00000920,-0.00007560,-0.00000772,0.0000035
 0,-0.00000215,-0.00001231,0.00002172,-0.00003449,-0.00009467,0.0000351
 8,0.00007471,0.00007257,-0.00018648,-0.00005257,0.00051237,0.00019253,
 0.00080258,0.10383933,0.06708123,-0.13227852,-0.01319679,-0.00809497,0
 .01234901,-0.00051405,-0.00033952,0.00044794,0.00003447,0.00004155,0.0
 0006075,0.00113340,0.00067217,-0.00042992,0.00014804,0.00004265,0.0001
 2405,0.00017137,-0.00005372,0.00006304,0.00014539,-0.00039799,-0.00013
 650,0.00005153,0.00001704,-0.00001812,0.00000223,0.00000333,-0.0000020
 1,0.00000089,0.00000087,0.00000223,-0.00000006,0.00000024,-0.00000098,
 -0.00000170,0.00000054,0.00000175,-0.00000215,0.00000048,-0.00000140,0
 .00001313,-0.00001604,-0.00000500,-0.00000051,-0.00001931,-0.00000932,
 -0.10955068,-0.07132584,0.13620705,0.00501449,-0.00112487,0.02420909,-
 0.00164168,-0.00507278,0.00211176,-0.00091782,-0.00008805,0.00008485,-
 0.00160269,-0.00515299,-0.00176387,0.00052381,-0.00000560,-0.00115568,
 0.00005001,0.00016935,-0.00005426,-0.00009840,-0.00003573,0.00003808,-
 0.00000404,0.00001252,-0.00001069,0.00007592,-0.00008265,-0.00007806,-
 0.00003952,0.00006017,0.00006165,-0.00000855,0.00002159,-0.00000714,0.
 00001172,-0.00001827,0.00001704,-0.00002958,0.00002253,0.00000825,0.00
 001415,-0.00000726,0.00004738,-0.00001581,0.00001012,-0.00001285,0.000
 03336,-0.00002260,-0.00001512,-0.00000789,0.00000620,-0.00003733,0.000
 00198,-0.00001371,-0.00001150,-0.00001357,0.00004838,0.00001461,-0.000
 03022,0.00004762,0.00015194,0.00272300,0.00059526,-0.02511720,-0.05387
 070,-0.00733553,-0.00910811,-0.00018751,0.00223351,-0.00026263,0.00016
 581,0.00009255,0.00103514,-0.00020939,0.00048566,0.00001235,-0.0003024
 5,-0.00005556,-0.00015725,0.00001188,-0.00001357,0.00000978,0.00001759
 ,0.00000842,0.00003537,-0.00001829,-0.00000084,0.00000440,-0.00000404,
 -0.00000012,0.00000044,-0.00000175,-0.00000025,0.00000002,-0.00000213,
 0.00000103,-0.00000085,-0.00000023,-0.00000115,-0.00000055,-0.00000205
 ,0.00000053,-0.00000128,-0.00000677,-0.00000117,-0.00000047,-0.0000009
 8,-0.00000051,0.00000303,-0.00021461,0.00237717,0.00044356,0.05058301,
 0.00111778,0.00479113,0.01381257,-0.00612524,0.00356994,-0.00011636,0.
 00246049,0.00074438,0.00006327,-0.00585412,0.00385407,0.00058427,-0.00
 033161,0.00034637,-0.00060077,0.00014083,-0.00012203,0.00002315,0.0000
 4127,0.00002514,-0.00003803,-0.00001800,0.00002198,0.00005052,-0.00000
 432,0.00002988,-0.00000291,-0.00002608,-0.00000779,-0.00001039,0.00000
 570,-0.00003238,-0.00000552,0.00001310,-0.00000849,0.00001278,-0.00001
 033,0.00001851,0.00000892,0.00000745,-0.00000928,0.00002475,-0.0000017
 4,0.00000420,-0.00001060,0.00001585,-0.00001242,-0.00000530,-0.0000057
 9,0.00000976,-0.00002638,-0.00001833,0.00000670,0.00000574,0.00000138,
 -0.00002060,0.00000374,0.00029169,0.00000850,-0.00012278,0.00021257,0.
 00487165,-0.01293001,-0.01003617,-0.04690719,0.01085569,0.00223338,-0.
 00270120,-0.00037561,0.00013668,-0.00006080,0.00061476,0.00050306,-0.0
 0075679,-0.00003697,-0.00014221,-0.00017394,-0.00011952,-0.00000671,-0
 .00000303,0.00000779,-0.00003983,-0.00003046,-0.00004557,0.00000155,0.
 00000700,0.00000176,0.00000088,0.00000365,-0.00000071,-0.00000020,-0.0
 0000085,0.00000067,0.00000022,0.00000188,-0.00000036,-0.00000068,-0.00
 000140,0.00000035,-0.00000001,0.00000174,-0.00000039,-0.00000367,-0.00
 000226,-0.00000167,-0.00000084,-0.00000102,0.00000122,0.00242495,-0.00
 281447,-0.00006888,0.01293962,0.03523453,-0.00220087,-0.00039772,-0.00
 974351,0.00186086,0.00150848,0.00016282,0.00049018,0.00020062,0.000798
 30,-0.00215167,-0.00101271,0.00110345,0.00014947,0.00022796,-0.0004258
 5,-0.00001092,0.00001250,0.00000334,0.00006185,-0.00004451,-0.00002153
 ,-0.00001862,0.00008553,0.00001569,-0.00002622,0.00006112,0.00000609,-
 0.00000591,-0.00001433,0.00002914,0.00001662,-0.00006049,-0.00001588,-
 0.00002880,0.00003722,0.00000432,0.00004516,-0.00002865,-0.00001828,-0
 .00001018,0.00000538,-0.00003209,0.00002464,-0.00001670,-0.00001438,-0
 .00004593,0.00003085,0.00002099,0.00001188,-0.00000541,0.00002956,-0.0
 0001312,0.00001678,0.00001594,-0.00000313,-0.00003724,0.00000090,0.000
 11182,0.00000104,0.00004443,0.00147509,0.00154728,-0.00894445,-0.00919
 541,0.01018647,-0.34543275,-0.00000105,-0.00031702,0.00076649,-0.00021
 123,-0.00012139,-0.00039465,0.00000443,-0.00004970,-0.00004794,-0.0001
 1119,-0.00008078,-0.00005885,0.00001034,-0.00000695,0.00000657,-0.0000
 0806,-0.00001522,-0.00000294,0.00000343,0.00000257,-0.00000189,0.00000
 085,-0.00000062,0.00000037,-0.00000003,-0.00000035,0.00000004,0.000001
 58,-0.00000116,0.00000083,-0.00000004,0.00000001,0.00000078,0.00000204
 ,-0.00000120,0.00000028,-0.00000039,-0.00000502,-0.00000210,-0.0000009
 1,-0.00000004,-0.00000041,0.00020253,-0.00010274,0.00082488,0.00963133
 ,-0.01161434,0.36136459,-0.00024270,-0.00022589,0.00369551,-0.00005072
 ,0.00012553,-0.00310075,-0.00105525,-0.00073767,-0.00022701,0.00142468
 ,-0.00019747,-0.00298137,-0.00448639,0.00101157,0.00144154,-0.00061253
 ,-0.00076277,0.00050686,0.00119478,-0.00578777,0.00038864,0.00821525,0
 .00863844,-0.00334071,0.00339720,-0.01341136,-0.00249130,-0.02508345,-
 0.01636709,0.00841420,-0.00463732,-0.00017842,0.00186892,-0.00106109,0
 .00048062,-0.00298624,0.00174997,-0.00117224,-0.00040585,-0.00148931,0
 .00084411,-0.00381729,-0.00004998,0.00003640,0.00284523,-0.00144817,0.
 00112769,0.00006964,0.00199561,-0.00105887,0.00433390,-0.00061308,0.00
 147231,0.00076627,0.00270466,0.00600302,-0.00019160,-0.01850793,0.0176
 2983,0.00984084,0.00167710,-0.00034811,0.00252775,0.00010745,-0.000392
 99,0.00026979,0.00002850,0.00007091,0.00002015,0.00008091,0.00004587,-
 0.00001926,-0.00001550,0.00003436,0.00011586,0.00020998,0.00024241,-0.
 00009093,0.00008763,-0.00010367,0.00000654,0.00009298,-0.00011894,-0.0
 0003042,0.00038349,-0.00016312,-0.00017187,-0.00001451,-0.00000142,0.0
 0011691,0.00004481,-0.00000848,-0.00002618,0.00010193,-0.00002275,0.00
 002356,0.00000193,-0.00001079,-0.00005441,-0.00003056,-0.00018777,-0.0
 0035911,0.00011755,0.00004276,-0.00001780,0.00008538,0.00009561,-0.000
 08441,-0.00011500,0.00061660,-0.00032401,0.00000392,0.00007745,-0.0000
 6043,0.03580781,-0.00144141,-0.00085699,-0.00140365,0.00252323,0.00114
 672,0.00580524,-0.00518077,-0.00335805,-0.00029708,0.00209738,0.002566
 97,0.00246248,0.00598991,0.00112423,-0.00225627,0.00097572,0.00183486,
 -0.00117309,-0.00475222,0.00588945,0.00218774,0.00318893,-0.02634012,-
 0.00423712,-0.00969162,-0.02296290,0.00272088,-0.01644642,-0.02489049,
 0.00685235,-0.00803519,0.00413847,0.00315368,-0.00089810,0.00023554,-0
 .00247459,0.00192041,-0.00092188,0.00001541,-0.00129155,0.00059966,-0.
 00346240,0.00033768,-0.00019177,0.00250923,-0.00132262,0.00078967,0.00
 022503,0.00107445,-0.00149381,0.00370726,0.00008665,0.00159220,-0.0001
 0206,0.00505432,0.00402844,-0.00223506,0.02157155,-0.04140914,-0.01727
 001,-0.00283666,-0.00099353,-0.00555250,0.00474889,0.00287464,-0.00039
 803,-0.00013669,-0.00007677,-0.00006066,-0.00010871,0.00008240,-0.0000
 4314,0.00003404,0.00010482,-0.00012310,-0.00093307,0.00016388,0.000462
 16,-0.00033965,-0.00006406,-0.00002206,-0.00009313,0.00023682,0.000291
 31,0.00051953,-0.00002907,-0.00035071,-0.00003616,0.00012813,0.0001271
 5,0.00007750,-0.00003748,0.00000940,0.00011942,0.00001602,0.00001541,0
 .00013635,0.00011945,-0.00001425,-0.00005752,0.00004757,-0.00050830,0.
 00026262,0.00013452,0.00012038,0.00020872,0.00022777,-0.00019188,0.000
 11109,-0.00045003,0.00060576,-0.00009899,0.00011538,0.00001048,0.00266
 208,0.09587850,-0.00050266,-0.00033345,0.00048424,0.00073263,0.0004167
 0,0.00071441,-0.00158701,-0.00098519,-0.00020420,0.00071707,0.00083840
 ,-0.00015101,0.00225286,0.00015449,-0.00159158,-0.00008760,0.00059093,
 -0.00013530,0.00036470,0.00352052,0.00141135,-0.00340520,-0.00569253,0
 .00206820,-0.00294245,0.00551450,0.00294381,0.00803239,0.00447881,-0.0
 0992179,0.00137598,0.00064095,-0.00055333,0.00064509,-0.00061358,-0.00
 030516,-0.00054188,0.00018380,0.00008337,-0.00016016,0.00010741,-0.000
 58036,-0.00037043,0.00021590,0.00087326,0.00032476,-0.00006525,-0.0002
 8425,0.00003977,0.00015344,0.00045944,0.00054699,-0.00035724,-0.000372
 61,-0.00033974,-0.00352378,0.00139863,0.01001799,-0.01607594,-0.012760
 08,-0.00015994,-0.00092020,-0.00036851,0.00130002,0.00061201,-0.000204
 86,-0.00001180,-0.00000371,-0.00002448,-0.00001229,0.00004156,-0.00001
 376,0.00008495,-0.00001160,-0.00007168,0.00018537,-0.00035210,0.000035
 59,0.00001418,-0.00009661,0.00002133,0.00005346,0.00025821,0.00007124,
 0.00017175,0.00018866,-0.00008912,0.00008454,-0.00002030,-0.00005303,0
 .00001939,0.00003163,-0.00001724,-0.00000899,-0.00002513,-0.00000612,-
 0.00007026,0.00002256,-0.00003509,-0.00005695,-0.00026265,0.00000831,0
 .00001650,0.00022285,0.00007896,-0.00008770,-0.00023138,-0.00001668,-0
 .00003896,0.00042163,-0.00002161,-0.00012520,0.00006108,-0.00004231,-0
 .01647116,0.01089461,0.01717204\\0.00000238,0.00000092,-0.00000096,-0.
 00000401,-0.00000214,-0.00000497,0.00000751,0.00000350,0.00000106,-0.0
 0000102,-0.00000287,-0.00000111,-0.00000632,0.00001331,0.00000248,-0.0
 0001980,-0.00001587,0.00000638,0.00001413,0.00001254,-0.00001046,-0.00
 000037,-0.00001156,0.00000124,-0.00000306,-0.00001067,-0.00000086,0.00
 000547,0.00000031,-0.00000459,0.00000575,0.00001849,-0.00000132,0.0000
 0118,-0.00000364,-0.00000573,-0.00000401,0.00000360,0.00000075,0.00000
 014,0.00000038,-0.00000373,-0.00000283,0.00000196,0.00000736,0.0000041
 1,-0.00000228,-0.00000253,0.00000104,0.00000006,0.00000520,0.00001786,
 -0.00002066,-0.00000883,-0.00001292,0.00001561,0.00001038,0.00000898,-
 0.00000275,0.00000373,0.00000338,0.00000214,0.00000436,-0.00000759,-0.
 00000445,0.00000008,0.00000043,0.00000010,0.00000026,0.00000075,-0.000
 00013,0.00000051,-0.00000075,-0.00000071,-0.00000048,0.00000017,-0.000
 00065,-0.00000074,0.00000260,-0.00000015,0.00000092,0.00000160,0.00000
 192,0.00000062,-0.00000066,-0.00000080,0.00000027,0.00000055,-0.000000
 26,0.00000034,-0.00000014,0.00000044,-0.00000001,0.00000025,0.00000048
 ,-0.00000100,-0.00000064,0.00000025,-0.00000051,0.00000022,-0.00000006
 ,-0.00000084,-0.00000255,0.00000087,-0.00000022,-0.00000169,0.00000261
 ,0.00000026,-0.00000062,-0.00000032,-0.00000044,0.00000081,0.00000027,
 0.00000050,-0.00001031,0.00000018,0.00000263\\\@
 The archive entry for this job was punched.


      SCIENCE SANS CONSCIENCE N'EST QUE RUINE DE L'AME.

                                                  -- RABELAIS
 Job cpu time:       0 days  2 hours 41 minutes 36.5 seconds.
 Elapsed time:       0 days  0 hours  5 minutes  6.6 seconds.
 File lengths (MBytes):  RWF=   1348 Int=      0 D2E=      0 Chk=     18 Scr=      2
 Normal termination of Gaussian 16 at Thu Mar  7 23:22:06 2024.
