 Entering Gaussian System, Link 0=g16
 Initial command:
 /public/software/apps/Gaussian/g16/l1.exe "/public/home/LJQ_HG/tmp/Gau-49495.inp" -scrdir="/public/home/LJQ_HG/tmp/"
 Entering Link 1 = /public/software/apps/Gaussian/g16/l1.exe PID=     49496.
  
 Copyright (c) 1988-2019, Gaussian, Inc.  All Rights Reserved.
  
 This is part of the Gaussian(R) 16 program.  It is based on
 the Gaussian(R) 09 system (copyright 2009, Gaussian, Inc.),
 the Gaussian(R) 03 system (copyright 2003, Gaussian, Inc.),
 the Gaussian(R) 98 system (copyright 1998, Gaussian, Inc.),
 the Gaussian(R) 94 system (copyright 1995, Gaussian, Inc.),
 the Gaussian 92(TM) system (copyright 1992, Gaussian, Inc.),
 the Gaussian 90(TM) system (copyright 1990, Gaussian, Inc.),
 the Gaussian 88(TM) system (copyright 1988, Gaussian, Inc.),
 the Gaussian 86(TM) system (copyright 1986, Carnegie Mellon
 University), and the Gaussian 82(TM) system (copyright 1983,
 Carnegie Mellon University). Gaussian is a federally registered
 trademark of Gaussian, Inc.
  
 This software contains proprietary and confidential information,
 including trade secrets, belonging to Gaussian, Inc.
  
 This software is provided under written license and may be
 used, copied, transmitted, or stored only in accord with that
 written license.
  
 The following legend is applicable only to US Government
 contracts under FAR:
  
                    RESTRICTED RIGHTS LEGEND
  
 Use, reproduction and disclosure by the US Government is
 subject to restrictions as set forth in subparagraphs (a)
 and (c) of the Commercial Computer Software - Restricted
 Rights clause in FAR 52.227-19.
  
 Gaussian, Inc.
 340 Quinnipiac St., Bldg. 40, Wallingford CT 06492
  
  
 ---------------------------------------------------------------
 Warning -- This program may not be used in any manner that
 competes with the business of Gaussian, Inc. or will provide
 assistance to any competitor of Gaussian, Inc.  The licensee
 of this program is prohibited from giving any competitor of
 Gaussian, Inc. access to this program.  By using this program,
 the user acknowledges that Gaussian, Inc. is engaged in the
 business of creating and licensing software in the field of
 computational chemistry and represents and warrants to the
 licensee that it is not a competitor of Gaussian, Inc. and that
 it will not use this program in any manner prohibited above.
 ---------------------------------------------------------------
  

 Cite this work as:
 Gaussian 16, Revision C.01,
 M. J. Frisch, G. W. Trucks, H. B. Schlegel, G. E. Scuseria, 
 M. A. Robb, J. R. Cheeseman, G. Scalmani, V. Barone, 
 G. A. Petersson, H. Nakatsuji, X. Li, M. Caricato, A. V. Marenich, 
 J. Bloino, B. G. Janesko, R. Gomperts, B. Mennucci, H. P. Hratchian, 
 J. V. Ortiz, A. F. Izmaylov, J. L. Sonnenberg, D. Williams-Young, 
 F. Ding, F. Lipparini, F. Egidi, J. Goings, B. Peng, A. Petrone, 
 T. Henderson, D. Ranasinghe, V. G. Zakrzewski, J. Gao, N. Rega, 
 G. Zheng, W. Liang, M. Hada, M. Ehara, K. Toyota, R. Fukuda, 
 J. Hasegawa, M. Ishida, T. Nakajima, Y. Honda, O. Kitao, H. Nakai, 
 T. Vreven, K. Throssell, J. A. Montgomery, Jr., J. E. Peralta, 
 F. Ogliaro, M. J. Bearpark, J. J. Heyd, E. N. Brothers, K. N. Kudin, 
 V. N. Staroverov, T. A. Keith, R. Kobayashi, J. Normand, 
 K. Raghavachari, A. P. Rendell, J. C. Burant, S. S. Iyengar, 
 J. Tomasi, M. Cossi, J. M. Millam, M. Klene, C. Adamo, R. Cammi, 
 J. W. Ochterski, R. L. Martin, K. Morokuma, O. Farkas, 
 J. B. Foresman, and D. J. Fox, Gaussian, Inc., Wallingford CT, 2019.
 
 ******************************************
 Gaussian 16:  ES64L-G16RevC.01  3-Jul-2019
                 8-Mar-2024 
 ******************************************
 %nprocshared=32
 Will use up to   32 processors via shared memory.
 %mem=100GB
 ------------------------------------------
 #p opt freq b3lyp/def2svpp em=gd3bj nosymm
 ------------------------------------------
 1/18=20,19=15,26=3,38=1/1,3;
 2/9=110,12=2,15=1,17=6,18=5,40=1/2;
 3/5=43,7=202,11=2,25=1,30=1,71=1,74=-5,124=41/1,2,3;
 4//1;
 5/5=2,38=5/2;
 6/7=2,8=2,9=2,10=2,28=1/1;
 7/30=1/1,2,3,16;
 1/18=20,19=15,26=3/3(2);
 2/9=110,15=1/2;
 99//99;
 2/9=110,15=1/2;
 3/5=43,7=202,11=2,25=1,30=1,71=1,74=-5,124=41/1,2,3;
 4/5=5,16=3,69=1/1;
 5/5=2,38=5/2;
 7/30=1/1,2,3,16;
 1/18=20,19=15,26=3/3(-5);
 2/9=110,15=1/2;
 6/7=2,8=2,9=2,10=2,19=2,28=1/1;
 99/9=1/99;
 Leave Link    1 at Fri Mar  8 03:47:37 2024, MaxMem= 13421772800 cpu:               2.9 elap:               0.1
 (Enter /public/software/apps/Gaussian/g16/l101.exe)
 ------------------
 $$$$Title####2????
 ------------------
 Symbolic Z-matrix:
 Charge =  2 Multiplicity = 2
 C                     3.88743   1.08693  -0.78018 
 C                     3.84813   1.09317   0.7483 
 C                     3.10571  -0.14117   1.26816 
 N                     1.73209  -0.20068   0.72334 
 C                     1.02926  -1.36751   1.30734 
 C                    -0.40423  -1.50537   0.7507 
 C                    -0.31106  -1.68655  -0.76952 
 C                     0.31688  -0.42047  -1.35301 
 C                    -0.63043   0.76484  -1.05046 
 N                    -0.7898    0.9532    0.40814 
 C                    -1.58113   2.15456   0.74744 
 C                    -3.08774   1.95434   0.52206 
 C                    -3.59025   0.72226   1.27467 
 C                    -2.77728  -0.51313   0.88725 
 C                    -1.26856  -0.26263   1.11773 
 C                     1.75407  -0.2616   -0.76404 
 C                     2.46976   0.97877  -1.3415 
 H                     4.50128   0.23116  -1.13833 
 H                     4.35969   2.0255   -1.14231 
 H                     3.3366    2.01321   1.10757 
 H                     4.88643   1.09589   1.14438 
 H                     3.06839  -0.07327   2.37797 
 H                     3.67906  -1.05817   0.99914 
 H                     0.97077  -1.25565   2.41283 
 H                     1.59235  -2.30695   1.10032 
 H                    -0.86157  -2.41714   1.19487 
 H                     0.31364  -2.57438  -1.01434 
 H                    -1.31067  -1.8724   -1.21566 
 H                     0.39093  -0.54108  -2.45654 
 H                    -0.23663   1.68998  -1.51896 
 H                    -1.61273   0.57378  -1.53335 
 H                    -1.40576   2.40995   1.81547 
 H                    -1.23195   3.02856   0.15519 
 H                    -3.63306   2.85128   0.88677 
 H                    -3.30413   1.84987  -0.56244 
 H                    -3.50991   0.89502   2.37063 
 H                    -4.66124   0.55206   1.03169 
 H                    -2.99001  -0.7634   -0.17214 
 H                    -3.11145  -1.37125   1.50988 
 H                    -1.14106  -0.09334   2.2115 
 H                     2.33925  -1.15606  -1.08594 
 H                     2.51886   0.90759  -2.44971 
 H                     1.92551   1.90773  -1.07132 
 Cu                    0.88497   1.47628   1.2817 
 
 ITRead=  0  0  0  0  0  0  0  0  0  0  0  0  0  0  0  0  0  0  0  0
 ITRead=  0  0  0  0  0  0  0  0  0  0  0  0  0  0  0  0  0  0  0  0
 ITRead=  0  0  0  0
 MicOpt= -1 -1 -1 -1 -1 -1 -1 -1 -1 -1 -1 -1 -1 -1 -1 -1 -1 -1 -1 -1
 MicOpt= -1 -1 -1 -1 -1 -1 -1 -1 -1 -1 -1 -1 -1 -1 -1 -1 -1 -1 -1 -1
 MicOpt= -1 -1 -1 -1
 NAtoms=     44 NQM=       44 NQMF=       0 NMMI=      0 NMMIF=      0
                NMic=       0 NMicF=      0.
                    Isotopes and Nuclear Properties:
 (Nuclear quadrupole moments (NQMom) in fm**2, nuclear magnetic moments (NMagM)
  in nuclear magnetons)

  Atom         1           2           3           4           5           6           7           8           9          10
 IAtWgt=          12          12          12          14          12          12          12          12          12          14
 AtmWgt=  12.0000000  12.0000000  12.0000000  14.0030740  12.0000000  12.0000000  12.0000000  12.0000000  12.0000000  14.0030740
 NucSpn=           0           0           0           2           0           0           0           0           0           2
 AtZEff=  -0.0000000  -0.0000000  -0.0000000  -0.0000000  -0.0000000  -0.0000000  -0.0000000  -0.0000000  -0.0000000  -0.0000000
 NQMom=    0.0000000   0.0000000   0.0000000   2.0440000   0.0000000   0.0000000   0.0000000   0.0000000   0.0000000   2.0440000
 NMagM=    0.0000000   0.0000000   0.0000000   0.4037610   0.0000000   0.0000000   0.0000000   0.0000000   0.0000000   0.4037610
 AtZNuc=   6.0000000   6.0000000   6.0000000   7.0000000   6.0000000   6.0000000   6.0000000   6.0000000   6.0000000   7.0000000

  Atom        11          12          13          14          15          16          17          18          19          20
 IAtWgt=          12          12          12          12          12          12          12           1           1           1
 AtmWgt=  12.0000000  12.0000000  12.0000000  12.0000000  12.0000000  12.0000000  12.0000000   1.0078250   1.0078250   1.0078250
 NucSpn=           0           0           0           0           0           0           0           1           1           1
 AtZEff=  -0.0000000  -0.0000000  -0.0000000  -0.0000000  -0.0000000  -0.0000000  -0.0000000  -0.0000000  -0.0000000  -0.0000000
 NQMom=    0.0000000   0.0000000   0.0000000   0.0000000   0.0000000   0.0000000   0.0000000   0.0000000   0.0000000   0.0000000
 NMagM=    0.0000000   0.0000000   0.0000000   0.0000000   0.0000000   0.0000000   0.0000000   2.7928460   2.7928460   2.7928460
 AtZNuc=   6.0000000   6.0000000   6.0000000   6.0000000   6.0000000   6.0000000   6.0000000   1.0000000   1.0000000   1.0000000

  Atom        21          22          23          24          25          26          27          28          29          30
 IAtWgt=           1           1           1           1           1           1           1           1           1           1
 AtmWgt=   1.0078250   1.0078250   1.0078250   1.0078250   1.0078250   1.0078250   1.0078250   1.0078250   1.0078250   1.0078250
 NucSpn=           1           1           1           1           1           1           1           1           1           1
 AtZEff=  -0.0000000  -0.0000000  -0.0000000  -0.0000000  -0.0000000  -0.0000000  -0.0000000  -0.0000000  -0.0000000  -0.0000000
 NQMom=    0.0000000   0.0000000   0.0000000   0.0000000   0.0000000   0.0000000   0.0000000   0.0000000   0.0000000   0.0000000
 NMagM=    2.7928460   2.7928460   2.7928460   2.7928460   2.7928460   2.7928460   2.7928460   2.7928460   2.7928460   2.7928460
 AtZNuc=   1.0000000   1.0000000   1.0000000   1.0000000   1.0000000   1.0000000   1.0000000   1.0000000   1.0000000   1.0000000

  Atom        31          32          33          34          35          36          37          38          39          40
 IAtWgt=           1           1           1           1           1           1           1           1           1           1
 AtmWgt=   1.0078250   1.0078250   1.0078250   1.0078250   1.0078250   1.0078250   1.0078250   1.0078250   1.0078250   1.0078250
 NucSpn=           1           1           1           1           1           1           1           1           1           1
 AtZEff=  -0.0000000  -0.0000000  -0.0000000  -0.0000000  -0.0000000  -0.0000000  -0.0000000  -0.0000000  -0.0000000  -0.0000000
 NQMom=    0.0000000   0.0000000   0.0000000   0.0000000   0.0000000   0.0000000   0.0000000   0.0000000   0.0000000   0.0000000
 NMagM=    2.7928460   2.7928460   2.7928460   2.7928460   2.7928460   2.7928460   2.7928460   2.7928460   2.7928460   2.7928460
 AtZNuc=   1.0000000   1.0000000   1.0000000   1.0000000   1.0000000   1.0000000   1.0000000   1.0000000   1.0000000   1.0000000

  Atom        41          42          43          44
 IAtWgt=           1           1           1          63
 AtmWgt=   1.0078250   1.0078250   1.0078250  62.9295992
 NucSpn=           1           1           1           3
 AtZEff=  -0.0000000  -0.0000000  -0.0000000  -0.0000000
 NQMom=    0.0000000   0.0000000   0.0000000 -22.0000000
 NMagM=    2.7928460   2.7928460   2.7928460   2.2233000
 AtZNuc=   1.0000000   1.0000000   1.0000000  29.0000000
 Leave Link  101 at Fri Mar  8 03:47:37 2024, MaxMem= 13421772800 cpu:               5.6 elap:               0.2
 (Enter /public/software/apps/Gaussian/g16/l103.exe)

 GradGradGradGradGradGradGradGradGradGradGradGradGradGradGradGradGradGrad
 Berny optimization.
 Initialization pass.
                           ----------------------------
                           !    Initial Parameters    !
                           ! (Angstroms and Degrees)  !
 --------------------------                            --------------------------
 ! Name  Definition              Value          Derivative Info.                !
 --------------------------------------------------------------------------------
 ! R1    R(1,2)                  1.529          estimate D2E/DX2                !
 ! R2    R(1,17)                 1.5286         estimate D2E/DX2                !
 ! R3    R(1,18)                 1.1124         estimate D2E/DX2                !
 ! R4    R(1,19)                 1.1113         estimate D2E/DX2                !
 ! R5    R(2,3)                  1.5314         estimate D2E/DX2                !
 ! R6    R(2,20)                 1.1123         estimate D2E/DX2                !
 ! R7    R(2,21)                 1.1113         estimate D2E/DX2                !
 ! R8    R(3,4)                  1.4789         estimate D2E/DX2                !
 ! R9    R(3,22)                 1.1125         estimate D2E/DX2                !
 ! R10   R(3,23)                 1.1145         estimate D2E/DX2                !
 ! R11   R(4,5)                  1.4821         estimate D2E/DX2                !
 ! R12   R(4,16)                 1.4888         estimate D2E/DX2                !
 ! R13   R(4,44)                 1.96           estimate D2E/DX2                !
 ! R14   R(5,6)                  1.5439         estimate D2E/DX2                !
 ! R15   R(5,24)                 1.1127         estimate D2E/DX2                !
 ! R16   R(5,25)                 1.1147         estimate D2E/DX2                !
 ! R17   R(6,7)                  1.5338         estimate D2E/DX2                !
 ! R18   R(6,15)                 1.5576         estimate D2E/DX2                !
 ! R19   R(6,26)                 1.1126         estimate D2E/DX2                !
 ! R20   R(7,8)                  1.529          estimate D2E/DX2                !
 ! R21   R(7,27)                 1.1128         estimate D2E/DX2                !
 ! R22   R(7,28)                 1.1103         estimate D2E/DX2                !
 ! R23   R(8,9)                  1.5472         estimate D2E/DX2                !
 ! R24   R(8,16)                 1.5613         estimate D2E/DX2                !
 ! R25   R(8,29)                 1.1126         estimate D2E/DX2                !
 ! R26   R(9,10)                 1.4793         estimate D2E/DX2                !
 ! R27   R(9,30)                 1.1093         estimate D2E/DX2                !
 ! R28   R(9,31)                 1.1111         estimate D2E/DX2                !
 ! R29   R(10,11)                1.478          estimate D2E/DX2                !
 ! R30   R(10,15)                1.4869         estimate D2E/DX2                !
 ! R31   R(10,44)                1.96           estimate D2E/DX2                !
 ! R32   R(11,12)                1.5365         estimate D2E/DX2                !
 ! R33   R(11,32)                1.1121         estimate D2E/DX2                !
 ! R34   R(11,33)                1.112          estimate D2E/DX2                !
 ! R35   R(12,13)                1.5287         estimate D2E/DX2                !
 ! R36   R(12,34)                1.1113         estimate D2E/DX2                !
 ! R37   R(12,35)                1.1108         estimate D2E/DX2                !
 ! R38   R(13,14)                1.5288         estimate D2E/DX2                !
 ! R39   R(13,36)                1.1124         estimate D2E/DX2                !
 ! R40   R(13,37)                1.1113         estimate D2E/DX2                !
 ! R41   R(14,15)                1.5466         estimate D2E/DX2                !
 ! R42   R(14,38)                1.1091         estimate D2E/DX2                !
 ! R43   R(14,39)                1.1116         estimate D2E/DX2                !
 ! R44   R(15,40)                1.1141         estimate D2E/DX2                !
 ! R45   R(16,17)                1.5441         estimate D2E/DX2                !
 ! R46   R(16,41)                1.1163         estimate D2E/DX2                !
 ! R47   R(17,42)                1.1116         estimate D2E/DX2                !
 ! R48   R(17,43)                1.11           estimate D2E/DX2                !
 ! A1    A(2,1,17)             110.0926         estimate D2E/DX2                !
 ! A2    A(2,1,18)             109.8269         estimate D2E/DX2                !
 ! A3    A(2,1,19)             109.4636         estimate D2E/DX2                !
 ! A4    A(17,1,18)            109.8237         estimate D2E/DX2                !
 ! A5    A(17,1,19)            109.525          estimate D2E/DX2                !
 ! A6    A(18,1,19)            108.077          estimate D2E/DX2                !
 ! A7    A(1,2,3)              110.3976         estimate D2E/DX2                !
 ! A8    A(1,2,20)             109.7608         estimate D2E/DX2                !
 ! A9    A(1,2,21)             109.4081         estimate D2E/DX2                !
 ! A10   A(3,2,20)             109.5181         estimate D2E/DX2                !
 ! A11   A(3,2,21)             109.5088         estimate D2E/DX2                !
 ! A12   A(20,2,21)            108.2117         estimate D2E/DX2                !
 ! A13   A(2,3,4)              110.9572         estimate D2E/DX2                !
 ! A14   A(2,3,22)             107.8015         estimate D2E/DX2                !
 ! A15   A(2,3,23)             109.382          estimate D2E/DX2                !
 ! A16   A(4,3,22)             109.8035         estimate D2E/DX2                !
 ! A17   A(4,3,23)             110.8431         estimate D2E/DX2                !
 ! A18   A(22,3,23)            107.9557         estimate D2E/DX2                !
 ! A19   A(3,4,5)              109.0855         estimate D2E/DX2                !
 ! A20   A(3,4,16)             110.8531         estimate D2E/DX2                !
 ! A21   A(3,4,44)             105.1925         estimate D2E/DX2                !
 ! A22   A(5,4,16)             111.6203         estimate D2E/DX2                !
 ! A23   A(5,4,44)             110.879          estimate D2E/DX2                !
 ! A24   A(16,4,44)            109.026          estimate D2E/DX2                !
 ! A25   A(4,5,6)              111.6248         estimate D2E/DX2                !
 ! A26   A(4,5,24)             109.7109         estimate D2E/DX2                !
 ! A27   A(4,5,25)             110.5355         estimate D2E/DX2                !
 ! A28   A(6,5,24)             108.5647         estimate D2E/DX2                !
 ! A29   A(6,5,25)             109.0757         estimate D2E/DX2                !
 ! A30   A(24,5,25)            107.2068         estimate D2E/DX2                !
 ! A31   A(5,6,7)              108.149          estimate D2E/DX2                !
 ! A32   A(5,6,15)             111.0401         estimate D2E/DX2                !
 ! A33   A(5,6,26)             108.1131         estimate D2E/DX2                !
 ! A34   A(7,6,15)             111.1925         estimate D2E/DX2                !
 ! A35   A(7,6,26)             108.8966         estimate D2E/DX2                !
 ! A36   A(15,6,26)            109.3706         estimate D2E/DX2                !
 ! A37   A(6,7,8)              107.7806         estimate D2E/DX2                !
 ! A38   A(6,7,27)             110.2663         estimate D2E/DX2                !
 ! A39   A(6,7,28)             111.3051         estimate D2E/DX2                !
 ! A40   A(8,7,27)             110.2506         estimate D2E/DX2                !
 ! A41   A(8,7,28)             110.7941         estimate D2E/DX2                !
 ! A42   A(27,7,28)            106.4665         estimate D2E/DX2                !
 ! A43   A(7,8,9)              107.9562         estimate D2E/DX2                !
 ! A44   A(7,8,16)             108.5633         estimate D2E/DX2                !
 ! A45   A(7,8,29)             108.4268         estimate D2E/DX2                !
 ! A46   A(9,8,16)             114.3227         estimate D2E/DX2                !
 ! A47   A(9,8,29)             108.5268         estimate D2E/DX2                !
 ! A48   A(16,8,29)            108.9014         estimate D2E/DX2                !
 ! A49   A(8,9,10)             110.8735         estimate D2E/DX2                !
 ! A50   A(8,9,30)             109.8146         estimate D2E/DX2                !
 ! A51   A(8,9,31)             108.9395         estimate D2E/DX2                !
 ! A52   A(10,9,30)            110.3948         estimate D2E/DX2                !
 ! A53   A(10,9,31)            110.8033         estimate D2E/DX2                !
 ! A54   A(30,9,31)            105.8855         estimate D2E/DX2                !
 ! A55   A(9,10,11)            112.8            estimate D2E/DX2                !
 ! A56   A(9,10,15)            113.647          estimate D2E/DX2                !
 ! A57   A(9,10,44)            112.4193         estimate D2E/DX2                !
 ! A58   A(11,10,15)           112.4995         estimate D2E/DX2                !
 ! A59   A(11,10,44)            97.9465         estimate D2E/DX2                !
 ! A60   A(15,10,44)           106.2994         estimate D2E/DX2                !
 ! A61   A(10,11,12)           112.6686         estimate D2E/DX2                !
 ! A62   A(10,11,32)           108.8269         estimate D2E/DX2                !
 ! A63   A(10,11,33)           110.393          estimate D2E/DX2                !
 ! A64   A(12,11,32)           108.9919         estimate D2E/DX2                !
 ! A65   A(12,11,33)           109.4022         estimate D2E/DX2                !
 ! A66   A(32,11,33)           106.3491         estimate D2E/DX2                !
 ! A67   A(11,12,13)           110.8016         estimate D2E/DX2                !
 ! A68   A(11,12,34)           109.1394         estimate D2E/DX2                !
 ! A69   A(11,12,35)           110.2727         estimate D2E/DX2                !
 ! A70   A(13,12,34)           109.1256         estimate D2E/DX2                !
 ! A71   A(13,12,35)           109.9269         estimate D2E/DX2                !
 ! A72   A(34,12,35)           107.502          estimate D2E/DX2                !
 ! A73   A(12,13,14)           110.5926         estimate D2E/DX2                !
 ! A74   A(12,13,36)           109.6411         estimate D2E/DX2                !
 ! A75   A(12,13,37)           109.4256         estimate D2E/DX2                !
 ! A76   A(14,13,36)           109.6797         estimate D2E/DX2                !
 ! A77   A(14,13,37)           109.47           estimate D2E/DX2                !
 ! A78   A(36,13,37)           107.9868         estimate D2E/DX2                !
 ! A79   A(13,14,15)           110.4932         estimate D2E/DX2                !
 ! A80   A(13,14,38)           108.8079         estimate D2E/DX2                !
 ! A81   A(13,14,39)           108.7842         estimate D2E/DX2                !
 ! A82   A(15,14,38)           111.4674         estimate D2E/DX2                !
 ! A83   A(15,14,39)           109.5605         estimate D2E/DX2                !
 ! A84   A(38,14,39)           107.6462         estimate D2E/DX2                !
 ! A85   A(6,15,10)            111.1774         estimate D2E/DX2                !
 ! A86   A(6,15,14)            112.1461         estimate D2E/DX2                !
 ! A87   A(6,15,40)            106.8019         estimate D2E/DX2                !
 ! A88   A(10,15,14)           112.0494         estimate D2E/DX2                !
 ! A89   A(10,15,40)           107.9028         estimate D2E/DX2                !
 ! A90   A(14,15,40)           106.4119         estimate D2E/DX2                !
 ! A91   A(4,16,8)             111.5586         estimate D2E/DX2                !
 ! A92   A(4,16,17)            110.3408         estimate D2E/DX2                !
 ! A93   A(4,16,41)            109.1853         estimate D2E/DX2                !
 ! A94   A(8,16,17)            111.5506         estimate D2E/DX2                !
 ! A95   A(8,16,41)            106.991          estimate D2E/DX2                !
 ! A96   A(17,16,41)           107.0286         estimate D2E/DX2                !
 ! A97   A(1,17,16)            110.4494         estimate D2E/DX2                !
 ! A98   A(1,17,42)            109.2484         estimate D2E/DX2                !
 ! A99   A(1,17,43)            107.8265         estimate D2E/DX2                !
 ! A100  A(16,17,42)           109.992          estimate D2E/DX2                !
 ! A101  A(16,17,43)           110.7312         estimate D2E/DX2                !
 ! A102  A(42,17,43)           108.5359         estimate D2E/DX2                !
 ! A103  A(4,44,10)             90.8023         estimate D2E/DX2                !
 ! D1    D(17,1,2,3)            55.2496         estimate D2E/DX2                !
 ! D2    D(17,1,2,20)          -65.5707         estimate D2E/DX2                !
 ! D3    D(17,1,2,21)          175.8314         estimate D2E/DX2                !
 ! D4    D(18,1,2,3)           -65.7979         estimate D2E/DX2                !
 ! D5    D(18,1,2,20)          173.3818         estimate D2E/DX2                !
 ! D6    D(18,1,2,21)           54.7838         estimate D2E/DX2                !
 ! D7    D(19,1,2,3)           175.6954         estimate D2E/DX2                !
 ! D8    D(19,1,2,20)           54.8751         estimate D2E/DX2                !
 ! D9    D(19,1,2,21)          -63.7229         estimate D2E/DX2                !
 ! D10   D(2,1,17,16)          -55.1749         estimate D2E/DX2                !
 ! D11   D(2,1,17,42)         -176.2856         estimate D2E/DX2                !
 ! D12   D(2,1,17,43)           65.9398         estimate D2E/DX2                !
 ! D13   D(18,1,17,16)          65.8746         estimate D2E/DX2                !
 ! D14   D(18,1,17,42)         -55.2361         estimate D2E/DX2                !
 ! D15   D(18,1,17,43)        -173.0107         estimate D2E/DX2                !
 ! D16   D(19,1,17,16)        -175.5837         estimate D2E/DX2                !
 ! D17   D(19,1,17,42)          63.3056         estimate D2E/DX2                !
 ! D18   D(19,1,17,43)         -54.4689         estimate D2E/DX2                !
 ! D19   D(1,2,3,4)            -57.5839         estimate D2E/DX2                !
 ! D20   D(1,2,3,22)          -177.8502         estimate D2E/DX2                !
 ! D21   D(1,2,3,23)            65.0078         estimate D2E/DX2                !
 ! D22   D(20,2,3,4)            63.3811         estimate D2E/DX2                !
 ! D23   D(20,2,3,22)          -56.8852         estimate D2E/DX2                !
 ! D24   D(20,2,3,23)         -174.0272         estimate D2E/DX2                !
 ! D25   D(21,2,3,4)          -178.1053         estimate D2E/DX2                !
 ! D26   D(21,2,3,22)           61.6284         estimate D2E/DX2                !
 ! D27   D(21,2,3,23)          -55.5136         estimate D2E/DX2                !
 ! D28   D(2,3,4,5)           -177.0282         estimate D2E/DX2                !
 ! D29   D(2,3,4,16)            59.6724         estimate D2E/DX2                !
 ! D30   D(2,3,4,44)           -58.0328         estimate D2E/DX2                !
 ! D31   D(22,3,4,5)           -57.9586         estimate D2E/DX2                !
 ! D32   D(22,3,4,16)          178.7421         estimate D2E/DX2                !
 ! D33   D(22,3,4,44)           61.0368         estimate D2E/DX2                !
 ! D34   D(23,3,4,5)            61.2309         estimate D2E/DX2                !
 ! D35   D(23,3,4,16)          -62.0685         estimate D2E/DX2                !
 ! D36   D(23,3,4,44)         -179.7737         estimate D2E/DX2                !
 ! D37   D(3,4,5,6)           -178.6282         estimate D2E/DX2                !
 ! D38   D(3,4,5,24)            60.9858         estimate D2E/DX2                !
 ! D39   D(3,4,5,25)           -57.033          estimate D2E/DX2                !
 ! D40   D(16,4,5,6)           -55.7867         estimate D2E/DX2                !
 ! D41   D(16,4,5,24)         -176.1727         estimate D2E/DX2                !
 ! D42   D(16,4,5,25)           65.8085         estimate D2E/DX2                !
 ! D43   D(44,4,5,6)            65.9821         estimate D2E/DX2                !
 ! D44   D(44,4,5,24)          -54.4039         estimate D2E/DX2                !
 ! D45   D(44,4,5,25)         -172.4227         estimate D2E/DX2                !
 ! D46   D(3,4,16,8)           176.2206         estimate D2E/DX2                !
 ! D47   D(3,4,16,17)          -59.1902         estimate D2E/DX2                !
 ! D48   D(3,4,16,41)           58.1765         estimate D2E/DX2                !
 ! D49   D(5,4,16,8)            54.3938         estimate D2E/DX2                !
 ! D50   D(5,4,16,17)          178.983          estimate D2E/DX2                !
 ! D51   D(5,4,16,41)          -63.6503         estimate D2E/DX2                !
 ! D52   D(44,4,16,8)          -68.4392         estimate D2E/DX2                !
 ! D53   D(44,4,16,17)          56.1501         estimate D2E/DX2                !
 ! D54   D(44,4,16,41)         173.5168         estimate D2E/DX2                !
 ! D55   D(3,4,44,10)         -179.3646         estimate D2E/DX2                !
 ! D56   D(5,4,44,10)          -61.5758         estimate D2E/DX2                !
 ! D57   D(16,4,44,10)          61.7002         estimate D2E/DX2                !
 ! D58   D(4,5,6,7)             60.0403         estimate D2E/DX2                !
 ! D59   D(4,5,6,15)           -62.2153         estimate D2E/DX2                !
 ! D60   D(4,5,6,26)           177.803          estimate D2E/DX2                !
 ! D61   D(24,5,6,7)          -178.9043         estimate D2E/DX2                !
 ! D62   D(24,5,6,15)           58.8401         estimate D2E/DX2                !
 ! D63   D(24,5,6,26)          -61.1417         estimate D2E/DX2                !
 ! D64   D(25,5,6,7)           -62.3958         estimate D2E/DX2                !
 ! D65   D(25,5,6,15)          175.3485         estimate D2E/DX2                !
 ! D66   D(25,5,6,26)           55.3668         estimate D2E/DX2                !
 ! D67   D(5,6,7,8)            -62.8588         estimate D2E/DX2                !
 ! D68   D(5,6,7,27)            57.5317         estimate D2E/DX2                !
 ! D69   D(5,6,7,28)           175.4573         estimate D2E/DX2                !
 ! D70   D(15,6,7,8)            59.3033         estimate D2E/DX2                !
 ! D71   D(15,6,7,27)          179.6938         estimate D2E/DX2                !
 ! D72   D(15,6,7,28)          -62.3805         estimate D2E/DX2                !
 ! D73   D(26,6,7,8)           179.882          estimate D2E/DX2                !
 ! D74   D(26,6,7,27)          -59.7275         estimate D2E/DX2                !
 ! D75   D(26,6,7,28)           58.1981         estimate D2E/DX2                !
 ! D76   D(5,6,15,10)           67.7454         estimate D2E/DX2                !
 ! D77   D(5,6,15,14)         -165.9313         estimate D2E/DX2                !
 ! D78   D(5,6,15,40)          -49.729          estimate D2E/DX2                !
 ! D79   D(7,6,15,10)          -52.7249         estimate D2E/DX2                !
 ! D80   D(7,6,15,14)           73.5983         estimate D2E/DX2                !
 ! D81   D(7,6,15,40)         -170.1993         estimate D2E/DX2                !
 ! D82   D(26,6,15,10)        -173.0238         estimate D2E/DX2                !
 ! D83   D(26,6,15,14)         -46.7005         estimate D2E/DX2                !
 ! D84   D(26,6,15,40)          69.5019         estimate D2E/DX2                !
 ! D85   D(6,7,8,9)            -62.6877         estimate D2E/DX2                !
 ! D86   D(6,7,8,16)            61.7534         estimate D2E/DX2                !
 ! D87   D(6,7,8,29)           179.9224         estimate D2E/DX2                !
 ! D88   D(27,7,8,9)           176.9119         estimate D2E/DX2                !
 ! D89   D(27,7,8,16)          -58.647          estimate D2E/DX2                !
 ! D90   D(27,7,8,29)           59.522          estimate D2E/DX2                !
 ! D91   D(28,7,8,9)            59.3128         estimate D2E/DX2                !
 ! D92   D(28,7,8,16)         -176.2461         estimate D2E/DX2                !
 ! D93   D(28,7,8,29)          -58.0771         estimate D2E/DX2                !
 ! D94   D(7,8,9,10)            61.4409         estimate D2E/DX2                !
 ! D95   D(7,8,9,30)          -176.2942         estimate D2E/DX2                !
 ! D96   D(7,8,9,31)           -60.7483         estimate D2E/DX2                !
 ! D97   D(16,8,9,10)          -59.4717         estimate D2E/DX2                !
 ! D98   D(16,8,9,30)           62.7933         estimate D2E/DX2                !
 ! D99   D(16,8,9,31)          178.3391         estimate D2E/DX2                !
 ! D100  D(29,8,9,10)          178.7661         estimate D2E/DX2                !
 ! D101  D(29,8,9,30)          -58.9689         estimate D2E/DX2                !
 ! D102  D(29,8,9,31)           56.5769         estimate D2E/DX2                !
 ! D103  D(7,8,16,4)           -57.7531         estimate D2E/DX2                !
 ! D104  D(7,8,16,17)          178.3378         estimate D2E/DX2                !
 ! D105  D(7,8,16,41)           61.6002         estimate D2E/DX2                !
 ! D106  D(9,8,16,4)            62.8227         estimate D2E/DX2                !
 ! D107  D(9,8,16,17)          -61.0864         estimate D2E/DX2                !
 ! D108  D(9,8,16,41)         -177.824          estimate D2E/DX2                !
 ! D109  D(29,8,16,4)         -175.6209         estimate D2E/DX2                !
 ! D110  D(29,8,16,17)          60.47           estimate D2E/DX2                !
 ! D111  D(29,8,16,41)         -56.2676         estimate D2E/DX2                !
 ! D112  D(8,9,10,11)          174.4353         estimate D2E/DX2                !
 ! D113  D(8,9,10,15)          -55.9796         estimate D2E/DX2                !
 ! D114  D(8,9,10,44)           64.823          estimate D2E/DX2                !
 ! D115  D(30,9,10,11)          52.5089         estimate D2E/DX2                !
 ! D116  D(30,9,10,15)        -177.906          estimate D2E/DX2                !
 ! D117  D(30,9,10,44)         -57.1034         estimate D2E/DX2                !
 ! D118  D(31,9,10,11)         -64.4687         estimate D2E/DX2                !
 ! D119  D(31,9,10,15)          65.1164         estimate D2E/DX2                !
 ! D120  D(31,9,10,44)        -174.0811         estimate D2E/DX2                !
 ! D121  D(9,10,11,12)          76.0591         estimate D2E/DX2                !
 ! D122  D(9,10,11,32)        -162.9422         estimate D2E/DX2                !
 ! D123  D(9,10,11,33)         -46.5804         estimate D2E/DX2                !
 ! D124  D(15,10,11,12)        -54.1111         estimate D2E/DX2                !
 ! D125  D(15,10,11,32)         66.8876         estimate D2E/DX2                !
 ! D126  D(15,10,11,33)       -176.7506         estimate D2E/DX2                !
 ! D127  D(44,10,11,12)       -165.4906         estimate D2E/DX2                !
 ! D128  D(44,10,11,32)        -44.4919         estimate D2E/DX2                !
 ! D129  D(44,10,11,33)         71.87           estimate D2E/DX2                !
 ! D130  D(9,10,15,6)           50.9087         estimate D2E/DX2                !
 ! D131  D(9,10,15,14)         -75.4678         estimate D2E/DX2                !
 ! D132  D(9,10,15,40)         167.712          estimate D2E/DX2                !
 ! D133  D(11,10,15,6)        -179.3549         estimate D2E/DX2                !
 ! D134  D(11,10,15,14)         54.2685         estimate D2E/DX2                !
 ! D135  D(11,10,15,40)        -62.5516         estimate D2E/DX2                !
 ! D136  D(44,10,15,6)         -73.2724         estimate D2E/DX2                !
 ! D137  D(44,10,15,14)        160.351          estimate D2E/DX2                !
 ! D138  D(44,10,15,40)         43.5308         estimate D2E/DX2                !
 ! D139  D(9,10,44,4)          -61.4522         estimate D2E/DX2                !
 ! D140  D(11,10,44,4)         179.8067         estimate D2E/DX2                !
 ! D141  D(15,10,44,4)          63.4868         estimate D2E/DX2                !
 ! D142  D(10,11,12,13)         54.3338         estimate D2E/DX2                !
 ! D143  D(10,11,12,34)        174.5217         estimate D2E/DX2                !
 ! D144  D(10,11,12,35)        -67.6031         estimate D2E/DX2                !
 ! D145  D(32,11,12,13)        -66.5707         estimate D2E/DX2                !
 ! D146  D(32,11,12,34)         53.6172         estimate D2E/DX2                !
 ! D147  D(32,11,12,35)        171.4925         estimate D2E/DX2                !
 ! D148  D(33,11,12,13)        177.5272         estimate D2E/DX2                !
 ! D149  D(33,11,12,34)        -62.2849         estimate D2E/DX2                !
 ! D150  D(33,11,12,35)         55.5903         estimate D2E/DX2                !
 ! D151  D(11,12,13,14)        -54.8443         estimate D2E/DX2                !
 ! D152  D(11,12,13,36)         66.2244         estimate D2E/DX2                !
 ! D153  D(11,12,13,37)       -175.5122         estimate D2E/DX2                !
 ! D154  D(34,12,13,14)       -175.0404         estimate D2E/DX2                !
 ! D155  D(34,12,13,36)        -53.9717         estimate D2E/DX2                !
 ! D156  D(34,12,13,37)         64.2917         estimate D2E/DX2                !
 ! D157  D(35,12,13,14)         67.2948         estimate D2E/DX2                !
 ! D158  D(35,12,13,36)       -171.6365         estimate D2E/DX2                !
 ! D159  D(35,12,13,37)        -53.3731         estimate D2E/DX2                !
 ! D160  D(12,13,14,15)         55.1583         estimate D2E/DX2                !
 ! D161  D(12,13,14,38)        -67.5272         estimate D2E/DX2                !
 ! D162  D(12,13,14,39)        175.4663         estimate D2E/DX2                !
 ! D163  D(36,13,14,15)        -65.8876         estimate D2E/DX2                !
 ! D164  D(36,13,14,38)        171.427          estimate D2E/DX2                !
 ! D165  D(36,13,14,39)         54.4205         estimate D2E/DX2                !
 ! D166  D(37,13,14,15)        175.7997         estimate D2E/DX2                !
 ! D167  D(37,13,14,38)         53.1142         estimate D2E/DX2                !
 ! D168  D(37,13,14,39)        -63.8923         estimate D2E/DX2                !
 ! D169  D(13,14,15,6)         179.3154         estimate D2E/DX2                !
 ! D170  D(13,14,15,10)        -54.8353         estimate D2E/DX2                !
 ! D171  D(13,14,15,40)         62.8779         estimate D2E/DX2                !
 ! D172  D(38,14,15,6)         -59.5659         estimate D2E/DX2                !
 ! D173  D(38,14,15,10)         66.2833         estimate D2E/DX2                !
 ! D174  D(38,14,15,40)       -176.0034         estimate D2E/DX2                !
 ! D175  D(39,14,15,6)          59.4735         estimate D2E/DX2                !
 ! D176  D(39,14,15,10)       -174.6773         estimate D2E/DX2                !
 ! D177  D(39,14,15,40)        -56.964          estimate D2E/DX2                !
 ! D178  D(4,16,17,1)           57.0761         estimate D2E/DX2                !
 ! D179  D(4,16,17,42)         177.7436         estimate D2E/DX2                !
 ! D180  D(4,16,17,43)         -62.2958         estimate D2E/DX2                !
 ! D181  D(8,16,17,1)         -178.3301         estimate D2E/DX2                !
 ! D182  D(8,16,17,42)         -57.6625         estimate D2E/DX2                !
 ! D183  D(8,16,17,43)          62.298          estimate D2E/DX2                !
 ! D184  D(41,16,17,1)         -61.6154         estimate D2E/DX2                !
 ! D185  D(41,16,17,42)         59.0522         estimate D2E/DX2                !
 ! D186  D(41,16,17,43)        179.0128         estimate D2E/DX2                !
 --------------------------------------------------------------------------------
 Trust Radius=3.00D-01 FncErr=1.00D-07 GrdErr=1.00D-06 EigMax=2.50D+02 EigMin=1.00D-04
 Number of steps in this run=    264 maximum allowed number of steps=    264.
 GradGradGradGradGradGradGradGradGradGradGradGradGradGradGradGradGradGrad

 Leave Link  103 at Fri Mar  8 03:47:37 2024, MaxMem= 13421772800 cpu:               0.2 elap:               0.0
 (Enter /public/software/apps/Gaussian/g16/l202.exe)
                          Input orientation:                          
 ---------------------------------------------------------------------
 Center     Atomic      Atomic             Coordinates (Angstroms)
 Number     Number       Type             X           Y           Z
 ---------------------------------------------------------------------
      1          6           0        3.887430    1.086927   -0.780182
      2          6           0        3.848128    1.093170    0.748296
      3          6           0        3.105706   -0.141169    1.268155
      4          7           0        1.732094   -0.200676    0.723344
      5          6           0        1.029260   -1.367514    1.307342
      6          6           0       -0.404229   -1.505365    0.750697
      7          6           0       -0.311059   -1.686551   -0.769522
      8          6           0        0.316883   -0.420471   -1.353013
      9          6           0       -0.630432    0.764841   -1.050465
     10          7           0       -0.789796    0.953202    0.408142
     11          6           0       -1.581128    2.154557    0.747441
     12          6           0       -3.087740    1.954342    0.522060
     13          6           0       -3.590251    0.722257    1.274667
     14          6           0       -2.777280   -0.513128    0.887251
     15          6           0       -1.268564   -0.262633    1.117728
     16          6           0        1.754073   -0.261595   -0.764036
     17          6           0        2.469759    0.978769   -1.341498
     18          1           0        4.501283    0.231160   -1.138332
     19          1           0        4.359692    2.025496   -1.142305
     20          1           0        3.336596    2.013205    1.107575
     21          1           0        4.886426    1.095894    1.144381
     22          1           0        3.068391   -0.073270    2.377969
     23          1           0        3.679062   -1.058170    0.999135
     24          1           0        0.970767   -1.255650    2.412827
     25          1           0        1.592348   -2.306945    1.100315
     26          1           0       -0.861567   -2.417144    1.194874
     27          1           0        0.313641   -2.574376   -1.014339
     28          1           0       -1.310667   -1.872395   -1.215655
     29          1           0        0.390927   -0.541077   -2.456536
     30          1           0       -0.236629    1.689978   -1.518962
     31          1           0       -1.612733    0.573780   -1.533350
     32          1           0       -1.405763    2.409947    1.815471
     33          1           0       -1.231949    3.028556    0.155194
     34          1           0       -3.633059    2.851277    0.886768
     35          1           0       -3.304132    1.849872   -0.562441
     36          1           0       -3.509907    0.895019    2.370630
     37          1           0       -4.661244    0.552057    1.031690
     38          1           0       -2.990007   -0.763401   -0.172136
     39          1           0       -3.111447   -1.371248    1.509877
     40          1           0       -1.141065   -0.093341    2.211497
     41          1           0        2.339248   -1.156058   -1.085943
     42          1           0        2.518859    0.907593   -2.449709
     43          1           0        1.925505    1.907732   -1.071323
     44         29           0        0.884973    1.476283    1.281699
 ---------------------------------------------------------------------
                    Distance matrix (angstroms):
                    1          2          3          4          5
     1  C    0.000000
     2  C    1.528996   0.000000
     3  C    2.512966   1.531351   0.000000
     4  N    2.926429   2.480375   1.478908   0.000000
     5  C    4.307107   3.783321   2.411864   1.482073   0.000000
     6  C    5.242319   4.983466   3.801110   2.503365   1.543939
     7  C    5.031859   5.227758   4.267858   2.934442   2.492309
     8  C    3.917804   4.379075   3.837456   2.522378   2.912363
     9  C    4.537386   4.837442   4.489497   3.108078   3.586191
    10  N    4.827674   4.652487   4.136690   2.791185   3.082734
    11  C    5.777421   5.532031   5.244799   4.065113   4.419570
    12  C    7.148513   6.992787   6.580775   5.283504   5.347998
    13  C    7.763447   7.466199   6.751399   5.429836   5.070315
    14  C    7.053997   6.818763   5.907027   4.523157   3.923799
    15  C    5.657530   5.306149   4.378541   3.027099   2.556699
    16  C    2.523883   2.916779   2.443607   1.488789   2.457441
    17  C    1.528583   2.506038   2.910151   2.489741   3.820528
    18  H    1.112396   2.174635   2.806678   3.364629   4.537843
    19  H    1.111340   2.169171   3.475232   3.916728   5.348370
    20  H    2.173715   1.112300   2.172654   2.761038   4.097922
    21  H    2.168413   1.111285   2.171775   3.436303   4.579592
    22  H    3.462773   2.150443   1.112515   2.130659   2.641849
    23  H    2.794786   2.172503   1.114450   2.145237   2.685542
    24  H    4.918323   4.070237   2.666516   2.132356   1.112669
    25  H    4.507997   4.095515   2.647453   2.144296   1.114656
    26  H    6.223531   5.890922   4.574351   3.444147   2.165548
    27  H    5.121712   5.389840   4.350391   3.265885   2.712716
    28  H    5.997286   6.266167   5.354513   3.976526   3.477884
    29  H    4.205484   4.989384   4.626367   3.467887   3.906052
    30  H    4.232887   4.709764   4.721475   3.532475   4.351865
    31  H    5.575157   5.941101   5.533828   4.108566   4.338004
    32  H    6.041994   5.520519   5.211631   4.225428   4.522913
    33  H    5.554538   5.468516   5.486446   4.419987   5.076016
    34  H    7.902494   7.686239   7.383166   6.174625   6.301769
    35  H    7.235196   7.310640   6.957108   5.587626   5.711913
    36  H    8.042701   7.537368   6.786418   5.602916   5.182053
    37  H    8.754930   8.531268   7.801410   6.444878   6.011869
    38  H    7.147907   7.145218   6.294389   4.839089   4.325311
    39  H    7.763458   7.422200   6.342280   5.044677   4.145659
    40  H    5.968998   5.332993   4.350545   3.237462   2.674196
    41  H    2.742506   3.271113   2.675675   2.134224   2.736530
    42  H    2.166210   3.468232   3.907276   3.451887   4.637936
    43  H    2.146540   2.769658   3.326263   2.775540   4.145906
    44  Cu   3.663018   3.035059   2.747360   1.959991   2.847570
                    6          7          8          9         10
     6  C    0.000000
     7  C    1.533811   0.000000
     8  C    2.474387   1.528964   0.000000
     9  C    2.906749   2.488021   1.547225   0.000000
    10  N    2.512082   2.929911   2.492666   1.479328   0.000000
    11  C    3.844494   4.320690   3.826895   2.463250   1.478034
    12  C    4.384413   4.757546   4.554898   3.150573   2.509144
    13  C    3.922701   4.553478   4.845227   3.764118   2.940536
    14  C    2.575762   3.194380   3.821153   3.161788   2.515902
    15  C    1.557617   2.550700   2.939918   2.482736   1.486938
    16  C    2.915415   2.509044   1.561298   2.611796   3.053032
    17  C    4.336820   3.894103   2.567660   3.121162   3.699540
    18  H    5.536063   5.193484   4.240273   5.160139   5.559536
    19  H    6.224579   5.977807   4.729847   5.147720   5.483696
    20  H    5.147958   5.524226   4.593032   4.685388   4.317398
    21  H    5.908686   6.198296   5.423750   5.946652   5.725548
    22  H    4.093654   4.891836   4.648825   5.112522   4.451906
    23  H    4.115212   4.409544   4.152530   5.108421   4.936151
    24  H    2.171554   3.457759   3.912370   4.317478   3.463722
    25  H    2.179698   2.739368   3.347299   4.359183   4.096617
    26  H    1.112561   2.166951   3.444877   3.901282   3.461695
    27  H    2.184828   1.112843   2.180371   3.470295   3.960408
    28  H    2.196106   1.110310   2.185376   2.728557   3.300306
    29  H    3.442160   2.156597   1.112561   2.173852   3.439965
    30  H    3.922966   3.459501   2.188129   1.109256   2.136016
    31  H    3.316654   2.717882   2.178181   1.111124   2.142563
    32  H    4.179292   4.966071   4.584546   3.394275   2.117096
    33  H    4.647169   4.892379   4.070547   2.634358   2.136955
    34  H    5.424407   5.862667   5.596695   4.137856   3.451944
    35  H    4.625082   4.637635   4.346402   2.926454   2.840411
    36  H    4.246323   5.172783   5.499123   4.473501   3.354661
    37  H    4.736467   5.213429   5.604852   4.541816   3.941807
    38  H    2.844008   2.895831   3.528115   2.945264   2.850329
    39  H    2.814848   3.624534   4.566570   4.156160   3.465105
    40  H    2.161175   3.480474   3.865017   3.411395   2.114410
    41  H    3.319929   2.721336   2.168496   3.536964   4.058594
    42  H    4.960787   4.190590   2.795567   3.449101   4.372252
    43  H    4.516265   4.244075   2.843861   2.799902   3.236171
    44  Cu   3.291539   3.954936   3.295771   2.870817   1.959992
                   11         12         13         14         15
    11  C    0.000000
    12  C    1.536477   0.000000
    13  C    2.523098   1.528715   0.000000
    14  C    2.926922   2.513595   1.528787   0.000000
    15  C    2.465282   2.929027   2.526830   1.546639   0.000000
    16  C    4.387017   5.477917   5.803971   4.829408   3.560530
    17  C    4.706998   5.942254   6.605591   5.892750   4.643698
    18  H    6.652167   7.957357   8.457935   7.591734   6.214883
    19  H    6.235474   7.631475   8.410813   7.842199   6.482326
    20  H    4.932919   6.451231   7.048097   6.618941   5.136832
    21  H    6.565637   8.044348   8.485908   7.835015   6.303190
    22  H    5.407390   6.741925   6.796150   6.048767   4.520315
    23  H    6.168838   7.422428   7.489242   6.480273   5.012579
    24  H    4.573313   5.509131   5.100040   4.114192   2.770915
    25  H    5.486390   6.355798   6.005480   4.728300   3.516295
    26  H    4.649561   4.951607   4.160279   2.718431   2.193973
    27  H    5.390438   5.868492   5.598903   4.173557   3.520403
    28  H    4.488122   4.563065   4.257984   2.901857   2.835098
    29  H    4.628273   5.215388   5.600685   4.606433   3.950545
    30  H    2.675835   3.516318   4.470752   4.135027   3.439435
    31  H    2.775223   2.882067   3.437671   2.897732   2.801116
    32  H    1.112054   2.170146   2.812962   3.359616   2.765566
    33  H    1.112006   2.175428   3.483364   3.932872   3.429247
    34  H    2.171463   1.111250   2.164492   3.471538   3.916710
    35  H    2.185719   1.110802   2.174476   2.821870   3.380707
    36  H    2.818043   2.172004   1.112401   2.172564   2.816654
    37  H    3.483664   2.168419   1.111320   2.169056   3.490186
    38  H    3.368240   2.806704   2.158868   1.109139   2.208593
    39  H    3.918480   3.469278   2.160403   1.111621   2.186098
    40  H    2.718485   3.291921   2.746154   2.146404   1.114112
    41  H    5.448928   6.458518   6.652782   5.521387   4.320958
    42  H    5.346642   6.431255   7.157273   6.418944   5.332974
    43  H    3.957941   5.260577   6.110040   5.640280   4.438976
    44  Cu   2.612880   4.072842   4.538307   4.186340   2.772803
                   16         17         18         19         20
    16  C    0.000000
    17  C    1.544076   0.000000
    18  H    2.816038   2.174232   0.000000
    19  H    3.487567   2.169600   1.799918   0.000000
    20  H    3.343953   2.796323   3.094556   2.471606   0.000000
    21  H    3.911070   3.468947   2.471210   2.523993   1.801329
    22  H    3.411025   3.911468   3.809230   4.297046   2.457481
    23  H    2.729265   3.330180   2.628152   3.815497   3.092311
    24  H    3.419674   4.618935   5.223589   5.906750   4.241019
    25  H    2.772258   4.186671   4.462670   5.608706   4.658986
    26  H    3.914753   5.391024   6.420088   7.242997   6.104112
    27  H    2.736138   4.169019   5.042098   6.127457   5.889539
    28  H    3.491600   4.736728   6.181398   6.881272   6.487861
    29  H    2.191080   2.806205   4.385093   4.905670   5.282444
    30  H    2.888156   2.803899   4.972006   4.623917   4.446472
    31  H    3.553179   4.107014   6.136336   6.158754   5.791570
    32  H    4.876019   5.199461   6.954513   6.491280   4.811288
    33  H    4.537224   4.488246   6.509115   5.827185   4.775937
    34  H    6.437105   6.761349   8.782572   8.287528   7.023333
    35  H    5.484922   5.890973   7.992270   7.687736   6.849445
    36  H    6.234851   7.038701   8.771128   8.691909   7.051259
    37  H    6.711405   7.527636   9.421458   9.395454   8.130569
    38  H    4.807125   5.849069   7.618537   7.920685   7.026600
    39  H    5.484095   6.693488   8.217930   8.624955   7.293396
    40  H    4.154989   5.177957   6.569836   6.782019   5.070072
    41  H    1.116297   2.154026   2.569341   3.769305   3.981263
    42  H    2.189382   1.111579   2.471290   2.519460   3.813835
    43  H    2.197679   1.110036   3.074088   2.438068   2.598057
    44  Cu   2.821451   3.104872   4.525989   4.272131   2.515762
                   21         22         23         24         25
    21  H    0.000000
    22  H    2.488762   0.000000
    23  H    2.473624   1.801147   0.000000
    24  H    4.740369   2.408166   3.061435   0.000000
    25  H    4.736265   2.966548   2.433937   1.792839   0.000000
    26  H    6.736721   4.726312   4.743673   2.487956   2.458207
    27  H    6.248305   5.035070   4.204642   3.730458   2.485633
    28  H    7.265292   5.943663   5.519570   4.330265   3.738990
    29  H    5.987970   5.546178   4.798008   4.955555   4.148842
    30  H    5.804483   5.405393   5.406086   5.059001   5.116753
    31  H    7.048540   6.134331   6.089321   5.059012   5.050476
    32  H    6.462874   5.147895   6.208839   4.409232   5.634642
    33  H    6.492163   5.749346   6.444501   5.320083   6.110440
    34  H    8.702262   7.462311   8.292377   6.355385   7.345593
    35  H    8.400415   7.276918   7.724003   6.063930   6.634712
    36  H    8.487782   6.649184   7.574775   4.970271   6.156239
    37  H    9.563810   7.870880   8.494386   6.074117   6.876483
    38  H    8.199292   6.609350   6.777555   4.755215   4.999964
    39  H    8.377729   6.374067   6.816883   4.182482   4.813414
    40  H    6.235677   4.212794   5.063037   2.418952   3.688674
    41  H    4.066171   3.701725   2.480370   3.758198   2.581109
    42  H    4.307936   4.956869   4.135797   5.542605   4.877945
    43  H    3.786222   4.138620   4.019743   4.801855   4.752947
    44  Cu   4.021838   2.893136   3.782886   2.958085   3.853063
                   26         27         28         29         30
    26  H    0.000000
    27  H    2.507281   0.000000
    28  H    2.511791   1.780922   0.000000
    29  H    4.291988   2.494035   2.491509   0.000000
    30  H    4.962248   4.329221   3.733102   2.500096   0.000000
    31  H    4.117412   3.727087   2.485145   2.471807   1.771939
    32  H    4.897152   5.983949   5.247401   5.494241   3.606061
    33  H    5.556417   5.928702   5.089670   4.711384   2.363314
    34  H    5.960902   6.973404   5.668048   6.235239   4.321098
    35  H    5.221274   5.732928   4.272688   4.791419   3.217153
    36  H    4.400742   6.173673   5.035541   6.370275   5.145409
    37  H    4.824969   6.221760   4.706898   6.235952   5.232390
    38  H    3.022224   3.860444   2.266932   4.086395   3.926079
    39  H    2.501017   4.421585   3.304918   5.356140   5.177794
    40  H    2.551804   4.321773   3.865122   4.933356   4.232559
    41  H    4.127673   2.473830   3.721806   2.460220   3.862974
    42  H    5.980313   4.364331   4.890449   2.574254   3.011832
    43  H    5.622097   4.763470   4.978253   3.204748   2.218698
    44  Cu   4.268104   4.691061   4.719243   4.276473   3.024460
                   31         32         33         34         35
    31  H    0.000000
    32  H    3.824781   0.000000
    33  H    3.003681   1.780283   0.000000
    34  H    3.889175   2.453183   2.516338   0.000000
    35  H    2.330645   3.093858   2.489626   1.791985   0.000000
    36  H    4.352416   2.651534   3.827431   2.458446   3.091439
    37  H    3.984134   3.829390   4.319879   2.522812   2.463195
    38  H    2.353262   4.065778   4.192475   3.821085   2.660866
    39  H    3.910308   4.159349   4.972520   4.300007   3.835002
    40  H    3.832936   2.548206   3.739369   4.078690   4.018665
    41  H    4.337127   5.929562   5.639580   7.457800   6.415404
    42  H    4.245138   5.987611   5.035133   7.263338   6.193294
    43  H    3.809465   4.436569   3.567927   5.968419   5.254656
    44  Cu   3.870084   2.530635   2.856558   4.739113   4.592278
                   36         37         38         39         40
    36  H    0.000000
    37  H    1.798877   0.000000
    38  H    3.079986   2.443903   0.000000
    39  H    2.456752   2.515877   1.792594   0.000000
    40  H    2.571690   3.768308   3.090190   2.451066   0.000000
    41  H    7.097001   7.510587   5.421271   6.041081   4.910708
    42  H    7.718928   7.987517   6.190894   7.250640   6.010304
    43  H    6.512782   7.045976   5.666193   6.541039   4.917830
    44  Cu   4.564933   5.628252   4.705878   4.912420   2.726366
                   41         42         43         44
    41  H    0.000000
    42  H    2.480075   0.000000
    43  H    3.091635   1.803412   0.000000
    44  Cu   3.827514   4.112955   2.608748   0.000000
 Symmetry turned off by external request.
 Stoichiometry    C15H26CuN2(2+,2)
 Framework group  C1[X(C15H26CuN2)]
 Deg. of freedom   126
 Full point group                 C1      NOp   1
 Rotational constants (GHZ):           0.7317945           0.3231655           0.2940365
 Leave Link  202 at Fri Mar  8 03:47:37 2024, MaxMem= 13421772800 cpu:               1.1 elap:               0.0
 (Enter /public/software/apps/Gaussian/g16/l301.exe)
 Standard basis: def2SVPP (5D, 7F)
 Ernie: Thresh=  0.10000D-02 Tol=  0.10000D-05 Strict=F.
   314 basis functions,   600 primitive gaussians,   333 cartesian basis functions
    79 alpha electrons       78 beta electrons
       nuclear repulsion energy      2030.0071757955 Hartrees.
 IExCor=  402 DFT=T Ex+Corr=B3LYP ExCW=0 ScaHFX=  0.200000
 ScaDFX=  0.800000  0.720000  1.000000  0.810000 ScalE2=  1.000000  1.000000
 IRadAn=      5 IRanWt=     -1 IRanGd=            0 ICorTp=0 IEmpDi=141
 NAtoms=   44 NActive=   44 NUniq=   44 SFac= 1.00D+00 NAtFMM=   60 NAOKFM=F Big=F
 Integral buffers will be    131072 words long.
 Raffenetti 2 integral format.
 Two-electron integral symmetry is turned off.
 R6Disp:  Grimme-D3(BJ) Dispersion energy=       -0.1117637557 Hartrees.
 Nuclear repulsion after empirical dispersion term =     2029.8954120399 Hartrees.
 Leave Link  301 at Fri Mar  8 03:47:37 2024, MaxMem= 13421772800 cpu:               0.6 elap:               0.0
 (Enter /public/software/apps/Gaussian/g16/l302.exe)
 NPDir=0 NMtPBC=     1 NCelOv=     1 NCel=       1 NClECP=     1 NCelD=      1
         NCelK=      1 NCelE2=     1 NClLst=     1 CellRange=     0.0.
 One-electron integrals computed using PRISM.
   1 Symmetry operations used in ECPInt.
 ECPInt:  NShTT=   13530 NPrTT=   56955 LenC2=   13233 LenP2D=   40234.
 LDataN:  DoStor=T MaxTD1= 4 Len=   56
 NBasis=   314 RedAO= T EigKep=  6.69D-04  NBF=   314
 NBsUse=   314 1.00D-06 EigRej= -1.00D+00 NBFU=   314
 Precomputing XC quadrature grid using
 IXCGrd= 4 IRadAn=           5 IRanWt=          -1 IRanGd=           0 AccXCQ= 0.00D+00.
 Generated NRdTot=       0 NPtTot=           0 NUsed=           0 NTot=          32
 NSgBfM=   333   332   333   333   333 MxSgAt=    44 MxSgA2=    44.
 Leave Link  302 at Fri Mar  8 03:47:38 2024, MaxMem= 13421772800 cpu:              15.8 elap:               0.5
 (Enter /public/software/apps/Gaussian/g16/l303.exe)
 DipDrv:  MaxL=1.
 Leave Link  303 at Fri Mar  8 03:47:38 2024, MaxMem= 13421772800 cpu:               2.2 elap:               0.1
 (Enter /public/software/apps/Gaussian/g16/l401.exe)
 ExpMin= 3.30D-02 ExpMax= 7.64D+04 ExpMxC= 1.15D+04 IAcc=3 IRadAn=         5 AccDes= 0.00D+00
 Harris functional with IExCor=  402 and IRadAn=       5 diagonalized for initial guess.
 HarFok:  IExCor=  402 AccDes= 0.00D+00 IRadAn=         5 IDoV= 1 UseB2=F ITyADJ=14
 ICtDFT=  3500011 ScaDFX=  1.000000  1.000000  1.000000  1.000000
 FoFCou: FMM=F IPFlag=           0 FMFlag=      100000 FMFlg1=           0
         NFxFlg=           0 DoJE=T BraDBF=F KetDBF=T FulRan=T
         wScrn=  0.000000 ICntrl=       500 IOpCl=  0 I1Cent=   200000004 NGrid=           0
         NMat0=    1 NMatS0=      1 NMatT0=    0 NMatD0=    1 NMtDS0=    0 NMtDT0=    0
 Symmetry not used in FoFCou.
 Harris En= -2336.23982828386    
 JPrj=0 DoOrth=F DoCkMO=F.
 Initial guess <Sx>= 0.0000 <Sy>= 0.0000 <Sz>= 0.5000 <S**2>= 0.7500 S= 0.5000
 Leave Link  401 at Fri Mar  8 03:47:39 2024, MaxMem= 13421772800 cpu:              21.6 elap:               0.7
 (Enter /public/software/apps/Gaussian/g16/l502.exe)
 Two-electron integral symmetry not used.
 UHF open shell SCF:
 Using DIIS extrapolation, IDIIS=  1040.
 NGot= 13421772800 LenX= 13421536159 LenY= 13421424829
 Requested convergence on RMS density matrix=1.00D-08 within 128 cycles.
 Requested convergence on MAX density matrix=1.00D-06.
 Requested convergence on             energy=1.00D-06.
 No special actions if energy rises.
 Fock matrices will be formed incrementally for  20 cycles.

 Cycle   1  Pass 1  IDiag  1:
 FoFJK:  IHMeth= 1 ICntrl=       0 DoSepK=F KAlg= 0 I1Cent=           0 FoldK=F
 IRaf= 950000000 NMat=       1 IRICut=       1 DoRegI=T DoRafI=F ISym2E= 0 IDoP0=0 IntGTp=1.
 FoFCou: FMM=F IPFlag=           0 FMFlag=      100000 FMFlg1=           0
         NFxFlg=           0 DoJE=F BraDBF=F KetDBF=F FulRan=T
         wScrn=  0.000000 ICntrl=         0 IOpCl=  1 I1Cent=           0 NGrid=           0
         NMat0=    1 NMatS0=      1 NMatT0=    0 NMatD0=    1 NMtDS0=    0 NMtDT0=    0
 Symmetry not used in FoFCou.
 E= -2334.55468294761    
 DIIS: error= 8.04D-02 at cycle   1 NSaved=   1.
 NSaved= 1 IEnMin= 1 EnMin= -2334.55468294761     IErMin= 1 ErrMin= 8.04D-02
 ErrMax= 8.04D-02  0.00D+00 EMaxC= 1.00D-01 BMatC= 9.17D+00 BMatP= 9.17D+00
 IDIUse=3 WtCom= 1.96D-01 WtEn= 8.04D-01
 Coeff-Com:  0.100D+01
 Coeff-En:   0.100D+01
 Coeff:      0.100D+01
 Gap=     0.785 Goal=   None    Shift=    0.000
 Gap=     0.334 Goal=   None    Shift=    0.000
 GapD=    0.334 DampG=1.000 DampE=0.250 DampFc=0.2500 IDamp=-1.
 Damping current iteration by 2.50D-01
 RMSDP=1.67D-02 MaxDP=2.38D+00              OVMax= 9.21D-01

 Cycle   2  Pass 1  IDiag  1:
 RMSU=  4.14D-03    CP:  9.80D-01
 E= -2335.01297098131     Delta-E=       -0.458288033703 Rises=F Damp=T
 DIIS: error= 2.40D-02 at cycle   2 NSaved=   2.
 NSaved= 2 IEnMin= 2 EnMin= -2335.01297098131     IErMin= 2 ErrMin= 2.40D-02
 ErrMax= 2.40D-02  0.00D+00 EMaxC= 1.00D-01 BMatC= 9.82D-01 BMatP= 9.17D+00
 IDIUse=3 WtCom= 7.60D-01 WtEn= 2.40D-01
 Coeff-Com: -0.321D+00 0.132D+01
 Coeff-En:   0.202D+00 0.798D+00
 Coeff:     -0.196D+00 0.120D+01
 Gap=    -0.173 Goal=   None    Shift=    0.000
 Gap=    -0.012 Goal=   None    Shift=    0.000
 RMSDP=6.70D-03 MaxDP=7.55D-01 DE=-4.58D-01 OVMax= 7.66D-01

 Cycle   3  Pass 1  IDiag  1:
 RMSU=  6.37D-03    CP:  9.21D-01  6.39D-01
 E= -2335.39745104915     Delta-E=       -0.384480067833 Rises=F Damp=F
 DIIS: error= 3.82D-02 at cycle   3 NSaved=   3.
 NSaved= 3 IEnMin= 3 EnMin= -2335.39745104915     IErMin= 2 ErrMin= 2.40D-02
 ErrMax= 3.82D-02  0.00D+00 EMaxC= 1.00D-01 BMatC= 3.28D+00 BMatP= 9.82D-01
 IDIUse=2 WtCom= 0.00D+00 WtEn= 1.00D+00
 EnCoef did   100 forward-backward iterations
 Coeff-En:   0.291D+00 0.193D-01 0.690D+00
 Coeff:      0.291D+00 0.193D-01 0.690D+00
 Gap=     0.291 Goal=   None    Shift=    0.000
 Gap=     0.015 Goal=   None    Shift=    0.000
 RMSDP=9.01D-03 MaxDP=1.26D+00 DE=-3.84D-01 OVMax= 9.65D-01

 Cycle   4  Pass 1  IDiag  1:
 RMSU=  6.34D-03    CP:  9.31D-01  1.57D+00  1.99D-01
 E= -2332.33859138508     Delta-E=        3.058859664065 Rises=F Damp=F
 DIIS: error= 4.31D-02 at cycle   4 NSaved=   4.
 NSaved= 4 IEnMin= 3 EnMin= -2335.39745104915     IErMin= 2 ErrMin= 2.40D-02
 ErrMax= 4.31D-02  0.00D+00 EMaxC= 1.00D-01 BMatC= 8.42D+00 BMatP= 9.82D-01
 IDIUse=2 WtCom= 0.00D+00 WtEn= 1.00D+00
 EnCoef did   100 forward-backward iterations
 Coeff-En:   0.265D+00 0.481D-02 0.593D+00 0.137D+00
 Coeff:      0.265D+00 0.481D-02 0.593D+00 0.137D+00
 Gap=     0.015 Goal=   None    Shift=    0.000
 Gap=     0.013 Goal=   None    Shift=    0.000
 RMSDP=6.88D-03 MaxDP=1.26D+00 DE= 3.06D+00 OVMax= 9.68D-01

 Cycle   5  Pass 1  IDiag  1:
 RMSU=  3.08D-03    CP:  9.29D-01  6.47D-01  5.58D-01  3.32D-01
 E= -2335.96737233429     Delta-E=       -3.628780949210 Rises=F Damp=F
 DIIS: error= 1.17D-02 at cycle   5 NSaved=   5.
 NSaved= 5 IEnMin= 5 EnMin= -2335.96737233429     IErMin= 5 ErrMin= 1.17D-02
 ErrMax= 1.17D-02  0.00D+00 EMaxC= 1.00D-01 BMatC= 4.87D-01 BMatP= 9.82D-01
 IDIUse=3 WtCom= 8.83D-01 WtEn= 1.17D-01
 Coeff-Com: -0.803D-01 0.351D+00 0.229D+00-0.462D-01 0.546D+00
 Coeff-En:   0.000D+00 0.000D+00 0.129D+00 0.000D+00 0.871D+00
 Coeff:     -0.709D-01 0.310D+00 0.217D+00-0.408D-01 0.584D+00
 Gap=     0.180 Goal=   None    Shift=    0.000
 Gap=     0.120 Goal=   None    Shift=    0.000
 RMSDP=1.81D-03 MaxDP=6.77D-02 DE=-3.63D+00 OVMax= 1.51D-01

 Cycle   6  Pass 1  IDiag  1:
 RMSU=  1.03D-03    CP:  9.26D-01  6.39D-01  7.00D-01  2.19D-01  6.95D-01
 E= -2336.04667745609     Delta-E=       -0.079305121799 Rises=F Damp=F
 DIIS: error= 5.81D-03 at cycle   6 NSaved=   6.
 NSaved= 6 IEnMin= 6 EnMin= -2336.04667745609     IErMin= 6 ErrMin= 5.81D-03
 ErrMax= 5.81D-03  0.00D+00 EMaxC= 1.00D-01 BMatC= 1.13D-01 BMatP= 4.87D-01
 IDIUse=3 WtCom= 9.42D-01 WtEn= 5.81D-02
 Coeff-Com: -0.146D-01 0.499D-01 0.392D-01-0.196D-01 0.377D+00 0.568D+00
 Coeff-En:   0.000D+00 0.000D+00 0.000D+00 0.000D+00 0.208D+00 0.792D+00
 Coeff:     -0.137D-01 0.470D-01 0.370D-01-0.184D-01 0.367D+00 0.581D+00
 Gap=     0.155 Goal=   None    Shift=    0.000
 Gap=     0.096 Goal=   None    Shift=    0.000
 RMSDP=6.80D-04 MaxDP=2.95D-02 DE=-7.93D-02 OVMax= 6.53D-02

 Cycle   7  Pass 1  IDiag  1:
 RMSU=  3.40D-04    CP:  9.26D-01  6.53D-01  6.57D-01  2.57D-01  8.21D-01
                    CP:  7.60D-01
 E= -2336.06852120945     Delta-E=       -0.021843753363 Rises=F Damp=F
 DIIS: error= 2.40D-03 at cycle   7 NSaved=   7.
 NSaved= 7 IEnMin= 7 EnMin= -2336.06852120945     IErMin= 7 ErrMin= 2.40D-03
 ErrMax= 2.40D-03  0.00D+00 EMaxC= 1.00D-01 BMatC= 6.12D-03 BMatP= 1.13D-01
 IDIUse=3 WtCom= 9.76D-01 WtEn= 2.40D-02
 Coeff-Com:  0.112D-01-0.222D-01-0.231D-01-0.407D-02 0.922D-01 0.284D+00
 Coeff-Com:  0.662D+00
 Coeff-En:   0.000D+00 0.000D+00 0.000D+00 0.000D+00 0.000D+00 0.000D+00
 Coeff-En:   0.100D+01
 Coeff:      0.109D-01-0.216D-01-0.226D-01-0.397D-02 0.900D-01 0.277D+00
 Coeff:      0.670D+00
 Gap=     0.158 Goal=   None    Shift=    0.000
 Gap=     0.101 Goal=   None    Shift=    0.000
 RMSDP=1.90D-04 MaxDP=1.08D-02 DE=-2.18D-02 OVMax= 1.99D-02

 Cycle   8  Pass 1  IDiag  1:
 RMSU=  1.56D-04    CP:  9.26D-01  6.40D-01  6.53D-01  2.54D-01  8.16D-01
                    CP:  7.93D-01  7.63D-01
 E= -2336.06959647041     Delta-E=       -0.001075260951 Rises=F Damp=F
 DIIS: error= 5.80D-04 at cycle   8 NSaved=   8.
 NSaved= 8 IEnMin= 8 EnMin= -2336.06959647041     IErMin= 8 ErrMin= 5.80D-04
 ErrMax= 5.80D-04  0.00D+00 EMaxC= 1.00D-01 BMatC= 1.39D-03 BMatP= 6.12D-03
 IDIUse=3 WtCom= 9.94D-01 WtEn= 5.80D-03
 Coeff-Com:  0.897D-02-0.176D-01-0.100D-01-0.726D-03 0.333D-01 0.126D+00
 Coeff-Com:  0.393D+00 0.466D+00
 Coeff-En:   0.000D+00 0.000D+00 0.000D+00 0.000D+00 0.000D+00 0.000D+00
 Coeff-En:   0.106D+00 0.894D+00
 Coeff:      0.892D-02-0.175D-01-0.995D-02-0.722D-03 0.332D-01 0.126D+00
 Coeff:      0.392D+00 0.469D+00
 Gap=     0.158 Goal=   None    Shift=    0.000
 Gap=     0.103 Goal=   None    Shift=    0.000
 RMSDP=7.97D-05 MaxDP=5.58D-03 DE=-1.08D-03 OVMax= 7.83D-03

 Cycle   9  Pass 1  IDiag  1:
 RMSU=  6.70D-05    CP:  9.26D-01  6.36D-01  6.53D-01  2.54D-01  8.16D-01
                    CP:  7.79D-01  8.10D-01  7.84D-01
 E= -2336.06989968601     Delta-E=       -0.000303215601 Rises=F Damp=F
 DIIS: error= 3.20D-04 at cycle   9 NSaved=   9.
 NSaved= 9 IEnMin= 9 EnMin= -2336.06989968601     IErMin= 9 ErrMin= 3.20D-04
 ErrMax= 3.20D-04  0.00D+00 EMaxC= 1.00D-01 BMatC= 2.31D-04 BMatP= 1.39D-03
 IDIUse=3 WtCom= 9.97D-01 WtEn= 3.20D-03
 Coeff-Com:  0.729D-03-0.751D-03 0.465D-02 0.592D-04-0.102D-01-0.106D-01
 Coeff-Com: -0.148D-01 0.213D+00 0.818D+00
 Coeff-En:   0.000D+00 0.000D+00 0.000D+00 0.000D+00 0.000D+00 0.000D+00
 Coeff-En:   0.000D+00 0.000D+00 0.100D+01
 Coeff:      0.727D-03-0.748D-03 0.463D-02 0.590D-04-0.102D-01-0.105D-01
 Coeff:     -0.147D-01 0.212D+00 0.819D+00
 Gap=     0.160 Goal=   None    Shift=    0.000
 Gap=     0.103 Goal=   None    Shift=    0.000
 RMSDP=4.50D-05 MaxDP=3.76D-03 DE=-3.03D-04 OVMax= 5.09D-03

 Cycle  10  Pass 1  IDiag  1:
 RMSU=  2.82D-05    CP:  9.27D-01  6.34D-01  6.55D-01  2.52D-01  8.11D-01
                    CP:  7.81D-01  8.07D-01  9.40D-01  1.06D+00
 E= -2336.06995740216     Delta-E=       -0.000057716149 Rises=F Damp=F
 DIIS: error= 2.32D-04 at cycle  10 NSaved=  10.
 NSaved=10 IEnMin=10 EnMin= -2336.06995740216     IErMin=10 ErrMin= 2.32D-04
 ErrMax= 2.32D-04  0.00D+00 EMaxC= 1.00D-01 BMatC= 4.84D-05 BMatP= 2.31D-04
 IDIUse=3 WtCom= 9.98D-01 WtEn= 2.32D-03
 Coeff-Com: -0.157D-02 0.279D-02 0.288D-02-0.174D-03-0.755D-02-0.104D-01
 Coeff-Com: -0.352D-01 0.744D-01 0.410D+00 0.565D+00
 Coeff-En:   0.000D+00 0.000D+00 0.000D+00 0.000D+00 0.000D+00 0.000D+00
 Coeff-En:   0.000D+00 0.000D+00 0.000D+00 0.100D+01
 Coeff:     -0.156D-02 0.279D-02 0.287D-02-0.174D-03-0.754D-02-0.104D-01
 Coeff:     -0.351D-01 0.742D-01 0.409D+00 0.566D+00
 Gap=     0.160 Goal=   None    Shift=    0.000
 Gap=     0.103 Goal=   None    Shift=    0.000
 RMSDP=1.40D-05 MaxDP=1.32D-03 DE=-5.77D-05 OVMax= 8.73D-04

 Cycle  11  Pass 1  IDiag  1:
 RMSU=  1.10D-05    CP:  9.26D-01  6.35D-01  6.55D-01  2.51D-01  8.11D-01
                    CP:  7.84D-01  8.18D-01  9.45D-01  1.10D+00  8.90D-01
 E= -2336.06996803707     Delta-E=       -0.000010634919 Rises=F Damp=F
 DIIS: error= 5.05D-05 at cycle  11 NSaved=  11.
 NSaved=11 IEnMin=11 EnMin= -2336.06996803707     IErMin=11 ErrMin= 5.05D-05
 ErrMax= 5.05D-05  0.00D+00 EMaxC= 1.00D-01 BMatC= 6.06D-06 BMatP= 4.84D-05
 IDIUse=1 WtCom= 1.00D+00 WtEn= 0.00D+00
 Coeff-Com: -0.755D-03 0.106D-02-0.308D-03 0.147D-03-0.191D-02-0.155D-02
 Coeff-Com: -0.860D-02 0.127D-01 0.213D-02 0.218D+00 0.779D+00
 Coeff:     -0.755D-03 0.106D-02-0.308D-03 0.147D-03-0.191D-02-0.155D-02
 Coeff:     -0.860D-02 0.127D-01 0.213D-02 0.218D+00 0.779D+00
 Gap=     0.160 Goal=   None    Shift=    0.000
 Gap=     0.103 Goal=   None    Shift=    0.000
 RMSDP=9.04D-06 MaxDP=5.36D-04 DE=-1.06D-05 OVMax= 6.59D-04

 Cycle  12  Pass 1  IDiag  1:
 RMSU=  6.40D-06    CP:  9.26D-01  6.35D-01  6.55D-01  2.52D-01  8.11D-01
                    CP:  7.86D-01  8.23D-01  9.69D-01  1.11D+00  9.55D-01
                    CP:  1.01D+00
 E= -2336.06997015348     Delta-E=       -0.000002116404 Rises=F Damp=F
 DIIS: error= 3.24D-05 at cycle  12 NSaved=  12.
 NSaved=12 IEnMin=12 EnMin= -2336.06997015348     IErMin=12 ErrMin= 3.24D-05
 ErrMax= 3.24D-05  0.00D+00 EMaxC= 1.00D-01 BMatC= 1.98D-06 BMatP= 6.06D-06
 IDIUse=1 WtCom= 1.00D+00 WtEn= 0.00D+00
 Coeff-Com:  0.281D-05 0.129D-03-0.640D-03 0.279D-04-0.330D-03-0.182D-02
 Coeff-Com: -0.461D-02 0.196D-02-0.451D-01-0.503D-01 0.164D+00 0.937D+00
 Coeff:      0.281D-05 0.129D-03-0.640D-03 0.279D-04-0.330D-03-0.182D-02
 Coeff:     -0.461D-02 0.196D-02-0.451D-01-0.503D-01 0.164D+00 0.937D+00
 Gap=     0.160 Goal=   None    Shift=    0.000
 Gap=     0.103 Goal=   None    Shift=    0.000
 RMSDP=5.07D-06 MaxDP=2.76D-04 DE=-2.12D-06 OVMax= 5.85D-04

 Cycle  13  Pass 1  IDiag  1:
 RMSU=  2.72D-06    CP:  9.26D-01  6.35D-01  6.55D-01  2.52D-01  8.12D-01
                    CP:  7.87D-01  8.29D-01  9.79D-01  1.13D+00  9.72D-01
                    CP:  1.20D+00  1.18D+00
 E= -2336.06997069790     Delta-E=       -0.000000544418 Rises=F Damp=F
 DIIS: error= 2.70D-05 at cycle  13 NSaved=  13.
 NSaved=13 IEnMin=13 EnMin= -2336.06997069790     IErMin=13 ErrMin= 2.70D-05
 ErrMax= 2.70D-05  0.00D+00 EMaxC= 1.00D-01 BMatC= 6.70D-07 BMatP= 1.98D-06
 IDIUse=1 WtCom= 1.00D+00 WtEn= 0.00D+00
 Coeff-Com:  0.134D-03-0.115D-03-0.172D-03-0.449D-05-0.304D-03-0.211D-02
 Coeff-Com: -0.554D-02 0.165D-02-0.154D-01-0.354D-01-0.863D-02 0.441D+00
 Coeff-Com:  0.625D+00
 Coeff:      0.134D-03-0.115D-03-0.172D-03-0.449D-05-0.304D-03-0.211D-02
 Coeff:     -0.554D-02 0.165D-02-0.154D-01-0.354D-01-0.863D-02 0.441D+00
 Coeff:      0.625D+00
 Gap=     0.160 Goal=   None    Shift=    0.000
 Gap=     0.103 Goal=   None    Shift=    0.000
 RMSDP=1.85D-06 MaxDP=8.78D-05 DE=-5.44D-07 OVMax= 1.26D-04

 Cycle  14  Pass 1  IDiag  1:
 RMSU=  9.92D-07    CP:  9.26D-01  6.35D-01  6.55D-01  2.52D-01  8.12D-01
                    CP:  7.87D-01  8.29D-01  9.86D-01  1.13D+00  9.80D-01
                    CP:  1.22D+00  1.30D+00  1.00D+00
 E= -2336.06997082734     Delta-E=       -0.000000129443 Rises=F Damp=F
 DIIS: error= 1.03D-05 at cycle  14 NSaved=  14.
 NSaved=14 IEnMin=14 EnMin= -2336.06997082734     IErMin=14 ErrMin= 1.03D-05
 ErrMax= 1.03D-05  0.00D+00 EMaxC= 1.00D-01 BMatC= 8.48D-08 BMatP= 6.70D-07
 IDIUse=1 WtCom= 1.00D+00 WtEn= 0.00D+00
 Coeff-Com:  0.638D-04-0.875D-04 0.998D-04-0.783D-05-0.116D-03-0.820D-03
 Coeff-Com: -0.285D-02-0.932D-04-0.171D-02 0.746D-02-0.324D-02-0.249D-01
 Coeff-Com:  0.178D+00 0.849D+00
 Coeff:      0.638D-04-0.875D-04 0.998D-04-0.783D-05-0.116D-03-0.820D-03
 Coeff:     -0.285D-02-0.932D-04-0.171D-02 0.746D-02-0.324D-02-0.249D-01
 Coeff:      0.178D+00 0.849D+00
 Gap=     0.160 Goal=   None    Shift=    0.000
 Gap=     0.103 Goal=   None    Shift=    0.000
 RMSDP=9.62D-07 MaxDP=4.53D-05 DE=-1.29D-07 OVMax= 7.31D-05

 Cycle  15  Pass 1  IDiag  1:
 RMSU=  5.18D-07    CP:  9.26D-01  6.35D-01  6.55D-01  2.52D-01  8.12D-01
                    CP:  7.87D-01  8.29D-01  9.88D-01  1.14D+00  9.85D-01
                    CP:  1.23D+00  1.33D+00  1.12D+00  1.16D+00
 E= -2336.06997085390     Delta-E=       -0.000000026555 Rises=F Damp=F
 DIIS: error= 1.66D-06 at cycle  15 NSaved=  15.
 NSaved=15 IEnMin=15 EnMin= -2336.06997085390     IErMin=15 ErrMin= 1.66D-06
 ErrMax= 1.66D-06  0.00D+00 EMaxC= 1.00D-01 BMatC= 1.01D-08 BMatP= 8.48D-08
 IDIUse=1 WtCom= 1.00D+00 WtEn= 0.00D+00
 Coeff-Com:  0.284D-05-0.145D-04 0.549D-04-0.544D-06 0.681D-04 0.203D-03
 Coeff-Com:  0.819D-04-0.663D-03-0.182D-02 0.653D-02 0.986D-02-0.478D-01
 Coeff-Com: -0.596D-01 0.173D+00 0.920D+00
 Coeff:      0.284D-05-0.145D-04 0.549D-04-0.544D-06 0.681D-04 0.203D-03
 Coeff:      0.819D-04-0.663D-03-0.182D-02 0.653D-02 0.986D-02-0.478D-01
 Coeff:     -0.596D-01 0.173D+00 0.920D+00
 Gap=     0.160 Goal=   None    Shift=    0.000
 Gap=     0.103 Goal=   None    Shift=    0.000
 RMSDP=4.55D-07 MaxDP=3.42D-05 DE=-2.66D-08 OVMax= 4.58D-05

 Cycle  16  Pass 1  IDiag  1:
 RMSU=  2.16D-07    CP:  9.26D-01  6.35D-01  6.55D-01  2.52D-01  8.12D-01
                    CP:  7.87D-01  8.29D-01  9.89D-01  1.14D+00  9.89D-01
                    CP:  1.24D+00  1.33D+00  1.18D+00  1.35D+00  1.20D+00
 E= -2336.06997085833     Delta-E=       -0.000000004438 Rises=F Damp=F
 DIIS: error= 1.40D-06 at cycle  16 NSaved=  16.
 NSaved=16 IEnMin=16 EnMin= -2336.06997085833     IErMin=16 ErrMin= 1.40D-06
 ErrMax= 1.40D-06  0.00D+00 EMaxC= 1.00D-01 BMatC= 3.51D-09 BMatP= 1.01D-08
 IDIUse=1 WtCom= 1.00D+00 WtEn= 0.00D+00
 Coeff-Com: -0.956D-05 0.122D-04 0.450D-05-0.661D-06 0.608D-04 0.283D-03
 Coeff-Com:  0.648D-03-0.330D-03-0.136D-02 0.116D-03 0.275D-02-0.123D-01
 Coeff-Com: -0.443D-01-0.539D-01 0.401D+00 0.708D+00
 Coeff:     -0.956D-05 0.122D-04 0.450D-05-0.661D-06 0.608D-04 0.283D-03
 Coeff:      0.648D-03-0.330D-03-0.136D-02 0.116D-03 0.275D-02-0.123D-01
 Coeff:     -0.443D-01-0.539D-01 0.401D+00 0.708D+00
 Gap=     0.160 Goal=   None    Shift=    0.000
 Gap=     0.103 Goal=   None    Shift=    0.000
 RMSDP=1.80D-07 MaxDP=1.20D-05 DE=-4.44D-09 OVMax= 1.96D-05

 Cycle  17  Pass 1  IDiag  1:
 RMSU=  9.54D-08    CP:  9.26D-01  6.35D-01  6.55D-01  2.52D-01  8.12D-01
                    CP:  7.87D-01  8.29D-01  9.89D-01  1.14D+00  9.90D-01
                    CP:  1.24D+00  1.34D+00  1.19D+00  1.40D+00  1.37D+00
                    CP:  9.90D-01
 E= -2336.06997085935     Delta-E=       -0.000000001011 Rises=F Damp=F
 DIIS: error= 4.45D-07 at cycle  17 NSaved=  17.
 NSaved=17 IEnMin=17 EnMin= -2336.06997085935     IErMin=17 ErrMin= 4.45D-07
 ErrMax= 4.45D-07  0.00D+00 EMaxC= 1.00D-01 BMatC= 3.63D-10 BMatP= 3.51D-09
 IDIUse=1 WtCom= 1.00D+00 WtEn= 0.00D+00
 Coeff-Com: -0.486D-05 0.884D-05-0.868D-05-0.534D-06 0.135D-04 0.986D-04
 Coeff-Com:  0.306D-03 0.584D-04-0.692D-04-0.156D-02-0.249D-02 0.251D-02
 Coeff-Com: -0.456D-02-0.479D-01-0.415D-02 0.299D+00 0.758D+00
 Coeff:     -0.486D-05 0.884D-05-0.868D-05-0.534D-06 0.135D-04 0.986D-04
 Coeff:      0.306D-03 0.584D-04-0.692D-04-0.156D-02-0.249D-02 0.251D-02
 Coeff:     -0.456D-02-0.479D-01-0.415D-02 0.299D+00 0.758D+00
 Gap=     0.160 Goal=   None    Shift=    0.000
 Gap=     0.103 Goal=   None    Shift=    0.000
 RMSDP=8.81D-08 MaxDP=6.41D-06 DE=-1.01D-09 OVMax= 1.07D-05

 Cycle  18  Pass 1  IDiag  1:
 RMSU=  3.82D-08    CP:  9.26D-01  6.35D-01  6.55D-01  2.52D-01  8.12D-01
                    CP:  7.87D-01  8.29D-01  9.89D-01  1.14D+00  9.90D-01
                    CP:  1.25D+00  1.35D+00  1.20D+00  1.43D+00  1.42D+00
                    CP:  1.16D+00  1.07D+00
 E= -2336.06997085954     Delta-E=       -0.000000000196 Rises=F Damp=F
 DIIS: error= 1.54D-07 at cycle  18 NSaved=  18.
 NSaved=18 IEnMin=18 EnMin= -2336.06997085954     IErMin=18 ErrMin= 1.54D-07
 ErrMax= 1.54D-07  0.00D+00 EMaxC= 1.00D-01 BMatC= 6.10D-11 BMatP= 3.63D-10
 IDIUse=1 WtCom= 1.00D+00 WtEn= 0.00D+00
 Coeff-Com: -0.573D-06 0.999D-06-0.169D-05 0.561D-07-0.671D-05-0.998D-05
 Coeff-Com: -0.689D-05 0.124D-03 0.439D-03-0.295D-03-0.154D-02-0.438D-04
 Coeff-Com:  0.266D-02-0.619D-02-0.479D-01-0.130D-01 0.234D+00 0.832D+00
 Coeff:     -0.573D-06 0.999D-06-0.169D-05 0.561D-07-0.671D-05-0.998D-05
 Coeff:     -0.689D-05 0.124D-03 0.439D-03-0.295D-03-0.154D-02-0.438D-04
 Coeff:      0.266D-02-0.619D-02-0.479D-01-0.130D-01 0.234D+00 0.832D+00
 Gap=     0.160 Goal=   None    Shift=    0.000
 Gap=     0.103 Goal=   None    Shift=    0.000
 RMSDP=4.00D-08 MaxDP=2.50D-06 DE=-1.96D-10 OVMax= 4.85D-06

 Cycle  19  Pass 1  IDiag  1:
 RMSU=  1.73D-08    CP:  9.26D-01  6.35D-01  6.55D-01  2.52D-01  8.12D-01
                    CP:  7.87D-01  8.29D-01  9.89D-01  1.14D+00  9.90D-01
                    CP:  1.25D+00  1.35D+00  1.21D+00  1.44D+00  1.45D+00
                    CP:  1.20D+00  1.21D+00  1.08D+00
 E= -2336.06997085956     Delta-E=       -0.000000000023 Rises=F Damp=F
 DIIS: error= 5.54D-08 at cycle  19 NSaved=  19.
 NSaved=19 IEnMin=19 EnMin= -2336.06997085956     IErMin=19 ErrMin= 5.54D-08
[...]
 .30924476,0.00107818,0.00005600,-0.00033271,0.00010449,-0.00036465,-0.
 00000544,0.00084815,-0.00042340,-0.00088466,0.00054146,-0.00059504,0.0
 0119195,0.00072552,0.00016474,-0.00021807,-0.00026416,-0.00006281,0.00
 015729,0.00119750,0.00169532,0.00053565,-0.01978206,0.02302804,0.00683
 646,-0.00322312,-0.00209825,-0.00170810,-0.00063167,-0.00039528,-0.001
 00797,0.00025587,0.00005864,0.00013900,-0.00007031,-0.00000507,0.00006
 670,0.00004570,0.00000163,-0.00004462,-0.00010557,0.00002871,0.0001414
 1,0.00042415,0.00011654,-0.00031229,-0.11230251,0.10458524,0.03874852,
 0.00716089,-0.01340954,-0.00409218,-0.00019843,0.00003926,0.00016837,0
 .00011082,0.00013397,0.00016893,-0.00027994,0.00015235,0.00011773,0.00
 000230,0.00000759,-0.00005177,0.00004903,-0.00001392,0.00008042,0.0002
 3545,0.00002764,-0.00026233,0.00002178,-0.00014795,-0.00001754,-0.0001
 8888,-0.00026144,0.00032792,-0.00001282,0.00001067,0.00002898,-0.00023
 327,-0.00105229,0.00008253,0.00042349,-0.00016544,-0.00034413,0.000954
 45,0.00020992,0.00002437,0.00007333,0.00001543,-0.00005225,-0.00099895
 ,0.00113572,0.00032193,-0.00002288,0.00004581,0.00004613,-0.00002196,-
 0.00002640,-0.00001631,-0.00000485,-0.00002273,0.00003727,0.00011490,-
 0.00001287,-0.00000530,-0.00002418,-0.00002191,0.00000545,-0.00001337,
 -0.00000194,0.00000865,0.00009637,0.00002629,-0.00007659,-0.00001241,0
 .00002162,0.00003249,0.00000822,-0.00008350,0.00004837,0.12413060,0.00
 122815,0.00137930,-0.00035807,-0.00029393,-0.00018837,0.00002352,0.000
 50359,0.00053579,0.00066480,-0.00085056,0.00157787,-0.00351922,-0.0002
 3133,0.00018505,0.00032495,0.00002050,0.00030825,0.00013480,-0.0012478
 5,0.00059734,0.00009438,-0.00186035,0.00179169,0.00109806,-0.00116862,
 0.00076406,0.00077940,0.00033824,0.00015112,-0.00041161,-0.00043657,-0
 .00005393,-0.00003142,0.00020587,0.00015052,0.00005372,-0.00016905,-0.
 00005204,-0.00002435,0.00018110,0.00006510,0.00008412,-0.00038354,-0.0
 0035899,-0.00014478,0.10526310,-0.21202504,-0.05962040,0.01216657,-0.0
 2286748,-0.00592953,-0.00085302,0.00011686,-0.00014839,-0.00004644,0.0
 0024792,0.00031971,-0.00001799,0.00012086,0.00013597,0.00001382,0.0000
 1880,-0.00005178,-0.00021278,0.00018696,0.00001411,-0.00059271,0.00005
 243,-0.00024550,0.00008157,0.00010890,-0.00011897,0.00029065,0.0003461
 9,0.00002643,0.00001955,-0.00002783,0.00000047,-0.00026630,0.00023539,
 -0.00015055,-0.00000627,0.00017614,0.00009653,0.00035776,0.00032434,0.
 00013932,-0.00011872,0.00007042,-0.00009372,-0.00003848,-0.00000291,-0
 .00011716,0.00002556,0.00000833,-0.00005894,0.00001191,0.00001372,0.00
 001410,-0.00004753,-0.00002423,-0.00000636,-0.00001113,-0.00000878,-0.
 00001998,0.00001622,0.00000227,-0.00000034,0.00002285,0.00001869,0.000
 02881,-0.00003576,0.00000717,-0.00000697,-0.00003453,0.00000056,-0.000
 00734,0.00005749,-0.00004509,-0.00001132,-0.10972427,0.22828209,-0.000
 35906,-0.00035061,-0.00003183,0.00000053,-0.00028676,-0.00001514,0.002
 81602,-0.00106315,0.00082685,0.01532089,-0.02652221,-0.03014086,0.0001
 5899,-0.00215212,0.00105879,-0.00009862,-0.00016923,-0.00028835,0.0004
 3831,0.00016269,0.00002289,-0.00652204,0.00825535,0.00345867,-0.001268
 47,-0.00057180,-0.00004549,-0.00260130,-0.00015666,-0.00086362,0.00147
 362,0.00019975,0.00033660,-0.00081644,-0.00041744,-0.00005842,0.000557
 58,0.00007148,0.00006561,-0.00087804,0.00022884,-0.00014336,0.00133733
 ,0.00012617,0.00015552,0.03796494,-0.05879430,-0.06312718,-0.00545162,
 0.00901421,0.00384437,0.00009617,-0.00015974,0.00016536,-0.00005227,-0
 .00000931,-0.00008091,-0.00018561,0.00028600,0.00005147,-0.00002630,0.
 00000243,0.00004303,-0.00016085,0.00057153,0.00022146,-0.00080422,0.00
 058227,0.00006925,-0.00040005,0.00051864,0.00005327,-0.00028052,0.0007
 2700,-0.00001134,-0.00000468,0.00002861,0.00003558,0.00012713,-0.00001
 833,0.00020655,-0.00002584,0.00003446,-0.00008152,-0.00039767,0.000606
 91,0.00056925,0.00020753,-0.00002869,0.00006232,-0.00057985,0.00041812
 ,0.00031266,-0.00011963,0.00002825,0.00010745,-0.00007868,-0.00002347,
 -0.00006126,0.00012875,0.00006530,0.00005932,0.00015984,0.00001182,-0.
 00000522,-0.00007224,-0.00000746,-0.00000472,-0.00012081,-0.00001806,-
 0.00008693,0.00017042,0.00000712,-0.00001826,0.00014545,0.00001061,0.0
 0005653,-0.00012503,0.00003740,0.00009494,-0.04036013,0.06508011,0.084
 25238,0.00309485,-0.00075971,-0.03099587,-0.00660778,-0.00091753,-0.00
 160566,-0.00052083,-0.00047082,0.00013387,-0.00157213,-0.00344491,0.00
 198318,0.00068823,-0.00007534,0.00057699,0.00013913,0.00017492,0.00009
 400,0.00016150,-0.00005174,-0.00011829,0.00028877,0.00041757,0.0006192
 9,-0.00040845,0.00003173,0.00024017,0.00045232,-0.00012749,0.00009029,
 -0.00023967,-0.00009379,-0.00012343,0.00016987,0.00011228,0.00004595,-
 0.00011529,-0.00002431,-0.00002929,0.00019172,-0.00008130,0.00008362,-
 0.00037314,0.00000893,-0.00018082,-0.00179691,0.00216679,0.01347698,-0
 .04728571,-0.00034798,0.01687798,0.00108455,0.00036779,0.00007475,0.00
 109098,-0.00011135,0.00051018,0.00050922,-0.00037368,0.00000778,0.0002
 9276,0.00014666,-0.00182999,0.00011071,0.00008364,0.00002159,0.0000692
 3,0.00003686,0.00006507,-0.00012563,-0.00013702,0.00006054,-0.00005376
 ,-0.00011849,0.00006862,-0.00000152,-0.00001841,-0.00006670,0.00001549
 ,0.00001380,-0.00000943,0.00002359,0.00005154,-0.00002849,-0.00046637,
 -0.00054345,-0.00018648,-0.00004044,0.00009312,0.00013429,0.00003108,0
 .00002054,-0.00005242,0.00003092,-0.00000511,-0.00002042,0.00003554,0.
 00001044,0.00002340,-0.00003614,-0.00001764,-0.00001417,-0.00003234,-0
 .00000699,-0.00000357,0.00001560,0.00000150,-0.00000106,0.00002188,0.0
 0000629,0.00001993,-0.00003911,-0.00000367,-0.00000811,-0.00004820,0.0
 0000046,-0.00001674,0.00003202,-0.00000140,-0.00004540,0.00056930,0.00
 023955,-0.00038568,0.05217236,0.00148693,-0.00100768,-0.00416198,-0.00
 162303,0.00029392,-0.00087083,-0.00066897,0.00005284,-0.00034188,-0.00
 348631,-0.00556451,0.00255254,0.00028540,0.00103826,0.00162229,0.00014
 070,0.00000398,-0.00000613,0.00024048,-0.00008770,-0.00007408,0.000496
 99,0.00083388,0.00021502,-0.00011381,0.00009047,-0.00007038,0.00015799
 ,-0.00000228,-0.00013519,-0.00010016,0.00010224,0.00003812,0.00001519,
 -0.00002703,-0.00001933,0.00000641,0.00002181,0.00000677,-0.00002185,0
 .00002735,-0.00003794,0.00007768,-0.00001216,0.00006012,-0.00118803,0.
 00223170,0.02687315,-0.00020416,-0.04779277,-0.01642907,-0.00003795,0.
 00039364,0.00059116,0.00025062,0.00005542,-0.00032129,-0.00026505,0.00
 021244,0.00065954,-0.00006692,0.00056460,-0.00032305,0.00009358,0.0000
 3181,0.00001391,0.00002128,0.00004627,-0.00006957,-0.00026845,-0.00042
 658,0.00024731,0.00008993,0.00002122,-0.00008004,-0.00002867,0.0000125
 2,-0.00004624,-0.00000531,-0.00003147,0.00003566,0.00002659,0.00003715
 ,-0.00004635,-0.00040940,-0.00005498,-0.00024404,0.00004184,-0.0000511
 0,-0.00009838,0.00001178,0.00001243,-0.00001932,-0.00000677,-0.0000001
 1,-0.00000868,-0.00002734,0.00001248,-0.00001129,0.00000666,0.00000740
 ,0.00000146,-0.00000136,0.00000589,0.00000149,-0.00000111,-0.00000247,
 0.00000097,-0.00000215,-0.00000380,-0.00000126,-0.00000877,0.00000007,
 -0.00000033,0.00001871,-0.00000281,-0.00000012,0.00000123,-0.00001928,
 -0.00000462,0.00067290,0.00081164,0.00028920,0.00249069,0.05092203,0.0
 0021510,-0.00036469,-0.00929110,-0.00266898,-0.00042371,0.00070389,0.0
 0014129,-0.00031654,0.00031738,0.00076777,0.00176923,0.00077553,-0.000
 38828,-0.00044690,-0.00008152,-0.00008904,-0.00009447,0.00004483,-0.00
 000566,0.00017810,0.00019298,-0.00072240,-0.00078992,0.00025530,0.0004
 4567,0.00007994,-0.00010153,-0.00045610,-0.00010722,0.00004493,0.00020
 080,0.00000545,0.00004609,-0.00008064,-0.00004959,-0.00001179,0.000050
 79,0.00000403,0.00000549,-0.00008789,0.00000862,-0.00001308,0.00014312
 ,0.00004457,0.00003463,0.00092211,-0.00030343,-0.00979451,0.01574414,-
 0.01280892,-0.31670629,0.00011051,0.00019685,0.00056537,0.00009168,-0.
 00014712,0.00043937,0.00022284,-0.00009336,0.00012836,0.00033572,0.000
 14563,-0.00054420,0.00003294,-0.00000324,-0.00000904,0.00001466,0.0000
 1325,-0.00000282,0.00003862,0.00008116,-0.00002977,-0.00001250,0.00002
 403,-0.00000894,0.00001686,-0.00000491,0.00004616,-0.00000809,0.000003
 54,-0.00000553,-0.00001263,-0.00001312,0.00001923,0.00023771,0.0001058
 0,0.00054138,0.00012601,-0.00003417,-0.00009877,-0.00003046,-0.0000085
 8,0.00002054,-0.00001892,0.00000655,0.00001794,-0.00000542,-0.00001378
 ,-0.00000906,0.00001458,0.00000699,0.00000681,0.00001773,0.00000023,0.
 00000258,-0.00000566,0.00000062,0.00000076,-0.00001066,-0.00000235,-0.
 00000814,0.00002141,0.00000309,0.00000446,0.00000889,0.00000158,0.0000
 0520,-0.00001814,0.00000616,0.00002112,-0.00018446,0.00000292,0.000535
 48,-0.01532053,0.01354576,0.33601938,-0.02205667,0.02433953,0.00635988
 ,0.00076479,0.00140643,0.00298163,-0.00015580,-0.00057708,-0.00041817,
 0.00044901,0.00056272,-0.00156200,0.00002262,-0.00050507,-0.00018030,0
 .00008891,0.00015265,0.00013105,0.00017822,0.00003935,0.00020319,0.000
 42051,0.00044227,-0.00053302,-0.00315309,-0.00058069,-0.00005650,-0.00
 013690,-0.00026136,-0.00020121,-0.00005552,-0.00008831,-0.00019784,0.0
 0015301,0.00005139,0.00002349,-0.00012369,-0.00003899,-0.00003672,0.00
 013452,-0.00003588,0.00009990,-0.00016897,-0.00004757,-0.00015194,0.00
 786415,-0.01261798,-0.00200564,-0.11459577,0.10149260,0.02792207,-0.00
 469590,-0.00136746,-0.00388521,0.00076310,0.00005469,0.00029033,0.0015
 5467,-0.00097388,-0.00127360,0.00023775,-0.00082712,-0.00007902,0.0000
 9848,0.00008367,-0.00002440,-0.00002135,-0.00013236,0.00026618,-0.0000
 7064,0.00008111,-0.00003323,-0.00011755,0.00004893,0.00011347,-0.00001
 387,-0.00002387,-0.00003344,0.00004348,0.00006787,-0.00002322,0.000022
 33,0.00010666,-0.00004231,-0.00013286,-0.00009276,-0.00011531,-0.00288
 615,-0.00094469,0.00000473,0.00011294,-0.00021273,-0.00000010,0.000041
 04,-0.00000048,-0.00002066,0.00004465,-0.00000601,0.00003963,-0.000016
 34,-0.00001472,-0.00001061,-0.00002197,-0.00000374,0.00000358,0.000019
 37,0.00000097,-0.00000280,0.00002378,0.00000540,0.00001725,-0.00000899
 ,0.00001176,-0.00000205,-0.00003451,0.00000546,0.00000208,0.00002334,-
 0.00001293,0.00000181,-0.00080859,-0.00228252,0.00085458,-0.00166276,0
 .00245902,0.00039865,0.13737799,-0.00177773,0.00288522,-0.00051214,-0.
 00039878,-0.00025734,-0.00034511,-0.00021397,0.00040609,0.00052509,0.0
 0112071,0.00030057,-0.00210507,-0.00079890,0.00092727,0.00061659,0.000
 09282,-0.00015629,-0.00021709,-0.00027908,0.00015745,-0.00012562,0.001
 86974,-0.00002847,0.00048825,0.00042817,-0.00063762,0.00021612,0.00047
 823,0.00077554,-0.00002917,-0.00027326,0.00031689,0.00026401,-0.000030
 51,-0.00009359,-0.00003859,0.00007809,0.00004931,0.00005425,-0.0001428
 0,0.00011662,-0.00013718,0.00019990,-0.00025319,0.00015150,0.01415131,
 -0.02427248,-0.00757222,0.10163319,-0.19179015,-0.03766202,-0.00092697
 ,0.00114999,-0.00019913,-0.00019154,0.00095926,0.00039198,-0.00078369,
 0.00048186,0.00070290,-0.00012436,0.00023798,0.00034939,0.00001824,-0.
 00004667,0.00004958,-0.00011858,0.00009610,-0.00030868,-0.00006032,-0.
 00007384,0.00012218,0.00019551,0.00031479,-0.00023955,-0.00001790,0.00
 002079,0.00003431,-0.00002903,0.00025819,-0.00003138,-0.00013361,-0.00
 005239,0.00006500,0.00001948,0.00000650,0.00005411,-0.00007467,0.00133
 314,-0.00045779,0.00012798,0.00038228,-0.00025880,-0.00001097,0.000005
 56,-0.00004533,-0.00003611,0.00007236,-0.00001800,0.00002737,0.0000273
 6,0.00000358,-0.00001450,0.00001005,-0.00001204,-0.00001797,0.00000609
 ,-0.00000448,-0.00001605,-0.00000874,-0.00001191,0.00000622,-0.0000309
 9,0.00001670,0.00006505,-0.00000743,-0.00000809,-0.00000712,0.00009015
 ,-0.00001094,-0.00292825,-0.00346465,0.00298300,0.00135678,-0.00186800
 ,-0.00038242,-0.11135786,0.21293819,-0.00673735,0.00876201,0.00060462,
 -0.00057149,0.00063748,0.00092424,-0.00021831,0.00045559,0.00016880,-0
 .00044660,0.00053650,0.00234910,0.00006125,0.00042809,0.00015203,0.000
 02259,-0.00000529,-0.00005689,-0.00030545,0.00003734,-0.00011341,0.000
 06738,-0.00082186,0.00014042,-0.00016096,-0.00081196,0.00049700,0.0011
 4785,0.00068799,0.00000095,-0.00049847,-0.00003576,0.00007452,0.000152
 97,0.00012102,0.00000590,-0.00008101,-0.00000728,0.00000508,0.00015994
 ,-0.00000810,-0.00001754,-0.00027744,-0.00016227,0.00000351,-0.0061002
 6,0.00989418,-0.00088984,0.02273096,-0.03194922,-0.05533851,-0.0017055
 0,-0.00017582,0.00007184,0.00057108,-0.00016243,0.00064994,-0.00055775
 ,0.00019825,0.00016407,0.00005316,-0.00015902,0.00037041,0.00000522,-0
 .00007096,-0.00000731,0.00005328,-0.00013899,-0.00023503,0.00004933,-0
 .00009333,0.00001634,0.00012864,-0.00003326,-0.00012489,-0.00000371,0.
 00001009,0.00001016,-0.00000649,0.00004547,-0.00003651,-0.00002161,-0.
 00008390,0.00004326,0.00008254,-0.00004855,0.00003481,-0.00028415,0.00
 031386,0.00020196,0.00006430,0.00015116,-0.00012648,0.00001669,0.00001
 523,-0.00003737,-0.00001163,0.00004975,0.00000125,-0.00003321,-0.00001
 072,-0.00000838,-0.00003916,-0.00000725,-0.00000240,0.00000738,0.00000
 601,-0.00000082,0.00001865,0.00000784,0.00001327,-0.00003418,-0.000015
 84,0.00000625,-0.00000984,-0.00000159,-0.00001636,0.00002070,0.0000249
 6,-0.00003435,0.00067095,0.00111160,0.00037895,0.01748928,-0.02498922,
 -0.00392751,-0.02694970,0.03735218,0.05553376,-0.00033807,-0.00121659,
 0.00192293,-0.00502188,0.00927847,0.00611404,-0.00611933,0.01282861,0.
 00065208,-0.01419913,0.02017425,0.00459012,0.00254229,-0.00125238,-0.0
 0120474,0.00115117,-0.00097722,-0.00034386,-0.00094703,0.00042649,-0.0
 0034562,0.00145881,-0.00115924,0.00050144,-0.00412705,-0.00232867,-0.0
 0909863,-0.04597647,-0.01472490,-0.01754083,-0.00846046,0.00376758,-0.
 00323213,-0.00218445,0.00152028,0.00150457,0.00017112,-0.00031128,0.00
 029390,0.00167213,-0.00027676,0.00100635,-0.00998441,-0.00787117,-0.00
 004469,0.00082582,0.00449004,0.00306195,-0.00100584,0.00087321,-0.0000
 3504,-0.00021726,-0.00002952,-0.00112387,-0.00019452,-0.00004160,-0.00
 015759,-0.00067522,-0.00933984,-0.00338764,0.00139013,-0.00224537,-0.0
 0180984,-0.00033759,0.00041363,-0.00031731,-0.00181672,-0.00082581,-0.
 00108666,0.00019052,-0.00030048,0.00010810,-0.00040259,-0.00054006,0.0
 0038752,-0.00048356,0.00042989,0.00009497,-0.00001301,0.00024018,0.000
 17879,-0.00013918,-0.00021101,-0.00001080,-0.00050340,0.00048802,0.000
 07325,0.00019737,-0.00002882,0.00002838,0.00048961,0.00024006,0.000499
 66,-0.00116368,0.00057925,0.00238939,-0.00065867,0.00073444,-0.0009492
 0,-0.00001523,-0.00018722,-0.00011921,0.00102221,0.00029770,0.00004452
 ,-0.00014288,0.00005906,0.00004408,0.00017940,0.00040368,-0.00008380,0
 .00019914,-0.00013257,0.00015502,-0.00019725,0.00024820,-0.00019259,-0
 .00008791,-0.00012725,0.00097556,0.00002796,-0.00011379,0.00021756,0.0
 0013455,-0.00055702,-0.00019316,0.00049926,-0.00110428,0.00148010,0.09
 326131,0.00117649,-0.00130347,-0.00064249,-0.00353549,0.00640226,0.001
 89209,0.01082622,-0.00583197,0.00083277,0.01443334,-0.04598759,-0.0082
 5388,0.00114664,-0.01604741,0.00015134,-0.00038800,0.00014674,-0.00060
 756,0.00031157,-0.00035225,-0.00023452,-0.00147448,-0.00030740,0.00036
 656,-0.00474837,-0.00028013,-0.00513120,-0.00629306,-0.01078253,-0.003
 07832,0.00122433,0.00392903,0.00110045,0.00213302,-0.00198212,-0.00026
 028,-0.00139121,0.00022442,-0.00032075,0.00191120,-0.00124967,0.001569
 00,-0.01263023,-0.00430011,-0.00214499,0.00517301,-0.00908479,-0.01282
 585,-0.00139872,0.00420511,0.00036523,0.00003955,-0.00006941,-0.000189
 95,-0.00037421,-0.00002492,0.00029646,0.00294756,-0.00303434,-0.001896
 97,0.00008909,-0.00118926,0.00022777,0.00008100,-0.00057444,0.00051185
 ,-0.00086591,-0.00029399,0.00027258,0.00006787,-0.00026029,0.00054558,
 -0.00072781,0.00046954,0.00078498,0.00036369,0.00014721,0.00026160,0.0
 0002614,-0.00002369,0.00006729,0.00008551,0.00011823,0.00021333,0.0004
 7086,0.00010419,0.00023394,0.00032699,0.00005780,0.00065907,0.00056138
 ,0.00026099,-0.00008483,0.00078506,0.00031368,-0.00094320,0.00084581,-
 0.00108533,0.00138080,0.00038896,0.00010590,0.00010234,-0.00041067,-0.
 00006514,-0.00001577,0.00007430,0.00000434,0.00001581,0.00021221,-0.00
 015990,0.00024608,0.00001911,-0.00002941,0.00002953,-0.00055354,0.0000
 0370,-0.00020466,-0.00041574,-0.00002687,0.00066413,-0.00041708,0.0004
 6360,0.00040210,-0.00009976,-0.00088871,0.00017433,0.00159358,-0.00128
 377,-0.00105399,-0.01159020,0.08956216,0.00260844,-0.00003880,-0.00001
 716,-0.00249069,-0.00002386,-0.00154068,0.00037702,-0.00013529,0.00226
 161,0.00391047,-0.01050662,-0.00696415,-0.00083430,0.00042405,0.002016
 62,0.00031804,0.00062842,-0.00034075,-0.00009874,-0.00039355,0.0005308
 2,-0.00101286,-0.00110997,-0.00121616,-0.01097206,-0.00404688,-0.00700
 558,-0.01171559,-0.00463264,-0.00984827,-0.00279207,0.00100394,0.00426
 110,0.00052658,0.00042097,-0.00175010,-0.00017505,-0.00016123,0.000382
 34,0.00155528,0.00048430,-0.00067390,-0.00069555,-0.00106077,0.0035250
 4,0.00509865,-0.01357528,-0.00584641,0.00639212,-0.00691288,0.00004346
 ,-0.00082377,0.00022828,-0.00092180,-0.00002612,0.00003314,-0.00023691
 ,-0.00019566,-0.00023931,0.00003127,-0.00023113,0.00072305,0.00010761,
 -0.00079126,0.00114674,-0.00079478,-0.00047553,0.00007531,-0.00018136,
 -0.00008658,0.00116809,-0.00093586,0.00038547,0.00065094,-0.00035885,0
 .00002647,0.00009149,-0.00007385,0.00011956,0.00013745,-0.00019934,0.0
 0013766,0.00023299,-0.00021720,0.00003914,0.00018879,-0.00004597,-0.00
 107566,0.00072730,-0.00149946,0.00088716,0.00036504,-0.00182030,0.0006
 5597,-0.00071360,-0.00175573,-0.00029219,0.00098403,-0.00069880,0.0001
 4939,-0.00005844,0.00002571,-0.00053768,-0.00009497,0.00005928,0.00012
 547,-0.00002819,-0.00012035,0.00008846,0.00019212,-0.00007959,-0.00044
 996,-0.00006228,-0.00009320,0.00005594,0.00010562,-0.00002560,0.000902
 62,0.00046323,-0.00141163,-0.00001067,0.00084883,-0.00198013,-0.001655
 19,0.00165617,-0.00015157,-0.00187452,0.00629206,-0.00144888,0.0149529
 1,0.02452219,0.03700943\\0.00000041,-0.00000381,0.00001091,-0.00001602
 ,0.00003133,0.00000236,-0.00001944,0.00000558,-0.00000938,0.00004716,0
 .00002400,0.00001203,-0.00002220,-0.00000783,0.00000624,0.00000870,-0.
 00000634,-0.00001345,0.00000225,0.00000078,0.00000516,-0.00000248,-0.0
 0000516,0.00000784,0.00002044,-0.00000989,-0.00003949,0.00006779,0.000
 06299,0.00006799,-0.00005196,0.00000136,-0.00001166,0.00001913,-0.0000
 0383,-0.00000542,-0.00001065,-0.00000223,0.00000881,0.00000130,0.00000
 435,-0.00000662,-0.00001575,-0.00001247,0.00001156,0.00000404,-0.00000
 250,0.00000080,-0.00000733,0.00001487,-0.00000440,0.00000287,-0.000002
 03,-0.00000239,-0.00000331,-0.00000333,-0.00000195,0.00000262,-0.00002
 027,-0.00000960,-0.00000081,-0.00000978,0.00000352,0.00000343,0.000003
 25,0.00000453,-0.00000213,-0.00000713,0.00000724,0.00000415,-0.0000006
 3,-0.00000014,0.00000302,0.00000272,-0.00000113,-0.00000075,0.00000414
 ,0.00000816,-0.00000074,-0.00000192,0.00000429,0.00000266,0.00000117,-
 0.00000028,0.00000108,0.00000517,-0.00000220,0.00000368,0.00000266,0.0
 0000088,0.00000100,0.00000016,0.00000317,0.00000261,-0.00000130,-0.000
 00495,0.00000681,-0.00000014,-0.00000073,0.00000198,0.00000268,-0.0000
 0421,-0.00000532,-0.00000067,-0.00000101,-0.00000016,0.00000124,-0.000
 00481,0.00000180,-0.00000392,-0.00000452,-0.00000089,-0.00000026,-0.00
 000179,0.00000358,0.00000037,0.00000027,0.00000098,-0.00000088,-0.0000
 0092,-0.00000157,-0.00000424,0.00000079,-0.00000126,-0.00000564,0.0000
 0271,-0.00000543,-0.00000416,0.00000289,-0.00004528,-0.00004844,-0.000
 04110\\\@
 The archive entry for this job was punched.


 You can't act like a skunk without someone's getting wind of it.
 -- Lorene Workman
 Job cpu time:       0 days  2 hours 38 minutes 45.0 seconds.
 Elapsed time:       0 days  0 hours  4 minutes 59.2 seconds.
 File lengths (MBytes):  RWF=   1153 Int=      0 D2E=      0 Chk=     15 Scr=      2
 Normal termination of Gaussian 16 at Fri Mar  8 03:57:57 2024.
