 Entering Gaussian System, Link 0=g16
 Initial command:
 /public/software/apps/Gaussian/g16/l1.exe "/public/home/LJQ_HG/tmp/Gau-38993.inp" -scrdir="/public/home/LJQ_HG/tmp/"
 Entering Link 1 = /public/software/apps/Gaussian/g16/l1.exe PID=     38994.
  
 Copyright (c) 1988-2019, Gaussian, Inc.  All Rights Reserved.
  
 This is part of the Gaussian(R) 16 program.  It is based on
 the Gaussian(R) 09 system (copyright 2009, Gaussian, Inc.),
 the Gaussian(R) 03 system (copyright 2003, Gaussian, Inc.),
 the Gaussian(R) 98 system (copyright 1998, Gaussian, Inc.),
 the Gaussian(R) 94 system (copyright 1995, Gaussian, Inc.),
 the Gaussian 92(TM) system (copyright 1992, Gaussian, Inc.),
 the Gaussian 90(TM) system (copyright 1990, Gaussian, Inc.),
 the Gaussian 88(TM) system (copyright 1988, Gaussian, Inc.),
 the Gaussian 86(TM) system (copyright 1986, Carnegie Mellon
 University), and the Gaussian 82(TM) system (copyright 1983,
 Carnegie Mellon University). Gaussian is a federally registered
 trademark of Gaussian, Inc.
  
 This software contains proprietary and confidential information,
 including trade secrets, belonging to Gaussian, Inc.
  
 This software is provided under written license and may be
 used, copied, transmitted, or stored only in accord with that
 written license.
  
 The following legend is applicable only to US Government
 contracts under FAR:
  
                    RESTRICTED RIGHTS LEGEND
  
 Use, reproduction and disclosure by the US Government is
 subject to restrictions as set forth in subparagraphs (a)
 and (c) of the Commercial Computer Software - Restricted
 Rights clause in FAR 52.227-19.
  
 Gaussian, Inc.
 340 Quinnipiac St., Bldg. 40, Wallingford CT 06492
  
  
 ---------------------------------------------------------------
 Warning -- This program may not be used in any manner that
 competes with the business of Gaussian, Inc. or will provide
 assistance to any competitor of Gaussian, Inc.  The licensee
 of this program is prohibited from giving any competitor of
 Gaussian, Inc. access to this program.  By using this program,
 the user acknowledges that Gaussian, Inc. is engaged in the
 business of creating and licensing software in the field of
 computational chemistry and represents and warrants to the
 licensee that it is not a competitor of Gaussian, Inc. and that
 it will not use this program in any manner prohibited above.
 ---------------------------------------------------------------
  

 Cite this work as:
 Gaussian 16, Revision C.01,
 M. J. Frisch, G. W. Trucks, H. B. Schlegel, G. E. Scuseria, 
 M. A. Robb, J. R. Cheeseman, G. Scalmani, V. Barone, 
 G. A. Petersson, H. Nakatsuji, X. Li, M. Caricato, A. V. Marenich, 
 J. Bloino, B. G. Janesko, R. Gomperts, B. Mennucci, H. P. Hratchian, 
 J. V. Ortiz, A. F. Izmaylov, J. L. Sonnenberg, D. Williams-Young, 
 F. Ding, F. Lipparini, F. Egidi, J. Goings, B. Peng, A. Petrone, 
 T. Henderson, D. Ranasinghe, V. G. Zakrzewski, J. Gao, N. Rega, 
 G. Zheng, W. Liang, M. Hada, M. Ehara, K. Toyota, R. Fukuda, 
 J. Hasegawa, M. Ishida, T. Nakajima, Y. Honda, O. Kitao, H. Nakai, 
 T. Vreven, K. Throssell, J. A. Montgomery, Jr., J. E. Peralta, 
 F. Ogliaro, M. J. Bearpark, J. J. Heyd, E. N. Brothers, K. N. Kudin, 
 V. N. Staroverov, T. A. Keith, R. Kobayashi, J. Normand, 
 K. Raghavachari, A. P. Rendell, J. C. Burant, S. S. Iyengar, 
 J. Tomasi, M. Cossi, J. M. Millam, M. Klene, C. Adamo, R. Cammi, 
 J. W. Ochterski, R. L. Martin, K. Morokuma, O. Farkas, 
 J. B. Foresman, and D. J. Fox, Gaussian, Inc., Wallingford CT, 2019.
 
 ******************************************
 Gaussian 16:  ES64L-G16RevC.01  3-Jul-2019
                 8-Mar-2024 
 ******************************************
 %nprocshared=32
 Will use up to   32 processors via shared memory.
 %mem=100GB
 ------------------------------------------
 #p opt freq b3lyp/def2svpp em=gd3bj nosymm
 ------------------------------------------
 1/18=20,19=15,26=3,38=1/1,3;
 2/9=110,12=2,15=1,17=6,18=5,40=1/2;
 3/5=43,7=202,11=2,25=1,30=1,71=1,74=-5,124=41/1,2,3;
 4//1;
 5/5=2,38=5/2;
 6/7=2,8=2,9=2,10=2,28=1/1;
 7/30=1/1,2,3,16;
 1/18=20,19=15,26=3/3(2);
 2/9=110,15=1/2;
 99//99;
 2/9=110,15=1/2;
 3/5=43,7=202,11=2,25=1,30=1,71=1,74=-5,124=41/1,2,3;
 4/5=5,16=3,69=1/1;
 5/5=2,38=5/2;
 7/30=1/1,2,3,16;
 1/18=20,19=15,26=3/3(-5);
 2/9=110,15=1/2;
 6/7=2,8=2,9=2,10=2,19=2,28=1/1;
 99/9=1/99;
 Leave Link    1 at Fri Mar  8 03:35:15 2024, MaxMem= 13421772800 cpu:               2.3 elap:               0.1
 (Enter /public/software/apps/Gaussian/g16/l101.exe)
 ------------------
 $$$$Title####2????
 ------------------
 Symbolic Z-matrix:
 Charge =  2 Multiplicity = 2
 C                     5.54081  -2.42      0.13346 
 C                     5.21526  -1.12938   0.01391 
 C                     3.86326  -0.70354  -0.51859 
 C                     3.8139    0.82525  -0.85153 
 N                     2.55664   1.43247  -0.33877 
 C                     2.61857   1.38737   1.14802 
 C                     2.80748  -0.05776   1.6708 
 C                     2.71705  -1.03139   0.48237 
 C                     1.35942  -0.77093  -0.20657 
 C                     1.40798   0.63571  -0.8721 
 C                     0.0659    1.43577  -0.97111 
 N                     0.3335    2.77614  -1.50806 
 C                    -0.76528   1.52139   0.31807 
 C                    -0.62605   2.65517   1.14569 
 C                    -1.38823   2.78988   2.30169 
 N                    -2.29299   1.84065   2.63609 
 C                    -2.4914    0.73728   1.87139 
 C                    -3.45059  -0.19823   2.26828 
 C                    -3.68148  -1.33858   1.50256 
 C                    -2.95788  -1.56502   0.33073 
 O                    -3.22328  -2.73762  -0.39351 
 C                    -2.55396  -3.11612  -1.59222 
 C                    -1.99307  -0.62463  -0.08041 
 C                    -1.7389    0.54007   0.68327 
 H                     4.84034  -3.20162  -0.14458 
 H                     6.51905  -2.70089   0.50982 
 H                     5.95524  -0.38408   0.29052 
 H                     3.68141  -1.26807  -1.46164 
 H                     3.88052   0.97219  -1.95229 
 H                     4.68674   1.37235  -0.43003 
 H                     1.70853   1.81775   1.59156 
 H                     3.45499   2.02684   1.50715 
 H                     2.02379  -0.29807   2.42286 
 H                     3.79239  -0.15792   2.17658 
 H                     2.76832  -2.08455   0.83524 
 H                     0.56504  -0.84176   0.55996 
 H                     1.16135  -1.55501  -0.97033 
 H                     1.6275    0.42395  -1.94705 
 H                    -0.55563   0.93168  -1.74092 
 H                     0.80845   2.67973  -2.43554 
 H                    -0.58214   3.24438  -1.70288 
 H                     0.08218   3.43854   0.90723 
 H                    -1.26303   3.65807   2.93489 
 H                    -4.02187  -0.04169   3.17524 
 H                    -4.42618  -2.05563   1.8244 
 H                    -1.46621  -3.23464  -1.40134 
 H                    -2.96036  -4.08667  -1.94313 
 H                    -2.72373  -2.35382  -2.38173 
 H                    -1.43316  -0.8327   -0.97535 
 Cu                    2.28211   2.98672  -1.50066 
 
 ITRead=  0  0  0  0  0  0  0  0  0  0  0  0  0  0  0  0  0  0  0  0
 ITRead=  0  0  0  0  0  0  0  0  0  0  0  0  0  0  0  0  0  0  0  0
 ITRead=  0  0  0  0  0  0  0  0  0  0
 MicOpt= -1 -1 -1 -1 -1 -1 -1 -1 -1 -1 -1 -1 -1 -1 -1 -1 -1 -1 -1 -1
 MicOpt= -1 -1 -1 -1 -1 -1 -1 -1 -1 -1 -1 -1 -1 -1 -1 -1 -1 -1 -1 -1
 MicOpt= -1 -1 -1 -1 -1 -1 -1 -1 -1 -1
 NAtoms=     50 NQM=       50 NQMF=       0 NMMI=      0 NMMIF=      0
                NMic=       0 NMicF=      0.
                    Isotopes and Nuclear Properties:
 (Nuclear quadrupole moments (NQMom) in fm**2, nuclear magnetic moments (NMagM)
  in nuclear magnetons)

  Atom         1           2           3           4           5           6           7           8           9          10
 IAtWgt=          12          12          12          12          14          12          12          12          12          12
 AtmWgt=  12.0000000  12.0000000  12.0000000  12.0000000  14.0030740  12.0000000  12.0000000  12.0000000  12.0000000  12.0000000
 NucSpn=           0           0           0           0           2           0           0           0           0           0
 AtZEff=  -0.0000000  -0.0000000  -0.0000000  -0.0000000  -0.0000000  -0.0000000  -0.0000000  -0.0000000  -0.0000000  -0.0000000
 NQMom=    0.0000000   0.0000000   0.0000000   0.0000000   2.0440000   0.0000000   0.0000000   0.0000000   0.0000000   0.0000000
 NMagM=    0.0000000   0.0000000   0.0000000   0.0000000   0.4037610   0.0000000   0.0000000   0.0000000   0.0000000   0.0000000
 AtZNuc=   6.0000000   6.0000000   6.0000000   6.0000000   7.0000000   6.0000000   6.0000000   6.0000000   6.0000000   6.0000000

  Atom        11          12          13          14          15          16          17          18          19          20
 IAtWgt=          12          14          12          12          12          14          12          12          12          12
 AtmWgt=  12.0000000  14.0030740  12.0000000  12.0000000  12.0000000  14.0030740  12.0000000  12.0000000  12.0000000  12.0000000
 NucSpn=           0           2           0           0           0           2           0           0           0           0
 AtZEff=  -0.0000000  -0.0000000  -0.0000000  -0.0000000  -0.0000000  -0.0000000  -0.0000000  -0.0000000  -0.0000000  -0.0000000
 NQMom=    0.0000000   2.0440000   0.0000000   0.0000000   0.0000000   2.0440000   0.0000000   0.0000000   0.0000000   0.0000000
 NMagM=    0.0000000   0.4037610   0.0000000   0.0000000   0.0000000   0.4037610   0.0000000   0.0000000   0.0000000   0.0000000
 AtZNuc=   6.0000000   7.0000000   6.0000000   6.0000000   6.0000000   7.0000000   6.0000000   6.0000000   6.0000000   6.0000000

  Atom        21          22          23          24          25          26          27          28          29          30
 IAtWgt=          16          12          12          12           1           1           1           1           1           1
 AtmWgt=  15.9949146  12.0000000  12.0000000  12.0000000   1.0078250   1.0078250   1.0078250   1.0078250   1.0078250   1.0078250
 NucSpn=           0           0           0           0           1           1           1           1           1           1
 AtZEff=  -0.0000000  -0.0000000  -0.0000000  -0.0000000  -0.0000000  -0.0000000  -0.0000000  -0.0000000  -0.0000000  -0.0000000
 NQMom=    0.0000000   0.0000000   0.0000000   0.0000000   0.0000000   0.0000000   0.0000000   0.0000000   0.0000000   0.0000000
 NMagM=    0.0000000   0.0000000   0.0000000   0.0000000   2.7928460   2.7928460   2.7928460   2.7928460   2.7928460   2.7928460
 AtZNuc=   8.0000000   6.0000000   6.0000000   6.0000000   1.0000000   1.0000000   1.0000000   1.0000000   1.0000000   1.0000000

  Atom        31          32          33          34          35          36          37          38          39          40
 IAtWgt=           1           1           1           1           1           1           1           1           1           1
 AtmWgt=   1.0078250   1.0078250   1.0078250   1.0078250   1.0078250   1.0078250   1.0078250   1.0078250   1.0078250   1.0078250
 NucSpn=           1           1           1           1           1           1           1           1           1           1
 AtZEff=  -0.0000000  -0.0000000  -0.0000000  -0.0000000  -0.0000000  -0.0000000  -0.0000000  -0.0000000  -0.0000000  -0.0000000
 NQMom=    0.0000000   0.0000000   0.0000000   0.0000000   0.0000000   0.0000000   0.0000000   0.0000000   0.0000000   0.0000000
 NMagM=    2.7928460   2.7928460   2.7928460   2.7928460   2.7928460   2.7928460   2.7928460   2.7928460   2.7928460   2.7928460
 AtZNuc=   1.0000000   1.0000000   1.0000000   1.0000000   1.0000000   1.0000000   1.0000000   1.0000000   1.0000000   1.0000000

  Atom        41          42          43          44          45          46          47          48          49          50
 IAtWgt=           1           1           1           1           1           1           1           1           1          63
 AtmWgt=   1.0078250   1.0078250   1.0078250   1.0078250   1.0078250   1.0078250   1.0078250   1.0078250   1.0078250  62.9295992
 NucSpn=           1           1           1           1           1           1           1           1           1           3
 AtZEff=  -0.0000000  -0.0000000  -0.0000000  -0.0000000  -0.0000000  -0.0000000  -0.0000000  -0.0000000  -0.0000000  -0.0000000
 NQMom=    0.0000000   0.0000000   0.0000000   0.0000000   0.0000000   0.0000000   0.0000000   0.0000000   0.0000000 -22.0000000
 NMagM=    2.7928460   2.7928460   2.7928460   2.7928460   2.7928460   2.7928460   2.7928460   2.7928460   2.7928460   2.2233000
 AtZNuc=   1.0000000   1.0000000   1.0000000   1.0000000   1.0000000   1.0000000   1.0000000   1.0000000   1.0000000  29.0000000
 Leave Link  101 at Fri Mar  8 03:35:15 2024, MaxMem= 13421772800 cpu:               4.2 elap:               0.1
 (Enter /public/software/apps/Gaussian/g16/l103.exe)

 GradGradGradGradGradGradGradGradGradGradGradGradGradGradGradGradGradGrad
 Berny optimization.
 Initialization pass.
                           ----------------------------
                           !    Initial Parameters    !
                           ! (Angstroms and Degrees)  !
 --------------------------                            --------------------------
 ! Name  Definition              Value          Derivative Info.                !
 --------------------------------------------------------------------------------
 ! R1    R(1,2)                  1.3364         estimate D2E/DX2                !
 ! R2    R(1,25)                 1.0858         estimate D2E/DX2                !
 ! R3    R(1,26)                 1.0851         estimate D2E/DX2                !
 ! R4    R(2,3)                  1.5142         estimate D2E/DX2                !
 ! R5    R(2,27)                 1.0861         estimate D2E/DX2                !
 ! R6    R(3,4)                  1.5654         estimate D2E/DX2                !
 ! R7    R(3,8)                  1.5567         estimate D2E/DX2                !
 ! R8    R(3,28)                 1.1141         estimate D2E/DX2                !
 ! R9    R(4,5)                  1.4874         estimate D2E/DX2                !
 ! R10   R(4,29)                 1.1125         estimate D2E/DX2                !
 ! R11   R(4,30)                 1.113          estimate D2E/DX2                !
 ! R12   R(5,6)                  1.4888         estimate D2E/DX2                !
 ! R13   R(5,10)                 1.4962         estimate D2E/DX2                !
 ! R14   R(5,50)                 1.9599         estimate D2E/DX2                !
 ! R15   R(6,7)                  1.5484         estimate D2E/DX2                !
 ! R16   R(6,31)                 1.1001         estimate D2E/DX2                !
 ! R17   R(6,32)                 1.1124         estimate D2E/DX2                !
 ! R18   R(7,8)                  1.539          estimate D2E/DX2                !
 ! R19   R(7,33)                 1.1124         estimate D2E/DX2                !
 ! R20   R(7,34)                 1.1117         estimate D2E/DX2                !
 ! R21   R(8,9)                  1.5446         estimate D2E/DX2                !
 ! R22   R(8,35)                 1.1119         estimate D2E/DX2                !
 ! R23   R(9,10)                 1.5569         estimate D2E/DX2                !
 ! R24   R(9,36)                 1.1062         estimate D2E/DX2                !
 ! R25   R(9,37)                 1.1124         estimate D2E/DX2                !
 ! R26   R(10,11)                1.5656         estimate D2E/DX2                !
 ! R27   R(10,38)                1.1174         estimate D2E/DX2                !
 ! R28   R(11,12)                1.4685         estimate D2E/DX2                !
 ! R29   R(11,13)                1.5363         estimate D2E/DX2                !
 ! R30   R(11,39)                1.1104         estimate D2E/DX2                !
 ! R31   R(12,40)                1.0465         estimate D2E/DX2                !
 ! R32   R(12,41)                1.0467         estimate D2E/DX2                !
 ! R33   R(12,50)                1.96           estimate D2E/DX2                !
 ! R34   R(13,14)                1.4106         estimate D2E/DX2                !
 ! R35   R(13,24)                1.4298         estimate D2E/DX2                !
 ! R36   R(14,15)                1.3912         estimate D2E/DX2                !
 ! R37   R(14,42)                1.0826         estimate D2E/DX2                !
 ! R38   R(15,16)                1.3533         estimate D2E/DX2                !
 ! R39   R(15,43)                1.0818         estimate D2E/DX2                !
 ! R40   R(16,17)                1.357          estimate D2E/DX2                !
 ! R41   R(17,18)                1.3974         estimate D2E/DX2                !
 ! R42   R(17,24)                1.4201         estimate D2E/DX2                !
 ! R43   R(18,19)                1.3929         estimate D2E/DX2                !
 ! R44   R(18,44)                1.0833         estimate D2E/DX2                !
 ! R45   R(19,20)                1.3957         estimate D2E/DX2                !
 ! R46   R(19,45)                1.0827         estimate D2E/DX2                !
 ! R47   R(20,21)                1.4036         estimate D2E/DX2                !
 ! R48   R(20,23)                1.4086         estimate D2E/DX2                !
 ! R49   R(21,22)                1.4241         estimate D2E/DX2                !
 ! R50   R(22,46)                1.1107         estimate D2E/DX2                !
 ! R51   R(22,47)                1.1092         estimate D2E/DX2                !
 ! R52   R(22,48)                1.1105         estimate D2E/DX2                !
 ! R53   R(23,24)                1.4157         estimate D2E/DX2                !
 ! R54   R(23,49)                1.076          estimate D2E/DX2                !
 ! R55   R(40,50)                1.772          estimate D2E/DX2                !
 ! A1    A(2,1,25)             121.0077         estimate D2E/DX2                !
 ! A2    A(2,1,26)             120.0404         estimate D2E/DX2                !
 ! A3    A(25,1,26)            118.9515         estimate D2E/DX2                !
 ! A4    A(1,2,3)              121.37           estimate D2E/DX2                !
 ! A5    A(1,2,27)             118.2926         estimate D2E/DX2                !
 ! A6    A(3,2,27)             120.326          estimate D2E/DX2                !
 ! A7    A(2,3,4)              112.1858         estimate D2E/DX2                !
 ! A8    A(2,3,8)              111.8446         estimate D2E/DX2                !
 ! A9    A(2,3,28)             107.5133         estimate D2E/DX2                !
 ! A10   A(4,3,8)              108.6162         estimate D2E/DX2                !
 ! A11   A(4,3,28)             108.041          estimate D2E/DX2                !
 ! A12   A(8,3,28)             108.5053         estimate D2E/DX2                !
 ! A13   A(3,4,5)              110.6117         estimate D2E/DX2                !
 ! A14   A(3,4,29)             109.7271         estimate D2E/DX2                !
 ! A15   A(3,4,30)             112.0103         estimate D2E/DX2                !
 ! A16   A(5,4,29)             109.7425         estimate D2E/DX2                !
 ! A17   A(5,4,30)             109.3689         estimate D2E/DX2                !
 ! A18   A(29,4,30)            105.2364         estimate D2E/DX2                !
 ! A19   A(4,5,6)              107.2626         estimate D2E/DX2                !
 ! A20   A(4,5,10)             107.9775         estimate D2E/DX2                !
 ! A21   A(4,5,50)             103.7558         estimate D2E/DX2                !
 ! A22   A(6,5,10)             111.8257         estimate D2E/DX2                !
 ! A23   A(6,5,50)             128.4557         estimate D2E/DX2                !
 ! A24   A(10,5,50)             95.9375         estimate D2E/DX2                !
 ! A25   A(5,6,7)              111.749          estimate D2E/DX2                !
 ! A26   A(5,6,31)             110.8795         estimate D2E/DX2                !
 ! A27   A(5,6,32)             109.6498         estimate D2E/DX2                !
 ! A28   A(7,6,31)             109.2656         estimate D2E/DX2                !
 ! A29   A(7,6,32)             109.6201         estimate D2E/DX2                !
 ! A30   A(31,6,32)            105.4824         estimate D2E/DX2                !
 ! A31   A(6,7,8)              108.8183         estimate D2E/DX2                !
 ! A32   A(6,7,33)             110.1162         estimate D2E/DX2                !
 ! A33   A(6,7,34)             110.2298         estimate D2E/DX2                !
 ! A34   A(8,7,33)             110.1203         estimate D2E/DX2                !
 ! A35   A(8,7,34)             110.2669         estimate D2E/DX2                !
 ! A36   A(33,7,34)            107.2832         estimate D2E/DX2                !
 ! A37   A(3,8,7)              108.6649         estimate D2E/DX2                !
 ! A38   A(3,8,9)              108.9586         estimate D2E/DX2                !
 ! A39   A(3,8,35)             111.6911         estimate D2E/DX2                !
 ! A40   A(7,8,9)              106.8227         estimate D2E/DX2                !
 ! A41   A(7,8,35)             110.5757         estimate D2E/DX2                !
 ! A42   A(9,8,35)             109.9876         estimate D2E/DX2                !
 ! A43   A(8,9,10)             108.3977         estimate D2E/DX2                !
 ! A44   A(8,9,36)             108.1397         estimate D2E/DX2                !
 ! A45   A(8,9,37)             110.1155         estimate D2E/DX2                !
 ! A46   A(10,9,36)            112.1151         estimate D2E/DX2                !
 ! A47   A(10,9,37)            110.42           estimate D2E/DX2                !
 ! A48   A(36,9,37)            107.625          estimate D2E/DX2                !
 ! A49   A(5,10,9)             110.6522         estimate D2E/DX2                !
 ! A50   A(5,10,11)            114.1118         estimate D2E/DX2                !
 ! A51   A(5,10,38)            107.0387         estimate D2E/DX2                !
 ! A52   A(9,10,11)            117.5162         estimate D2E/DX2                !
 ! A53   A(9,10,38)            104.249          estimate D2E/DX2                !
 ! A54   A(11,10,38)           101.7957         estimate D2E/DX2                !
 ! A55   A(10,11,12)           109.4722         estimate D2E/DX2                !
 ! A56   A(10,11,13)           116.0533         estimate D2E/DX2                !
 ! A57   A(10,11,39)           106.9579         estimate D2E/DX2                !
 ! A58   A(12,11,13)           110.7659         estimate D2E/DX2                !
 ! A59   A(12,11,39)           105.2401         estimate D2E/DX2                !
 ! A60   A(13,11,39)           107.7117         estimate D2E/DX2                !
 ! A61   A(11,12,40)           108.825          estimate D2E/DX2                !
 ! A62   A(11,12,41)           108.4792         estimate D2E/DX2                !
 ! A63   A(11,12,50)           106.1317         estimate D2E/DX2                !
 ! A64   A(40,12,41)           105.8599         estimate D2E/DX2                !
 ! A65   A(41,12,50)           145.3211         estimate D2E/DX2                !
 ! A66   A(11,13,14)           118.9297         estimate D2E/DX2                !
 ! A67   A(11,13,24)           122.9906         estimate D2E/DX2                !
 ! A68   A(14,13,24)           117.9698         estimate D2E/DX2                !
 ! A69   A(13,14,15)           120.7491         estimate D2E/DX2                !
 ! A70   A(13,14,42)           121.1257         estimate D2E/DX2                !
 ! A71   A(15,14,42)           118.1219         estimate D2E/DX2                !
 ! A72   A(14,15,16)           120.244          estimate D2E/DX2                !
 ! A73   A(14,15,43)           120.0437         estimate D2E/DX2                !
 ! A74   A(16,15,43)           119.7116         estimate D2E/DX2                !
 ! A75   A(15,16,17)           121.9245         estimate D2E/DX2                !
 ! A76   A(16,17,18)           118.9883         estimate D2E/DX2                !
 ! A77   A(16,17,24)           120.4567         estimate D2E/DX2                !
 ! A78   A(18,17,24)           120.5546         estimate D2E/DX2                !
 ! A79   A(17,18,19)           120.381          estimate D2E/DX2                !
 ! A80   A(17,18,44)           120.2017         estimate D2E/DX2                !
 ! A81   A(19,18,44)           119.4173         estimate D2E/DX2                !
 ! A82   A(18,19,20)           120.5601         estimate D2E/DX2                !
 ! A83   A(18,19,45)           119.5254         estimate D2E/DX2                !
 ! A84   A(20,19,45)           119.914          estimate D2E/DX2                !
 ! A85   A(19,20,21)           118.0821         estimate D2E/DX2                !
 ! A86   A(19,20,23)           119.4617         estimate D2E/DX2                !
 ! A87   A(21,20,23)           122.4558         estimate D2E/DX2                !
 ! A88   A(20,21,22)           124.5764         estimate D2E/DX2                !
 ! A89   A(21,22,46)           110.1191         estimate D2E/DX2                !
 ! A90   A(21,22,47)           109.066          estimate D2E/DX2                !
 ! A91   A(21,22,48)           110.1286         estimate D2E/DX2                !
 ! A92   A(46,22,47)           108.6516         estimate D2E/DX2                !
 ! A93   A(46,22,48)           110.1902         estimate D2E/DX2                !
 ! A94   A(47,22,48)           108.6455         estimate D2E/DX2                !
 ! A95   A(20,23,24)           120.9796         estimate D2E/DX2                !
 ! A96   A(20,23,49)           118.0398         estimate D2E/DX2                !
 ! A97   A(24,23,49)           120.9531         estimate D2E/DX2                !
 ! A98   A(13,24,17)           118.6331         estimate D2E/DX2                !
 ! A99   A(13,24,23)           123.3058         estimate D2E/DX2                !
 ! A100  A(17,24,23)           118.0611         estimate D2E/DX2                !
 ! A101  A(5,50,12)             93.2277         estimate D2E/DX2                !
 ! A102  A(5,50,40)            106.9709         estimate D2E/DX2                !
 ! D1    D(25,1,2,3)            -0.2959         estimate D2E/DX2                !
 ! D2    D(25,1,2,27)         -179.0711         estimate D2E/DX2                !
 ! D3    D(26,1,2,3)           179.4826         estimate D2E/DX2                !
 ! D4    D(26,1,2,27)            0.7074         estimate D2E/DX2                !
 ! D5    D(1,2,3,4)           -167.9855         estimate D2E/DX2                !
 ! D6    D(1,2,3,8)             69.6774         estimate D2E/DX2                !
 ! D7    D(1,2,3,28)           -49.3393         estimate D2E/DX2                !
 ! D8    D(27,2,3,4)            10.765          estimate D2E/DX2                !
 ! D9    D(27,2,3,8)          -111.572          estimate D2E/DX2                !
 ! D10   D(27,2,3,28)          129.4113         estimate D2E/DX2                !
 ! D11   D(2,3,4,5)           -135.2375         estimate D2E/DX2                !
 ! D12   D(2,3,4,29)           103.5467         estimate D2E/DX2                !
 ! D13   D(2,3,4,30)           -12.9462         estimate D2E/DX2                !
 ! D14   D(8,3,4,5)            -11.085          estimate D2E/DX2                !
 ! D15   D(8,3,4,29)          -132.3008         estimate D2E/DX2                !
 ! D16   D(8,3,4,30)           111.2062         estimate D2E/DX2                !
 ! D17   D(28,3,4,5)           106.428          estimate D2E/DX2                !
 ! D18   D(28,3,4,29)          -14.7878         estimate D2E/DX2                !
 ! D19   D(28,3,4,30)         -131.2808         estimate D2E/DX2                !
 ! D20   D(2,3,8,7)             72.4483         estimate D2E/DX2                !
 ! D21   D(2,3,8,9)           -171.5091         estimate D2E/DX2                !
 ! D22   D(2,3,8,35)           -49.8            estimate D2E/DX2                !
 ! D23   D(4,3,8,7)            -51.9068         estimate D2E/DX2                !
 ! D24   D(4,3,8,9)             64.1358         estimate D2E/DX2                !
 ! D25   D(4,3,8,35)          -174.1551         estimate D2E/DX2                !
 ! D26   D(28,3,8,7)          -169.1236         estimate D2E/DX2                !
 ! D27   D(28,3,8,9)           -53.0809         estimate D2E/DX2                !
 ! D28   D(28,3,8,35)           68.6282         estimate D2E/DX2                !
 ! D29   D(3,4,5,6)             67.1027         estimate D2E/DX2                !
 ! D30   D(3,4,5,10)           -53.5703         estimate D2E/DX2                !
 ! D31   D(3,4,5,50)          -154.6049         estimate D2E/DX2                !
 ! D32   D(29,4,5,6)          -171.6906         estimate D2E/DX2                !
 ! D33   D(29,4,5,10)           67.6364         estimate D2E/DX2                !
 ! D34   D(29,4,5,50)          -33.3982         estimate D2E/DX2                !
 ! D35   D(30,4,5,6)           -56.7213         estimate D2E/DX2                !
 ! D36   D(30,4,5,10)         -177.3944         estimate D2E/DX2                !
 ! D37   D(30,4,5,50)           81.571          estimate D2E/DX2                !
 ! D38   D(4,5,6,7)            -57.4119         estimate D2E/DX2                !
 ! D39   D(4,5,6,31)          -179.5783         estimate D2E/DX2                !
 ! D40   D(4,5,6,32)            64.3451         estimate D2E/DX2                !
 ! D41   D(10,5,6,7)            60.792          estimate D2E/DX2                !
 ! D42   D(10,5,6,31)          -61.3743         estimate D2E/DX2                !
 ! D43   D(10,5,6,32)         -177.4509         estimate D2E/DX2                !
 ! D44   D(50,5,6,7)           178.2023         estimate D2E/DX2                !
 ! D45   D(50,5,6,31)           56.036          estimate D2E/DX2                !
 ! D46   D(50,5,6,32)          -60.0407         estimate D2E/DX2                !
 ! D47   D(4,5,10,9)            70.0305         estimate D2E/DX2                !
 ! D48   D(4,5,10,11)         -154.7657         estimate D2E/DX2                !
 ! D49   D(4,5,10,38)          -42.963          estimate D2E/DX2                !
 ! D50   D(6,5,10,9)           -47.7462         estimate D2E/DX2                !
 ! D51   D(6,5,10,11)           87.4576         estimate D2E/DX2                !
 ! D52   D(6,5,10,38)         -160.7398         estimate D2E/DX2                !
 ! D53   D(50,5,10,9)          176.5945         estimate D2E/DX2                !
 ! D54   D(50,5,10,11)         -48.2017         estimate D2E/DX2                !
 ! D55   D(50,5,10,38)          63.6009         estimate D2E/DX2                !
 ! D56   D(4,5,50,12)          143.7256         estimate D2E/DX2                !
 ! D57   D(4,5,50,40)          114.2086         estimate D2E/DX2                !
 ! D58   D(6,5,50,12)          -90.5026         estimate D2E/DX2                !
 ! D59   D(6,5,50,40)         -120.0195         estimate D2E/DX2                !
 ! D60   D(10,5,50,12)          33.5479         estimate D2E/DX2                !
 ! D61   D(10,5,50,40)           4.031          estimate D2E/DX2                !
 ! D62   D(5,6,7,8)             -6.2192         estimate D2E/DX2                !
 ! D63   D(5,6,7,33)          -127.0062         estimate D2E/DX2                !
 ! D64   D(5,6,7,34)           114.8183         estimate D2E/DX2                !
 ! D65   D(31,6,7,8)           116.8683         estimate D2E/DX2                !
 ! D66   D(31,6,7,33)           -3.9186         estimate D2E/DX2                !
 ! D67   D(31,6,7,34)         -122.0941         estimate D2E/DX2                !
 ! D68   D(32,6,7,8)          -127.9933         estimate D2E/DX2                !
 ! D69   D(32,6,7,33)          111.2197         estimate D2E/DX2                !
 ! D70   D(32,6,7,34)           -6.9558         estimate D2E/DX2                !
 ! D71   D(6,7,8,3)             61.56           estimate D2E/DX2                !
 ! D72   D(6,7,8,9)            -55.852          estimate D2E/DX2                !
 ! D73   D(6,7,8,35)          -175.5172         estimate D2E/DX2                !
 ! D74   D(33,7,8,3)          -177.6556         estimate D2E/DX2                !
 ! D75   D(33,7,8,9)            64.9324         estimate D2E/DX2                !
 ! D76   D(33,7,8,35)          -54.7328         estimate D2E/DX2                !
 ! D77   D(34,7,8,3)           -59.4548         estimate D2E/DX2                !
 ! D78   D(34,7,8,9)          -176.8668         estimate D2E/DX2                !
 ! D79   D(34,7,8,35)           63.468          estimate D2E/DX2                !
 ! D80   D(3,8,9,10)           -48.8387         estimate D2E/DX2                !
 ! D81   D(3,8,9,36)          -170.6056         estimate D2E/DX2                !
 ! D82   D(3,8,9,37)            72.0518         estimate D2E/DX2                !
 ! D83   D(7,8,9,10)            68.3796         estimate D2E/DX2                !
 ! D84   D(7,8,9,36)           -53.3873         estimate D2E/DX2                !
 ! D85   D(7,8,9,37)          -170.7299         estimate D2E/DX2                !
 ! D86   D(35,8,9,10)         -171.5766         estimate D2E/DX2                !
 ! D87   D(35,8,9,36)           66.6565         estimate D2E/DX2                !
 ! D88   D(35,8,9,37)          -50.6861         estimate D2E/DX2                !
 ! D89   D(8,9,10,5)           -15.5748         estimate D2E/DX2                !
 ! D90   D(8,9,10,11)         -149.0944         estimate D2E/DX2                !
 ! D91   D(8,9,10,38)           99.1838         estimate D2E/DX2                !
 ! D92   D(36,9,10,5)          103.7212         estimate D2E/DX2                !
 ! D93   D(36,9,10,11)         -29.7984         estimate D2E/DX2                !
 ! D94   D(36,9,10,38)        -141.5202         estimate D2E/DX2                !
 ! D95   D(37,9,10,5)         -136.2766         estimate D2E/DX2                !
 ! D96   D(37,9,10,11)          90.2038         estimate D2E/DX2                !
 ! D97   D(37,9,10,38)         -21.518          estimate D2E/DX2                !
 ! D98   D(5,10,11,12)          42.763          estimate D2E/DX2                !
 ! D99   D(5,10,11,13)         -83.4971         estimate D2E/DX2                !
 ! D100  D(5,10,11,39)         156.2973         estimate D2E/DX2                !
 ! D101  D(9,10,11,12)         174.7409         estimate D2E/DX2                !
 ! D102  D(9,10,11,13)          48.4808         estimate D2E/DX2                !
 ! D103  D(9,10,11,39)         -71.7248         estimate D2E/DX2                !
 ! D104  D(38,10,11,12)        -72.1612         estimate D2E/DX2                !
 ! D105  D(38,10,11,13)        161.5787         estimate D2E/DX2                !
 ! D106  D(38,10,11,39)         41.3731         estimate D2E/DX2                !
 ! D107  D(10,11,12,40)         56.8736         estimate D2E/DX2                !
 ! D108  D(10,11,12,41)        171.6045         estimate D2E/DX2                !
 ! D109  D(10,11,12,50)        -10.6003         estimate D2E/DX2                !
 ! D110  D(13,11,12,40)       -173.9074         estimate D2E/DX2                !
 ! D111  D(13,11,12,41)        -59.1764         estimate D2E/DX2                !
 ! D112  D(13,11,12,50)        118.6187         estimate D2E/DX2                !
 ! D113  D(39,11,12,40)        -57.7697         estimate D2E/DX2                !
 ! D114  D(39,11,12,41)         56.9612         estimate D2E/DX2                !
 ! D115  D(39,11,12,50)       -125.2436         estimate D2E/DX2                !
 ! D116  D(10,11,13,14)         95.5881         estimate D2E/DX2                !
 ! D117  D(10,11,13,24)        -88.3041         estimate D2E/DX2                !
 ! D118  D(12,11,13,14)        -30.0181         estimate D2E/DX2                !
 ! D119  D(12,11,13,24)        146.0898         estimate D2E/DX2                !
 ! D120  D(39,11,13,14)       -144.6138         estimate D2E/DX2                !
 ! D121  D(39,11,13,24)         31.494          estimate D2E/DX2                !
 ! D122  D(11,12,50,5)         -13.9705         estimate D2E/DX2                !
 ! D123  D(41,12,50,5)         162.3525         estimate D2E/DX2                !
 ! D124  D(11,13,14,15)        178.1373         estimate D2E/DX2                !
 ! D125  D(11,13,14,42)         -2.5413         estimate D2E/DX2                !
 ! D126  D(24,13,14,15)          1.8334         estimate D2E/DX2                !
 ! D127  D(24,13,14,42)       -178.8453         estimate D2E/DX2                !
 ! D128  D(11,13,24,17)       -177.628          estimate D2E/DX2                !
 ! D129  D(11,13,24,23)          2.4267         estimate D2E/DX2                !
 ! D130  D(14,13,24,17)         -1.4849         estimate D2E/DX2                !
 ! D131  D(14,13,24,23)        178.5698         estimate D2E/DX2                !
 ! D132  D(13,14,15,16)         -1.1092         estimate D2E/DX2                !
 ! D133  D(13,14,15,43)        179.2089         estimate D2E/DX2                !
 ! D134  D(42,14,15,16)        179.5496         estimate D2E/DX2                !
 ! D135  D(42,14,15,43)         -0.1324         estimate D2E/DX2                !
 ! D136  D(14,15,16,17)         -0.009          estimate D2E/DX2                !
 ! D137  D(43,15,16,17)        179.674          estimate D2E/DX2                !
 ! D138  D(15,16,17,18)       -179.4174         estimate D2E/DX2                !
 ! D139  D(15,16,17,24)          0.3323         estimate D2E/DX2                !
 ! D140  D(16,17,18,19)        179.7607         estimate D2E/DX2                !
 ! D141  D(16,17,18,44)         -0.2039         estimate D2E/DX2                !
 ! D142  D(24,17,18,19)          0.0113         estimate D2E/DX2                !
 ! D143  D(24,17,18,44)       -179.9533         estimate D2E/DX2                !
 ! D144  D(16,17,24,13)          0.4399         estimate D2E/DX2                !
 ! D145  D(16,17,24,23)       -179.6119         estimate D2E/DX2                !
 ! D146  D(18,17,24,13)       -179.8144         estimate D2E/DX2                !
 ! D147  D(18,17,24,23)          0.1338         estimate D2E/DX2                !
 ! D148  D(17,18,19,20)          0.1211         estimate D2E/DX2                !
 ! D149  D(17,18,19,45)        179.8414         estimate D2E/DX2                !
 ! D150  D(44,18,19,20)       -179.914          estimate D2E/DX2                !
 ! D151  D(44,18,19,45)         -0.1937         estimate D2E/DX2                !
 ! D152  D(18,19,20,21)        179.368          estimate D2E/DX2                !
 ! D153  D(18,19,20,23)         -0.3979         estimate D2E/DX2                !
 ! D154  D(45,19,20,21)         -0.3512         estimate D2E/DX2                !
 ! D155  D(45,19,20,23)        179.8829         estimate D2E/DX2                !
 ! D156  D(19,20,21,22)       -178.9577         estimate D2E/DX2                !
 ! D157  D(23,20,21,22)          0.8008         estimate D2E/DX2                !
 ! D158  D(19,20,23,24)          0.5502         estimate D2E/DX2                !
 ! D159  D(19,20,23,49)        178.6608         estimate D2E/DX2                !
 ! D160  D(21,20,23,24)       -179.205          estimate D2E/DX2                !
 ! D161  D(21,20,23,49)         -1.0944         estimate D2E/DX2                !
 ! D162  D(20,21,22,46)         60.5672         estimate D2E/DX2                !
 ! D163  D(20,21,22,47)        179.709          estimate D2E/DX2                !
 ! D164  D(20,21,22,48)        -61.1509         estimate D2E/DX2                !
 ! D165  D(20,23,24,13)        179.5301         estimate D2E/DX2                !
 ! D166  D(20,23,24,17)         -0.4155         estimate D2E/DX2                !
 ! D167  D(49,23,24,13)          1.4747         estimate D2E/DX2                !
 ! D168  D(49,23,24,17)       -178.4709         estimate D2E/DX2                !
 --------------------------------------------------------------------------------
 Trust Radius=3.00D-01 FncErr=1.00D-07 GrdErr=1.00D-06 EigMax=2.50D+02 EigMin=1.00D-04
 Number of steps in this run=    300 maximum allowed number of steps=    300.
 GradGradGradGradGradGradGradGradGradGradGradGradGradGradGradGradGradGrad

 Leave Link  103 at Fri Mar  8 03:35:15 2024, MaxMem= 13421772800 cpu:               0.3 elap:               0.0
 (Enter /public/software/apps/Gaussian/g16/l202.exe)
                          Input orientation:                          
 ---------------------------------------------------------------------
 Center     Atomic      Atomic             Coordinates (Angstroms)
 Number     Number       Type             X           Y           Z
 ---------------------------------------------------------------------
      1          6           0        5.540808   -2.420002    0.133455
      2          6           0        5.215263   -1.129384    0.013912
      3          6           0        3.863264   -0.703538   -0.518586
      4          6           0        3.813896    0.825249   -0.851528
      5          7           0        2.556642    1.432469   -0.338769
      6          6           0        2.618572    1.387369    1.148015
      7          6           0        2.807483   -0.057764    1.670799
      8          6           0        2.717049   -1.031392    0.482372
      9          6           0        1.359419   -0.770933   -0.206572
     10          6           0        1.407984    0.635712   -0.872102
     11          6           0        0.065899    1.435772   -0.971107
     12          7           0        0.333495    2.776144   -1.508061
     13          6           0       -0.765278    1.521393    0.318069
     14          6           0       -0.626046    2.655171    1.145687
     15          6           0       -1.388225    2.789881    2.301686
     16          7           0       -2.292993    1.840650    2.636088
     17          6           0       -2.491398    0.737282    1.871390
     18          6           0       -3.450586   -0.198228    2.268278
     19          6           0       -3.681481   -1.338578    1.502559
     20          6           0       -2.957877   -1.565015    0.330730
     21          8           0       -3.223277   -2.737615   -0.393511
     22          6           0       -2.553964   -3.116116   -1.592217
     23          6           0       -1.993066   -0.624625   -0.080412
     24          6           0       -1.738902    0.540066    0.683266
     25          1           0        4.840337   -3.201620   -0.144581
     26          1           0        6.519045   -2.700885    0.509818
     27          1           0        5.955240   -0.384082    0.290516
     28          1           0        3.681411   -1.268071   -1.461635
     29          1           0        3.880520    0.972189   -1.952288
     30          1           0        4.686739    1.372352   -0.430034
     31          1           0        1.708532    1.817751    1.591564
     32          1           0        3.454993    2.026840    1.507146
     33          1           0        2.023788   -0.298072    2.422861
     34          1           0        3.792391   -0.157915    2.176583
     35          1           0        2.768323   -2.084550    0.835244
     36          1           0        0.565041   -0.841760    0.559957
     37          1           0        1.161347   -1.555008   -0.970329
     38          1           0        1.627499    0.423947   -1.947045
     39          1           0       -0.555631    0.931676   -1.740920
     40          1           0        0.808453    2.679728   -2.435543
     41          1           0       -0.582141    3.244380   -1.702880
     42          1           0        0.082177    3.438536    0.907231
     43          1           0       -1.263025    3.658066    2.934888
     44          1           0       -4.021870   -0.041688    3.175242
     45          1           0       -4.426179   -2.055633    1.824398
     46          1           0       -1.466213   -3.234638   -1.401335
     47          1           0       -2.960355   -4.086671   -1.943126
     48          1           0       -2.723729   -2.353823   -2.381734
     49          1           0       -1.433155   -0.832704   -0.975345
     50         29           0        2.282109    2.986715   -1.500658
 ---------------------------------------------------------------------
                    Distance matrix (angstroms):
                    1          2          3          4          5
     1  C    0.000000
     2  C    1.336400   0.000000
     3  C    2.487079   1.514200   0.000000
     4  C    3.805794   2.556053   1.565400   0.000000
     5  N    4.895894   3.708873   2.510403   1.487389   0.000000
     6  C    4.905596   3.789860   2.949357   2.396445   1.488757
     7  C    3.926151   3.113045   2.514976   2.855646   2.514375
     8  C    3.166006   2.543645   1.556668   2.535642   2.602040
     9  C    4.507667   3.878741   2.524111   2.998036   2.511135
    10  C    5.237248   4.289051   2.819036   2.413454   1.496222
    11  C    6.786875   5.836629   4.381941   3.799279   2.569759
    12  N    7.537282   6.434377   5.054356   4.043540   2.848700
    13  C    7.438777   6.548740   5.203240   4.777176   3.387403
    14  C    8.050595   7.051572   5.848473   5.201016   3.718617
    15  C    8.936196   8.012528   6.909128   6.392543   4.937261
    16  N    9.262007   8.489453   7.370506   7.105533   5.703976
    17  C    8.803703   8.144157   6.940438   6.868679   5.554349
    18  C    9.504679   9.002564   7.843109   7.972038   6.748530
    19  C    9.385869   9.022854   7.836548   8.148899   7.069892
    20  C    8.543861   8.190871   6.927586   7.277912   6.312136
    21  O    8.785656   8.600079   7.373749   7.900986   7.127416
    22  C    8.305893   8.178487   6.939311   7.525465   6.955505
    23  C    7.747798   7.226596   5.873230   6.034697   4.999823
    24  C    7.877720   7.183001   5.863042   5.768058   4.504735
    25  H    1.085767   2.111836   2.708314   4.215333   5.169889
    26  H    1.085123   2.101282   3.478532   4.648087   5.788381
    27  H    2.083601   1.086071   2.265626   2.711476   3.904654
    28  H    2.707141   2.132880   1.114051   2.184438   3.133504
    29  H    4.314376   3.172395   2.205416   1.112521   2.137277
    30  H    3.927964   2.595209   2.235010   1.113029   2.132899
    31  H    5.896692   4.844766   3.930967   3.374362   2.143343
    32  H    5.100201   3.910249   3.424214   2.671325   2.137221
    33  H    4.702488   4.084070   3.492876   3.897173   3.302318
    34  H    3.514025   2.765043   2.750757   3.183792   3.222327
    35  H    2.879533   2.752171   2.222374   3.522123   3.713831
    36  H    5.237462   4.690997   3.472843   3.914878   3.153776
    37  H    4.598503   4.193342   2.868698   3.565915   3.357192
    38  H    5.265977   4.373813   2.882770   2.478212   2.113522
    39  H    7.205109   6.374215   4.867716   4.460394   3.450082
    40  H    7.416346   6.318951   4.945006   3.870515   3.001380
    41  H    8.540952   7.462378   6.062197   5.089414   3.872438
    42  H    8.044740   6.929104   5.786739   4.883465   3.420497
    43  H    9.543746   8.568547   7.564979   6.938078   5.500906
    44  H   10.312791   9.823529   8.732568   8.852440   7.602515
    45  H   10.115972   9.853588   8.719667   9.130109   8.099749
    46  H    7.219249   7.146827   5.965655   6.683152   6.252543
    47  H    8.908409   8.911581   7.748334   8.438544   7.966939
    48  H    8.639047   8.382480   7.041537   7.428901   6.811170
    49  H    7.237756   6.728158   5.317647   5.504151   4.631924
    50  Cu   6.520892   5.276323   4.133096   2.727577   1.959856
                    6          7          8          9         10
     6  C    0.000000
     7  C    1.548354   0.000000
     8  C    2.510614   1.538989   0.000000
     9  C    2.842295   2.475888   1.544552   0.000000
    10  C    2.472121   2.984267   2.515450   1.556900   0.000000
    11  C    3.318005   4.089817   3.902319   2.669692   1.565596
    12  N    3.768954   4.925119   4.913297   3.915118   2.477987
    13  C    3.486720   4.133792   4.320915   3.169281   2.631351
    14  C    3.483515   4.407367   5.020659   4.184359   3.505277
    15  C    4.399138   5.109899   5.896211   5.149787   4.746805
    16  N    5.152019   5.527261   6.163411   5.314245   5.239895
    17  C    5.201700   5.361947   5.673226   4.628329   4.768883
    18  C    6.372110   6.288095   6.474824   5.439579   5.844925
    19  C    6.873657   6.616301   6.486627   5.352945   5.953108
    20  C    6.362492   6.107943   5.701976   4.422477   5.034952
    21  O    7.315668   6.914698   6.242262   4.990379   5.749518
    22  C    7.385484   6.981827   6.036023   4.768067   5.503800
    23  C    5.179224   5.141337   4.761026   3.358047   3.712461
    24  C    4.463350   4.690654   4.729201   3.479960   3.511582
    25  H    5.259835   4.160761   3.100212   4.246042   5.199563
    26  H    5.686370   4.702091   4.152485   5.555148   6.258237
    27  H    3.873848   3.452541   3.307824   4.638784   4.803040
    28  H    3.871855   3.469976   2.182928   2.685885   3.023311
    29  H    3.372946   3.916500   3.360888   3.527315   2.719090
    30  H    2.601496   3.160749   3.238850   3.964173   3.389439
    31  H    1.100062   2.175208   3.219477   3.171192   2.749035
    32  H    1.112429   2.188978   3.308702   3.893044   3.433119
    33  H    2.195384   1.112440   2.187205   2.752980   3.479648
    34  H    2.196294   1.111707   2.188532   3.460429   3.950914
    35  H    3.489194   2.192612   1.111886   2.189973   3.487890
    36  H    3.087364   2.622435   2.161740   1.106173   2.223571
    37  H    3.907489   3.453558   2.191968   1.112354   2.206747
    38  H    3.389661   3.835779   3.034336   2.128110   1.117378
    39  H    4.316152   4.891764   4.416684   2.986724   2.167539
    40  H    4.217655   5.324662   5.092090   4.144748   2.642307
    41  H    4.671258   5.811662   5.825994   4.704395   3.384662
    42  H    3.270866   4.498271   5.206084   4.537789   3.574858
    43  H    4.838985   5.654587   6.621695   6.030093   5.546358
    44  H    7.088535   6.993116   7.324213   6.397401   6.806113
    45  H    7.870214   7.506060   7.340014   6.264857   6.967920
    46  H    6.674399   6.147765   5.089433   3.934653   4.849815
    47  H    8.405040   7.909520   6.888446   5.715784   6.521532
    48  H    7.415917   7.231128   6.289196   4.889680   5.318586
    49  H    5.084670   5.058223   4.403250   2.897119   3.199840
    50  Cu   3.112328   4.427529   4.501862   4.079943   2.585806
                   11         12         13         14         15
    11  C    0.000000
    12  N    1.468511   0.000000
    13  C    1.536282   2.473146   0.000000
    14  C    2.539003   2.824488   1.410599   0.000000
    15  C    3.828742   4.180751   2.435541   1.391186   0.000000
    16  N    4.328990   4.994753   2.794468   2.379801   1.353318
    17  C    3.886830   4.853624   2.450944   2.772090   2.369664
    18  C    5.052647   6.117752   3.737819   4.168947   3.630874
    19  C    5.278153   6.489592   4.252845   5.041138   4.789760
    20  C    4.454517   5.749778   3.785969   4.889945   5.031262
    21  O    5.345040   6.655403   4.968627   6.180362   6.417532
    22  C    5.288586   6.562258   5.324949   6.672386   7.169535
    23  C    3.045966   4.360768   2.504325   3.758873   4.207027
    24  C    2.607019   3.754569   1.429796   2.434328   2.793551
    25  H    6.706997   7.609492   7.344645   8.114686   8.982054
    26  H    7.806930   8.504746   8.421743   8.952318   9.792049
    27  H    6.291891   6.695217   6.985482   7.299432   8.248959
    28  H    4.541290   5.250369   5.542698   6.383114   7.505383
    29  H    3.965975   4.004120   5.199960   5.721802   7.011417
    30  H    4.652843   4.699309   5.505121   5.688076   6.810057
    31  H    3.067806   3.523765   2.798098   2.519987   3.322531
    32  H    4.239936   4.404166   4.413623   4.144916   4.966919
    33  H    4.284689   5.268780   3.939479   4.168266   4.603474
    34  H    5.131718   5.843737   5.200625   5.338425   5.961873
    35  H    4.791520   5.919950   5.075099   5.838071   6.571714
    36  H    2.789346   4.173672   2.722637   3.740360   4.476347
    37  H    3.185086   4.442226   3.851765   5.039633   6.007034
    38  H    2.101152   2.720291   3.472825   4.429652   5.722233
    39  H    1.110416   2.060784   2.152012   3.362721   4.526456
    40  H    2.059948   1.046472   3.376499   3.857927   5.222917
    41  H    2.055848   1.046704   2.662040   2.909197   4.110096
    42  H    2.745812   2.517054   2.177322   1.082637   2.127755
    43  H    4.686302   4.802755   3.414801   2.147739   1.081834
    44  H    6.007075   6.988756   4.605654   4.787877   3.964463
    45  H    6.339047   7.556841   5.335385   6.090430   5.738987
    46  H    4.934085   6.275336   5.105633   6.471712   7.072006
    47  H    6.371845   7.624760   6.432865   7.774458   8.232678
    48  H    4.912527   6.035436   5.112902   6.475569   7.083480
    49  H    2.719037   4.053224   2.767806   4.161187   4.885087
    50  Cu   2.756345   1.959972   3.839467   3.945938   5.288470
                   16         17         18         19         20
    16  N    0.000000
    17  C    1.357037   0.000000
    18  C    2.373253   1.397405   0.000000
    19  C    3.649696   2.421059   1.392852   0.000000
    20  C    4.165969   2.809236   2.421768   1.395729   0.000000
    21  O    5.568160   4.211927   3.685821   2.400487   1.403550
    22  C    6.520445   5.181618   4.921526   3.742803   2.503355
    23  C    3.680613   2.431595   2.796877   2.422039   1.408627
    24  C    2.410819   1.420135   2.446876   2.823855   2.457956
    25  H    9.167388   8.563494   9.142300   8.877239   7.982264
    26  H   10.138963   9.739761  10.428280  10.338866   9.546430
    27  H    8.859147   8.666159   9.613306   9.759431   8.991100
    28  H    7.883463   7.296168   8.119249   7.937480   6.883378
    29  H    7.740780   7.434853   8.539799   8.628990   7.642856
    30  H    7.637871   7.564755   8.715714   9.006174   8.224782
    31  H    4.135669   4.345702   5.580198   6.246805   5.899846
    32  H    5.860761   6.095506   7.295017   7.890204   7.443808
    33  H    4.822260   4.665081   5.477466   5.871942   5.549698
    34  H    6.421628   6.354567   7.243670   7.596515   7.138153
    35  H    6.653357   6.058135   6.654820   6.527002   5.771812
    36  H    4.435538   3.681718   4.411094   4.378159   3.603692
    37  H    6.038974   5.164543   5.796495   5.441967   4.319822
    38  H    6.195354   5.625294   6.628951   6.572026   5.492714
    39  H    4.796130   4.102897   5.072585   5.044318   4.036829
    40  H    6.003704   5.762967   6.967638   7.198259   6.313109
    41  H    4.870741   4.765103   5.987455   6.394079   5.736721
    42  H    3.344192   3.853526   5.249659   6.110676   5.883010
    43  H    2.110241   3.342291   4.483391   5.732970   6.077396
    44  H    2.612068   2.156193   1.083261   2.143748   3.397625
    45  H    4.515567   3.397935   2.144473   1.082739   2.151200
    46  H    6.537805   5.247655   5.159804   4.115222   2.830680
    47  H    7.519821   6.167737   5.752933   4.465958   3.395464
    48  H    6.554210   5.262886   5.176632   4.127438   2.834520
    49  H    4.574778   3.418864   3.872167   3.383916   2.137028
    50  Cu   6.273571   6.262350   7.563897   7.955619   7.178418
                   21         22         23         24         25
    21  O    0.000000
    22  C    1.424127   0.000000
    23  C    2.464990   2.967775   0.000000
    24  C    3.755797   4.382900   1.415736   0.000000
    25  H    8.080788   7.535161   7.303452   7.613930   0.000000
    26  H    9.784181   9.322578   8.781530   8.872854   1.870036
    27  H    9.500115   9.133195   7.960591   7.759389   3.061183
    28  H    7.139689   6.504785   5.875499   6.103258   2.610815
    29  H    8.164335   7.631938   6.368104   6.221799   4.648627
    30  H    8.914119   8.597953   6.980684   6.574268   4.585444
    31  H    7.001044   7.255920   4.739465   3.787121   6.165751
    32  H    8.420916   8.494917   6.263542   5.464963   5.655455
    33  H    6.435450   6.709548   4.744273   4.229244   4.791169
    34  H    7.904419   7.951794   6.227629   5.771687   3.968644
    35  H    6.151065   5.939986   5.063658   5.217929   2.549734
    36  H    4.342202   4.419586   2.645965   2.689387   4.933910
    37  H    4.577795   4.077663   3.407035   3.941466   4.114384
    38  H    5.994912   5.490226   4.206223   4.273719   5.168747
    39  H    4.732393   4.516643   2.691761   2.725833   6.982042
    40  H    7.054952   6.753433   4.930913   4.560059   7.489650
    41  H    6.668906   6.660048   4.426320   3.787493   8.566357
    42  H    7.124802   7.493994   4.668121   3.430396   8.236387
    43  H    7.471651   8.249288   5.288330   3.875330   9.684495
    44  H    4.543322   5.859652   3.880096   3.429333   9.977229
    45  H    2.613655   4.037706   3.405308   3.906571   9.542457
    46  H    2.085669   1.110714   2.972302   4.320684   6.430637
    47  H    2.071325   1.109174   4.048594   5.458624   8.054122
    48  H    2.085635   1.110517   2.969861   4.328822   7.933392
    49  H    2.678013   2.617387   1.075966   2.174619   6.757117
    50  Cu   8.018915   7.787203   5.773733   5.188848   6.832201
                   26         27         28         29         30
    26  H    0.000000
    27  H    2.394482   0.000000
    28  H    3.740555   3.003626   0.000000
    29  H    5.149296   3.342769   2.301988   0.000000
    30  H    4.564201   2.283276   3.007776   1.768439   0.000000
    31  H    6.687995   4.957350   4.768288   4.241626   3.626976
    32  H    5.721404   3.680213   4.440874   3.641572   2.387094
    33  H    5.444316   4.473322   4.333350   4.919649   4.245072
    34  H    4.084048   2.878596   3.805443   4.281644   3.152147
    35  H    3.814929   3.653048   2.603079   4.283803   4.151075
    36  H    6.237710   5.416301   3.739029   4.538082   4.782339
    37  H    5.675279   5.093349   2.583493   3.839905   4.614081
    38  H    6.303013   4.938515   2.705014   2.318771   3.543973
    39  H    8.265129   6.946178   4.782197   4.441368   5.421721
    40  H    8.380752   6.580862   4.978705   3.547791   4.557675
    41  H    9.522030   7.738005   6.212752   5.014020   5.734607
    42  H    8.904139   7.034601   6.381078   5.356036   5.221052
    43  H   10.338174   8.685333   8.248860   7.586467   7.207418
    44  H   11.193154  10.391420   9.074425   9.474560   9.530865
    45  H   11.042753  10.626417   8.783580   9.614172   9.993939
    46  H    8.228107   8.128099   5.510813   6.825577   7.747684
    47  H    9.889204   9.908893   7.231141   8.508215   9.516745
    48  H    9.690738   9.292217   6.561346   7.406948   8.521065
    49  H    8.302608   7.509464   5.156046   5.696244   6.527843
    50  Cu   7.371732   5.297402   4.479149   2.610977   3.087823
                   31         32         33         34         35
    31  H    0.000000
    32  H    1.760957   0.000000
    33  H    2.295027   2.879600   0.000000
    34  H    2.930524   2.309792   1.791160   0.000000
    35  H    4.113773   4.222143   2.503271   2.561216   0.000000
    36  H    3.073237   4.180653   2.427746   3.673814   2.544555
    37  H    4.270622   4.922228   3.719870   4.333280   2.474445
    38  H    3.804078   4.223794   4.446845   4.693573   3.916014
    39  H    4.125168   5.275834   5.050025   5.953094   5.175221
    40  H    4.215535   4.793249   5.826527   6.182864   6.102252
    41  H    4.258616   5.299540   6.030056   6.764789   6.787133
    42  H    2.395889   3.705222   4.475402   5.320846   6.142071
    43  H    3.744520   5.192209   5.168785   6.379182   7.323791
    44  H    6.229210   7.935038   6.097687   7.878674   7.466967
    45  H    7.258925   8.881447   6.711874   8.442172   7.262239
    46  H    6.675559   7.769214   5.952143   7.065454   4.925067
    47  H    8.315933   9.509789   7.632628   8.832140   6.674248
    48  H    7.268704   8.514118   7.060394   8.249854   6.370564
    49  H    4.846043   6.183344   4.876894   6.139733   4.743181
    50  Cu   3.355191   3.368071   5.123530   5.068703   5.604513
                   36         37         38         39         40
    36  H    0.000000
    37  H    1.790553   0.000000
    38  H    3.002647   2.255556   0.000000
    39  H    3.113682   3.118561   2.250852   0.000000
    40  H    4.629595   4.494928   2.449084   2.323556   0.000000
    41  H    4.809678   5.158537   3.591235   2.313169   1.670143
    42  H    4.321422   5.442915   4.429747   3.701871   3.503913
    43  H    5.406529   6.950140   6.530538   5.458644   5.838638
    44  H    5.340373   6.807469   7.640027   6.093513   7.887904
    45  H    5.290045   6.267501   7.551100   6.051169   8.244520
    46  H    3.701152   3.148173   4.822250   4.278160   6.420546
    47  H    5.405857   4.933972   6.433824   5.568428   7.760834
    48  H    4.664321   4.209986   5.180555   3.988207   6.149459
    49  H    2.519925   2.693174   3.448329   2.114046   4.415219
    50  Cu   4.674578   4.707930   2.682453   3.511934   1.771980
                   41         42         43         44         45
    41  H    0.000000
    42  H    2.700314   0.000000
    43  H    4.705702   2.443185   0.000000
    44  H    6.813667   5.839438   4.621382   0.000000
    45  H    7.436966   7.166056   6.624582   2.458499   0.000000
    46  H    6.546005   7.228986   8.145765   6.137701   4.533961
    47  H    7.710897   8.602923   9.308969   6.609568   4.524157
    48  H    6.032174   7.227850   8.157385   6.157201   4.547395
    49  H    4.228019   4.907526   5.957003   4.955252   4.276951
    50  Cu   2.882917   3.292685   5.717758   8.412813   9.026760
                   46         47         48         49         50
    46  H    0.000000
    47  H    1.803319   0.000000
    48  H    1.821638   1.803089   0.000000
    49  H    2.439641   3.722532   2.440761   0.000000
    50  Cu   7.263953   8.815441   7.372656   5.354167   0.000000
 Symmetry turned off by external request.
 Stoichiometry    C20H25CuN3O(2+,2)
 Framework group  C1[X(C20H25CuN3O)]
 Deg. of freedom   144
 Full point group                 C1      NOp   1
 Rotational constants (GHZ):           0.2651688           0.1404155           0.1156018
 Leave Link  202 at Fri Mar  8 03:35:16 2024, MaxMem= 13421772800 cpu:               1.7 elap:               0.1
 (Enter /public/software/apps/Gaussian/g16/l301.exe)
 Standard basis: def2SVPP (5D, 7F)
 Ernie: Thresh=  0.10000D-02 Tol=  0.10000D-05 Strict=F.
   410 basis functions,   771 primitive gaussians,   436 cartesian basis functions
   101 alpha electrons      100 beta electrons
       nuclear repulsion energy      2749.7533524833 Hartrees.
 IExCor=  402 DFT=T Ex+Corr=B3LYP ExCW=0 ScaHFX=  0.200000
 ScaDFX=  0.800000  0.720000  1.000000  0.810000 ScalE2=  1.000000  1.000000
 IRadAn=      5 IRanWt=     -1 IRanGd=            0 ICorTp=0 IEmpDi=141
 NAtoms=   50 NActive=   50 NUniq=   50 SFac= 1.00D+00 NAtFMM=   60 NAOKFM=F Big=F
 Integral buffers will be    131072 words long.
 Raffenetti 2 integral format.
 Two-electron integral symmetry is turned off.
 R6Disp:  Grimme-D3(BJ) Dispersion energy=       -0.1264584082 Hartrees.
 Nuclear repulsion after empirical dispersion term =     2749.6268940750 Hartrees.
 Leave Link  301 at Fri Mar  8 03:35:16 2024, MaxMem= 13421772800 cpu:               0.7 elap:               0.0
 (Enter /public/software/apps/Gaussian/g16/l302.exe)
 NPDir=0 NMtPBC=     1 NCelOv=     1 NCel=       1 NClECP=     1 NCelD=      1
         NCelK=      1 NCelE2=     1 NClLst=     1 CellRange=     0.0.
 One-electron integrals computed using PRISM.
   1 Symmetry operations used in ECPInt.
 ECPInt:  NShTT=   20910 NPrTT=   87163 LenC2=   19296 LenP2D=   53878.
 LDataN:  DoStor=T MaxTD1= 4 Len=   56
 NBasis=   410 RedAO= T EigKep=  2.22D-04  NBF=   410
 NBsUse=   410 1.00D-06 EigRej= -1.00D+00 NBFU=   410
 Precomputing XC quadrature grid using
 IXCGrd= 4 IRadAn=           5 IRanWt=          -1 IRanGd=           0 AccXCQ= 0.00D+00.
 Generated NRdTot=       0 NPtTot=           0 NUsed=           0 NTot=          32
 NSgBfM=   433   432   432   432   433 MxSgAt=    50 MxSgA2=    50.
 Leave Link  302 at Fri Mar  8 03:35:16 2024, MaxMem= 13421772800 cpu:              13.8 elap:               0.5
 (Enter /public/software/apps/Gaussian/g16/l303.exe)
 DipDrv:  MaxL=1.
 Leave Link  303 at Fri Mar  8 03:35:16 2024, MaxMem= 13421772800 cpu:               3.6 elap:               0.1
 (Enter /public/software/apps/Gaussian/g16/l401.exe)
 ExpMin= 3.30D-02 ExpMax= 7.64D+04 ExpMxC= 1.15D+04 IAcc=3 IRadAn=         5 AccDes= 0.00D+00
 Harris functional with IExCor=  402 and IRadAn=       5 diagonalized for initial guess.
 HarFok:  IExCor=  402 AccDes= 0.00D+00 IRadAn=         5 IDoV= 1 UseB2=F ITyADJ=14
 ICtDFT=  3500011 ScaDFX=  1.000000  1.000000  1.000000  1.000000
 FoFCou: FMM=F IPFlag=           0 FMFlag=      100000 FMFlg1=           0
         NFxFlg=           0 DoJE=T BraDBF=F KetDBF=T FulRan=T
         wScrn=  0.000000 ICntrl=       500 IOpCl=  0 I1Cent=   200000004 NGrid=           0
         NMat0=    1 NMatS0=      1 NMatT0=    0 NMatD0=    1 NMtDS0=    0 NMtDT0=    0
 Symmetry not used in FoFCou.
 Harris En= -2655.88919184998    
 JPrj=0 DoOrth=F DoCkMO=F.
 Initial guess <Sx>= 0.0000 <Sy>= 0.0000 <Sz>= 0.5000 <S**2>= 0.7500 S= 0.5000
 Leave Link  401 at Fri Mar  8 03:35:17 2024, MaxMem= 13421772800 cpu:              36.7 elap:               1.2
 (Enter /public/software/apps/Gaussian/g16/l502.exe)
 Two-electron integral symmetry not used.
 UHF open shell SCF:
 Using DIIS extrapolation, IDIIS=  1040.
 NGot= 13421772800 LenX= 13421373610 LenY= 13421183073
 Requested convergence on RMS density matrix=1.00D-08 within 128 cycles.
 Requested convergence on MAX density matrix=1.00D-06.
 Requested convergence on             energy=1.00D-06.
 No special actions if energy rises.
 Fock matrices will be formed incrementally for  20 cycles.

 Cycle   1  Pass 1  IDiag  1:
 FoFJK:  IHMeth= 1 ICntrl=       0 DoSepK=F KAlg= 0 I1Cent=           0 FoldK=F
 IRaf= 870000000 NMat=       1 IRICut=       1 DoRegI=T DoRafI=F ISym2E= 0 IDoP0=0 IntGTp=1.
 FoFCou: FMM=F IPFlag=           0 FMFlag=      100000 FMFlg1=           0
         NFxFlg=           0 DoJE=F BraDBF=F KetDBF=F FulRan=T
         wScrn=  0.000000 ICntrl=         0 IOpCl=  1 I1Cent=           0 NGrid=           0
         NMat0=    1 NMatS0=      1 NMatT0=    0 NMatD0=    1 NMtDS0=    0 NMtDT0=    0
 Symmetry not used in FoFCou.
 E= -2649.12144348827    
 DIIS: error= 1.68D-01 at cycle   1 NSaved=   1.
 NSaved= 1 IEnMin= 1 EnMin= -2649.12144348827     IErMin= 1 ErrMin= 1.68D-01
 ErrMax= 1.68D-01  0.00D+00 EMaxC= 1.00D-01 BMatC= 2.70D+01 BMatP= 2.70D+01
 IDIUse=3 WtCom= 0.00D+00 WtEn= 1.00D+00
 Coeff-Com:  0.100D+01
 Coeff-En:   0.100D+01
 Coeff:      0.100D+01
 Gap=     0.423 Goal=   None    Shift=    0.000
 Gap=     0.180 Goal=   None    Shift=    0.000
 GapD=    0.180 DampG=1.000 DampE=0.125 DampFc=0.1250 IDamp=-1.
 Damping current iteration by 1.25D-01
 RMSDP=6.61D-02 MaxDP=7.78D+00              OVMax= 9.92D-01

 Cycle   2  Pass 1  IDiag  1:
 RMSU=  8.26D-03    CP:  9.96D-01
 E= -2650.17303577537     Delta-E=       -1.051592287096 Rises=F Damp=T
 DIIS: error= 1.04D-01 at cycle   2 NSaved=   2.
 NSaved= 2 IEnMin= 2 EnMin= -2650.17303577537     IErMin= 2 ErrMin= 1.04D-01
 ErrMax= 1.04D-01  0.00D+00 EMaxC= 1.00D-01 BMatC= 9.70D+00 BMatP= 2.70D+01
 IDIUse=3 WtCom= 0.00D+00 WtEn= 1.00D+00
 Coeff-Com: -0.757D+00 0.176D+01
 Coeff-En:   0.316D+00 0.684D+00
 Coeff:      0.316D+00 0.684D+00
 Gap=    -0.175 Goal=   None    Shift=    0.000
 Gap=     0.473 Goal=   None    Shift=    0.000
 RMSDP=1.45D-02 MaxDP=2.15D+00 DE=-1.05D+00 OVMax= 9.24D-01

 Cycle   3  Pass 1  IDiag  1:
 RMSU=  1.44D-02    CP:  9.17D-01  1.05D+00
 E= -2641.41323683163     Delta-E=        8.759798943745 Rises=F Damp=F
 DIIS: error= 1.15D-01 at cycle   3 NSaved=   3.
 NSaved= 3 IEnMin= 2 EnMin= -2650.17303577537     IErMin= 2 ErrMin= 1.04D-01
 ErrMax= 1.15D-01  0.00D+00 EMaxC= 1.00D-01 BMatC= 3.02D+01 BMatP= 9.70D+00
 IDIUse=2 WtCom= 0.00D+00 WtEn= 1.00D+00
 EnCoef did   100 forward-backward iterations
 Coeff-En:   0.618D+00 0.147D-01 0.367D+00
 Coeff:      0.618D+00 0.147D-01 0.367D+00
 Gap=     0.294 Goal=   None    Shift=    0.000
 Gap=    -0.034 Goal=   None    Shift=    0.000
 RMSDP=1.57D-02 MaxDP=2.98D+00 DE= 8.76D+00 OVMax= 9.97D-01

 Cycle   4  Pass 1  IDiag  1:
 RMSU=  7.22D-03    CP:  9.04D-01  1.09D-01  1.91D-01
 E= -2651.08572301815     Delta-E=       -9.672486186526 Rises=F Damp=F
 DIIS: error= 7.52D-02 at cycle   4 NSaved=   4.
 NSaved= 4 IEnMin= 4 EnMin= -2651.08572301815     IErMin= 4 ErrMin= 7.52D-02
 ErrMax= 7.52D-02  0.00D+00 EMaxC= 1.00D-01 BMatC= 1.32D+01 BMatP= 9.70D+00
 IDIUse=2 WtCom= 0.00D+00 WtEn= 1.00D+00
 EnCoef did   100 forward-backward iterations
 Coeff-En:   0.450D+00 0.459D-02 0.195D+00 0.350D+00
 Coeff:      0.450D+00 0.459D-02 0.195D+00 0.350D+00
 Gap=     0.116 Goal=   None    Shift=    0.000
 Gap=     0.231 Goal=   None    Shift=    0.000
 RMSDP=6.94D-03 MaxDP=9.08D-01 DE=-9.67D+00 OVMax= 9.13D-01

 Cycle   5  Pass 1  IDiag  1:
 RMSU=  5.21D-03    CP:  9.22D-01  1.42D-01  2.49D-01  3.78D-01
 E= -2653.71329956856     Delta-E=       -2.627576550411 Rises=F Damp=F
 DIIS: error= 4.97D-02 at cycle   5 NSaved=   5.
 NSaved= 5 IEnMin= 5 EnMin= -2653.71329956856     IErMin= 5 ErrMin= 4.97D-02
 ErrMax= 4.97D-02  0.00D+00 EMaxC= 1.00D-01 BMatC= 5.62D+00 BMatP= 9.70D+00
 IDIUse=3 WtCom= 5.03D-01 WtEn= 4.97D-01
 EnCoef did   100 forward-backward iterations
 Coeff-Com: -0.852D-01 0.464D+00-0.710D-01 0.184D+00 0.508D+00
 Coeff-En:   0.226D+00 0.202D-02 0.000D+00 0.248D+00 0.524D+00
 Coeff:      0.694D-01 0.234D+00-0.357D-01 0.216D+00 0.516D+00
 Gap=     0.015 Goal=   None    Shift=    0.000
 Gap=     0.354 Goal=   None    Shift=    0.000
 RMSDP=4.99D-03 MaxDP=1.19D+00 DE=-2.63D+00 OVMax= 4.21D-01

 Cycle   6  Pass 1  IDiag  1:
 RMSU=  3.35D-03    CP:  9.18D-01  1.56D-02  1.27D-01  4.22D-01  4.10D-01
 E= -2655.24073622717     Delta-E=       -1.527436658604 Rises=F Damp=F
 DIIS: error= 1.55D-02 at cycle   6 NSaved=   6.
 NSaved= 6 IEnMin= 6 EnMin= -2655.24073622717     IErMin= 6 ErrMin= 1.55D-02
 ErrMax= 1.55D-02  0.00D+00 EMaxC= 1.00D-01 BMatC= 1.27D+00 BMatP= 5.62D+00
 IDIUse=3 WtCom= 8.45D-01 WtEn= 1.55D-01
 Coeff-Com: -0.189D+00 0.435D+00-0.509D-01 0.521D-01 0.251D+00 0.501D+00
 Coeff-En:   0.000D+00 0.000D+00 0.000D+00 0.000D+00 0.148D+00 0.852D+00
 Coeff:     -0.159D+00 0.368D+00-0.430D-01 0.441D-01 0.235D+00 0.555D+00
 Gap=     0.204 Goal=   None    Shift=    0.000
 Gap=     0.011 Goal=   None    Shift=    0.000
 RMSDP=2.90D-03 MaxDP=1.91D-01 DE=-1.53D+00 OVMax= 9.77D-01

 Cycle   7  Pass 1  IDiag  1:
 RMSU=  2.40D-03    CP:  9.17D-01  1.47D-02  1.30D-01  4.79D-01  4.67D-01
                    CP:  5.36D-01
 E= -2655.34940938427     Delta-E=       -0.108673157107 Rises=F Damp=F
 DIIS: error= 2.26D-02 at cycle   7 NSaved=   7.
 NSaved= 7 IEnMin= 7 EnMin= -2655.34940938427     IErMin= 6 ErrMin= 1.55D-02
 ErrMax= 2.26D-02  0.00D+00 EMaxC= 1.00D-01 BMatC= 1.09D+00 BMatP= 1.27D+00
 IDIUse=3 WtCom= 8.45D-01 WtEn= 1.55D-01
 Coeff-Com: -0.158D+00 0.325D+00-0.116D-01-0.332D-01-0.168D-01 0.427D+00
 Coeff-Com:  0.468D+00
 Coeff-En:   0.000D+00 0.000D+00 0.000D+00 0.000D+00 0.000D+00 0.428D+00
 Coeff-En:   0.572D+00
 Coeff:     -0.134D+00 0.275D+00-0.979D-02-0.280D-01-0.142D-01 0.427D+00
 Coeff:      0.484D+00
 Gap=     0.251 Goal=   None    Shift=    0.000
 Gap=    -0.036 Goal=   None    Shift=    0.000
 RMSDP=2.00D-03 MaxDP=1.50D-01 DE=-1.09D-01 OVMax= 9.82D-01

 Cycle   8  Pass 1  IDiag  1:
 RMSU=  1.65D-03    CP:  9.17D-01  2.13D-02  1.20D-01  4.89D-01  3.97D-01
                    CP:  6.12D-01  5.77D-01
 E= -2655.60087289632     Delta-E=       -0.251463512051 Rises=F Damp=F
 DIIS: error= 1.35D-02 at cycle   8 NSaved=   8.
 NSaved= 8 IEnMin= 8 EnMin= -2655.60087289632     IErMin= 8 ErrMin= 1.35D-02
 ErrMax= 1.35D-02  0.00D+00 EMaxC= 1.00D-01 BMatC= 2.77D-01 BMatP= 1.09D+00
 IDIUse=3 WtCom= 8.65D-01 WtEn= 1.35D-01
 EnCoef did     3 forward-backward iterations
 Coeff-Com: -0.725D-01 0.169D+00-0.269D-02-0.713D-01-0.450D-01 0.244D+00
 Coeff-Com:  0.305D+00 0.473D+00
 Coeff-En:   0.000D+00 0.000D+00 0.000D+00 0.000D+00 0.000D+00 0.379D-01
 Coeff-En:   0.116D+00 0.846D+00
 Coeff:     -0.627D-01 0.147D+00-0.232D-02-0.617D-01-0.390D-01 0.216D+00
 Coeff:      0.280D+00 0.523D+00
 Gap=     0.157 Goal=   None    Shift=    0.000
 Gap=     0.050 Goal=   None    Shift=    0.000
 RMSDP=7.58D-04 MaxDP=2.65D-02 DE=-2.51D-01 OVMax= 1.38D-01

 Cycle   9  Pass 1  IDiag  1:
 RMSU=  7.10D-04    CP:  9.19D-01  2.21D-02  1.19D-01  4.62D-01  4.08D-01
                    CP:  6.02D-01  6.21D-01  9.26D-01
 E= -2655.63807315231     Delta-E=       -0.037200255982 Rises=F Damp=F
 DIIS: error= 1.15D-02 at cycle   9 NSaved=   9.
 NSaved= 9 IEnMin= 9 EnMin= -2655.63807315231     IErMin= 9 ErrMin= 1.15D-02
 ErrMax= 1.15D-02  0.00D+00 EMaxC= 1.00D-01 BMatC= 9.24D-02 BMatP= 2.77D-01
 IDIUse=3 WtCom= 8.85D-01 WtEn= 1.15D-01
 Coeff-Com: -0.132D-01 0.566D-01-0.509D-02-0.655D-01 0.822D-02 0.636D-01
 Coeff-Com:  0.535D-01 0.274D+00 0.628D+00
 Coeff-En:   0.000D+00 0.000D+00 0.000D+00 0.000D+00 0.000D+00 0.000D+00
 Coeff-En:   0.000D+00 0.000D+00 0.100D+01
 Coeff:     -0.117D-01 0.501D-01-0.450D-02-0.580D-01 0.728D-02 0.563D-01
 Coeff:      0.473D-01 0.243D+00 0.670D+00
 Gap=     0.181 Goal=   None    Shift=    0.000
 Gap=     0.018 Goal=   None    Shift=    0.000
 RMSDP=5.25D-04 MaxDP=3.15D-02 DE=-3.72D-02 OVMax= 1.22D-01

 Cycle  10  Pass 1  IDiag  1:
 RMSU=  4.60D-04    CP:  9.21D-01  2.26D-02  1.18D-01  4.39D-01  4.33D-01
                    CP:  5.95D-01  6.19D-01  9.53D-01  8.30D-01
 E= -2655.65326483343     Delta-E=       -0.015191681119 Rises=F Damp=F
 DIIS: error= 5.65D-03 at cycle  10 NSaved=  10.
 NSaved=10 IEnMin=10 EnMin= -2655.65326483343     IErMin=10 ErrMin= 5.65D-03
 ErrMax= 5.65D-03  0.00D+00 EMaxC= 1.00D-01 BMatC= 3.30D-02 BMatP= 9.24D-02
 IDIUse=3 WtCom= 9.43D-01 WtEn= 5.65D-02
 Coeff-Com:  0.163D-02 0.134D-01-0.298D-02-0.281D-01 0.358D-02 0.809D-02
 Coeff-Com:  0.437D-02-0.951D-01 0.443D+00 0.652D+00
 Coeff-En:   0.000D+00 0.000D+00 0.000D+00 0.000D+00 0.000D+00 0.000D+00
 Coeff-En:   0.000D+00 0.000D+00 0.110D+00 0.890D+00
 Coeff:      0.154D-02 0.126D-01-0.281D-02-0.265D-01 0.337D-02 0.763D-02
 Coeff:      0.412D-02-0.897D-01 0.424D+00 0.666D+00
 Gap=     0.114 Goal=   None    Shift=    0.000
 Gap=     0.007 Goal=   None    Shift=    0.000
 RMSDP=4.77D-04 MaxDP=1.77D-02 DE=-1.52D-02 OVMax= 2.05D-01

 Cycle  11  Pass 1  IDiag  1:
 RMSU=  3.92D-04    CP:  9.22D-01  2.30D-02  1.16D-01  4.26D-01  4.43D-01
                    CP:  5.91D-01  6.45D-01  8.84D-01  1.12D+00  9.23D-01
 E= -2655.66004668675     Delta-E=       -0.006781853329 Rises=F Damp=F
 DIIS: error= 3.15D-03 at cycle  11 NSaved=  11.
 NSaved=11 IEnMin=11 EnMin= -2655.66004668675     IErMin=11 ErrMin= 3.15D-03
 ErrMax= 3.15D-03  0.00D+00 EMaxC= 1.00D-01 BMatC= 9.58D-03 BMatP= 3.30D-02
 IDIUse=3 WtCom= 9.69D-01 WtEn= 3.15D-02
 Coeff-Com:  0.187D-02 0.115D-02-0.442D-03 0.799D-04-0.855D-02-0.289D-02
 Coeff-Com: -0.776D-02-0.158D+00 0.647D-01 0.493D+00 0.617D+00
 Coeff-En:   0.000D+00 0.000D+00 0.000D+00 0.000D+00 0.000D+00 0.000D+00
 Coeff-En:   0.000D+00 0.000D+00 0.000D+00 0.134D+00 0.866D+00
 Coeff:      0.181D-02 0.111D-02-0.428D-03 0.774D-04-0.828D-02-0.280D-02
 Coeff:     -0.752D-02-0.153D+00 0.627D-01 0.482D+00 0.624D+00
 Gap=     0.111 Goal=   None    Shift=    0.000
 Gap=     0.004 Goal=   None    Shift=    0.000
 RMSDP=7.82D-04 MaxDP=5.89D-02 DE=-6.78D-03 OVMax= 4.65D-01

 Cycle  12  Pass 1  IDiag  1:
 RMSU=  4.60D-04    CP:  9.23D-01  2.18D-02  1.16D-01  4.12D-01  4.59D-01
                    CP:  5.92D-01  7.27D-01  5.79D-01  1.00D+00  1.07D+00
                    CP:  1.71D+00
 E= -2655.62855933272     Delta-E=        0.031487354031 Rises=F Damp=F
 DIIS: error= 8.96D-03 at cycle  12 NSaved=  12.
 NSaved=12 IEnMin=11 EnMin= -2655.66004668675     IErMin=11 ErrMin= 3.15D-03
 ErrMax= 8.96D-03  0.00D+00 EMaxC= 1.00D-01 BMatC= 7.05D-02 BMatP= 9.58D-03
 IDIUse=3 WtCom= 9.69D-01 WtEn= 3.15D-02
 EnCoef did     2 forward-backward iterations
 Coeff-Com:  0.116D-02 0.244D-02-0.349D-03-0.633D-04-0.105D-01-0.215D-02
 Coeff-Com: -0.121D-01-0.131D+00 0.683D-01 0.459D+00 0.575D+00 0.505D-01
 Coeff-En:   0.000D+00 0.000D+00 0.000D+00 0.000D+00 0.000D+00 0.000D+00
 Coeff-En:   0.000D+00 0.000D+00 0.000D+00 0.144D+00 0.838D+00 0.180D-01
 Coeff:      0.112D-02 0.236D-02-0.338D-03-0.613D-04-0.101D-01-0.209D-02
 Coeff:     -0.118D-01-0.127D+00 0.662D-01 0.449D+00 0.583D+00 0.495D-01
 Gap=     0.116 Goal=   None    Shift=    0.000
 Gap=     0.008 Goal=   None    Shift=    0.000
 RMSDP=1.73D-04 MaxDP=1.47D-02 DE= 3.15D-02 OVMax= 1.04D-01

 Cycle  13  Pass 1  IDiag  1:
 RMSU=  4.98D-05    CP:  9.22D-01  2.20D-02  1.16D-01  4.16D-01  4.53D-01
                    CP:  5.93D-01  7.06D-01  6.58D-01  1.03D+00  1.07D+00
                    CP:  1.64D+00  8.47D-01
 E= -2655.64381199981     Delta-E=       -0.015252667084 Rises=F Damp=F
 DIIS: error= 6.54D-03 at cycle  13 NSaved=  13.
 NSaved=13 IEnMin=11 EnMin= -2655.66004668675     IErMin=11 ErrMin= 3.15D-03
 ErrMax= 6.54D-03  0.00D+00 EMaxC= 1.00D-01 BMatC= 3.90D-02 BMatP= 9.58D-03
 IDIUse=3 WtCom= 9.69D-01 WtEn= 3.15D-02
 EnCoef did     2 forward-backward iterations
 Coeff-Com:  0.923D-03 0.177D-02-0.444D-03 0.131D-02-0.733D-02-0.225D-02
 Coeff-Com: -0.161D-01-0.694D-01 0.407D-01 0.248D+00 0.335D+00-0.110D+01
 Coeff-Com:  0.157D+01
 Coeff-En:   0.000D+00 0.000D+00 0.000D+00 0.000D+00 0.000D+00 0.000D+00
 Coeff-En:   0.000D+00 0.000D+00 0.000D+00 0.154D+00 0.788D+00 0.000D+00
 Coeff-En:   0.584D-01
 Coeff:      0.894D-03 0.172D-02-0.430D-03 0.127D-02-0.709D-02-0.218D-02
 Coeff:     -0.156D-01-0.672D-01 0.394D-01 0.246D+00 0.350D+00-0.107D+01
 Coeff:      0.152D+01
 Gap=     0.122 Goal=   None    Shift=    0.000
 Gap=     0.012 Goal=   None    Shift=    0.000
 RMSDP=1.73D-04 MaxDP=1.38D-02 DE=-1.53D-02 OVMax= 1.02D-01

 Cycle  14  Pass 1  IDiag  1:
 RMSU=  2.78D-05    CP:  9.23D-01  2.22D-02  1.15D-01  4.19D-01  4.46D-01
                    CP:  5.94D-01  6.84D-01  7.36D-01  1.05D+00  1.06D+00
                    CP:  1.50D+00  7.02D-01  1.52D+00
 E= -2655.65431395072     Delta-E=       -0.010501950913 Rises=F Damp=F
 DIIS: error= 4.13D-03 at cycle  14 NSaved=  14.
 NSaved=14 IEnMin=11 EnMin= -2655.66004668675     IErMin=11 ErrMin= 3.15D-03
 ErrMax= 4.13D-03  0.00D+00 EMaxC= 1.00D-01 BMatC= 1.67D-02 BMatP= 9.58D-03
 IDIUse=3 WtCom= 9.69D-01 WtEn= 3.15D-02
 EnCoef did     3 forward-backward iterations
 Coeff-Com: -0.588D-03 0.376D-02-0.368D-03 0.773D-03-0.568D-02 0.204D-02
 Coeff-Com: -0.967D-02-0.294D-01 0.307D-01 0.119D+00 0.173D+00-0.120D+01
 Coeff-Com:  0.128D+01 0.636D+00
 Coeff-En:   0.000D+00 0.000D+00 0.000D+00 0.000D+00 0.000D+00 0.000D+00
 Coeff-En:   0.000D+00 0.000D+00 0.000D+00 0.152D+00 0.685D+00 0.000D+00
 Coeff-En:   0.000D+00 0.163D+00
 Coeff:     -0.570D-03 0.364D-02-0.357D-03 0.748D-03-0.550D-02 0.197D-02
 Coeff:     -0.937D-02-0.285D-01 0.298D-01 0.120D+00 0.189D+00-0.116D+01
 Coeff:      0.124D+01 0.621D+00
 Gap=     0.128 Goal=   None    Shift=    0.000
 Gap=     0.015 Goal=   None    Shift=    0.000
 RMSDP=1.66D-04 MaxDP=1.24D-02 DE=-1.05D-02 OVMax= 9.70D-02

[...]
 .00000179,0.00000184,-0.00000359,-0.00000034,-0.00001268,-0.00001844,-
 0.00002845,0.00000949,0.00003062,-0.00000274,0.00000217,-0.00000261,0.
 00001091,0.00000882,-0.00000206,0.00000027,-0.00000211,-0.00000194,0.0
 0000019,0.00000273,-0.00000090,0.00000043,0.00000224,0.00000152,-0.000
 00170,0.00000036,-0.00000143,0.00000579,-0.00002163,0.00001017,-0.0000
 0841,0.00000009,-0.00000817,0.00226357,0.00761050,0.00186943,0.1152441
 1,0.29156470,0.00011969,-0.00011275,-0.00010685,-0.00018047,0.00016756
 ,0.00008234,0.00007307,-0.00011118,-0.00003019,-0.00002793,0.00011621,
 0.00003731,0.00007157,-0.00002829,-0.00000955,-0.00002002,0.00003408,0
 .00003646,0.00003328,-0.00001031,-0.00001941,-0.00006446,-0.00000227,0
 .00005633,0.00004823,-0.00001090,-0.00002848,-0.00010397,-0.00001211,-
 0.00005684,-0.00003587,-0.00008232,-0.00001940,0.00007358,0.00002428,0
 .00001982,-0.00005374,-0.00014747,-0.00002850,-0.00004726,0.00006093,0
 .00010447,0.00005024,0.00000122,-0.00004843,-0.00004344,0.00004290,0.0
 0005245,0.00013324,0.00004322,-0.00011273,0.00033392,0.00033112,-0.000
 19525,-0.00025932,-0.00119431,-0.00048853,0.00240572,-0.00064985,-0.00
 298042,-0.00929323,-0.03576408,-0.01781639,-0.01638791,-0.02603561,-0.
 05118811,0.00073701,0.00013198,-0.00044194,-0.00028901,-0.00002049,0.0
 0044349,0.00000066,0.00000213,0.00000110,-0.00000129,-0.00000819,0.000
 00512,0.00000170,-0.00000562,-0.00000165,-0.00000040,0.00000352,0.0000
 0614,-0.00000390,-0.00001489,-0.00000481,0.,-0.00000306,0.00000261,0.0
 0000187,0.00000017,-0.00000704,0.00000244,0.00000225,0.00000725,0.0000
 0062,0.00000485,-0.00001036,-0.00000056,0.00000449,0.00001089,-0.00000
 015,0.00000397,-0.00000194,-0.00000149,-0.00000076,-0.00001085,-0.0000
 1447,0.00002019,0.00001851,-0.00000330,-0.00000084,-0.00000212,0.00000
 014,0.00000143,0.00002701,-0.00000886,-0.00000492,-0.00000445,-0.00000
 005,0.00000128,0.00000005,-0.00000568,0.00001404,0.00000404,0.00000404
 ,-0.00000335,0.00000195,-0.00004734,-0.00006158,-0.00001784,0.00000596
 ,-0.00000372,0.00000543,-0.00253034,-0.00324825,0.00055906,0.01511521,
 0.04707520,0.06489438,-0.00034379,0.00033678,0.00031845,0.00051137,-0.
 00047273,-0.00026230,-0.00018722,0.00028982,0.00009018,0.00004680,-0.0
 0029883,-0.00007211,-0.00010734,0.00011976,0.00005731,0.00007082,-0.00
 010618,-0.00011116,-0.00004868,0.00002838,0.00004721,0.00011549,0.0000
 4830,-0.00013312,-0.00004172,-0.00003985,0.00000571,0.00016418,-0.0000
 0652,0.00015203,-0.00005546,-0.00000462,-0.00011277,-0.00008717,0.0000
 9549,0.00001268,0.00006122,0.00003138,-0.00015899,-0.00001021,0.000069
 68,0.00003791,0.00006256,-0.00001583,-0.00010653,-0.00015510,-0.000127
 33,0.00005874,0.00014710,0.00026263,0.00000232,-0.00020795,-0.00025531
 ,-0.00005929,-0.00073853,0.00069495,0.00009114,0.00040977,-0.00333835,
 -0.00070320,0.00098887,-0.00632457,0.01923111,-0.06560201,0.04185760,-
 0.05049661,0.00120373,0.00075913,-0.00044636,-0.00019886,-0.00012694,0
 .00023838,-0.00000678,-0.00000321,-0.00000140,0.00000160,0.00001933,-0
 .00001289,-0.00000555,0.00001189,0.00000691,-0.00000709,-0.00000453,-0
 .00001107,0.00000246,0.00003704,0.00001058,0.00000793,0.00000526,-0.00
 000425,-0.00001508,0.00000058,0.00001173,-0.00000838,-0.00000183,-0.00
 001112,-0.00000504,-0.00001586,0.00002236,0.00000440,-0.00000323,-0.00
 001773,0.00000905,-0.00001431,0.00001445,-0.00003164,0.00003595,0.0000
 2558,0.00000422,0.00003142,-0.00004532,-0.00002413,-0.00000559,0.00001
 068,-0.00000212,-0.00003087,0.00003216,-0.00001411,-0.00002753,0.00001
 959,0.00000782,-0.00003629,-0.00002157,0.00001091,-0.00003163,-0.00001
 222,0.00000802,-0.00000248,0.00000979,0.00007360,-0.00003714,0.0000635
 2,0.00007372,-0.00001768,0.00000790,-0.00224594,0.01908727,-0.02191962
 ,0.00484110,-0.00780173,0.01070087,0.06176917,-0.00005532,0.00005334,0
 .00005114,0.00008186,-0.00008029,-0.00004164,-0.00002659,0.00007599,0.
 00000667,0.00000956,-0.00007783,-0.00001189,-0.00003734,0.00005734,0.0
 0000662,0.00003753,-0.00005150,-0.00002235,-0.00000714,0.00001772,0.00
 000396,0.00000727,-0.00001297,-0.00000125,0.00000739,-0.00000110,-0.00
 005559,0.00008094,-0.00001406,0.00009860,-0.00002713,0.00002002,-0.000
 08891,-0.00004967,0.00003841,0.00002189,-0.00002332,-0.00014761,-0.000
 11530,-0.00005147,0.00014244,0.00030375,0.00027098,0.00019475,-0.00024
 348,-0.00016690,-0.00046750,0.00004824,0.00031197,0.00041274,-0.000131
 35,0.00011237,0.00007294,0.00008632,0.00078237,-0.00093507,0.00007791,
 -0.00057483,0.00184636,-0.00078153,-0.00422500,0.01054610,-0.01563144,
 0.04180031,-0.16774328,0.13151296,-0.00036322,0.00047923,0.00016953,0.
 00005224,0.00003302,-0.00002406,-0.00000296,-0.00000385,0.00000249,0.0
 0000053,0.00000464,-0.00000278,-0.00000150,0.00000085,0.00000134,-0.00
 000217,-0.00000482,-0.00000048,0.00000019,0.00001180,0.00000360,-0.000
 00007,0.00000299,-0.00000185,-0.00000981,0.00000430,0.00000580,-0.0000
 0881,0.00000428,-0.00000168,0.00000194,-0.00001179,0.00000366,-0.00000
 151,0.00000053,-0.00000142,-0.00001398,0.00000096,-0.00000203,-0.00000
 797,-0.00002226,0.00002238,-0.00001745,-0.00001075,0.00002530,-0.00001
 916,0.00000682,-0.00000401,-0.00000073,0.00001180,0.00000821,-0.000012
 26,-0.00000774,0.00000630,-0.00000016,-0.00001364,-0.00002759,-0.00000
 256,-0.00001650,-0.00000104,-0.00004267,0.00001471,-0.00003086,-0.0001
 3165,0.00006394,-0.00006010,-0.00004079,-0.00000017,-0.00002541,-0.001
 32732,-0.00000295,-0.00024139,0.00842318,-0.01247365,0.01941947,-0.044
 27615,0.16884083,0.00034533,-0.00033474,-0.00031658,-0.00051845,0.0004
 7828,0.00025394,0.00020246,-0.00030999,-0.00009433,-0.00006996,0.00032
 087,0.00009526,0.00016758,-0.00010361,-0.00003218,-0.00006505,0.000102
 61,0.00010454,0.00008902,-0.00002448,-0.00005573,-0.00016485,-0.000003
 95,0.00014910,0.00012335,-0.00002833,-0.00006412,-0.00025142,-0.000010
 95,-0.00015702,-0.00005334,-0.00013454,0.00001568,0.00016814,0.0000126
 3,0.00000788,-0.00016055,-0.00035794,0.00003117,-0.00010011,0.00020628
 ,0.00028239,0.00020041,0.00008224,-0.00015508,-0.00006729,0.00002635,0
 .00005337,0.00017592,-0.00008912,-0.00023067,0.00043737,0.00079003,0.0
 0033463,0.00111335,-0.00197823,-0.00120947,0.00133531,0.00711909,0.002
 59932,0.00072103,0.00590522,-0.03513362,-0.04616572,0.12342277,-0.1865
 4273,-0.00060228,-0.00051397,0.00032332,-0.00024765,0.00032925,0.00061
 571,0.00000511,0.00000550,0.00000118,-0.00000179,-0.00002092,0.0000137
 0,0.00000697,-0.00001186,-0.00000551,0.00000115,0.00000728,0.00001719,
 -0.00000655,-0.00004365,-0.00001163,-0.00000201,-0.00000668,0.00000509
 ,0.00000733,0.00000175,-0.00001756,0.00000635,0.00000231,0.00001792,-0
 .00000158,0.00001856,-0.00002369,-0.00000206,0.00000923,0.00002630,0.0
 0000734,0.00000760,-0.00001002,-0.00000408,0.00000875,-0.00001519,-0.0
 0001709,0.00003438,0.00003673,0.00000592,-0.00000715,-0.00000538,0.000
 01904,0.00002877,0.00002314,-0.00000380,0.00000629,-0.00001463,0.00000
 179,0.00001890,0.00001706,-0.00001214,0.00004486,0.00001763,0.00000553
 ,-0.00000570,-0.00000343,-0.00013171,0.00005209,-0.00008654,-0.0001636
 3,0.00007589,0.00005774,-0.00084006,0.00159576,0.00101056,0.00168348,-
 0.00273059,0.00698884,0.04379996,-0.13335875,0.21135880,0.00021573,-0.
 00023114,-0.00020487,-0.00046175,0.00033527,0.00016210,0.00032134,-0.0
 0023511,-0.00019670,-0.00012542,0.00030227,0.00011314,0.00020791,0.000
 03625,0.00000182,-0.00006614,0.00007823,0.00008654,0.00019563,-0.00005
 888,-0.00002445,-0.00040116,0.00006665,0.00041755,-0.00027578,-0.00006
 194,-0.00100929,-0.00053193,-0.00043662,-0.00044484,-0.00068808,-0.001
 54242,0.00055629,0.00014870,-0.00014868,0.00006810,-0.00264061,0.00063
 938,-0.00081843,-0.00107604,0.00109511,-0.00011776,0.00025321,0.000144
 94,-0.00016364,-0.00025191,0.00059972,-0.00154210,0.00347240,-0.004093
 11,0.00211769,-0.00061614,0.00016511,-0.00114609,-0.00042981,-0.004156
 25,0.00096103,-0.00414037,0.00607569,0.01978768,-0.00088842,0.00129133
 ,-0.00194206,0.00033412,-0.00026291,0.00111912,-0.10661039,0.02146981,
 0.12353164,0.00958072,-0.00001289,-0.00448698,-0.00000666,-0.00000660,
 0.00000692,0.00001148,0.00000346,-0.00000032,-0.00000734,-0.00003128,0
 .00000927,-0.00000159,0.00003467,0.00001579,-0.00002421,-0.00004850,-0
 .00002053,-0.00000139,-0.00002018,0.00001607,-0.00000007,0.00000245,-0
 .00002435,0.00001559,0.00000913,0.00002163,-0.00000107,0.00002923,-0.0
 0002545,-0.00000012,0.00002639,0.00005662,0.00006543,0.00000431,0.0000
 0953,-0.00144125,-0.00004766,-0.00040519,-0.00020125,0.00029142,0.0000
 7977,0.00001922,0.00000974,0.00001738,-0.00072922,-0.00172184,0.000638
 02,0.00011308,-0.00000145,0.00001097,0.00002586,0.00006108,0.00004649,
 0.00012955,-0.00000206,0.00019433,0.00058419,-0.00034030,0.00044232,-0
 .00002954,0.00003503,-0.00000324,-0.00010378,0.00030798,0.00084671,0.0
 0034318,0.00012127,0.00000057,0.00002877,0.00015376,-0.00045451,-0.000
 48473,-0.00048269,-0.00089556,0.10619013,0.00014687,-0.00010373,-0.000
 11273,-0.00014719,0.00020418,0.00005456,0.00000291,-0.00026282,0.00010
 371,-0.00003910,0.00027559,0.00011671,0.00037435,-0.00028653,0.0000247
 4,-0.00000771,0.00014183,-0.00000550,0.00001518,-0.00002688,-0.0000463
 8,-0.00003255,0.00000116,-0.00020279,0.00019556,0.00007361,0.00059212,
 -0.00057132,0.00041565,0.00015595,-0.00160508,-0.00185918,-0.00123661,
 0.00082002,0.00088345,0.00024966,0.00174835,0.00061418,0.00100266,0.00
 075276,-0.00042922,0.00065994,0.00032789,0.00036378,-0.00006055,0.0014
 5853,-0.00085452,-0.00089066,-0.00485770,-0.00248060,-0.00199564,0.000
 46012,-0.00069412,0.00033288,-0.00335317,-0.00256063,-0.00018492,-0.00
 990197,0.01096175,0.01825743,0.00213958,-0.00052979,-0.00085553,-0.001
 28242,-0.00084036,0.00005939,0.02288152,-0.06830623,-0.06481600,0.0123
 2797,-0.00075538,-0.02326651,0.00001228,0.00002217,-0.00001010,-0.0000
 1486,-0.00003478,0.00001623,0.00001214,0.00001188,-0.00001165,-0.00000
 094,-0.00000113,0.00000296,-0.00000642,-0.00002695,-0.00000127,0.00003
 311,-0.00001848,-0.00000326,0.00001280,0.00000479,-0.00001511,0.000010
 52,-0.00000787,0.00003375,-0.00001358,0.00001220,-0.00000400,0.0000030
 2,0.00000158,0.00000232,0.00004573,-0.00000906,0.00002703,0.00027984,0
 .00018489,-0.00011412,0.00009353,-0.00002498,-0.00010430,-0.00005263,0
 .00001211,-0.00000364,-0.00100054,-0.00076440,0.00173395,-0.00015041,-
 0.00003603,0.00004651,0.00003170,-0.00007846,-0.00005289,-0.00015019,0
 .00008357,-0.00008049,-0.00052041,0.00021442,-0.00032042,0.00003872,0.
 00001253,-0.00000772,-0.00049270,0.00047190,0.00074245,-0.00009807,-0.
 00188504,-0.00055536,0.00011468,-0.00012207,0.00006472,-0.00041626,-0.
 00086770,-0.00057374,-0.01937118,0.06904403,-0.00000543,-0.00001412,0.
 00001877,-0.00009181,0.00002276,-0.00004770,0.00029597,0.00001707,-0.0
 0003873,-0.00006802,-0.00000919,0.00003831,-0.00001034,0.00018059,0.00
 003383,0.00001354,-0.00008374,0.00000002,0.00004200,0.00000308,-0.0000
 2338,-0.00002645,0.00009673,-0.00006197,0.00045616,0.00002099,0.000248
 65,-0.00021262,-0.00040901,-0.00020794,0.00091437,0.00120344,0.0004659
 5,-0.00007157,0.00004331,0.00026091,-0.00099224,0.00047859,-0.00166397
 ,-0.00127342,0.00096926,0.00022113,0.00025312,0.00031876,-0.00027510,0
 .00027878,0.00024683,-0.00170452,0.00080730,-0.00319219,0.00261823,-0.
 00080910,0.00066134,-0.00002511,0.00184288,0.00093171,0.00094220,0.005
 61774,-0.00442469,-0.00521843,-0.00134407,-0.00020282,-0.00147432,0.00
 011556,-0.00136924,0.00033348,0.12390366,-0.06392239,-0.26508003,0.008
 04820,-0.00200542,-0.00574746,-0.00001181,-0.00001457,0.00000866,0.000
 01409,0.00001738,-0.00001360,-0.00001381,-0.00002546,0.00001488,-0.000
 00417,0.00001291,0.00000307,-0.00001280,-0.00000084,-0.00001054,-0.000
 00695,-0.00000351,0.00000907,-0.00001041,0.00000546,0.00000365,-0.0000
 0069,0.00001926,-0.00000199,0.00000260,0.00000638,-0.00001578,0.000006
 20,0.00001057,0.00002382,0.00000615,0.00000339,0.00000717,-0.00049081,
 -0.00010374,-0.00067339,-0.00001477,-0.00001142,0.00022509,0.00011465,
 0.00008081,-0.00000012,0.00062386,0.00098523,0.00048198,0.00004645,-0.
 00000755,0.00003628,0.00003195,0.00005098,-0.00001383,0.00016025,-0.00
 007824,0.00013386,0.00049150,-0.00031369,0.00038461,0.00001636,-0.0000
 2785,-0.00003647,0.00019473,-0.00036284,-0.00020547,-0.00059898,-0.000
 23215,-0.00017647,-0.00049048,0.00000405,0.00026809,-0.00034772,-0.000
 97498,-0.00028062,-0.13744198,0.07139909,0.27618400,0.00159215,-0.0015
 7842,-0.00142650,-0.00251552,0.00211920,0.00122465,-0.00008221,-0.0009
 7836,0.00001955,-0.00252472,0.00721248,-0.00079241,-0.00382812,0.00518
 977,-0.00023922,0.00016253,-0.00033277,-0.00124448,0.00024031,-0.00012
 262,0.00037493,-0.00021575,0.00014155,0.00060308,-0.00096069,-0.000759
 97,-0.00095443,0.00235955,-0.00376929,0.00060000,-0.00623382,-0.011753
 51,0.00241677,-0.03290558,-0.00450899,-0.01860575,-0.00181744,0.000121
 86,0.00094078,-0.00246149,-0.00332374,0.00118158,-0.00093497,0.0001800
 4,0.00179867,0.00178582,0.00247024,-0.00065065,-0.00045196,-0.00151918
 ,-0.00049047,0.00062445,0.00069240,-0.00007149,0.00026375,0.00017690,-
 0.00017903,0.00189995,0.00196204,-0.00105652,-0.00036210,-0.00148432,-
 0.00071923,-0.00033951,0.00035990,0.00069987,-0.00131746,-0.00215180,0
 .00017811,0.00033119,0.00095462,-0.00011195,0.00004279,0.00007300,-0.0
 0001264,0.00000006,-0.00007440,0.00004821,0.00003921,-0.00000923,-0.00
 008343,0.00004322,-0.00011546,0.00002735,-0.00033976,0.00065687,0.0005
 4906,-0.00031510,0.00031094,-0.00025501,-0.00009423,-0.00044970,0.0005
 0364,0.00012618,0.00020082,-0.00022789,0.00000135,-0.00008286,0.000007
 00,-0.00002574,-0.00007603,0.00007195,-0.00019245,-0.00002036,-0.00005
 427,0.00002222,0.00002178,0.00000960,-0.00004499,-0.00023700,0.0001309
 6,0.00016148,-0.00009091,-0.00017906,-0.00009258,0.00122955,-0.0005445
 8,0.00086854,0.00068833,-0.00155901,-0.00329214,-0.00162620,-0.0025353
 4,-0.00031090,0.00247297,0.00052223,0.00002465,0.00004040,-0.00008906,
 0.00002938,0.00002196,-0.00003641,-0.00001455,0.00000429,0.00000806,0.
 00009966,0.00000755,-0.00003116,0.00001759,-0.00000857,-0.00003409,0.0
 0003876,0.00002965,-0.00008051,-0.00002009,-0.00025327,0.00005239,0.05
 091910,-0.00110857,0.00111225,0.00053778,0.00172292,-0.00038402,-0.000
 63005,-0.00095870,-0.00106713,0.00041303,0.00690308,-0.00478258,-0.000
 22254,0.01269575,-0.04578680,0.01829367,-0.00034633,-0.00137377,0.0071
 2937,0.00036064,-0.00020020,-0.00086325,0.00008104,0.00073989,-0.00084
 406,-0.00000852,-0.00074427,0.00078848,-0.00754730,-0.01385863,-0.0038
 5017,-0.00737023,-0.00681489,-0.00108083,-0.01129766,-0.00622624,-0.01
 066696,-0.00149750,-0.00008579,0.00193776,0.00104667,0.00041277,-0.001
 29429,-0.00104615,-0.00019410,0.00120033,0.00088158,0.00110099,-0.0001
 3760,-0.00039639,-0.00076120,-0.00009804,0.00032882,0.00049288,-0.0001
 4622,0.00019068,-0.00001547,-0.00019069,0.00103033,0.00127378,-0.00050
 264,-0.00021828,-0.00104707,-0.00054784,-0.00030807,0.00030597,0.00050
 359,-0.00100911,-0.00119626,0.00029767,0.00031255,0.00004401,-0.000404
 33,0.00009328,0.00005717,-0.00008240,-0.00014470,-0.00013795,0.0001174
 6,-0.00002724,0.00005280,0.00000734,-0.00001167,0.00017962,-0.00000297
 ,0.00034226,-0.00025475,-0.00005850,-0.00044499,0.00016129,-0.00015443
 ,0.00030596,0.00003824,-0.00039193,-0.00014503,0.00009157,-0.00048111,
 -0.00007381,0.00053710,-0.00015923,-0.00007979,0.00019171,-0.00012633,
 0.00007374,0.00013590,-0.00009509,0.00002087,0.00047057,-0.00048465,0.
 00009739,0.00042497,0.00000382,0.00053180,-0.00076950,0.00002635,0.000
 13011,-0.00066737,0.00039355,-0.00181522,-0.00005386,-0.00172996,0.001
 15905,0.00256366,0.00124759,-0.00055913,0.00036460,0.00048909,0.000086
 04,0.00000886,-0.00013549,0.00001995,0.00002902,-0.00001620,-0.0000107
 2,0.00000033,-0.00000426,0.00005630,-0.00002699,-0.00002678,0.00002176
 ,-0.00001478,-0.00003411,0.00002074,0.00000818,-0.00006463,-0.00007599
 ,-0.00014432,-0.00000030,0.00798783,0.07580979,0.00034350,-0.00024786,
 -0.00010470,-0.00049272,-0.00010177,0.00007038,0.00122410,-0.00012853,
 -0.00019975,-0.00272319,-0.00115401,0.00183003,-0.00130058,0.01292011,
 -0.01103873,-0.00045701,0.00622755,-0.00418974,0.00015518,0.00022232,-
 0.00084793,0.00013119,0.00017097,0.00017805,-0.00094792,-0.00054480,-0
 .00074290,0.00246107,0.00020827,0.00350907,-0.00066622,-0.00471124,0.0
 0519257,-0.01279243,-0.00405264,-0.02000308,-0.00003548,0.00152460,0.0
 0092841,0.00167755,0.00149159,-0.00176773,-0.00049185,-0.00037110,-0.0
 0023738,-0.00044332,-0.00049856,0.00034333,0.00013999,0.00046218,0.000
 28945,-0.00014929,-0.00030827,-0.00008221,-0.00011466,0.00011335,0.000
 22937,-0.00000002,-0.00002340,-0.00010653,0.00000250,0.00002930,0.0000
 0461,0.00001454,-0.00000796,0.00003671,0.00007814,0.00040061,0.0002479
 5,0.00014018,-0.00077375,-0.00092991,-0.00003231,-0.00004114,0.0000205
 4,0.00004513,0.00003389,-0.00004374,-0.00001951,-0.00000099,-0.0000174
 6,0.00000393,-0.00014902,-0.00008462,0.00065513,-0.00042796,-0.0006540
 4,-0.00000610,0.00012877,-0.00012154,0.00012791,0.00053636,-0.00020626
 ,-0.00047147,0.00041699,-0.00040862,-0.00002228,-0.00006532,0.00001123
 ,0.00001884,-0.00011544,0.00000697,-0.00008278,-0.00006724,-0.00015538
 ,0.00002550,-0.00006497,0.00002577,-0.00008216,-0.00026624,0.00003707,
 0.00001092,-0.00091647,-0.00067509,0.00012197,0.00143608,-0.00066838,-
 0.00699647,-0.00303730,-0.00343519,0.00004965,0.00136149,0.00009113,0.
 00046002,-0.00156611,0.00055363,0.00008003,-0.00003564,-0.00006872,0.0
 0002910,0.00001051,0.00000492,0.00002000,-0.00000628,0.00000215,-0.000
 00430,-0.00000104,0.00000989,-0.00000159,-0.00000101,-0.00000104,-0.00
 001186,-0.00000296,0.00000753,0.00003327,-0.00014687,0.00003123,0.0202
 9617,-0.00785901,0.03312865\\-0.00000173,-0.00000897,-0.00000551,0.000
 00168,0.00000567,0.00000797,-0.00001734,-0.00001403,0.00000461,-0.0000
 0054,0.00001123,0.00000008,-0.00001251,-0.00002617,-0.00000698,0.00000
 183,-0.00000520,0.00000184,0.00000271,0.00000341,0.00000563,0.00001495
 ,0.00000176,-0.00001354,-0.00000898,-0.00001150,-0.00000081,0.00001088
 ,0.00003283,0.00000746,0.,-0.00003092,0.00000386,0.00001776,0.00003200
 ,0.00003016,-0.00000586,-0.00000967,0.00000063,-0.00000281,0.00000299,
 0.00000926,0.00000208,-0.00000037,-0.00000605,0.00000384,0.00000737,0.
 00000400,-0.00000672,-0.00001915,-0.00000316,0.00000801,0.00001279,0.0
 0000176,0.00000223,-0.00000354,-0.00000351,0.00000476,0.00000714,-0.00
 000002,-0.00002015,0.00000481,0.00002991,0.00002369,-0.00000990,-0.000
 03956,-0.00000354,-0.00001023,-0.00000716,0.00000244,0.00001725,0.0000
 0767,-0.00000020,0.00000430,-0.00000166,0.00000175,0.00000251,-0.00000
 207,-0.00000067,-0.00000081,-0.00000285,0.00000449,-0.00000083,0.00000
 131,0.00000150,-0.00000138,-0.00000103,0.00000039,0.00000013,-0.000002
 02,0.00000121,0.00000139,0.00000167,-0.00000015,0.00000009,-0.00000155
 ,0.00000041,-0.00000070,-0.00000268,0.00000070,0.00000082,-0.00000099,
 0.00000029,0.00000086,0.00000204,0.00000372,0.00000078,-0.00000014,-0.
 00000164,0.00000284,-0.00000244,-0.00000046,-0.00000672,0.00000214,-0.
 00000426,0.00000479,0.00000146,-0.00000249,-0.00000550,-0.00001206,-0.
 00000874,-0.00000503,-0.00001977,0.00000069,0.00000041,-0.00000087,-0.
 00000091,-0.00000005,0.00000198,-0.00000029,-0.00000252,0.00000091,0.0
 0000058,0.00000041,0.00000151,-0.00000366,0.00000029,0.00000515,-0.000
 00196,0.00000089,0.00000359,-0.00000419,0.00000020,0.00000534,0.000000
 26,0.00000163,0.00000210,-0.00000304,0.00001162,-0.00000760\\\@
 The archive entry for this job was punched.


 THOSE WHO TRY TO PASS CHEMISTRY OFF AS A NEW SCIENCE
 SHOW HOW LITTLE KNOWLEDGE THEY HAVE OF THE CHARACTER
 AND LITERATURE OF THE ANCIENTS.
   -- NICOLAS LEFEVRE
 "COURS DE CHYMIE" J.-N.LELOUP, PARIS, 1751
 Job cpu time:       0 days  6 hours 47 minutes 44.3 seconds.
 Elapsed time:       0 days  0 hours 12 minutes 48.2 seconds.
 File lengths (MBytes):  RWF=   2112 Int=      0 D2E=      0 Chk=     22 Scr=      2
 Normal termination of Gaussian 16 at Fri Mar  8 04:07:08 2024.
