 Entering Gaussian System, Link 0=g16
 Initial command:
 /public/software/apps/Gaussian/g16/l1.exe "/tmp/Gau-3832.inp" -scrdir="/tmp/"
 Entering Link 1 = /public/software/apps/Gaussian/g16/l1.exe PID=      3841.
  
 Copyright (c) 1988-2019, Gaussian, Inc.  All Rights Reserved.
  
 This is part of the Gaussian(R) 16 program.  It is based on
 the Gaussian(R) 09 system (copyright 2009, Gaussian, Inc.),
 the Gaussian(R) 03 system (copyright 2003, Gaussian, Inc.),
 the Gaussian(R) 98 system (copyright 1998, Gaussian, Inc.),
 the Gaussian(R) 94 system (copyright 1995, Gaussian, Inc.),
 the Gaussian 92(TM) system (copyright 1992, Gaussian, Inc.),
 the Gaussian 90(TM) system (copyright 1990, Gaussian, Inc.),
 the Gaussian 88(TM) system (copyright 1988, Gaussian, Inc.),
 the Gaussian 86(TM) system (copyright 1986, Carnegie Mellon
 University), and the Gaussian 82(TM) system (copyright 1983,
 Carnegie Mellon University). Gaussian is a federally registered
 trademark of Gaussian, Inc.
  
 This software contains proprietary and confidential information,
 including trade secrets, belonging to Gaussian, Inc.
  
 This software is provided under written license and may be
 used, copied, transmitted, or stored only in accord with that
 written license.
  
 The following legend is applicable only to US Government
 contracts under FAR:
  
                    RESTRICTED RIGHTS LEGEND
  
 Use, reproduction and disclosure by the US Government is
 subject to restrictions as set forth in subparagraphs (a)
 and (c) of the Commercial Computer Software - Restricted
 Rights clause in FAR 52.227-19.
  
 Gaussian, Inc.
 340 Quinnipiac St., Bldg. 40, Wallingford CT 06492
  
  
 ---------------------------------------------------------------
 Warning -- This program may not be used in any manner that
 competes with the business of Gaussian, Inc. or will provide
 assistance to any competitor of Gaussian, Inc.  The licensee
 of this program is prohibited from giving any competitor of
 Gaussian, Inc. access to this program.  By using this program,
 the user acknowledges that Gaussian, Inc. is engaged in the
 business of creating and licensing software in the field of
 computational chemistry and represents and warrants to the
 licensee that it is not a competitor of Gaussian, Inc. and that
 it will not use this program in any manner prohibited above.
 ---------------------------------------------------------------
  

 Cite this work as:
 Gaussian 16, Revision C.01,
 M. J. Frisch, G. W. Trucks, H. B. Schlegel, G. E. Scuseria, 
 M. A. Robb, J. R. Cheeseman, G. Scalmani, V. Barone, 
 G. A. Petersson, H. Nakatsuji, X. Li, M. Caricato, A. V. Marenich, 
 J. Bloino, B. G. Janesko, R. Gomperts, B. Mennucci, H. P. Hratchian, 
 J. V. Ortiz, A. F. Izmaylov, J. L. Sonnenberg, D. Williams-Young, 
 F. Ding, F. Lipparini, F. Egidi, J. Goings, B. Peng, A. Petrone, 
 T. Henderson, D. Ranasinghe, V. G. Zakrzewski, J. Gao, N. Rega, 
 G. Zheng, W. Liang, M. Hada, M. Ehara, K. Toyota, R. Fukuda, 
 J. Hasegawa, M. Ishida, T. Nakajima, Y. Honda, O. Kitao, H. Nakai, 
 T. Vreven, K. Throssell, J. A. Montgomery, Jr., J. E. Peralta, 
 F. Ogliaro, M. J. Bearpark, J. J. Heyd, E. N. Brothers, K. N. Kudin, 
 V. N. Staroverov, T. A. Keith, R. Kobayashi, J. Normand, 
 K. Raghavachari, A. P. Rendell, J. C. Burant, S. S. Iyengar, 
 J. Tomasi, M. Cossi, J. M. Millam, M. Klene, C. Adamo, R. Cammi, 
 J. W. Ochterski, R. L. Martin, K. Morokuma, O. Farkas, 
 J. B. Foresman, and D. J. Fox, Gaussian, Inc., Wallingford CT, 2019.
 
 ******************************************
 Gaussian 16:  ES64L-G16RevC.01  3-Jul-2019
                 1-Aug-2024 
 ******************************************
 %nprocshared=32
 Will use up to   32 processors via shared memory.
 %mem=100GB
 ------------------------------------------
 #p opt freq b3lyp/def2svpp em=gd3bj nosymm
 ------------------------------------------
 1/18=20,19=15,26=3,38=1/1,3;
 2/9=110,12=2,15=1,17=6,18=5,40=1/2;
 3/5=43,7=202,11=2,25=1,30=1,71=1,74=-5,124=41/1,2,3;
 4//1;
 5/5=2,38=5/2;
 6/7=2,8=2,9=2,10=2,28=1/1;
 7/30=1/1,2,3,16;
 1/18=20,19=15,26=3/3(2);
 2/9=110,15=1/2;
 99//99;
 2/9=110,15=1/2;
 3/5=43,7=202,11=2,25=1,30=1,71=1,74=-5,124=41/1,2,3;
 4/5=5,16=3,69=1/1;
 5/5=2,38=5/2;
 7/30=1/1,2,3,16;
 1/18=20,19=15,26=3/3(-5);
 2/9=110,15=1/2;
 6/7=2,8=2,9=2,10=2,19=2,28=1/1;
 99/9=1/99;
 Leave Link    1 at Thu Aug  1 12:09:34 2024, MaxMem= 13421772800 cpu:               1.5 elap:               0.1
 (Enter /public/software/apps/Gaussian/g16/l101.exe)
 ------------------
 $$$$Title####2????
 ------------------
 Symbolic Z-matrix:
 Charge =  2 Multiplicity = 2
 C                    -4.04091   1.59922   4.49936 
 C                    -4.7012    1.93382   3.31394 
 C                    -4.2474    1.42833   2.09162 
 C                    -3.12827   0.57946   2.04854 
 C                    -2.61739   0.04955   0.73323 
 C                    -1.36907   0.81505   0.26787 
 C                    -1.66533   2.26115  -0.1889 
 O                    -1.17547   2.29435  -1.51711 
 C                    -0.70971   1.04215  -1.85949 
 C                    -0.12049   0.71832  -3.19503 
 C                     1.35116   0.49033  -3.06661 
 N                     1.85443  -0.3387   -2.22096 
 C                     3.30825  -0.3066   -2.32214 
 C                     3.92564   0.17702  -0.99879 
 C                     3.49892  -0.69434   0.15455 
 C                     4.15327  -1.91147   0.4056 
 C                     3.72359  -2.73928   1.44791 
 C                     2.63392  -2.36282   2.2387 
 C                     1.97136  -1.15797   1.98856 
 C                     2.40018  -0.32622   0.95006 
 C                     3.58456   0.67367  -3.48321 
 O                     2.29338   1.13495  -3.84108 
 N                    -0.8017    0.17533  -0.91199 
 C                    -2.4676    0.25121   3.24477 
 C                    -2.92477   0.75899   4.46466 
 H                    -4.3932    1.99207   5.44435 
 H                    -5.56428   2.58634   3.34196 
 H                    -4.76783   1.6988    1.18138 
 H                    -2.3577   -1.02464   0.85813 
 H                    -3.40833   0.10023  -0.04762 
 H                    -0.60194   0.82035   1.07312 
 H                    -2.74998   2.49958  -0.19111 
 H                    -1.11578   2.99722   0.43576 
 H                    -0.60132  -0.19571  -3.60348 
 H                    -0.30762   1.55847  -3.89672 
 H                     3.68593  -1.32232  -2.57356 
 H                     3.62524   1.23093  -0.80446 
 H                     5.03419   0.16337  -1.08491 
 H                     4.99077  -2.21959  -0.20803 
 H                     4.2321   -3.67536   1.63922 
 H                     2.30075  -3.00643   3.04255 
 H                     1.12338  -0.86996   2.59667 
 H                     1.87399   0.60098   0.76111 
 H                     4.22513   1.5328   -3.18815 
 H                     4.04173   0.1422   -4.34513 
 H                    -1.59864  -0.39528   3.23066 
 H                    -2.41256   0.50246   5.38296 
 Cu                    0.58616  -1.20804  -1.00283 
 
 ITRead=  0  0  0  0  0  0  0  0  0  0  0  0  0  0  0  0  0  0  0  0
 ITRead=  0  0  0  0  0  0  0  0  0  0  0  0  0  0  0  0  0  0  0  0
 ITRead=  0  0  0  0  0  0  0  0
 MicOpt= -1 -1 -1 -1 -1 -1 -1 -1 -1 -1 -1 -1 -1 -1 -1 -1 -1 -1 -1 -1
 MicOpt= -1 -1 -1 -1 -1 -1 -1 -1 -1 -1 -1 -1 -1 -1 -1 -1 -1 -1 -1 -1
 MicOpt= -1 -1 -1 -1 -1 -1 -1 -1
 NAtoms=     48 NQM=       48 NQMF=       0 NMMI=      0 NMMIF=      0
                NMic=       0 NMicF=      0.
                    Isotopes and Nuclear Properties:
 (Nuclear quadrupole moments (NQMom) in fm**2, nuclear magnetic moments (NMagM)
  in nuclear magnetons)

  Atom         1           2           3           4           5           6           7           8           9          10
 IAtWgt=          12          12          12          12          12          12          12          16          12          12
 AtmWgt=  12.0000000  12.0000000  12.0000000  12.0000000  12.0000000  12.0000000  12.0000000  15.9949146  12.0000000  12.0000000
 NucSpn=           0           0           0           0           0           0           0           0           0           0
 AtZEff=  -0.0000000  -0.0000000  -0.0000000  -0.0000000  -0.0000000  -0.0000000  -0.0000000  -0.0000000  -0.0000000  -0.0000000
 NQMom=    0.0000000   0.0000000   0.0000000   0.0000000   0.0000000   0.0000000   0.0000000   0.0000000   0.0000000   0.0000000
 NMagM=    0.0000000   0.0000000   0.0000000   0.0000000   0.0000000   0.0000000   0.0000000   0.0000000   0.0000000   0.0000000
 AtZNuc=   6.0000000   6.0000000   6.0000000   6.0000000   6.0000000   6.0000000   6.0000000   8.0000000   6.0000000   6.0000000

  Atom        11          12          13          14          15          16          17          18          19          20
 IAtWgt=          12          14          12          12          12          12          12          12          12          12
 AtmWgt=  12.0000000  14.0030740  12.0000000  12.0000000  12.0000000  12.0000000  12.0000000  12.0000000  12.0000000  12.0000000
 NucSpn=           0           2           0           0           0           0           0           0           0           0
 AtZEff=  -0.0000000  -0.0000000  -0.0000000  -0.0000000  -0.0000000  -0.0000000  -0.0000000  -0.0000000  -0.0000000  -0.0000000
 NQMom=    0.0000000   2.0440000   0.0000000   0.0000000   0.0000000   0.0000000   0.0000000   0.0000000   0.0000000   0.0000000
 NMagM=    0.0000000   0.4037610   0.0000000   0.0000000   0.0000000   0.0000000   0.0000000   0.0000000   0.0000000   0.0000000
 AtZNuc=   6.0000000   7.0000000   6.0000000   6.0000000   6.0000000   6.0000000   6.0000000   6.0000000   6.0000000   6.0000000

  Atom        21          22          23          24          25          26          27          28          29          30
 IAtWgt=          12          16          14          12          12           1           1           1           1           1
 AtmWgt=  12.0000000  15.9949146  14.0030740  12.0000000  12.0000000   1.0078250   1.0078250   1.0078250   1.0078250   1.0078250
 NucSpn=           0           0           2           0           0           1           1           1           1           1
 AtZEff=  -0.0000000  -0.0000000  -0.0000000  -0.0000000  -0.0000000  -0.0000000  -0.0000000  -0.0000000  -0.0000000  -0.0000000
 NQMom=    0.0000000   0.0000000   2.0440000   0.0000000   0.0000000   0.0000000   0.0000000   0.0000000   0.0000000   0.0000000
 NMagM=    0.0000000   0.0000000   0.4037610   0.0000000   0.0000000   2.7928460   2.7928460   2.7928460   2.7928460   2.7928460
 AtZNuc=   6.0000000   8.0000000   7.0000000   6.0000000   6.0000000   1.0000000   1.0000000   1.0000000   1.0000000   1.0000000

  Atom        31          32          33          34          35          36          37          38          39          40
 IAtWgt=           1           1           1           1           1           1           1           1           1           1
 AtmWgt=   1.0078250   1.0078250   1.0078250   1.0078250   1.0078250   1.0078250   1.0078250   1.0078250   1.0078250   1.0078250
 NucSpn=           1           1           1           1           1           1           1           1           1           1
 AtZEff=  -0.0000000  -0.0000000  -0.0000000  -0.0000000  -0.0000000  -0.0000000  -0.0000000  -0.0000000  -0.0000000  -0.0000000
 NQMom=    0.0000000   0.0000000   0.0000000   0.0000000   0.0000000   0.0000000   0.0000000   0.0000000   0.0000000   0.0000000
 NMagM=    2.7928460   2.7928460   2.7928460   2.7928460   2.7928460   2.7928460   2.7928460   2.7928460   2.7928460   2.7928460
 AtZNuc=   1.0000000   1.0000000   1.0000000   1.0000000   1.0000000   1.0000000   1.0000000   1.0000000   1.0000000   1.0000000

  Atom        41          42          43          44          45          46          47          48
 IAtWgt=           1           1           1           1           1           1           1          63
 AtmWgt=   1.0078250   1.0078250   1.0078250   1.0078250   1.0078250   1.0078250   1.0078250  62.9295992
 NucSpn=           1           1           1           1           1           1           1           3
 AtZEff=  -0.0000000  -0.0000000  -0.0000000  -0.0000000  -0.0000000  -0.0000000  -0.0000000  -0.0000000
 NQMom=    0.0000000   0.0000000   0.0000000   0.0000000   0.0000000   0.0000000   0.0000000 -22.0000000
 NMagM=    2.7928460   2.7928460   2.7928460   2.7928460   2.7928460   2.7928460   2.7928460   2.2233000
 AtZNuc=   1.0000000   1.0000000   1.0000000   1.0000000   1.0000000   1.0000000   1.0000000  29.0000000
 Leave Link  101 at Thu Aug  1 12:09:34 2024, MaxMem= 13421772800 cpu:               5.0 elap:               0.2
 (Enter /public/software/apps/Gaussian/g16/l103.exe)

 GradGradGradGradGradGradGradGradGradGradGradGradGradGradGradGradGradGrad
 Berny optimization.
 Initialization pass.
                           ----------------------------
                           !    Initial Parameters    !
                           ! (Angstroms and Degrees)  !
 --------------------------                            --------------------------
 ! Name  Definition              Value          Derivative Info.                !
 --------------------------------------------------------------------------------
 ! R1    R(1,2)                  1.3976         estimate D2E/DX2                !
 ! R2    R(1,25)                 1.3975         estimate D2E/DX2                !
 ! R3    R(1,26)                 1.0823         estimate D2E/DX2                !
 ! R4    R(2,3)                  1.3984         estimate D2E/DX2                !
 ! R5    R(2,27)                 1.0823         estimate D2E/DX2                !
 ! R6    R(3,4)                  1.4053         estimate D2E/DX2                !
 ! R7    R(3,28)                 1.0828         estimate D2E/DX2                !
 ! R8    R(4,5)                  1.5073         estimate D2E/DX2                !
 ! R9    R(4,24)                 1.4054         estimate D2E/DX2                !
 ! R10   R(5,6)                  1.5365         estimate D2E/DX2                !
 ! R11   R(5,29)                 1.1122         estimate D2E/DX2                !
 ! R12   R(5,30)                 1.1126         estimate D2E/DX2                !
 ! R13   R(6,7)                  1.5452         estimate D2E/DX2                !
 ! R14   R(6,23)                 1.4571         estimate D2E/DX2                !
 ! R15   R(6,31)                 1.1122         estimate D2E/DX2                !
 ! R16   R(7,8)                  1.4161         estimate D2E/DX2                !
 ! R17   R(7,32)                 1.1105         estimate D2E/DX2                !
 ! R18   R(7,33)                 1.1109         estimate D2E/DX2                !
 ! R19   R(8,9)                  1.3792         estimate D2E/DX2                !
 ! R20   R(9,10)                 1.4952         estimate D2E/DX2                !
 ! R21   R(9,23)                 1.2875         estimate D2E/DX2                !
 ! R22   R(10,11)                1.4947         estimate D2E/DX2                !
 ! R23   R(10,34)                1.1106         estimate D2E/DX2                !
 ! R24   R(10,35)                1.1105         estimate D2E/DX2                !
 ! R25   R(11,12)                1.2867         estimate D2E/DX2                !
 ! R26   R(11,22)                1.3795         estimate D2E/DX2                !
 ! R27   R(12,13)                1.4577         estimate D2E/DX2                !
 ! R28   R(12,48)                1.9617         estimate D2E/DX2                !
 ! R29   R(13,14)                1.5383         estimate D2E/DX2                !
 ! R30   R(13,21)                1.5445         estimate D2E/DX2                !
 ! R31   R(13,36)                1.1124         estimate D2E/DX2                !
 ! R32   R(14,15)                1.5072         estimate D2E/DX2                !
 ! R33   R(14,37)                1.113          estimate D2E/DX2                !
 ! R34   R(14,38)                1.112          estimate D2E/DX2                !
 ! R35   R(15,16)                1.4045         estimate D2E/DX2                !
 ! R36   R(15,20)                1.4056         estimate D2E/DX2                !
 ! R37   R(16,17)                1.3987         estimate D2E/DX2                !
 ! R38   R(16,39)                1.083          estimate D2E/DX2                !
 ! R39   R(17,18)                1.398          estimate D2E/DX2                !
 ! R40   R(17,40)                1.0823         estimate D2E/DX2                !
 ! R41   R(18,19)                1.3976         estimate D2E/DX2                !
 ! R42   R(18,41)                1.0823         estimate D2E/DX2                !
 ! R43   R(19,20)                1.3979         estimate D2E/DX2                !
 ! R44   R(19,42)                1.0825         estimate D2E/DX2                !
 ! R45   R(20,43)                1.0827         estimate D2E/DX2                !
 ! R46   R(21,22)                1.417          estimate D2E/DX2                !
 ! R47   R(21,44)                1.1115         estimate D2E/DX2                !
 ! R48   R(21,45)                1.111          estimate D2E/DX2                !
 ! R49   R(23,48)                1.9617         estimate D2E/DX2                !
 ! R50   R(24,25)                1.3982         estimate D2E/DX2                !
 ! R51   R(24,46)                1.0832         estimate D2E/DX2                !
 ! R52   R(25,47)                1.0823         estimate D2E/DX2                !
 ! A1    A(2,1,25)             120.0153         estimate D2E/DX2                !
 ! A2    A(2,1,26)             119.9928         estimate D2E/DX2                !
 ! A3    A(25,1,26)            119.9918         estimate D2E/DX2                !
 ! A4    A(1,2,3)              120.102          estimate D2E/DX2                !
 ! A5    A(1,2,27)             119.9424         estimate D2E/DX2                !
 ! A6    A(3,2,27)             119.9556         estimate D2E/DX2                !
 ! A7    A(2,3,4)              120.2367         estimate D2E/DX2                !
 ! A8    A(2,3,28)             119.2424         estimate D2E/DX2                !
 ! A9    A(4,3,28)             120.5209         estimate D2E/DX2                !
 ! A10   A(3,4,5)              120.5997         estimate D2E/DX2                !
 ! A11   A(3,4,24)             119.298          estimate D2E/DX2                !
 ! A12   A(5,4,24)             120.0868         estimate D2E/DX2                !
 ! A13   A(4,5,6)              111.3777         estimate D2E/DX2                !
 ! A14   A(4,5,29)             108.7063         estimate D2E/DX2                !
 ! A15   A(4,5,30)             110.8227         estimate D2E/DX2                !
 ! A16   A(6,5,29)             108.9955         estimate D2E/DX2                !
 ! A17   A(6,5,30)             110.017          estimate D2E/DX2                !
 ! A18   A(29,5,30)            106.7866         estimate D2E/DX2                !
 ! A19   A(5,6,7)              113.5793         estimate D2E/DX2                !
 ! A20   A(5,6,23)             110.0509         estimate D2E/DX2                !
 ! A21   A(5,6,31)             110.0886         estimate D2E/DX2                !
 ! A22   A(7,6,23)             104.2514         estimate D2E/DX2                !
 ! A23   A(7,6,31)             109.9873         estimate D2E/DX2                !
 ! A24   A(23,6,31)            108.6493         estimate D2E/DX2                !
 ! A25   A(6,7,8)              103.4669         estimate D2E/DX2                !
 ! A26   A(6,7,32)             112.8783         estimate D2E/DX2                !
 ! A27   A(6,7,33)             111.0418         estimate D2E/DX2                !
 ! A28   A(8,7,32)             109.3271         estimate D2E/DX2                !
 ! A29   A(8,7,33)             109.9234         estimate D2E/DX2                !
 ! A30   A(32,7,33)            110.0009         estimate D2E/DX2                !
 ! A31   A(7,8,9)              109.1709         estimate D2E/DX2                !
 ! A32   A(8,9,10)             123.4667         estimate D2E/DX2                !
 ! A33   A(8,9,23)             113.8569         estimate D2E/DX2                !
 ! A34   A(10,9,23)            122.6617         estimate D2E/DX2                !
 ! A35   A(9,10,11)            110.1381         estimate D2E/DX2                !
 ! A36   A(9,10,34)            109.6406         estimate D2E/DX2                !
 ! A37   A(9,10,35)            109.5196         estimate D2E/DX2                !
 ! A38   A(11,10,34)           109.4093         estimate D2E/DX2                !
 ! A39   A(11,10,35)           109.6082         estimate D2E/DX2                !
 ! A40   A(34,10,35)           108.4993         estimate D2E/DX2                !
 ! A41   A(10,11,12)           122.671          estimate D2E/DX2                !
 ! A42   A(10,11,22)           123.5693         estimate D2E/DX2                !
 ! A43   A(12,11,22)           113.7585         estimate D2E/DX2                !
 ! A44   A(11,12,13)           109.2855         estimate D2E/DX2                !
 ! A45   A(11,12,48)           116.1527         estimate D2E/DX2                !
 ! A46   A(13,12,48)           134.2404         estimate D2E/DX2                !
 ! A47   A(12,13,14)           110.3343         estimate D2E/DX2                !
 ! A48   A(12,13,21)           104.1571         estimate D2E/DX2                !
 ! A49   A(12,13,36)           109.5229         estimate D2E/DX2                !
 ! A50   A(14,13,21)           112.048          estimate D2E/DX2                !
 ! A51   A(14,13,36)           110.1954         estimate D2E/DX2                !
 ! A52   A(21,13,36)           110.4182         estimate D2E/DX2                !
 ! A53   A(13,14,15)           111.2797         estimate D2E/DX2                !
 ! A54   A(13,14,37)           109.8514         estimate D2E/DX2                !
 ! A55   A(13,14,38)           109.2463         estimate D2E/DX2                !
 ! A56   A(15,14,37)           109.72           estimate D2E/DX2                !
 ! A57   A(15,14,38)           109.5378         estimate D2E/DX2                !
 ! A58   A(37,14,38)           107.1108         estimate D2E/DX2                !
 ! A59   A(14,15,16)           120.3904         estimate D2E/DX2                !
 ! A60   A(14,15,20)           120.1997         estimate D2E/DX2                !
 ! A61   A(16,15,20)           119.3404         estimate D2E/DX2                !
 ! A62   A(15,16,17)           120.1967         estimate D2E/DX2                !
 ! A63   A(15,16,39)           120.3685         estimate D2E/DX2                !
 ! A64   A(17,16,39)           119.4341         estimate D2E/DX2                !
 ! A65   A(16,17,18)           120.1064         estimate D2E/DX2                !
 ! A66   A(16,17,40)           119.9515         estimate D2E/DX2                !
 ! A67   A(18,17,40)           119.9412         estimate D2E/DX2                !
 ! A68   A(17,18,19)           120.0272         estimate D2E/DX2                !
 ! A69   A(17,18,41)           119.995          estimate D2E/DX2                !
 ! A70   A(19,18,41)           119.9774         estimate D2E/DX2                !
 ! A71   A(18,19,20)           120.0323         estimate D2E/DX2                !
 ! A72   A(18,19,42)           120.0122         estimate D2E/DX2                !
 ! A73   A(20,19,42)           119.9551         estimate D2E/DX2                !
 ! A74   A(15,20,19)           120.2929         estimate D2E/DX2                !
 ! A75   A(15,20,43)           120.3595         estimate D2E/DX2                !
 ! A76   A(19,20,43)           119.3466         estimate D2E/DX2                !
 ! A77   A(13,21,22)           103.5004         estimate D2E/DX2                !
 ! A78   A(13,21,44)           113.2107         estimate D2E/DX2                !
 ! A79   A(13,21,45)           110.6841         estimate D2E/DX2                !
 ! A80   A(22,21,44)           109.9098         estimate D2E/DX2                !
 ! A81   A(22,21,45)           109.5565         estimate D2E/DX2                !
 ! A82   A(44,21,45)           109.788          estimate D2E/DX2                !
 ! A83   A(11,22,21)           109.1746         estimate D2E/DX2                !
 ! A84   A(6,23,9)             109.1555         estimate D2E/DX2                !
 ! A85   A(6,23,48)            128.5048         estimate D2E/DX2                !
 ! A86   A(9,23,48)            112.9646         estimate D2E/DX2                !
 ! A87   A(4,24,25)            120.2702         estimate D2E/DX2                !
 ! A88   A(4,24,46)            120.361          estimate D2E/DX2                !
 ! A89   A(25,24,46)           119.3687         estimate D2E/DX2                !
 ! A90   A(1,25,24)            120.077          estimate D2E/DX2                !
 ! A91   A(1,25,47)            119.961          estimate D2E/DX2                !
 ! A92   A(24,25,47)           119.9619         estimate D2E/DX2                !
 ! A93   A(12,48,23)           100.0            estimate D2E/DX2                !
 ! D1    D(25,1,2,3)             0.0411         estimate D2E/DX2                !
 ! D2    D(25,1,2,27)         -179.8722         estimate D2E/DX2                !
 ! D3    D(26,1,2,3)           179.9535         estimate D2E/DX2                !
 ! D4    D(26,1,2,27)            0.0402         estimate D2E/DX2                !
 ! D5    D(2,1,25,24)           -0.0448         estimate D2E/DX2                !
 ! D6    D(2,1,25,47)          179.8444         estimate D2E/DX2                !
 ! D7    D(26,1,25,24)        -179.9573         estimate D2E/DX2                !
 ! D8    D(26,1,25,47)          -0.068          estimate D2E/DX2                !
 ! D9    D(1,2,3,4)              0.1567         estimate D2E/DX2                !
 ! D10   D(1,2,3,28)          -179.8312         estimate D2E/DX2                !
 ! D11   D(27,2,3,4)          -179.93           estimate D2E/DX2                !
 ! D12   D(27,2,3,28)            0.0821         estimate D2E/DX2                !
 ! D13   D(2,3,4,5)           -178.9118         estimate D2E/DX2                !
 ! D14   D(2,3,4,24)            -0.3469         estimate D2E/DX2                !
 ! D15   D(28,3,4,5)             1.0759         estimate D2E/DX2                !
 ! D16   D(28,3,4,24)          179.6408         estimate D2E/DX2                !
 ! D17   D(3,4,5,6)            102.2297         estimate D2E/DX2                !
 ! D18   D(3,4,5,29)          -137.6655         estimate D2E/DX2                !
 ! D19   D(3,4,5,30)           -20.6005         estimate D2E/DX2                !
 ! D20   D(24,4,5,6)           -76.3239         estimate D2E/DX2                !
 ! D21   D(24,4,5,29)           43.781          estimate D2E/DX2                !
 ! D22   D(24,4,5,30)          160.8459         estimate D2E/DX2                !
 ! D23   D(3,4,24,25)            0.3433         estimate D2E/DX2                !
 ! D24   D(3,4,24,46)         -179.5184         estimate D2E/DX2                !
 ! D25   D(5,4,24,25)          178.9156         estimate D2E/DX2                !
 ! D26   D(5,4,24,46)           -0.9461         estimate D2E/DX2                !
 ! D27   D(4,5,6,7)            -70.7149         estimate D2E/DX2                !
 ! D28   D(4,5,6,23)           172.8469         estimate D2E/DX2                !
 ! D29   D(4,5,6,31)            53.1152         estimate D2E/DX2                !
 ! D30   D(29,5,6,7)           169.3511         estimate D2E/DX2                !
 ! D31   D(29,5,6,23)           52.913          estimate D2E/DX2                !
 ! D32   D(29,5,6,31)          -66.8187         estimate D2E/DX2                !
 ! D33   D(30,5,6,7)            52.5761         estimate D2E/DX2                !
 ! D34   D(30,5,6,23)          -63.862          estimate D2E/DX2                !
 ! D35   D(30,5,6,31)          176.4062         estimate D2E/DX2                !
 ! D36   D(5,6,7,8)           -122.8632         estimate D2E/DX2                !
 ! D37   D(5,6,7,32)            -4.8014         estimate D2E/DX2                !
 ! D38   D(5,6,7,33)           119.261          estimate D2E/DX2                !
 ! D39   D(23,6,7,8)            -3.073          estimate D2E/DX2                !
 ! D40   D(23,6,7,32)          114.9888         estimate D2E/DX2                !
 ! D41   D(23,6,7,33)         -120.9488         estimate D2E/DX2                !
 ! D42   D(31,6,7,8)           113.2515         estimate D2E/DX2                !
 ! D43   D(31,6,7,32)         -128.6866         estimate D2E/DX2                !
 ! D44   D(31,6,7,33)           -4.6242         estimate D2E/DX2                !
 ! D45   D(5,6,23,9)           124.5982         estimate D2E/DX2                !
 ! D46   D(5,6,23,48)          -91.8732         estimate D2E/DX2                !
 ! D47   D(7,6,23,9)             2.454          estimate D2E/DX2                !
 ! D48   D(7,6,23,48)          145.9827         estimate D2E/DX2                !
 ! D49   D(31,6,23,9)         -114.7995         estimate D2E/DX2                !
 ! D50   D(31,6,23,48)          28.7291         estimate D2E/DX2                !
 ! D51   D(6,7,8,9)              2.7146         estimate D2E/DX2                !
 ! D52   D(32,7,8,9)          -117.7914         estimate D2E/DX2                !
 ! D53   D(33,7,8,9)           121.3674         estimate D2E/DX2                !
 ! D54   D(7,8,9,10)          -179.9801         estimate D2E/DX2                !
 ! D55   D(7,8,9,23)            -1.3441         estimate D2E/DX2                !
 ! D56   D(8,9,10,11)          109.3725         estimate D2E/DX2                !
 ! D57   D(8,9,10,34)         -130.184          estimate D2E/DX2                !
 ! D58   D(8,9,10,35)          -11.2401         estimate D2E/DX2                !
 ! D59   D(23,9,10,11)         -69.1457         estimate D2E/DX2                !
 ! D60   D(23,9,10,34)          51.2978         estimate D2E/DX2                !
 ! D61   D(23,9,10,35)         170.2417         estimate D2E/DX2                !
 ! D62   D(8,9,23,6)            -0.8426         estimate D2E/DX2                !
 ! D63   D(8,9,23,48)         -150.4975         estimate D2E/DX2                !
 ! D64   D(10,9,23,6)          177.8059         estimate D2E/DX2                !
 ! D65   D(10,9,23,48)          28.151          estimate D2E/DX2                !
 ! D66   D(9,10,11,12)          52.6748         estimate D2E/DX2                !
 ! D67   D(9,10,11,22)        -127.7583         estimate D2E/DX2                !
 ! D68   D(34,10,11,12)        -67.9079         estimate D2E/DX2                !
 ! D69   D(34,10,11,22)        111.659          estimate D2E/DX2                !
 ! D70   D(35,10,11,12)        173.2342         estimate D2E/DX2                !
 ! D71   D(35,10,11,22)         -7.1989         estimate D2E/DX2                !
 ! D72   D(10,11,12,13)       -178.6732         estimate D2E/DX2                !
 ! D73   D(10,11,12,48)         -4.2479         estimate D2E/DX2                !
 ! D74   D(22,11,12,13)          1.721          estimate D2E/DX2                !
 ! D75   D(22,11,12,48)        176.1464         estimate D2E/DX2                !
 ! D76   D(10,11,22,21)       -178.9017         estimate D2E/DX2                !
 ! D77   D(12,11,22,21)          0.6999         estimate D2E/DX2                !
 ! D78   D(11,12,13,14)        117.2342         estimate D2E/DX2                !
 ! D79   D(11,12,13,21)         -3.1868         estimate D2E/DX2                !
 ! D80   D(11,12,13,36)       -121.2977         estimate D2E/DX2                !
 ! D81   D(48,12,13,14)        -55.7748         estimate D2E/DX2                !
 ! D82   D(48,12,13,21)       -176.1957         estimate D2E/DX2                !
 ! D83   D(48,12,13,36)         65.6933         estimate D2E/DX2                !
 ! D84   D(11,12,48,23)        -28.4582         estimate D2E/DX2                !
 ! D85   D(13,12,48,23)        144.1885         estimate D2E/DX2                !
 ! D86   D(12,13,14,15)         57.1204         estimate D2E/DX2                !
 ! D87   D(12,13,14,37)        -64.5885         estimate D2E/DX2                !
 ! D88   D(12,13,14,38)        178.1933         estimate D2E/DX2                !
 ! D89   D(21,13,14,15)        172.6836         estimate D2E/DX2                !
 ! D90   D(21,13,14,37)         50.9747         estimate D2E/DX2                !
 ! D91   D(21,13,14,38)        -66.2435         estimate D2E/DX2                !
 ! D92   D(36,13,14,15)        -63.9476         estimate D2E/DX2                !
 ! D93   D(36,13,14,37)        174.3434         estimate D2E/DX2                !
 ! D94   D(36,13,14,38)         57.1253         estimate D2E/DX2                !
 ! D95   D(12,13,21,22)          3.4113         estimate D2E/DX2                !
 ! D96   D(12,13,21,44)        122.3593         estimate D2E/DX2                !
 ! D97   D(12,13,21,45)       -113.8862         estimate D2E/DX2                !
 ! D98   D(14,13,21,22)       -115.8515         estimate D2E/DX2                !
 ! D99   D(14,13,21,44)          3.0965         estimate D2E/DX2                !
 ! D100  D(14,13,21,45)        126.851          estimate D2E/DX2                !
 ! D101  D(36,13,21,22)        120.9053         estimate D2E/DX2                !
 ! D102  D(36,13,21,44)       -120.1468         estimate D2E/DX2                !
 ! D103  D(36,13,21,45)          3.6077         estimate D2E/DX2                !
 ! D104  D(13,14,15,16)         81.7536         estimate D2E/DX2                !
 ! D105  D(13,14,15,20)        -95.1962         estimate D2E/DX2                !
 ! D106  D(37,14,15,16)       -156.4611         estimate D2E/DX2                !
 ! D107  D(37,14,15,20)         26.5892         estimate D2E/DX2                !
 ! D108  D(38,14,15,16)        -39.1485         estimate D2E/DX2                !
 ! D109  D(38,14,15,20)        143.9018         estimate D2E/DX2                !
 ! D110  D(14,15,16,17)       -177.7422         estimate D2E/DX2                !
 ! D111  D(14,15,16,39)          1.959          estimate D2E/DX2                !
 ! D112  D(20,15,16,17)         -0.7664         estimate D2E/DX2                !
 ! D113  D(20,15,16,39)        178.9348         estimate D2E/DX2                !
 ! D114  D(14,15,20,19)        177.5732         estimate D2E/DX2                !
 ! D115  D(14,15,20,43)         -2.0609         estimate D2E/DX2                !
 ! D116  D(16,15,20,19)          0.5916         estimate D2E/DX2                !
 ! D117  D(16,15,20,43)       -179.0426         estimate D2E/DX2                !
 ! D118  D(15,16,17,18)          0.4638         estimate D2E/DX2                !
 ! D119  D(15,16,17,40)       -179.8665         estimate D2E/DX2                !
 ! D120  D(39,16,17,18)       -179.2402         estimate D2E/DX2                !
 ! D121  D(39,16,17,40)          0.4295         estimate D2E/DX2                !
 ! D122  D(16,17,18,19)          0.0219         estimate D2E/DX2                !
 ! D123  D(16,17,18,41)        179.7831         estimate D2E/DX2                !
 ! D124  D(40,17,18,19)       -179.6478         estimate D2E/DX2                !
 ! D125  D(40,17,18,41)          0.1134         estimate D2E/DX2                !
 ! D126  D(17,18,19,20)         -0.1974         estimate D2E/DX2                !
 ! D127  D(17,18,19,42)        179.5771         estimate D2E/DX2                !
 ! D128  D(41,18,19,20)       -179.9586         estimate D2E/DX2                !
 ! D129  D(41,18,19,42)         -0.1842         estimate D2E/DX2                !
 ! D130  D(18,19,20,15)         -0.1124         estimate D2E/DX2                !
 ! D131  D(18,19,20,43)        179.5255         estimate D2E/DX2                !
 ! D132  D(42,19,20,15)       -179.8869         estimate D2E/DX2                !
 ! D133  D(42,19,20,43)         -0.2491         estimate D2E/DX2                !
 ! D134  D(13,21,22,11)         -2.5898         estimate D2E/DX2                !
 ! D135  D(44,21,22,11)       -123.7903         estimate D2E/DX2                !
 ! D136  D(45,21,22,11)        115.4949         estimate D2E/DX2                !
 ! D137  D(6,23,48,12)        -125.8984         estimate D2E/DX2                !
 ! D138  D(9,23,48,12)          16.5236         estimate D2E/DX2                !
 ! D139  D(4,24,25,1)           -0.1491         estimate D2E/DX2                !
 ! D140  D(4,24,25,47)         179.9616         estimate D2E/DX2                !
 ! D141  D(46,24,25,1)         179.7139         estimate D2E/DX2                !
 ! D142  D(46,24,25,47)         -0.1754         estimate D2E/DX2                !
 --------------------------------------------------------------------------------
 Trust Radius=3.00D-01 FncErr=1.00D-07 GrdErr=1.00D-06 EigMax=2.50D+02 EigMin=1.00D-04
 Number of steps in this run=    288 maximum allowed number of steps=    288.
 GradGradGradGradGradGradGradGradGradGradGradGradGradGradGradGradGradGrad

 Leave Link  103 at Thu Aug  1 12:09:34 2024, MaxMem= 13421772800 cpu:               0.8 elap:               0.0
 (Enter /public/software/apps/Gaussian/g16/l202.exe)
                          Input orientation:                          
 ---------------------------------------------------------------------
 Center     Atomic      Atomic             Coordinates (Angstroms)
 Number     Number       Type             X           Y           Z
 ---------------------------------------------------------------------
      1          6           0       -4.040908    1.599222    4.499359
      2          6           0       -4.701202    1.933819    3.313943
      3          6           0       -4.247399    1.428327    2.091620
      4          6           0       -3.128272    0.579460    2.048543
      5          6           0       -2.617394    0.049548    0.733233
      6          6           0       -1.369072    0.815048    0.267870
      7          6           0       -1.665333    2.261150   -0.188895
      8          8           0       -1.175474    2.294352   -1.517107
      9          6           0       -0.709712    1.042152   -1.859492
     10          6           0       -0.120488    0.718322   -3.195026
     11          6           0        1.351161    0.490325   -3.066612
     12          7           0        1.854425   -0.338699   -2.220960
     13          6           0        3.308254   -0.306600   -2.322136
     14          6           0        3.925642    0.177019   -0.998788
     15          6           0        3.498919   -0.694335    0.154550
     16          6           0        4.153273   -1.911471    0.405599
     17          6           0        3.723586   -2.739280    1.447905
     18          6           0        2.633917   -2.362820    2.238705
     19          6           0        1.971363   -1.157967    1.988557
     20          6           0        2.400176   -0.326218    0.950055
     21          6           0        3.584561    0.673669   -3.483211
     22          8           0        2.293380    1.134952   -3.841075
     23          7           0       -0.801702    0.175326   -0.911987
     24          6           0       -2.467603    0.251209    3.244767
     25          6           0       -2.924772    0.758993    4.464655
     26          1           0       -4.393200    1.992067    5.444348
     27          1           0       -5.564283    2.586335    3.341964
     28          1           0       -4.767825    1.698802    1.181375
     29          1           0       -2.357695   -1.024644    0.858125
     30          1           0       -3.408333    0.100233   -0.047619
     31          1           0       -0.601941    0.820350    1.073118
     32          1           0       -2.749980    2.499577   -0.191109
     33          1           0       -1.115783    2.997219    0.435758
     34          1           0       -0.601322   -0.195713   -3.603477
     35          1           0       -0.307616    1.558466   -3.896718
     36          1           0        3.685934   -1.322321   -2.573557
     37          1           0        3.625238    1.230925   -0.804458
     38          1           0        5.034186    0.163374   -1.084906
     39          1           0        4.990773   -2.219591   -0.208032
     40          1           0        4.232101   -3.675360    1.639224
     41          1           0        2.300745   -3.006431    3.042553
     42          1           0        1.123380   -0.869962    2.596666
     43          1           0        1.873987    0.600981    0.761114
     44          1           0        4.225125    1.532796   -3.188147
     45          1           0        4.041731    0.142201   -4.345133
     46          1           0       -1.598637   -0.395275    3.230663
     47          1           0       -2.412555    0.502460    5.382958
     48         29           0        0.586158   -1.208038   -1.002825
 ---------------------------------------------------------------------
                    Distance matrix (angstroms):
                    1          2          3          4          5
     1  C    0.000000
     2  C    1.397553   0.000000
     3  C    2.422612   1.398404   0.000000
     4  C    2.807012   2.430974   1.405303   0.000000
     5  C    4.314115   3.814813   2.530447   1.507264   0.000000
     6  C    5.065485   4.651161   3.462216   2.514176   1.536509
     7  C    5.297285   4.646883   3.544208   3.158227   2.578357
     8  O    6.700133   5.991643   4.817638   4.412271   3.490316
     9  C    7.200151   6.594808   5.317485   4.619118   3.368492
    10  C    8.680394   8.051525   6.744192   6.046574   4.702448
    11  C    9.356708   8.912141   7.670142   6.799859   5.512035
    12  N    9.147304   8.875570   7.678085   6.625628   5.373561
    13  C   10.206622  10.046703   8.920712   7.830505   6.676483
    14  C    9.783568   9.803491   8.826947   7.694536   6.769599
    15  C    8.999264   9.172292   8.262165   7.009238   6.188499
    16  C    9.809609  10.081986   9.196097   7.869238   7.056548
    17  C    9.403262   9.813104   9.017756   7.636934   6.963932
    18  C    8.084653   8.568618   7.857922   6.472712   5.971786
    19  C    7.074858   7.472544   6.735914   5.387813   4.908220
    20  C    7.602134   7.818267   6.969351   5.708824   5.036290
    21  C   11.078170  10.790883   9.643021   8.698925   7.525435
    22  O   10.483396  10.037761   8.835425   8.024368   6.798389
    23  N    6.465493   6.013059   4.739672   3.786950   2.453427
    24  C    2.422071   2.797307   2.425496   1.405412   2.524066
    25  C    1.397479   2.420756   2.797972   2.431304   3.810683
    26  H    1.082331   2.153342   3.402917   3.889344   5.396431
    27  H    2.152818   1.082345   2.153724   3.410958   4.682405
    28  H    3.398138   2.146513   1.082842   2.166343   2.746857
    29  H    4.793377   4.502840   3.333100   2.141036   1.112174
    30  H    4.829299   4.041491   2.654093   2.168407   1.112602
    31  H    4.916530   4.802609   3.833581   2.718792   2.184424
    32  H    4.947487   4.051264   2.932694   2.974222   2.621951
    33  H    5.198423   4.719110   3.874315   3.535074   3.321459
    34  H    8.983791   8.318330   6.954532   6.239527   4.788711
    35  H    9.188756   8.452107   7.169311   6.652870   5.389653
    36  H   10.875001  10.752170   9.605608   8.450679   7.249057
    37  H    9.329304   9.315841   8.390748   7.360293   6.536865
    38  H   10.751884  10.828764   9.891322   8.753134   7.865447
    39  H   10.877230  11.117082  10.195074   8.879511   7.994947
    40  H   10.219798  10.680425   9.907280   8.511529   7.849289
    41  H    7.971881   8.573621   7.965522   6.581861   6.233784
    42  H    6.032162   6.503955   5.863657   4.525241   4.279167
    43  H    7.068023   7.178196   6.318711   5.165320   4.525192
    44  H   11.288466  11.050670   9.983512   9.077677   8.024794
    45  H   12.069673  11.760536  10.573343   9.616612   8.375102
    46  H    3.398867   3.880403   3.411581   2.165017   2.733659
    47  H    2.152944   3.401105   3.880308   3.411232   4.676220
    48  Cu   7.717803   7.514115   6.315796   5.128644   3.854629
                    6          7          8          9         10
     6  C    0.000000
     7  C    1.545191   0.000000
     8  O    2.326363   1.416055   0.000000
     9  C    2.238750   2.278171   1.379191   0.000000
    10  C    3.682386   3.715331   2.532248   1.495226   0.000000
    11  C    4.315540   4.529494   3.469779   2.451295   1.494732
    12  N    4.232770   4.824645   4.075372   2.934656   2.442617
    13  C    5.462930   5.990044   5.245650   4.263475   3.683568
    14  C    5.481378   6.021506   5.547354   4.793305   4.635476
    15  C    5.097883   5.960062   5.794535   4.978386   5.129851
    16  C    6.160290   7.184731   7.055586   6.123981   6.176192
    17  C    6.321463   7.531525   7.624273   6.700167   6.949009
    18  C    5.477861   6.764458   7.092731   6.290382   6.826831
    19  C    4.244061   5.445844   5.840443   5.180364   5.896256
    20  C    3.996886   4.951772   5.073416   4.408786   4.962510
    21  C    6.215229   6.397968   5.399084   4.605760   3.716508
    22  O    5.513558   5.502558   4.333357   3.599145   2.533322
    23  N    1.457126   2.370524   2.235206   1.287484   2.443597
    24  C    3.222825   4.058760   5.340363   5.456119   6.870086
    25  C    4.476198   5.049573   6.418633   6.706825   8.156983
    26  H    6.109554   6.264750   7.675089   8.235077   9.722000
    27  H    5.494298   5.270154   6.554195   7.280557   8.709570
    28  H    3.628641   3.437926   4.532270   5.113349   6.458480
    29  H    2.170309   3.517394   4.249130   3.791165   4.946823
    30  H    2.183822   2.779851   3.458209   3.384176   4.593270
    31  H    1.112179   2.190750   3.034944   2.942960   4.296424
    32  H    2.226029   1.110546   2.068685   3.011691   4.371569
    33  H    2.203228   1.110853   2.076359   3.042261   4.400747
    34  H    4.074114   4.339086   3.298941   2.141388   1.110628
    35  H    4.361554   4.010625   2.637661   2.139755   1.110509
    36  H    6.180222   6.867600   6.150585   5.042056   4.363404
    37  H    5.125034   5.424981   4.968459   4.465481   4.473035
    38  H    6.576959   7.077221   6.579342   5.862133   5.597431
    39  H    7.062800   8.023787   7.753190   6.772135   6.608968
    40  H    7.308729   8.565273   8.651113   7.675770   7.849805
    41  H    5.980813   7.342986   7.808514   7.034481   7.657907
    42  H    3.804585   5.033898   5.676332   5.183990   6.132989
    43  H    3.287331   4.023116   4.166174   3.706441   4.432013
    44  H    6.614700   6.650076   5.704280   5.134070   4.421286
    45  H    7.142080   7.371217   6.312584   5.437328   4.356458
    46  H    3.208695   4.330637   5.473069   5.363400   6.686890
    47  H    5.229789   5.890406   7.235478   7.459492   8.881553
    48  Cu   3.087145   4.215087   3.954057   2.734321   3.002658
                   11         12         13         14         15
    11  C    0.000000
    12  N    1.286733   0.000000
    13  C    2.240435   1.457699   0.000000
    14  C    3.316928   2.459595   1.538280   0.000000
    15  C    4.048724   2.910994   2.514093   1.507163   0.000000
    16  C    5.067219   3.828463   3.275699   2.527036   1.404502
    17  C    6.036523   4.766248   4.505956   3.812077   2.430029
    18  C    6.158919   4.959162   5.048172   4.312852   2.806381
    19  C    5.353153   4.290094   4.592840   3.811250   2.431453
    20  C    4.230932   3.217660   3.395913   2.525526   1.405551
    21  C    2.279308   2.368868   1.544464   2.556434   3.887425
    22  O    1.379534   2.233630   2.327062   3.414749   4.556823
    23  N    3.062099   3.005436   4.371786   4.728141   4.515435
    24  C    7.380626   6.993003   8.041274   7.673776   6.785490
    25  C    8.664627   8.291146   9.276132   8.781576   7.871021
    26  H   10.377348  10.159834  11.176517  10.677618   9.873412
    27  H    9.658492   9.723126  10.916639  10.710070  10.152046
    28  H    7.546377   7.718905   9.028803   9.090946   8.667210
    29  H    5.608414   5.262437   6.537020   6.661264   5.907965
    30  H    5.649714   5.710753   7.102921   7.395797   6.955742
    31  H    4.589214   4.269435   5.299754   5.020526   4.467112
    32  H    5.396755   5.777253   7.008431   7.114109   7.026329
    33  H    4.963560   5.196983   6.171977   5.952093   5.916259
    34  H    2.138004   2.821789   4.115691   5.236099   5.584207
    35  H    2.140454   3.328937   4.362602   5.312896   5.998132
    36  H    2.996657   2.108616   1.112449   2.187551   2.805692
    37  H    3.291999   2.757893   2.183531   1.112980   2.154595
    38  H    4.195084   3.413733   2.174961   1.111968   2.151502
    39  H    5.363012   4.174484   3.310565   2.739259   2.164140
    40  H    6.913584   5.629180   5.281516   4.679086   3.410033
    41  H    7.102880   5.917818   6.089667   5.395098   3.888698
    42  H    5.828806   4.901652   5.411623   4.677193   3.411446
    43  H    3.864852   3.126683   3.519553   2.736108   2.164756
    44  H    3.059605   3.171461   2.230248   2.592511   4.081802
    45  H    2.999162   3.086695   2.198165   3.348539   4.608859
    46  H    7.010083   6.453451   7.410737   6.980934   5.961291
    47  H    9.249916   8.759808   9.630717   9.000296   7.982111
    48  Cu   2.780087   1.961659   3.156419   3.615322   3.176096
                   16         17         18         19         20
    16  C    0.000000
    17  C    1.398678   0.000000
    18  C    2.423311   1.398022   0.000000
    19  C    2.798974   2.421392   1.397577   0.000000
    20  C    2.425450   2.796808   2.421364   1.397918   0.000000
    21  C    4.704171   5.998621   6.547084   5.991456   4.696423
    22  O    5.547444   6.710326   7.022400   6.272622   5.010125
    23  N    5.535570   5.877266   5.307779   4.228559   3.737749
    24  C    7.521573   7.106515   5.819864   4.823718   5.412430
    25  C    8.585222   8.095638   6.752747   5.811879   6.471875
    26  H   10.661557  10.209771   8.866880   7.897650   8.468948
    27  H   11.103305  10.872633   9.639595   8.522762   8.811175
    28  H    9.655148   9.584971   8.508849   7.364056   7.452144
    29  H    6.586649   6.345849   5.349103   4.476203   4.809739
    30  H    7.837745   7.820722   6.913949   5.888141   5.908975
    31  H    5.524535   5.614411   4.686357   3.372486   3.215971
    32  H    8.213909   8.487582   7.650702   6.357645   5.984269
    33  H    7.201326   7.573068   6.785343   5.404371   4.865357
    34  H    6.451565   7.119763   7.020984   6.230207   5.455335
    35  H    7.102811   7.955263   7.853185   6.870896   5.863052
    36  H    3.072601   4.263959   5.034605   4.876438   3.880881
    37  H    3.408476   4.565670   4.812334   4.030266   2.646467
    38  H    2.702331   4.069177   4.815531   4.535747   3.364339
    39  H    1.082999   2.148946   3.400266   3.881866   3.411337
    40  H    2.153915   1.082329   2.153214   3.401505   3.879131
    41  H    3.403575   2.153775   1.082317   2.153188   3.401761
    42  H    3.881465   3.402216   2.153714   1.082506   2.153414
    43  H    3.410858   3.879438   3.397776   2.147090   1.082715
    44  H    4.978268   6.324172   6.867204   6.254431   4.889896
    45  H    5.176820   6.477919   7.183592   6.789145   5.563554
    46  H    6.585158   6.082651   4.771764   3.856090   4.603960
    47  H    8.585526   7.977828   6.600230   5.787721   6.595431
    48  Cu   3.899075   4.265470   4.004292   3.296918   2.807491
                   21         22         23         24         25
    21  C    0.000000
    22  O    1.417038   0.000000
    23  N    5.108703   4.368063   0.000000
    24  C    9.059407   8.582372   4.478793   0.000000
    25  C   10.273620   9.816089   5.810023   1.398204   0.000000
    26  H   12.045088  11.474497   7.523457   3.402450   2.153265
    27  H   11.573360  10.744553   6.825778   3.879650   3.400975
    28  H    9.621414   8.683522   4.736378   3.412350   3.880723
    29  H    7.552607   6.955489   2.644681   2.708494   4.063249
    30  H    7.812342   6.926073   2.747234   3.427473   4.585675
    31  H    6.189382   5.712368   2.096808   2.919020   4.111184
    32  H    7.368737   6.373377   3.117306   4.115840   4.973562
    33  H    6.546024   5.777693   3.142951   4.154337   4.951172
    34  H    4.276904   3.194749   2.724324   7.112045   8.450126
    35  H    4.012841   2.635838   3.326532   7.574647   8.797796
    36  H    2.195842   3.095803   5.014244   8.613647   9.877739
    37  H    2.736404   3.317243   4.552324   7.380974   8.419555
    38  H    2.848452   4.006551   5.838461   8.662022   9.720977
    39  H    4.590772   5.632751   6.307452   8.582194   9.662392
    40  H    6.750756   7.545291   6.831957   7.929801   8.880731
    41  H    7.601113   8.033395   5.948709   5.778430   6.595970
    42  H    6.738332   6.843471   4.136329   3.817357   4.746621
    43  H    4.576641   4.652006   3.184299   5.014008   6.063767
    44  H    1.111523   2.077555   5.682659   9.371097  10.501675
    45  H    1.111023   2.072766   5.936871   9.999495  11.248331
    46  H    8.548935   8.215770   4.257022   1.083163   2.147954
    47  H   10.705310  10.374423   6.506012   2.153606   1.082338
    48  Cu   4.322448   4.057077   1.961658   5.431104   6.788901
                   26         27         28         29         30
    26  H    0.000000
    27  H    2.478832   0.000000
    28  H    4.289439   2.467834   0.000000
    29  H    5.854679   5.430546   3.651079   0.000000
    30  H    5.891579   4.724203   2.431886   1.785934   0.000000
    31  H    5.903746   5.735085   4.258872   2.555953   3.106518
    32  H    5.892038   4.517791   2.568395   3.697961   2.492162
    33  H    6.069412   5.329541   3.947055   4.230381   3.725851
    34  H   10.051261   8.978303   6.621461   4.865991   4.539936
    35  H   10.204681   9.004864   6.760191   5.786520   5.153295
    36  H   11.855141  11.654934   9.731019   6.956328   7.663723
    37  H   10.194227  10.172377   8.637473   6.606607   7.163965
    38  H   11.612531  11.738631  10.177082   7.734770   8.506238
    39  H   11.736542  12.128834  10.607285   7.520942   8.715062
    40  H   10.999751  11.750629  10.492374   7.145756   8.687737
    41  H    8.692669   9.655431   8.692979   5.513644   7.196812
    42  H    6.836165   7.564806   6.580873   3.894141   5.335723
    43  H    7.946410   8.119746   6.745035   4.534225   5.367281
    44  H   12.206819  11.814601   9.999672   8.139185   8.377639
    45  H   13.053888  12.543554  10.515397   8.329950   8.600805
    46  H    4.290616   4.962735   4.316074   2.569282   3.777256
    47  H    2.479043   4.294366   4.963047   4.775895   5.535750
    48  Cu   8.752184   8.432223   6.471907   3.487555   4.310447
                   31         32         33         34         35
    31  H    0.000000
    32  H    3.005353   0.000000
    33  H    2.325730   1.819673   0.000000
    34  H    4.785700   4.850317   5.174447   0.000000
    35  H    5.032963   4.536780   4.636107   1.802609   0.000000
    36  H    6.022885   7.855186   7.125369   4.550884   5.098836
    37  H    4.643588   6.529095   5.209147   5.266271   5.013651
    38  H    6.070800   8.176182   6.940116   6.183130   6.195758
    39  H    6.493153   9.065875   8.057270   6.848113   7.480177
    40  H    6.625696   9.498917   8.635479   7.934471   8.868406
    41  H    5.191196   8.141408   7.383215   7.777650   8.706050
    42  H    2.855711   5.841952   4.963715   6.470779   7.078774
    43  H    2.505132   5.088464   3.845327   5.080505   5.231784
    44  H    6.478158   7.653038   6.618347   5.143426   4.587861
    45  H    7.168055   8.303040   7.589993   4.714041   4.596053
    46  H    2.669484   4.627557   4.421952   6.909409   7.502226
    47  H    4.685520   5.930645   5.690363   9.193695   9.573834
    48  Cu   3.136156   5.053228   4.759234   3.032870   4.102072
                   36         37         38         39         40
    36  H    0.000000
    37  H    3.106841   0.000000
    38  H    2.498230   1.789819   0.000000
    39  H    2.846648   3.758520   2.539550   0.000000
    40  H    4.856193   5.514662   4.774945   2.471275   0.000000
    41  H    6.024588   5.874433   5.878374   4.292047   2.479301
    42  H    5.788136   4.716001   5.469567   4.964329   4.295474
    43  H    4.254677   2.432021   3.685939   4.313841   4.961741
    44  H    2.969872   2.476482   2.636953   4.852598   7.101299
    45  H    2.325919   3.727622   3.408005   4.857401   7.100883
    46  H    7.904118   6.798205   7.932879   7.653305   6.876710
    47  H   10.189579   8.675812   9.869255   9.668402   8.696044
    48  Cu   3.476905   3.901781   4.655369   4.588635   5.134297
                   41         42         43         44         45
    41  H    0.000000
    42  H    2.479819   0.000000
    43  H    4.289581   2.469076   0.000000
    44  H    7.945404   6.989859   4.689647   0.000000
    45  H    8.217227   7.598014   5.566269   1.818242   0.000000
    46  H    4.696669   2.834900   4.376107   8.878895   9.460196
    47  H    6.324951   4.706358   6.304410  10.889639  11.680041
    48  Cu   4.747537   3.655029   2.835936   5.052711   4.993511
                   46         47         48
    46  H    0.000000
    47  H    2.469973   0.000000
    48  Cu   4.832839   7.259222   0.000000
 Symmetry turned off by external request.
 Stoichiometry    C21H22CuN2O2(2+,2)
 Framework group  C1[X(C21H22CuN2O2)]
 Deg. of freedom   138
 Full point group                 C1      NOp   1
 Rotational constants (GHZ):           0.2990768           0.1239332           0.0961095
 Leave Link  202 at Thu Aug  1 12:09:34 2024, MaxMem= 13421772800 cpu:               1.5 elap:               0.1
 (Enter /public/software/apps/Gaussian/g16/l301.exe)
 Standard basis: def2SVPP (5D, 7F)
 Ernie: Thresh=  0.10000D-02 Tol=  0.10000D-05 Strict=F.
   418 basis functions,   784 primitive gaussians,   445 cartesian basis functions
   103 alpha electrons      102 beta electrons
       nuclear repulsion energy      2819.5098780856 Hartrees.
 IExCor=  402 DFT=T Ex+Corr=B3LYP ExCW=0 ScaHFX=  0.200000
 ScaDFX=  0.800000  0.720000  1.000000  0.810000 ScalE2=  1.000000  1.000000
 IRadAn=      5 IRanWt=     -1 IRanGd=            0 ICorTp=0 IEmpDi=141
 NAtoms=   48 NActive=   48 NUniq=   48 SFac= 1.00D+00 NAtFMM=   60 NAOKFM=F Big=F
 Integral buffers will be    131072 words long.
 Raffenetti 2 integral format.
 Two-electron integral symmetry is turned off.
 R6Disp:  Grimme-D3(BJ) Dispersion energy=       -0.1158526448 Hartrees.
 Nuclear repulsion after empirical dispersion term =     2819.3940254407 Hartrees.
 Leave Link  301 at Thu Aug  1 12:09:34 2024, MaxMem= 13421772800 cpu:               1.3 elap:               0.0
 (Enter /public/software/apps/Gaussian/g16/l302.exe)
 NPDir=0 NMtPBC=     1 NCelOv=     1 NCel=       1 NClECP=     1 NCelD=      1
         NCelK=      1 NCelE2=     1 NClLst=     1 CellRange=     0.0.
 One-electron integrals computed using PRISM.
   1 Symmetry operations used in ECPInt.
 ECPInt:  NShTT=   20910 NPrTT=   87167 LenC2=   18702 LenP2D=   51209.
 LDataN:  DoStor=T MaxTD1= 4 Len=   56
 NBasis=   418 RedAO= T EigKep=  2.82D-04  NBF=   418
 NBsUse=   418 1.00D-06 EigRej= -1.00D+00 NBFU=   418
 Precomputing XC quadrature grid using
 IXCGrd= 4 IRadAn=           5 IRanWt=          -1 IRanGd=           0 AccXCQ= 0.00D+00.
 Generated NRdTot=       0 NPtTot=           0 NUsed=           0 NTot=          32
 NSgBfM=   440   440   440   440   440 MxSgAt=    48 MxSgA2=    48.
 Leave Link  302 at Thu Aug  1 12:09:35 2024, MaxMem= 13421772800 cpu:              13.1 elap:               0.4
 (Enter /public/software/apps/Gaussian/g16/l303.exe)
 DipDrv:  MaxL=1.
 Leave Link  303 at Thu Aug  1 12:09:35 2024, MaxMem= 13421772800 cpu:               1.3 elap:               0.1
 (Enter /public/software/apps/Gaussian/g16/l401.exe)
 ExpMin= 3.30D-02 ExpMax= 7.64D+04 ExpMxC= 1.15D+04 IAcc=3 IRadAn=         5 AccDes= 0.00D+00
 Harris functional with IExCor=  402 and IRadAn=       5 diagonalized for initial guess.
 HarFok:  IExCor=  402 AccDes= 0.00D+00 IRadAn=         5 IDoV= 1 UseB2=F ITyADJ=14
 ICtDFT=  3500011 ScaDFX=  1.000000  1.000000  1.000000  1.000000
 FoFCou: FMM=F IPFlag=           0 FMFlag=      100000 FMFlg1=           0
         NFxFlg=           0 DoJE=T BraDBF=F KetDBF=T FulRan=T
         wScrn=  0.000000 ICntrl=       500 IOpCl=  0 I1Cent=   200000004 NGrid=           0
         NMat0=    1 NMatS0=      1 NMatT0=    0 NMatD0=    1 NMtDS0=    0 NMtDT0=    0
 Symmetry not used in FoFCou.
 Harris En= -2712.70767671055    
 JPrj=0 DoOrth=F DoCkMO=F.
 Initial guess <Sx>= 0.0000 <Sy>= 0.0000 <Sz>= 0.5000 <S**2>= 0.7500 S= 0.5000
 Leave Link  401 at Thu Aug  1 12:09:36 2024, MaxMem= 13421772800 cpu:              29.5 elap:               0.9
 (Enter /public/software/apps/Gaussian/g16/l502.exe)
 Two-electron integral symmetry not used.
 UHF open shell SCF:
 Using DIIS extrapolation, IDIIS=  1040.
 NGot= 13421772800 LenX= 13421357527 LenY= 13421159057
 Requested convergence on RMS density matrix=1.00D-08 within 128 cycles.
 Requested convergence on MAX density matrix=1.00D-06.
 Requested convergence on             energy=1.00D-06.
 No special actions if energy rises.
 Fock matrices will be formed incrementally for  20 cycles.

 Cycle   1  Pass 1  IDiag  1:
 FoFJK:  IHMeth= 1 ICntrl=       0 DoSepK=F KAlg= 0 I1Cent=           0 FoldK=F
 IRaf= 830000000 NMat=       1 IRICut=       1 DoRegI=T DoRafI=F ISym2E= 0 IDoP0=0 IntGTp=1.
 FoFCou: FMM=F IPFlag=           0 FMFlag=      100000 FMFlg1=           0
         NFxFlg=           0 DoJE=F BraDBF=F KetDBF=F FulRan=T
         wScrn=  0.000000 ICntrl=         0 IOpCl=  1 I1Cent=           0 NGrid=           0
         NMat0=    1 NMatS0=      1 NMatT0=    0 NMatD0=    1 NMtDS0=    0 NMtDT0=    0
 Symmetry not used in FoFCou.
 E= -2704.97888274272    
 DIIS: error= 1.59D-01 at cycle   1 NSaved=   1.
 NSaved= 1 IEnMin= 1 EnMin= -2704.97888274272     IErMin= 1 ErrMin= 1.59D-01
 ErrMax= 1.59D-01  0.00D+00 EMaxC= 1.00D-01 BMatC= 4.80D+01 BMatP= 4.80D+01
 IDIUse=3 WtCom= 0.00D+00 WtEn= 1.00D+00
 Coeff-Com:  0.100D+01
 Coeff-En:   0.100D+01
 Coeff:      0.100D+01
 Gap=    -1.183 Goal=   None    Shift=    0.000
 Gap=     3.196 Goal=   None    Shift=    0.000
 GapD=   -1.183 DampG=0.250 DampE=0.125 DampFc=0.1250 IDamp=-1.
 Damping current iteration by 1.25D-01
 RMSDP=6.55D-02 MaxDP=9.88D+00              OVMax= 9.55D-01

 Cycle   2  Pass 1  IDiag  1:
 RMSU=  8.19D-03    CP:  1.01D+00
 E= -2706.86891546117     Delta-E=       -1.890032718453 Rises=F Damp=T
 DIIS: error= 1.00D-01 at cycle   2 NSaved=   2.
 NSaved= 2 IEnMin= 2 EnMin= -2706.86891546117     IErMin= 2 ErrMin= 1.00D-01
 ErrMax= 1.00D-01  0.00D+00 EMaxC= 1.00D-01 BMatC= 1.60D+01 BMatP= 4.80D+01
 IDIUse=3 WtCom= 3.48D-04 WtEn= 1.00D+00
 Coeff-Com: -0.105D+01 0.205D+01
 Coeff-En:   0.392D-01 0.961D+00
 Coeff:      0.388D-01 0.961D+00
 Gap=    -0.101 Goal=   None    Shift=    0.000
 Gap=     0.693 Goal=   None    Shift=    0.000
 RMSDP=1.23D-02 MaxDP=1.96D+00 DE=-1.89D+00 OVMax= 9.13D-01

 Cycle   3  Pass 1  IDiag  1:
 RMSU=  1.21D-02    CP:  9.20D-01  1.06D+00
 E= -2704.40635795903     Delta-E=        2.462557502149 Rises=F Damp=F
 DIIS: error= 9.39D-02 at cycle   3 NSaved=   3.
 NSaved= 3 IEnMin= 2 EnMin= -2706.86891546117     IErMin= 3 ErrMin= 9.39D-02
 ErrMax= 9.39D-02  0.00D+00 EMaxC= 1.00D-01 BMatC= 2.20D+01 BMatP= 1.60D+01
 IDIUse=2 WtCom= 0.00D+00 WtEn= 1.00D+00
 EnCoef did   100 forward-backward iterations
 Coeff-En:   0.499D+00 0.192D-01 0.482D+00
 Coeff:      0.499D+00 0.192D-01 0.482D+00
 Gap=     0.124 Goal=   None    Shift=    0.000
 Gap=     0.077 Goal=   None    Shift=    0.000
 RMSDP=1.42D-02 MaxDP=1.32D+00 DE= 2.46D+00 OVMax= 9.78D-01

 Cycle   4  Pass 1  IDiag  1:
 RMSU=  1.05D-02    CP:  9.15D-01  4.67D-01  3.23D-01
 E= -2687.40825649639     Delta-E=       16.998101462635 Rises=F Damp=F
 DIIS: error= 1.06D-01 at cycle   4 NSaved=   4.
 NSaved= 4 IEnMin= 2 EnMin= -2706.86891546117     IErMin= 3 ErrMin= 9.39D-02
 ErrMax= 1.06D-01  0.00D+00 EMaxC= 1.00D-01 BMatC= 3.28D+01 BMatP= 1.60D+01
 IDIUse=2 WtCom= 0.00D+00 WtEn= 1.00D+00
 EnCoef did   100 forward-backward iterations
 Coeff-En:   0.480D+00 0.819D-02 0.422D+00 0.903D-01
 Coeff:      0.480D+00 0.819D-02 0.422D+00 0.903D-01
 Gap=     0.403 Goal=   None    Shift=    0.000
 Gap=    -0.340 Goal=   None    Shift=    0.000
 RMSDP=1.07D-02 MaxDP=1.75D+00 DE= 1.70D+01 OVMax= 1.00D+00

 Cycle   5  Pass 1  IDiag  1:
 RMSU=  5.01D-03    CP:  9.06D-01  5.00D-02  2.39D-01  1.62D-01
 E= -2711.82310143585     Delta-E=      -24.414844939457 Rises=F Damp=F
 DIIS: error= 4.61D-02 at cycle   5 NSaved=   5.
 NSaved= 5 IEnMin= 5 EnMin= -2711.82310143585     IErMin= 5 ErrMin= 4.61D-02
 ErrMax= 4.61D-02  0.00D+00 EMaxC= 1.00D-01 BMatC= 3.40D+00 BMatP= 1.60D+01
 IDIUse=3 WtCom= 5.39D-01 WtEn= 4.61D-01
 Coeff-Com: -0.350D+00 0.789D+00 0.256D-02-0.118D+00 0.676D+00
 Coeff-En:   0.151D+00 0.000D+00 0.000D+00 0.000D+00 0.849D+00
 Coeff:     -0.119D+00 0.425D+00 0.138D-02-0.638D-01 0.756D+00
 Gap=     0.351 Goal=   None    Shift=    0.000
 Gap=     0.027 Goal=   None    Shift=    0.000
 RMSDP=3.83D-03 MaxDP=1.64D-01 DE=-2.44D+01 OVMax= 8.16D-01

 Cycle   6  Pass 1  IDiag  1:
 RMSU=  3.34D-03    CP:  9.13D-01  1.38D-02  2.21D-01  6.37D-02  6.98D-01
 E= -2711.78963104717     Delta-E=        0.033470388677 Rises=F Damp=F
 DIIS: error= 2.65D-02 at cycle   6 NSaved=   6.
 NSaved= 6 IEnMin= 5 EnMin= -2711.82310143585     IErMin= 6 ErrMin= 2.65D-02
 ErrMax= 2.65D-02  0.00D+00 EMaxC= 1.00D-01 BMatC= 2.23D+00 BMatP= 3.40D+00
 IDIUse=3 WtCom= 7.35D-01 WtEn= 2.65D-01
 EnCoef did     9 forward-backward iterations
 Coeff-Com: -0.251D+00 0.511D+00-0.707D-01-0.518D-01 0.433D+00 0.430D+00
 Coeff-En:   0.612D-01 0.000D+00 0.000D+00 0.000D+00 0.548D+00 0.391D+00
 Coeff:     -0.168D+00 0.375D+00-0.519D-01-0.380D-01 0.463D+00 0.420D+00
 Gap=     0.265 Goal=   None    Shift=    0.000
 Gap=     0.002 Goal=   None    Shift=    0.000
 RMSDP=2.77D-03 MaxDP=1.54D-01 DE= 3.35D-02 OVMax= 7.40D-01

 Cycle   7  Pass 1  IDiag  1:
 RMSU=  1.64D-03    CP:  9.10D-01  1.19D-02  2.01D-01  1.03D-01  8.45D-01
                    CP:  3.86D-01
 E= -2712.31800572453     Delta-E=       -0.528374677354 Rises=F Damp=F
 DIIS: error= 1.13D-02 at cycle   7 NSaved=   7.
 NSaved= 7 IEnMin= 7 EnMin= -2712.31800572453     IErMin= 7 ErrMin= 1.13D-02
 ErrMax= 1.13D-02  0.00D+00 EMaxC= 1.00D-01 BMatC= 4.86D-01 BMatP= 2.23D+00
 IDIUse=3 WtCom= 8.87D-01 WtEn= 1.13D-01
 Coeff-Com: -0.142D+00 0.289D+00-0.538D-01-0.118D-02 0.112D+00 0.294D+00
 Coeff-Com:  0.503D+00
 Coeff-En:   0.000D+00 0.000D+00 0.000D+00 0.000D+00 0.000D+00 0.147D+00
 Coeff-En:   0.853D+00
 Coeff:     -0.126D+00 0.256D+00-0.477D-01-0.105D-02 0.993D-01 0.278D+00
 Coeff:      0.542D+00
 Gap=     0.268 Goal=   None    Shift=    0.000
 Gap=     0.022 Goal=   None    Shift=    0.000
 RMSDP=1.76D-03 MaxDP=8.10D-02 DE=-5.28D-01 OVMax= 6.40D-01

 Cycle   8  Pass 1  IDiag  1:
 RMSU=  1.24D-03    CP:  9.13D-01  1.34D-02  1.91D-01  1.16D-01  8.57D-01
                    CP:  3.87D-01  2.53D-01
 E= -2712.37257232915     Delta-E=       -0.054566604626 Rises=F Damp=F
 DIIS: error= 1.31D-02 at cycle   8 NSaved=   8.
 NSaved= 8 IEnMin= 8 EnMin= -2712.37257232915     IErMin= 7 ErrMin= 1.13D-02
 ErrMax= 1.31D-02  0.00D+00 EMaxC= 1.00D-01 BMatC= 4.14D-01 BMatP= 4.86D-01
 IDIUse=3 WtCom= 8.87D-01 WtEn= 1.13D-01
 Coeff-Com: -0.923D-01 0.184D+00-0.230D-01 0.321D-04-0.123D+00 0.127D+00
 Coeff-Com:  0.455D+00 0.472D+00
 Coeff-En:   0.000D+00 0.000D+00 0.000D+00 0.000D+00 0.000D+00 0.000D+00
 Coeff-En:   0.407D+00 0.593D+00
 Coeff:     -0.819D-01 0.164D+00-0.204D-01 0.285D-04-0.109D+00 0.113D+00
 Coeff:      0.450D+00 0.485D+00
 Gap=     0.233 Goal=   None    Shift=    0.000
 Gap=     0.006 Goal=   None    Shift=    0.000
 RMSDP=1.84D-03 MaxDP=2.34D-01 DE=-5.46D-02 OVMax= 9.37D-01

 Cycle   9  Pass 1  IDiag  1:
 RMSU=  1.45D-03    CP:  9.15D-01  5.50D-03  1.77D-01  8.71D-02  7.67D-01
                    CP:  4.69D-01  5.33D-01  3.53D-01
 E= -2712.38085397266     Delta-E=       -0.008281643512 Rises=F Damp=F
 DIIS: error= 1.11D-02 at cycle   9 NSaved=   9.
 NSaved= 9 IEnMin= 9 EnMin= -2712.38085397266     IErMin= 9 ErrMin= 1.11D-02
 ErrMax= 1.11D-02  0.00D+00 EMaxC= 1.00D-01 BMatC= 3.29D-01 BMatP= 4.14D-01
 IDIUse=3 WtCom= 8.89D-01 WtEn= 1.11D-01
 EnCoef did     3 forward-backward iterations
 Coeff-Com: -0.888D-01 0.159D+00-0.454D-02 0.168D-02-0.573D-01 0.574D-01
 Coeff-Com:  0.286D+00 0.342D+00 0.305D+00
 Coeff-En:   0.000D+00 0.000D+00 0.000D+00 0.000D+00 0.000D+00 0.000D+00
 Coeff-En:   0.158D+00 0.421D+00 0.421D+00
 Coeff:     -0.789D-01 0.141D+00-0.403D-02 0.149D-02-0.509D-01 0.510D-01
 Coeff:      0.271D+00 0.351D+00 0.318D+00
 Gap=     0.227 Goal=   None    Shift=    0.000
 Gap=     0.008 Goal=   None    Shift=    0.000
 RMSDP=1.10D-03 MaxDP=1.68D-01 DE=-8.28D-03 OVMax= 5.01D-01

 Cycle  10  Pass 1  IDiag  1:
 RMSU=  7.36D-04    CP:  9.12D-01  1.28D-02  1.94D-01  1.01D-01  8.19D-01
                    CP:  4.41D-01  6.72D-01  3.65D-01  5.24D-01
 E= -2712.45629352250     Delta-E=       -0.075439549834 Rises=F Damp=F
 DIIS: error= 6.05D-03 at cycle  10 NSaved=  10.
 NSaved=10 IEnMin=10 EnMin= -2712.45629352250     IErMin=10 ErrMin= 6.05D-03
 ErrMax= 6.05D-03  0.00D+00 EMaxC= 1.00D-01 BMatC= 8.06D-02 BMatP= 3.29D-01
 IDIUse=3 WtCom= 9.39D-01 WtEn= 6.05D-02
 EnCoef did     2 forward-backward iterations
 Coeff-Com: -0.614D-01 0.109D+00-0.851D-03 0.284D-02-0.823D-01-0.191D-01
 Coeff-Com:  0.101D+00 0.277D+00 0.229D+00 0.445D+00
 Coeff-En:   0.000D+00 0.000D+00 0.000D+00 0.000D+00 0.000D+00 0.000D+00
 Coeff-En:   0.000D+00 0.242D+00 0.182D+00 0.576D+00
 Coeff:     -0.577D-01 0.102D+00-0.799D-03 0.267D-02-0.773D-01-0.179D-01
 Coeff:      0.948D-01 0.275D+00 0.226D+00 0.453D+00
 Gap=     0.175 Goal=   None    Shift=    0.000
 Gap=     0.004 Goal=   None    Shift=    0.000
 RMSDP=9.21D-04 MaxDP=3.82D-02 DE=-7.54D-02 OVMax= 5.52D-01

 Cycle  11  Pass 1  IDiag  1:
 RMSU=  4.90D-04    CP:  9.12D-01  1.58D-02  1.90D-01  1.10D-01  8.44D-01
                    CP:  4.11D-01  3.86D-01  7.34D-01  2.89D-01  7.96D-01
 E= -2712.46207712868     Delta-E=       -0.005783606179 Rises=F Damp=F
 DIIS: error= 7.45D-03 at cycle  11 NSaved=  11.
 NSaved=11 IEnMin=11 EnMin= -2712.46207712868     IErMin=10 ErrMin= 6.05D-03
 ErrMax= 7.45D-03  0.00D+00 EMaxC= 1.00D-01 BMatC= 9.62D-02 BMatP= 8.06D-02
 IDIUse=3 WtCom= 9.39D-01 WtEn= 6.05D-02
 EnCoef did     2 forward-backward iterations
 Coeff-Com: -0.431D-01 0.768D-01 0.749D-03 0.571D-03-0.831D-01-0.345D-01
 Coeff-Com:  0.679D-01 0.753D-01 0.199D+00 0.290D+00 0.451D+00
 Coeff-En:   0.000D+00 0.000D+00 0.000D+00 0.000D+00 0.000D+00 0.000D+00
 Coeff-En:   0.000D+00 0.000D+00 0.179D+00 0.218D+00 0.604D+00
 Coeff:     -0.405D-01 0.721D-01 0.703D-03 0.537D-03-0.781D-01-0.324D-01
 Coeff:      0.638D-01 0.707D-01 0.198D+00 0.285D+00 0.460D+00
 Gap=     0.183 Goal=   None    Shift=    0.000
 Gap=     0.012 Goal=   None    Shift=    0.000
 RMSDP=3.59D-04 MaxDP=2.65D-02 DE=-5.78D-03 OVMax= 1.97D-01

 Cycle  12  Pass 1  IDiag  1:
 RMSU=  1.31D-04    CP:  9.13D-01  1.52D-02  1.89D-01  1.05D-01  8.31D-01
                    CP:  4.20D-01  4.77D-01  6.12D-01  4.36D-01  9.42D-01
                    CP:  9.46D-01
 E= -2712.47923423278     Delta-E=       -0.017157104101 Rises=F Damp=F
 DIIS: error= 4.10D-03 at cycle  12 NSaved=  12.
 NSaved=12 IEnMin=12 EnMin= -2712.47923423278     IErMin=12 ErrMin= 4.10D-03
 ErrMax= 4.10D-03  0.00D+00 EMaxC= 1.00D-01 BMatC= 2.46D-02 BMatP= 8.06D-02
 IDIUse=3 WtCom= 9.59D-01 WtEn= 4.10D-02
 Coeff-Com: -0.246D-01 0.446D-01-0.847D-03 0.934D-03-0.430D-01-0.206D-01
 Coeff-Com:  0.398D-01-0.559D-01 0.109D+00 0.241D-02 0.717D-01 0.876D+00
 Coeff-En:   0.000D+00 0.000D+00 0.000D+00 0.000D+00 0.000D+00 0.000D+00
 Coeff-En:   0.000D+00 0.000D+00 0.494D-01 0.000D+00 0.000D+00 0.951D+00
 Coeff:     -0.236D-01 0.428D-01-0.812D-03 0.895D-03-0.412D-01-0.197D-01
 Coeff:      0.381D-01-0.536D-01 0.107D+00 0.231D-02 0.688D-01 0.879D+00
 Gap=     0.182 Goal=   None    Shift=    0.000
 Gap=     0.018 Goal=   None    Shift=    0.000
 RMSDP=1.33D-04 MaxDP=5.64D-03 DE=-1.72D-02 OVMax= 4.85D-02

 Cycle  13  Pass 1  IDiag  1:
 RMSU=  1.06D-04    CP:  9.13D-01  1.59D-02  1.89D-01  1.06D-01  8.32D-01
                    CP:  4.18D-01  4.91D-01  5.79D-01  4.28D-01  9.54D-01
                    CP:  1.07D+00  8.70D-01
 E= -2712.48062632194     Delta-E=       -0.001392089167 Rises=F Damp=F
 DIIS: error= 3.38D-03 at cycle  13 NSaved=  13.
 NSaved=13 IEnMin=13 EnMin= -2712.48062632194     IErMin=13 ErrMin= 3.38D-03
 ErrMax= 3.38D-03  0.00D+00 EMaxC= 1.00D-01 BMatC= 1.72D-02 BMatP= 2.46D-02
 IDIUse=3 WtCom= 9.66D-01 WtEn= 3.38D-02
 Coeff-Com: -0.721D-02 0.128D-01-0.807D-03 0.107D-02 0.351D-02-0.683D-03
 Coeff-Com:  0.203D-02-0.243D-01 0.510D-01-0.215D+00-0.547D+00 0.574D+00
 Coeff-Com:  0.115D+01
 Coeff-En:   0.000D+00 0.000D+00 0.000D+00 0.000D+00 0.000D+00 0.000D+00
 Coeff-En:   0.000D+00 0.000D+00 0.435D-01 0.000D+00 0.000D+00 0.000D+00
 Coeff-En:   0.956D+00
 Coeff:     -0.697D-02 0.124D-01-0.780D-03 0.103D-02 0.339D-02-0.660D-03
 Coeff:      0.196D-02-0.235D-01 0.508D-01-0.208D+00-0.529D+00 0.555D+00
 Coeff:      0.114D+01
 Gap=     0.183 Goal=   None    Shift=    0.000
 Gap=     0.020 Goal=   None    Shift=    0.000
 RMSDP=1.51D-04 MaxDP=1.29D-02 DE=-1.39D-03 OVMax= 4.02D-02

 Cycle  14  Pass 1  IDiag  1:
 RMSU=  7.19D-05    CP:  9.13D-01  1.64D-02  1.87D-01  1.04D-01  8.27D-01
                    CP:  4.20D-01  5.13D-01  5.41D-01  4.68D-01  9.46D-01
                    CP:  1.16D+00  1.44D+00  1.39D+00
 E= -2712.48312382853     Delta-E=       -0.002497506583 Rises=F Damp=F
 DIIS: error= 1.27D-03 at cycle  14 NSaved=  14.
 NSaved=14 IEnMin=14 EnMin= -2712.48312382853     IErMin=14 ErrMin= 1.27D-03
 ErrMax= 1.27D-03  0.00D+00 EMaxC= 1.00D-01 BMatC= 2.76D-03 BMatP= 1.72D-02
 IDIUse=3 WtCom= 9.87D-01 WtEn= 1.27D-02
 Coeff-Com: -0.206D-02 0.358D-02-0.303D-03 0.279D-03 0.469D-02-0.104D-02
 Coeff-Com: -0.940D-02 0.128D-01 0.356D-01-0.154D+00-0.402D+00 0.168D+00
 Coeff-Com:  0.806D+00 0.537D+00
 Coeff-En:   0.000D+00 0.000D+00 0.000D+00 0.000D+00 0.000D+00 0.000D+00
 Coeff-En:   0.000D+00 0.000D+00 0.000D+00 0.000D+00 0.000D+00 0.000D+00
 Coeff-En:   0.000D+00 0.100D+01
 Coeff:     -0.203D-02 0.354D-02-0.299D-03 0.275D-03 0.463D-02-0.102D-02
 Coeff:     -0.928D-02 0.127D-01 0.352D-01-0.152D+00-0.397D+00 0.166D+00
 Coeff:      0.796D+00 0.543D+00
 Gap=     0.176 Goal=   None    Shift=    0.000
 Gap=     0.020 Goal=   None    Shift=    0.000
 RMSDP=7.02D-05 MaxDP=3.04D-03 DE=-2.50D-03 OVMax= 3.14D-02

 Cycle  15  Pass 1  IDiag  1:
 RMSU=  4.02D-05    CP:  9.13D-01  1.64D-02  1.87D-01  1.05D-01  8.27D-01
                    CP:  4.18D-01  5.06D-01  5.56D-01  4.54D-01  9.21D-01
                    CP:  1.23D+00  1.46D+00  1.64D+00  8.68D-01
 E= -2712.48327731998     Delta-E=       -0.000153491452 Rises=F Damp=F
 DIIS: error= 1.06D-03 at cycle  15 NSaved=  15.
 NSaved=15 IEnMin=15 EnMin= -2712.48327731998     IErMin=15 ErrMin= 1.06D-03
 ErrMax= 1.06D-03  0.00D+00 EMaxC= 1.00D-01 BMatC= 1.86D-03 BMatP= 2.76D-03
 IDIUse=3 WtCom= 9.89D-01 WtEn= 1.06D-02
 Coeff-Com:  0.491D-03-0.900D-03-0.116D-03 0.694D-04-0.133D-02-0.737D-03
 Coeff-Com: -0.197D-02 0.296D-01 0.328D-01-0.721D-01-0.210D+00-0.128D-01
 Coeff-Com:  0.320D+00 0.355D+00 0.562D+00
 Coeff-En:   0.000D+00 0.000D+00 0.000D+00 0.000D+00 0.000D+00 0.000D+00
 Coeff-En:   0.000D+00 0.000D+00 0.000D+00 0.000D+00 0.000D+00 0.000D+00
 Coeff-En:   0.000D+00 0.185D+00 0.815D+00
 Coeff:      0.486D-03-0.891D-03-0.115D-03 0.686D-04-0.131D-02-0.730D-03
 Coeff:     -0.194D-02 0.293D-01 0.325D-01-0.714D-01-0.208D+00-0.126D-01
 Coeff:      0.317D+00 0.353D+00 0.565D+00
 Gap=     0.177 Goal=   None    Shift=    0.000
 Gap=     0.019 Goal=   None    Shift=    0.000
 RMSDP=3.68D-05 MaxDP=2.30D-03 DE=-1.53D-04 OVMax= 9.70D-03

 Cycle  16  Pass 1  IDiag  1:
 RMSU=  2.18D-05    CP:  9.13D-01  1.61D-02  1.86D-01  1.04D-01  8.25D-01
                    CP:  4.20D-01  5.07D-01  5.62D-01  4.58D-01  9.00D-01
                    CP:  1.25D+00  1.49D+00  1.72D+00  9.63D-01  1.06D+00
 E= -2712.48352300666     Delta-E=       -0.000245686676 Rises=F Damp=F
 DIIS: error= 4.58D-04 at cycle  16 NSaved=  16.
 NSaved=16 IEnMin=16 EnMin= -2712.48352300666     IErMin=16 ErrMin= 4.58D-04
 ErrMax= 4.58D-04  0.00D+00 EMaxC= 1.00D-01 BMatC= 4.61D-04 BMatP= 1.86D-03
 IDIUse=3 WtCom= 9.95D-01 WtEn= 4.58D-03
 Coeff-Com:  0.670D-03-0.126D-02 0.364D-04-0.322D-04-0.129D-02-0.117D-03
 Coeff-Com:  0.143D-02 0.195D-01 0.207D-01-0.138D-01-0.106D+00-0.140D-02
 Coeff-Com:  0.850D-01 0.958D-01 0.119D+00 0.782D+00
 Coeff-En:   0.000D+00 0.000D+00 0.000D+00 0.000D+00 0.000D+00 0.000D+00
 Coeff-En:   0.000D+00 0.000D+00 0.000D+00 0.000D+00 0.000D+00 0.000D+00
 Coeff-En:   0.000D+00 0.000D+00 0.000D+00 0.100D+01
 Coeff:      0.666D-03-0.126D-02 0.363D-04-0.321D-04-0.128D-02-0.116D-03
 Coeff:      0.143D-02 0.194D-01 0.207D-01-0.138D-01-0.106D+00-0.139D-02
 Coeff:      0.846D-01 0.954D-01 0.118D+00 0.783D+00
 Gap=     0.177 Goal=   None    Shift=    0.000
 Gap=     0.019 Goal=   None    Shift=    0.000
 RMSDP=2.12D-05 MaxDP=1.25D-03 DE=-2.46D-04 OVMax= 6.94D-03

 Cycle  17  Pass 1  IDiag  1:
 RMSU=  1.24D-05    CP:  9.13D-01  1.59D-02  1.85D-01  1.04D-01  8.24D-01
                    CP:  4.22D-01  5.10D-01  5.63D-01  4.63D-01  8.91D-01
                    CP:  1.25D+00  1.52D+00  1.75D+00  9.87D-01  1.21D+00
                    CP:  1.23D+00
 E= -2712.48359500436     Delta-E=       -0.000071997709 Rises=F Damp=F
 DIIS: error= 2.53D-04 at cycle  17 NSaved=  17.
 NSaved=17 IEnMin=17 EnMin= -2712.48359500436     IErMin=17 ErrMin= 2.53D-04
 ErrMax= 2.53D-04  0.00D+00 EMaxC= 1.00D-01 BMatC= 1.50D-04 BMatP= 4.61D-04
 IDIUse=3 WtCom= 9.97D-01 WtEn= 2.53D-03
 Coeff-Com:  0.906D-04-0.270D-03 0.113D-03-0.991D-05 0.104D-02 0.590D-03
 Coeff-Com:  0.135D-02 0.289D-02 0.551D-02 0.105D-01-0.626D-01 0.537D-01
 Coeff-Com:  0.320D-01-0.357D-01-0.295D+00 0.476D+00 0.810D+00
 Coeff-En:   0.000D+00 0.000D+00 0.000D+00 0.000D+00 0.000D+00 0.000D+00
 Coeff-En:   0.000D+00 0.000D+00 0.000D+00 0.000D+00 0.000D+00 0.000D+00
 Coeff-En:   0.000D+00 0.000D+00 0.000D+00 0.000D+00 0.100D+01
 Coeff:      0.904D-04-0.270D-03 0.112D-03-0.989D-05 0.104D-02 0.588D-03
 Coeff:      0.135D-02 0.288D-02 0.550D-02 0.104D-01-0.625D-01 0.535D-01
 Coeff:      0.319D-01-0.356D-01-0.294D+00 0.475D+00 0.810D+00
 Gap=     0.178 Goal=   None    Shift=    0.000
 Gap=     0.019 Goal=   None    Shift=    0.000
 RMSDP=2.74D-05 MaxDP=1.75D-03 DE=-7.20D-05 OVMax= 1.42D-02

 Cycle  18  Pass 1  IDiag  1:
 RMSU=  7.91D-06    CP:  9.13D-01  1.57D-02  1.85D-01  1.03D-01  8.23D-01
                    CP:  4.23D-01  5.17D-01  5.56D-01  4.73D-01  8.93D-01
                    CP:  1.23D+00  1.55D+00  1.77D+00  9.70D-01  1.20D+00
                    CP:  1.63D+00  1.16D+00
 E= -2712.48365232017     Delta-E=       -0.000057315806 Rises=F Damp=F
 DIIS: error= 4.19D-05 at cycle  18 NSaved=  18.
 NSaved=18 IEnMin=18 EnMin= -2712.48365232017     IErMin=18 ErrMin= 4.19D-05
 ErrMax= 4.19D-05  0.00D+00 EMaxC= 1.00D-01 BMatC= 7.11D-06 BMatP= 1.50D-04
 IDIUse=1 WtCom= 1.00D+00 WtEn= 0.00D+00
 Coeff-Com: -0.794D-04 0.107D-03 0.315D-04-0.275D-04 0.649D-03 0.307D-03
 Coeff-Com:  0.473D-04 0.150D-02 0.137D-02 0.468D-02-0.338D-01 0.298D-01
 Coeff-Com:  0.254D-01-0.167D-03-0.120D+00 0.131D+00 0.370D+00 0.590D+00
 Coeff:     -0.794D-04 0.107D-03 0.315D-04-0.275D-04 0.649D-03 0.307D-03
 Coeff:      0.473D-04 0.150D-02 0.137D-02 0.468D-02-0.338D-01 0.298D-01
[...]
 00388614,0.00474761,-0.00248691,0.00029171,0.00298250,-0.00105988,0.01
 266183,0.01428223,-0.00042390,-0.00038991,0.00080786,0.00028434,-0.000
 16329,0.00008061,-0.00002854,0.00005621,0.00001672,-0.00004027,0.00002
 505,-0.00003388,-0.00000012,0.00010915,0.00003872,-0.00009057,-0.00017
 608,0.00011499,-0.00003934,0.00006485,-0.00019570,-0.00183740,-0.14625
 456,-0.13458550,0.01006122,-0.01229523,-0.01614904,0.00002029,0.000046
 74,-0.00009093,0.00002366,-0.00006606,-0.00015748,-0.00013421,-0.00002
 342,0.00000124,0.00000320,-0.00000035,-0.00000313,0.00000055,-0.000000
 62,0.00000055,-0.00000126,-0.00000417,-0.00000629,0.00001386,-0.000007
 92,-0.00001037,-0.00000033,-0.00000206,-0.00000768,0.00000524,-0.00000
 421,-0.00000594,0.00000495,-0.00000111,0.00000061,0.00000186,0.0000009
 1,-0.00000984,0.00000712,-0.00000581,-0.00004568,-0.00008792,0.0001171
 6,-0.00005012,0.00011253,0.00127965,0.00019246,0.00000831,-0.00000318,
 0.00006750,0.00009167,0.00002641,0.00003326,0.00003363,-0.00001423,0.0
 0002421,-0.00000062,-0.00000077,0.00000586,0.00001435,0.00000056,0.000
 00301,-0.00000854,0.00000010,0.00000311,0.00004141,-0.00001514,0.00002
 840,-0.00023532,-0.00738202,-0.01409723,-0.00455050,0.15553875,-0.0000
 1953,0.00001561,0.00003986,0.00001183,-0.00004130,-0.00009059,-0.00008
 312,-0.00001447,0.00000762,0.00004861,-0.00002723,-0.00005288,-0.00002
 192,-0.00000617,-0.00000337,0.00003536,0.00002080,-0.00002026,0.000018
 11,0.00000331,-0.00003891,-0.00009110,0.00000715,0.00010840,-0.0000332
 8,0.00007334,-0.00016637,-0.00023751,-0.00026842,0.00025081,-0.0002959
 5,0.00195820,-0.00241958,0.00124390,0.00004974,-0.00215594,-0.00022335
 ,-0.01292268,-0.01431230,0.00109900,0.00066887,-0.00137980,-0.00039977
 ,0.00029035,-0.00016602,0.00003702,-0.00007387,-0.00006402,0.00003906,
 -0.00000040,0.00003487,-0.00000933,-0.00009418,-0.00002653,0.00008770,
 0.00014019,-0.00009206,0.00003918,-0.00002040,0.00020189,0.00340449,-0
 .13971565,-0.24261157,-0.00196389,0.00679821,0.00957252,0.00000805,-0.
 00003874,0.00005826,-0.00001457,0.00003827,0.00009260,0.00007835,0.000
 01323,-0.00000097,-0.00000178,0.00000035,0.00000175,-0.00000027,0.0000
 0035,-0.00000017,0.00000156,0.00000278,0.00000362,-0.00001099,0.000005
 16,0.00000539,0.00000151,0.00000138,0.00000468,-0.00000377,0.00000271,
 0.00000400,-0.00000225,-0.00000045,0.00000016,0.00000052,-0.00000038,0
 .00000630,-0.00000346,-0.00000400,0.00002137,0.00002782,-0.00003199,0.
 00004703,-0.00002230,-0.00030742,0.00155587,0.00015002,0.00005521,0.00
 009537,-0.00017510,0.00006250,-0.00010315,-0.00002509,0.00002892,-0.00
 002558,-0.00000031,0.00000209,-0.00000699,-0.00001172,0.00000066,-0.00
 000271,0.00000970,-0.00000166,0.00000010,-0.00003335,0.00001184,-0.000
 01637,-0.00012418,0.00114719,0.00263360,-0.00256167,0.14227852,0.24891
 292,-0.00262714,0.00007688,0.00378875,0.00052584,0.00032453,0.00009665
 ,0.00034818,-0.00073713,-0.00004466,-0.00032559,0.00009037,0.00120933,
 0.00005364,0.00028869,0.00045915,0.00009902,-0.00027872,-0.00020550,0.
 00004941,0.00007701,-0.00017566,-0.00032988,0.00014483,0.00015220,0.00
 015687,-0.00011715,0.00012902,-0.00002506,-0.00000103,-0.00002047,0.00
 024417,-0.00033598,0.00027504,-0.00006118,0.00004054,-0.00034064,-0.00
 009453,0.00017067,-0.00002556,0.00000391,-0.00004466,0.00000938,0.0000
 1581,-0.00008701,0.00015202,0.00008675,0.00017920,-0.00009037,-0.00008
 282,0.00009506,0.00020539,0.00003881,-0.00013241,-0.00011250,-0.000006
 18,-0.00001339,-0.00004624,0.00001972,-0.00009908,-0.00005042,-0.00003
 049,-0.00000095,0.00001446,0.00004825,0.00008045,-0.00026660,-0.000200
 17,0.00022492,0.00023785,-0.29791751,-0.07124232,-0.06272408,-0.015990
 05,-0.00747617,-0.00802505,-0.00079091,-0.00026924,-0.00054792,-0.0000
 3810,0.00007311,-0.00006493,-0.00005707,-0.00009695,0.00014271,0.00023
 728,-0.00007447,-0.00035350,0.00004572,-0.00002528,-0.00000774,0.00034
 802,0.00029899,0.00033397,0.00001695,-0.00001509,0.00002254,-0.0000315
 9,0.00001696,-0.00004910,-0.00000786,0.00000460,0.00001169,-0.00001261
 ,0.00000019,0.00001739,0.00000043,-0.00000332,0.00000760,-0.00000286,0
 .00000546,-0.00000743,-0.00000085,0.00001171,-0.00000731,-0.00000542,0
 .00000389,-0.00000658,0.00000554,0.00000251,0.00000004,0.00001614,-0.0
 0000703,-0.00000339,0.00000620,0.00000352,-0.00000902,-0.00001876,-0.0
 0000391,-0.00001034,0.00000349,-0.00000002,0.00000060,0.00000167,0.000
 00863,-0.00000526,0.31518915,-0.00019113,0.00620997,-0.00364528,0.0004
 7442,-0.00069565,0.00021444,-0.00045843,0.00273847,-0.00414893,-0.0126
 0937,-0.00067516,-0.00315501,-0.00065571,-0.00139519,0.00145914,0.0000
 0979,0.00026007,0.00007613,-0.00017240,0.00001546,0.00002561,0.0001030
 6,-0.00005676,0.00004004,-0.00007497,0.00006506,-0.00007814,0.00001117
 ,0.00000073,-0.00000101,0.00002298,-0.00002428,0.00001267,0.00001407,-
 0.00003984,-0.00004323,-0.00003181,0.00002814,-0.00000029,0.00000883,-
 0.00000605,0.00000408,0.00001419,-0.00006416,0.00004248,0.00004132,0.0
 0007655,-0.00003910,-0.00003124,0.00002437,0.00007406,0.00003704,0.000
 02389,-0.00006504,-0.00003618,-0.00009873,0.00003912,-0.00000011,0.000
 00577,-0.00005965,-0.00000366,0.00000141,0.00000188,0.00000601,0.00001
 064,-0.00002090,-0.00000243,-0.00007725,0.00007657,-0.07137191,-0.0617
 5804,-0.02585466,0.00560486,0.00754679,0.00020845,0.00037168,-0.000501
 13,0.00035399,0.00007805,-0.00054807,0.00029307,-0.00071544,0.00052693
 ,-0.00035054,0.00069637,-0.00025754,0.00006126,0.00017020,-0.00018312,
 0.00014798,-0.00014319,0.00007175,0.00025146,-0.00000317,0.00001879,-0
 .00004143,0.00003054,-0.00004141,0.00004839,0.00000105,0.00000065,0.00
 000204,-0.00000857,0.00000757,0.00000615,0.00000279,-0.00000196,-0.000
 00135,-0.00000016,-0.00000028,-0.00000100,-0.00000040,0.00000350,0.000
 00079,-0.00000307,0.00000072,0.00000070,0.00000481,-0.00000311,-0.0000
 0155,0.00002299,-0.00003075,-0.00000031,0.00003609,0.00002680,-0.00000
 878,-0.00000358,0.00000212,0.00000469,-0.00000007,-0.00000020,0.000000
 76,0.00000007,0.00000130,-0.00000076,0.07824491,0.05241486,0.00282832,
 -0.00400309,-0.00165487,0.00045096,0.00022316,-0.00061592,-0.00000529,
 -0.00388468,-0.00345881,-0.02505914,-0.00625411,-0.00194162,-0.0007795
 0,0.00134802,0.00058685,-0.00002029,-0.00027766,-0.00081678,-0.0000507
 2,0.00010080,-0.00009374,-0.00007640,-0.00002659,0.00019657,-0.0000514
 6,0.00010782,-0.00008456,-0.00000959,-0.00003607,0.00000083,0.00015444
 ,-0.00015288,0.00004614,-0.00006044,0.00003881,-0.00009434,-0.00001858
 ,0.00003910,-0.00001914,0.00000103,-0.00000417,0.00001012,0.00001396,0
 .00000160,0.00001672,0.00000733,0.00001063,-0.00000381,-0.00001395,-0.
 00000071,0.00002109,-0.00002992,-0.00006937,-0.00000460,-0.00004760,0.
 00008609,-0.00006335,-0.00000809,-0.00000231,-0.00000519,0.00001519,-0
 .00001105,-0.00000051,-0.00003358,0.00005063,-0.00005000,-0.00001547,0
 .00010351,0.00045519,-0.06412044,-0.02674030,-0.07262353,0.02096767,0.
 00492356,0.00965753,0.00078216,0.00059101,0.00018836,-0.00005469,0.000
 28444,-0.00004163,-0.00118467,-0.00060636,0.00000134,0.00017876,-0.000
 28564,-0.00022578,0.00003444,0.00001461,0.00028768,0.00048680,0.000559
 31,-0.00069322,0.00002037,-0.00002808,0.00005184,-0.00002186,0.0000248
 3,-0.00002112,-0.00001610,0.00000801,0.00000447,-0.00001200,0.00001133
 ,0.00001747,-0.00000337,0.00000033,0.00000239,0.00000045,-0.00000034,-
 0.00000054,-0.00000015,0.00000110,-0.00000186,0.00000077,-0.00000142,0
 .00000027,0.00000217,-0.00000064,0.00000362,0.00001054,-0.00000804,0.0
 0001903,0.00003370,-0.00000239,0.00003271,0.00000242,-0.00000235,-0.00
 000043,-0.00000102,0.00000190,-0.00000284,-0.00000080,0.00000367,-0.00
 000289,0.06612993,0.03187858,0.07088282,-0.00039472,-0.01318636,-0.026
 17688,-0.00506120,-0.00208230,-0.00034945,-0.00018329,0.00022061,0.000
 21171,-0.00395464,-0.00082371,0.00279152,0.00059711,0.00055880,0.00089
 357,0.00011736,0.00011858,-0.00011433,-0.00001038,0.00000032,-0.000010
 37,-0.00000171,-0.00000041,0.00001192,-0.00001113,0.00001369,-0.000013
 07,0.00000274,0.00000022,0.00000140,0.00002473,-0.00002666,0.00001749,
 -0.00001494,0.00000155,-0.00002308,-0.00000126,0.00000995,-0.00000407,
 -0.00000087,-0.00000195,0.00000186,0.00000257,-0.00000305,0.00000064,0
 .00000118,-0.00000186,-0.00000207,0.00000130,-0.00000146,-0.00000608,-
 0.00000959,-0.00001040,0.00000209,-0.00000015,0.00002686,-0.00000364,-
 0.00000532,-0.00000295,0.00000263,0.00000035,-0.00000169,0.00000109,-0
 .00000037,0.00000894,-0.00001780,-0.00007286,-0.00003778,0.00005557,0.
 00829725,0.01103761,0.02228168,-0.06806616,-0.02523944,-0.04351237,0.0
 0110381,0.00078431,0.00005623,-0.00001433,-0.00060519,-0.00113320,0.00
 005999,0.00013003,-0.00007080,-0.00002144,0.00000409,-0.00005682,-0.00
 026153,0.00007440,0.00025605,-0.00000938,-0.00002398,0.00000400,-0.000
 01661,-0.00000283,0.00000473,0.00000926,-0.00000098,0.00000506,-0.0000
 0136,0.00000091,0.00000218,-0.00000186,0.00000205,0.00000324,-0.000000
 18,-0.00000023,0.00000065,-0.00000059,0.00000021,0.00000009,-0.0000002
 4,-0.00000004,-0.00000088,0.00000050,-0.00000003,-0.00000052,0.0000009
 8,-0.00000034,0.00000060,0.00000117,0.00000496,0.00000627,-0.00000337,
 0.00000068,0.00000740,-0.00000106,0.00000105,0.00000249,-0.00000021,0.
 00000005,0.00000057,-0.00000014,0.00000102,-0.00000055,0.00094739,0.00
 062245,-0.00069310,0.06689387,-0.00018918,0.00100827,-0.00681018,-0.00
 212744,0.00441787,-0.00183380,0.00059680,-0.00032615,0.00053904,-0.000
 65043,0.00634456,-0.00358139,-0.00027199,-0.00017867,0.00001128,-0.000
 16968,-0.00002641,0.00017748,-0.00001151,-0.00000218,0.00001130,0.0000
 1669,-0.00002064,-0.00000976,-0.00003777,0.00003527,-0.00001190,0.0000
 0778,-0.00000311,-0.00000074,-0.00000775,0.00000666,0.00000382,0.00000
 320,-0.00000929,0.00000042,-0.00000604,0.00000675,0.00000435,0.0000023
 7,-0.00000257,-0.00000166,-0.00000199,-0.00000708,0.00001936,0.0000098
 0,0.00002091,-0.00000959,-0.00001293,0.00001360,0.00003004,0.00001035,
 -0.00000882,-0.00002567,-0.00000056,-0.00001549,0.00000450,0.00001064,
 -0.00001387,-0.00000741,-0.00000382,0.00000360,0.00000123,0.00000668,-
 0.00000357,-0.00000628,0.00009023,-0.00005475,-0.00000575,-0.00197659,
 0.00349015,-0.00384489,-0.02541682,-0.10149872,-0.11896976,0.00064094,
 -0.00242320,0.00153073,0.00000486,0.00013800,-0.00036008,0.00014558,-0
 .00068510,0.00033312,0.00011605,-0.00002738,-0.00006081,0.00008331,-0.
 00013619,0.00008967,0.00000331,0.00002348,0.00001048,0.00000504,-0.000
 00065,-0.00000005,-0.00000164,-0.00000203,0.00001026,-0.00000159,0.000
 00137,0.00000137,0.00000048,0.00000025,0.00000079,0.00000072,-0.000000
 65,-0.00000024,-0.00000021,-0.00000002,-0.00000043,0.00000015,0.000001
 43,-0.00000027,-0.00000068,0.00000056,-0.00000034,0.00000173,-0.000000
 07,-0.00000222,0.00000506,-0.00000224,-0.00000494,0.00000282,0.0000051
 7,-0.00000565,-0.00000382,0.00000085,-0.00000043,0.00000018,-0.0000001
 4,0.00000019,0.00000018,-0.00000010,0.00000017,0.00067808,-0.00364783,
 0.00208991,0.02844125,0.09355266,0.00165765,-0.00192106,-0.00045591,-0
 .00058403,-0.00189213,0.00183433,0.00091758,0.00065782,0.00041349,0.00
 284022,-0.00308203,0.00031620,-0.00040605,-0.00027747,-0.00047851,0.00
 002315,-0.00008626,-0.00007073,0.00003587,-0.00002671,-0.00002186,-0.0
 0007213,0.00005699,0.00001740,0.00007179,-0.00006487,0.00005417,-0.000
 00969,-0.00000116,-0.00000706,0.00002327,-0.00003753,0.00003160,-0.000
 00493,0.00000460,-0.00003997,-0.00001266,0.00001966,-0.00000388,0.0000
 0064,-0.00000503,0.00000125,0.00000184,-0.00000718,0.00001676,0.000008
 62,0.00001899,-0.00000781,-0.00000742,0.00000952,0.00001959,0.00000434
 ,-0.00000711,-0.00000688,-0.00000130,-0.00000982,-0.00000819,0.0000015
 0,-0.00000772,-0.00000569,-0.00000410,-0.00000079,0.00000128,0.0000085
 2,0.00000915,-0.00003208,-0.00002225,0.00010797,-0.00000948,-0.0051002
 0,-0.00879963,-0.01098253,-0.04440441,-0.11923079,-0.27623807,-0.00024
 347,0.00145711,-0.00004820,0.00014380,-0.00013935,-0.00005276,-0.00006
 548,0.00030986,-0.00019689,-0.00002750,0.00002418,0.00005402,0.0001395
 4,0.00005078,-0.00018969,0.00003082,0.00001146,-0.00001717,-0.00000032
 ,-0.00001109,0.00000654,-0.00000014,0.00001038,-0.00002151,0.00000243,
 -0.00000207,-0.00000066,-0.00000203,-0.00000148,0.00000112,-0.00000002
 ,-0.00000022,0.00000085,-0.00000009,0.00000061,-0.00000083,-0.00000001
 ,0.00000132,-0.00000042,-0.00000087,0.00000047,-0.00000048,-0.00000010
 ,0.00000070,0.00000031,0.00000150,-0.00000261,-0.00000164,0.00000360,-
 0.00000185,-0.00000172,-0.00000042,-0.00000172,-0.00000191,0.00000069,
 -0.00000021,0.00000015,0.00000028,0.00000098,-0.00000060,-0.00046225,0
 .00218118,-0.00003091,0.04553455,0.13070591,0.28613590,0.00041202,-0.0
 0044075,-0.00101800,-0.00023576,0.00110937,0.00180686,0.00175423,-0.00
 068939,-0.00023527,-0.00081815,0.00078734,0.00153530,-0.00086869,0.003
 02498,-0.00210748,-0.00759088,0.00060051,0.00573485,-0.00135915,-0.000
 05195,0.00185854,0.00859744,-0.00392513,0.00275882,-0.00765333,0.01038
 854,-0.01607776,-0.00042566,-0.00130058,-0.00045812,0.00505577,-0.0045
 5669,0.00000009,-0.01430958,0.00332798,0.01634443,-0.00006285,-0.00100
 834,0.00601770,0.00000418,-0.00059424,0.00173408,-0.00913302,0.0054648
 6,0.00267779,0.00036678,0.00304182,-0.00083944,-0.00042373,0.00089832,
 0.00106389,-0.00117390,-0.00011471,-0.00105062,-0.00123341,0.00042672,
 -0.00889245,-0.02507739,0.00107811,-0.00801622,-0.00070290,0.00055848,
 0.00065516,-0.00015425,0.00286209,-0.00136056,-0.06416009,0.03193493,-
 0.00499983,0.00072677,-0.00083736,-0.00195856,-0.00154105,0.00001752,-
 0.00009010,0.00005486,-0.00014950,0.00004208,0.00001432,0.00010736,-0.
 00010294,-0.00009824,-0.00019860,-0.00003384,0.00176015,-0.00110841,0.
 00108237,-0.00026139,-0.00021553,-0.00020030,0.00011267,0.00011140,-0.
 00043315,0.00004395,0.00000291,-0.00000363,0.00023482,-0.00013691,0.00
 000006,-0.00044717,0.00026135,0.00027076,-0.00018506,0.00031942,0.0005
 5214,0.00001811,0.00000619,0.00009300,-0.00032751,-0.00000328,-0.00020
 918,-0.00002773,0.00005982,-0.00065430,-0.00005398,-0.00020934,-0.0000
 1569,0.00004982,-0.00001299,0.00009886,0.00004151,-0.00012612,0.000068
 35,-0.00031216,0.00029036,-0.00015980,-0.00609490,0.00049117,-0.002715
 16,-0.00004131,-0.00009798,0.00027520,-0.00003516,-0.00008372,0.000033
 61,0.00014825,-0.00011274,0.00026680,0.00005936,0.00000819,-0.00002031
 ,0.12535336,-0.00007928,0.00026901,0.00055465,0.00006680,-0.00034565,-
 0.00088513,-0.00041202,-0.00013397,0.00011642,-0.00003099,-0.00100135,
 -0.00007350,-0.00044449,0.00106742,-0.00070935,0.00312898,0.00009533,-
 0.00467845,0.00039789,-0.00014415,-0.00068776,-0.00369738,0.00471088,0
 .00017383,0.00831930,-0.00806892,0.00879751,-0.00062714,-0.00109053,-0
 .00001014,-0.00400863,0.00182287,0.00551452,0.00253658,-0.00875633,-0.
 00229075,-0.00050072,0.00131645,-0.00367667,0.00081088,0.00077517,-0.0
 0079412,0.00328182,0.00343346,-0.00070043,-0.00273996,-0.00694652,0.00
 280741,-0.00002880,-0.00308867,-0.00096861,-0.00062823,-0.00455984,-0.
 00011796,0.00193491,0.00307205,0.00209370,0.01511651,-0.00508828,0.007
 33745,-0.00011699,-0.00000535,-0.00046519,0.00231226,-0.00039249,0.001
 32400,0.03012423,-0.03048675,0.00662023,-0.00005639,0.00026223,0.00088
 562,0.00051729,0.00008587,-0.00005454,-0.00001486,-0.00000359,0.000011
 64,-0.00001250,0.00002583,-0.00000698,0.00001685,0.00006113,0.00003649
 ,0.00015283,-0.00007610,0.00050826,-0.00031927,-0.00003156,-0.00007462
 ,0.00031814,-0.00004481,0.00017747,-0.00036998,0.00016152,-0.00012061,
 0.00003491,-0.00006853,0.00010967,0.00028274,0.00001998,-0.00021953,0.
 00030789,-0.00027056,0.00013517,0.00043735,-0.00049914,-0.00051658,-0.
 00028196,-0.00018253,0.00025598,-0.00002904,-0.00022521,0.00032369,0.0
 0008463,0.00000155,0.00007159,0.00010904,0.00012124,-0.00002240,-0.000
 21860,0.00001365,-0.00002708,-0.00030908,0.00024458,-0.00080329,-0.004
 15920,-0.00021221,-0.00142456,0.00001118,-0.00013232,0.00013673,0.0000
 8328,0.00010909,-0.00010695,-0.00008440,0.00002423,-0.00010447,-0.0000
 1092,0.00002552,-0.00002174,-0.05120546,0.05413632,0.00143521,-0.00053
 498,-0.00168127,-0.00056486,0.00197072,0.00457205,0.00441959,0.0011473
 4,-0.00047513,-0.00312032,0.00173794,0.00210210,0.00329830,-0.00093852
 ,0.00044370,-0.00043000,-0.00423559,0.00660136,-0.00015278,-0.00022958
 ,0.00073973,0.00358276,0.00026611,-0.00299656,-0.01233319,0.00658035,0
 .00057018,-0.00041013,-0.00073529,0.00000546,-0.00367934,0.01112908,-0
 .02242281,0.01915474,-0.00250247,-0.07250228,0.00779945,-0.00663443,-0
 .00361195,0.00044119,0.00021457,-0.00123947,-0.00410462,0.00590246,0.0
 0235460,-0.00299274,-0.00443080,0.00149690,0.00014609,0.00072755,-0.00
 199192,0.00233729,0.00413825,-0.00057966,-0.00081203,-0.00083506,-0.00
 965769,-0.00867896,0.00110399,-0.00102303,0.00130040,-0.00104050,0.000
 21238,-0.00383992,-0.00044240,0.01002139,-0.00383574,0.00805507,-0.018
 19681,0.00082039,-0.00178845,-0.00452184,-0.00458799,-0.00081038,0.000
 08460,0.00009602,0.00000303,-0.00010495,0.00001457,-0.00007437,0.00003
 990,-0.00003026,-0.00011800,-0.00018859,-0.00046510,0.00026000,-0.0010
 8660,-0.00020089,-0.00005551,-0.00029412,0.00048497,-0.00033900,-0.000
 50201,0.00012986,-0.00015703,0.00022080,0.00016163,-0.00011264,0.00000
 773,0.00029577,-0.00016034,-0.00046806,0.00044143,0.00003330,-0.000122
 01,-0.00039673,0.00068634,0.00006072,0.00024126,0.00007583,-0.00018386
 ,-0.00018612,0.00032195,-0.00044418,0.00017587,-0.00023573,0.00006331,
 0.00014946,-0.00007531,-0.00015576,0.00031463,-0.00012160,0.00015724,-
 0.00177152,0.00038680,-0.00195029,-0.00121026,0.00032999,0.00014481,-0
 .00028849,0.00008258,-0.00001181,-0.00012939,-0.00010472,0.00010063,0.
 00026679,0.00001129,0.00006893,0.00003177,-0.00002121,0.00002907,0.006
 68193,-0.01843061,0.11631505\\0.00000025,-0.00000107,-0.00000116,-0.00
 000077,0.00000112,0.00000389,0.00000208,-0.00000083,-0.00000084,-0.000
 00027,0.00000213,0.00000445,-0.00000066,-0.00000169,-0.00000108,0.0000
 1435,-0.00000125,-0.00000932,-0.00000857,-0.00000107,0.00000974,0.0000
 0480,-0.00000075,-0.00001029,-0.00000181,-0.00000112,0.00000507,0.0000
 0021,0.00000537,-0.00000655,0.00000032,-0.00000461,-0.00000039,0.00000
 606,0.00000945,0.00001119,-0.00000224,0.00000203,0.00000181,0.00000051
 ,0.00000321,-0.00000517,-0.00000190,-0.00000502,-0.00000206,0.00000277
 ,0.00000363,-0.00000448,-0.00000349,0.00000114,0.00000748,-0.00000129,
 -0.00000872,-0.00000338,0.00000644,0.00000805,-0.00000911,-0.00000275,
 -0.00000126,0.00001239,0.00000861,-0.00001009,-0.00000081,-0.00001006,
 0.00000285,-0.00000474,-0.00000393,-0.00000335,0.00001307,0.00000169,-
 0.00000262,-0.00000555,-0.00000310,-0.00000043,0.00000138,0.00000104,-
 0.00000062,0.,0.00000090,-0.00000037,-0.00000013,-0.00000019,0.0000001
 1,0.00000064,0.00000008,-0.00000118,0.00000009,-0.00000016,-0.00000038
 ,-0.00000028,-0.00000157,0.00000015,0.00000144,0.00000014,0.00000181,-
 0.00000097,0.00000190,0.00000049,0.00000009,-0.00000173,0.00000010,0.0
 0000307,0.00000084,-0.00000107,-0.00000065,-0.00000105,-0.00000016,-0.
 00000062,0.00000041,-0.00000007,-0.00000034,0.00000063,-0.00000029,0.0
 0000122,-0.00000120,-0.00000071,0.00000013,0.00000083,0.00000008,-0.00
 000230,0.00000142,0.00000104,0.00000044,-0.00000130,-0.00000113,-0.000
 00043,-0.00000156,0.00000043,-0.00000186,-0.00000049,0.00000199,0.0000
 0340,-0.00000034,0.00000278,-0.00000107,-0.00000064,0.00000011,0.00000
 116,0.00000059,-0.00000067,-0.00000042,-0.00000577,0.00000248,-0.00000
 815\\\@
 The archive entry for this job was punched.


 SUCCESS-- IF YOU HAVE TRIED TO DO SOMETHING AND FAILED
           YOU ARE BETTER OFF THAN IF YOU HAD TRIED TO DO
           NOTHING AND SUCCEEDED.

                   -- FROM THE BACK OF A SUGAR PACKET
 Job cpu time:       0 days  6 hours  4 minutes 56.7 seconds.
 Elapsed time:       0 days  0 hours 11 minutes 28.8 seconds.
 File lengths (MBytes):  RWF=   2039 Int=      0 D2E=      0 Chk=     22 Scr=      1
 Normal termination of Gaussian 16 at Thu Aug  1 12:48:03 2024.
