 Entering Gaussian System, Link 0=g16
 Initial command:
 /public/software/apps/Gaussian/g16/l1.exe "/tmp/Gau-96868.inp" -scrdir="/tmp/"
 Entering Link 1 = /public/software/apps/Gaussian/g16/l1.exe PID=     96869.
  
 Copyright (c) 1988-2019, Gaussian, Inc.  All Rights Reserved.
  
 This is part of the Gaussian(R) 16 program.  It is based on
 the Gaussian(R) 09 system (copyright 2009, Gaussian, Inc.),
 the Gaussian(R) 03 system (copyright 2003, Gaussian, Inc.),
 the Gaussian(R) 98 system (copyright 1998, Gaussian, Inc.),
 the Gaussian(R) 94 system (copyright 1995, Gaussian, Inc.),
 the Gaussian 92(TM) system (copyright 1992, Gaussian, Inc.),
 the Gaussian 90(TM) system (copyright 1990, Gaussian, Inc.),
 the Gaussian 88(TM) system (copyright 1988, Gaussian, Inc.),
 the Gaussian 86(TM) system (copyright 1986, Carnegie Mellon
 University), and the Gaussian 82(TM) system (copyright 1983,
 Carnegie Mellon University). Gaussian is a federally registered
 trademark of Gaussian, Inc.
  
 This software contains proprietary and confidential information,
 including trade secrets, belonging to Gaussian, Inc.
  
 This software is provided under written license and may be
 used, copied, transmitted, or stored only in accord with that
 written license.
  
 The following legend is applicable only to US Government
 contracts under FAR:
  
                    RESTRICTED RIGHTS LEGEND
  
 Use, reproduction and disclosure by the US Government is
 subject to restrictions as set forth in subparagraphs (a)
 and (c) of the Commercial Computer Software - Restricted
 Rights clause in FAR 52.227-19.
  
 Gaussian, Inc.
 340 Quinnipiac St., Bldg. 40, Wallingford CT 06492
  
  
 ---------------------------------------------------------------
 Warning -- This program may not be used in any manner that
 competes with the business of Gaussian, Inc. or will provide
 assistance to any competitor of Gaussian, Inc.  The licensee
 of this program is prohibited from giving any competitor of
 Gaussian, Inc. access to this program.  By using this program,
 the user acknowledges that Gaussian, Inc. is engaged in the
 business of creating and licensing software in the field of
 computational chemistry and represents and warrants to the
 licensee that it is not a competitor of Gaussian, Inc. and that
 it will not use this program in any manner prohibited above.
 ---------------------------------------------------------------
  

 Cite this work as:
 Gaussian 16, Revision C.01,
 M. J. Frisch, G. W. Trucks, H. B. Schlegel, G. E. Scuseria, 
 M. A. Robb, J. R. Cheeseman, G. Scalmani, V. Barone, 
 G. A. Petersson, H. Nakatsuji, X. Li, M. Caricato, A. V. Marenich, 
 J. Bloino, B. G. Janesko, R. Gomperts, B. Mennucci, H. P. Hratchian, 
 J. V. Ortiz, A. F. Izmaylov, J. L. Sonnenberg, D. Williams-Young, 
 F. Ding, F. Lipparini, F. Egidi, J. Goings, B. Peng, A. Petrone, 
 T. Henderson, D. Ranasinghe, V. G. Zakrzewski, J. Gao, N. Rega, 
 G. Zheng, W. Liang, M. Hada, M. Ehara, K. Toyota, R. Fukuda, 
 J. Hasegawa, M. Ishida, T. Nakajima, Y. Honda, O. Kitao, H. Nakai, 
 T. Vreven, K. Throssell, J. A. Montgomery, Jr., J. E. Peralta, 
 F. Ogliaro, M. J. Bearpark, J. J. Heyd, E. N. Brothers, K. N. Kudin, 
 V. N. Staroverov, T. A. Keith, R. Kobayashi, J. Normand, 
 K. Raghavachari, A. P. Rendell, J. C. Burant, S. S. Iyengar, 
 J. Tomasi, M. Cossi, J. M. Millam, M. Klene, C. Adamo, R. Cammi, 
 J. W. Ochterski, R. L. Martin, K. Morokuma, O. Farkas, 
 J. B. Foresman, and D. J. Fox, Gaussian, Inc., Wallingford CT, 2019.
 
 ******************************************
 Gaussian 16:  ES64L-G16RevC.01  3-Jul-2019
                 1-Aug-2024 
 ******************************************
 %nprocshared=32
 Will use up to   32 processors via shared memory.
 %mem=100GB
 ------------------------------------------
 #p opt freq b3lyp/def2svpp em=gd3bj nosymm
 ------------------------------------------
 1/18=20,19=15,26=3,38=1/1,3;
 2/9=110,12=2,15=1,17=6,18=5,40=1/2;
 3/5=43,7=202,11=2,25=1,30=1,71=1,74=-5,124=41/1,2,3;
 4//1;
 5/5=2,38=5/2;
 6/7=2,8=2,9=2,10=2,28=1/1;
 7/30=1/1,2,3,16;
 1/18=20,19=15,26=3/3(2);
 2/9=110,15=1/2;
 99//99;
 2/9=110,15=1/2;
 3/5=43,7=202,11=2,25=1,30=1,71=1,74=-5,124=41/1,2,3;
 4/5=5,16=3,69=1/1;
 5/5=2,38=5/2;
 7/30=1/1,2,3,16;
 1/18=20,19=15,26=3/3(-5);
 2/9=110,15=1/2;
 6/7=2,8=2,9=2,10=2,19=2,28=1/1;
 99/9=1/99;
 Leave Link    1 at Thu Aug  1 11:11:47 2024, MaxMem= 13421772800 cpu:               1.7 elap:               0.1
 (Enter /public/software/apps/Gaussian/g16/l101.exe)
 ------------------
 $$$$Title####2????
 ------------------
 Symbolic Z-matrix:
 Charge =  2 Multiplicity = 2
 C                    -0.86233   4.04001   2.48181 
 C                    -0.23154   3.02984   1.51046 
 C                     1.2747    3.31162   1.3905 
 C                    -0.48946   1.57479   1.9752 
 C                    -1.97944   1.16278   1.9201 
 O                    -1.97562   0.00847   1.10176 
 C                    -0.69589  -0.21778   0.63687 
 C                    -0.3215   -1.36165  -0.28274 
 C                    -1.57192  -1.89124  -1.01257 
 C                     0.36155  -2.49278   0.5383 
 C                    -0.49186  -3.0322    1.6653 
 C                    -1.32644  -4.14383   1.45673 
 C                    -2.12993  -4.62717   2.49393 
 C                    -2.10571  -4.00742   3.74609 
 C                    -1.27583  -2.90466   3.96415 
 C                    -0.46971  -2.41904   2.93045 
 C                     0.64183  -0.84927  -1.33357 
 N                     0.52267   0.31051  -1.88216 
 C                     1.58432   0.50022  -2.86422 
 C                     2.38198   1.79474  -2.56754 
 C                     1.44912   3.01472  -2.5061 
 C                     3.4633    2.03465  -3.633 
 C                     2.43092  -0.78898  -2.74732 
 O                     1.7131   -1.57492  -1.81462 
 N                     0.16918   0.62344   1.08733 
 H                    -0.66779   5.0775    2.13529 
 H                    -1.96223   3.90613   2.53614 
 H                    -0.43803   3.91905   3.50176 
 H                    -0.688     3.17577   0.50606 
 H                     1.74184   2.64017   0.64014 
 H                     1.78007   3.16093   2.36865 
 H                     1.4446    4.35727   1.05576 
 H                    -0.09816   1.42796   3.00679 
 H                    -2.62429   1.93486   1.44947 
 H                    -2.36276   0.90859   2.93127 
 H                    -2.02328  -1.09356  -1.64225 
 H                    -2.34584  -2.23035  -0.29239 
 H                    -1.30594  -2.74687  -1.67039 
 H                     0.639    -3.33135  -0.13887 
 H                     1.31814  -2.11407   0.96388 
 H                    -1.35888  -4.63141   0.49029 
 H                    -2.77292  -5.48149   2.32624 
 H                    -2.72936  -4.38207   4.54741 
 H                    -1.25725  -2.42555   4.93447 
 H                     0.16817  -1.56361   3.11479 
 H                     1.12654   0.5573   -3.87711 
 H                     2.87993   1.69465  -1.57724 
 H                     0.69837   2.89522  -1.69749 
 H                     2.033     3.93437  -2.2879 
 H                     0.91568   3.14851  -3.47172 
 H                     4.19545   1.20144  -3.65153 
 H                     4.02313   2.96741  -3.40743 
 H                     3.00496   2.12859  -4.641 
 H                     2.49377  -1.31849  -3.72174 
 H                     3.45018  -0.60069  -2.34828 
 Cu                    0.46667   1.71718  -0.51479 
 
 ITRead=  0  0  0  0  0  0  0  0  0  0  0  0  0  0  0  0  0  0  0  0
 ITRead=  0  0  0  0  0  0  0  0  0  0  0  0  0  0  0  0  0  0  0  0
 ITRead=  0  0  0  0  0  0  0  0  0  0  0  0  0  0  0  0
 MicOpt= -1 -1 -1 -1 -1 -1 -1 -1 -1 -1 -1 -1 -1 -1 -1 -1 -1 -1 -1 -1
 MicOpt= -1 -1 -1 -1 -1 -1 -1 -1 -1 -1 -1 -1 -1 -1 -1 -1 -1 -1 -1 -1
 MicOpt= -1 -1 -1 -1 -1 -1 -1 -1 -1 -1 -1 -1 -1 -1 -1 -1
 NAtoms=     56 NQM=       56 NQMF=       0 NMMI=      0 NMMIF=      0
                NMic=       0 NMicF=      0.
                    Isotopes and Nuclear Properties:
 (Nuclear quadrupole moments (NQMom) in fm**2, nuclear magnetic moments (NMagM)
  in nuclear magnetons)

  Atom         1           2           3           4           5           6           7           8           9          10
 IAtWgt=          12          12          12          12          12          16          12          12          12          12
 AtmWgt=  12.0000000  12.0000000  12.0000000  12.0000000  12.0000000  15.9949146  12.0000000  12.0000000  12.0000000  12.0000000
 NucSpn=           0           0           0           0           0           0           0           0           0           0
 AtZEff=  -0.0000000  -0.0000000  -0.0000000  -0.0000000  -0.0000000  -0.0000000  -0.0000000  -0.0000000  -0.0000000  -0.0000000
 NQMom=    0.0000000   0.0000000   0.0000000   0.0000000   0.0000000   0.0000000   0.0000000   0.0000000   0.0000000   0.0000000
 NMagM=    0.0000000   0.0000000   0.0000000   0.0000000   0.0000000   0.0000000   0.0000000   0.0000000   0.0000000   0.0000000
 AtZNuc=   6.0000000   6.0000000   6.0000000   6.0000000   6.0000000   8.0000000   6.0000000   6.0000000   6.0000000   6.0000000

  Atom        11          12          13          14          15          16          17          18          19          20
 IAtWgt=          12          12          12          12          12          12          12          14          12          12
 AtmWgt=  12.0000000  12.0000000  12.0000000  12.0000000  12.0000000  12.0000000  12.0000000  14.0030740  12.0000000  12.0000000
 NucSpn=           0           0           0           0           0           0           0           2           0           0
 AtZEff=  -0.0000000  -0.0000000  -0.0000000  -0.0000000  -0.0000000  -0.0000000  -0.0000000  -0.0000000  -0.0000000  -0.0000000
 NQMom=    0.0000000   0.0000000   0.0000000   0.0000000   0.0000000   0.0000000   0.0000000   2.0440000   0.0000000   0.0000000
 NMagM=    0.0000000   0.0000000   0.0000000   0.0000000   0.0000000   0.0000000   0.0000000   0.4037610   0.0000000   0.0000000
 AtZNuc=   6.0000000   6.0000000   6.0000000   6.0000000   6.0000000   6.0000000   6.0000000   7.0000000   6.0000000   6.0000000

  Atom        21          22          23          24          25          26          27          28          29          30
 IAtWgt=          12          12          12          16          14           1           1           1           1           1
 AtmWgt=  12.0000000  12.0000000  12.0000000  15.9949146  14.0030740   1.0078250   1.0078250   1.0078250   1.0078250   1.0078250
 NucSpn=           0           0           0           0           2           1           1           1           1           1
 AtZEff=  -0.0000000  -0.0000000  -0.0000000  -0.0000000  -0.0000000  -0.0000000  -0.0000000  -0.0000000  -0.0000000  -0.0000000
 NQMom=    0.0000000   0.0000000   0.0000000   0.0000000   2.0440000   0.0000000   0.0000000   0.0000000   0.0000000   0.0000000
 NMagM=    0.0000000   0.0000000   0.0000000   0.0000000   0.4037610   2.7928460   2.7928460   2.7928460   2.7928460   2.7928460
 AtZNuc=   6.0000000   6.0000000   6.0000000   8.0000000   7.0000000   1.0000000   1.0000000   1.0000000   1.0000000   1.0000000

  Atom        31          32          33          34          35          36          37          38          39          40
 IAtWgt=           1           1           1           1           1           1           1           1           1           1
 AtmWgt=   1.0078250   1.0078250   1.0078250   1.0078250   1.0078250   1.0078250   1.0078250   1.0078250   1.0078250   1.0078250
 NucSpn=           1           1           1           1           1           1           1           1           1           1
 AtZEff=  -0.0000000  -0.0000000  -0.0000000  -0.0000000  -0.0000000  -0.0000000  -0.0000000  -0.0000000  -0.0000000  -0.0000000
 NQMom=    0.0000000   0.0000000   0.0000000   0.0000000   0.0000000   0.0000000   0.0000000   0.0000000   0.0000000   0.0000000
 NMagM=    2.7928460   2.7928460   2.7928460   2.7928460   2.7928460   2.7928460   2.7928460   2.7928460   2.7928460   2.7928460
 AtZNuc=   1.0000000   1.0000000   1.0000000   1.0000000   1.0000000   1.0000000   1.0000000   1.0000000   1.0000000   1.0000000

  Atom        41          42          43          44          45          46          47          48          49          50
 IAtWgt=           1           1           1           1           1           1           1           1           1           1
 AtmWgt=   1.0078250   1.0078250   1.0078250   1.0078250   1.0078250   1.0078250   1.0078250   1.0078250   1.0078250   1.0078250
 NucSpn=           1           1           1           1           1           1           1           1           1           1
 AtZEff=  -0.0000000  -0.0000000  -0.0000000  -0.0000000  -0.0000000  -0.0000000  -0.0000000  -0.0000000  -0.0000000  -0.0000000
 NQMom=    0.0000000   0.0000000   0.0000000   0.0000000   0.0000000   0.0000000   0.0000000   0.0000000   0.0000000   0.0000000
 NMagM=    2.7928460   2.7928460   2.7928460   2.7928460   2.7928460   2.7928460   2.7928460   2.7928460   2.7928460   2.7928460
 AtZNuc=   1.0000000   1.0000000   1.0000000   1.0000000   1.0000000   1.0000000   1.0000000   1.0000000   1.0000000   1.0000000

  Atom        51          52          53          54          55          56
 IAtWgt=           1           1           1           1           1          63
 AtmWgt=   1.0078250   1.0078250   1.0078250   1.0078250   1.0078250  62.9295992
 NucSpn=           1           1           1           1           1           3
 AtZEff=  -0.0000000  -0.0000000  -0.0000000  -0.0000000  -0.0000000  -0.0000000
 NQMom=    0.0000000   0.0000000   0.0000000   0.0000000   0.0000000 -22.0000000
 NMagM=    2.7928460   2.7928460   2.7928460   2.7928460   2.7928460   2.2233000
 AtZNuc=   1.0000000   1.0000000   1.0000000   1.0000000   1.0000000  29.0000000
 Leave Link  101 at Thu Aug  1 11:11:47 2024, MaxMem= 13421772800 cpu:               3.3 elap:               0.1
 (Enter /public/software/apps/Gaussian/g16/l103.exe)

 GradGradGradGradGradGradGradGradGradGradGradGradGradGradGradGradGradGrad
 Berny optimization.
 Initialization pass.
                           ----------------------------
                           !    Initial Parameters    !
                           ! (Angstroms and Degrees)  !
 --------------------------                            --------------------------
 ! Name  Definition              Value          Derivative Info.                !
 --------------------------------------------------------------------------------
 ! R1    R(1,2)                  1.5368         estimate D2E/DX2                !
 ! R2    R(1,26)                 1.111          estimate D2E/DX2                !
 ! R3    R(1,27)                 1.1094         estimate D2E/DX2                !
 ! R4    R(1,28)                 1.1113         estimate D2E/DX2                !
 ! R5    R(2,3)                  1.5371         estimate D2E/DX2                !
 ! R6    R(2,4)                  1.5491         estimate D2E/DX2                !
 ! R7    R(2,29)                 1.1129         estimate D2E/DX2                !
 ! R8    R(3,30)                 1.11           estimate D2E/DX2                !
 ! R9    R(3,31)                 1.1113         estimate D2E/DX2                !
 ! R10   R(3,32)                 1.111          estimate D2E/DX2                !
 ! R11   R(4,5)                  1.5469         estimate D2E/DX2                !
 ! R12   R(4,25)                 1.4585         estimate D2E/DX2                !
 ! R13   R(4,33)                 1.113          estimate D2E/DX2                !
 ! R14   R(5,6)                  1.415          estimate D2E/DX2                !
 ! R15   R(5,34)                 1.1106         estimate D2E/DX2                !
 ! R16   R(5,35)                 1.1109         estimate D2E/DX2                !
 ! R17   R(6,7)                  1.3802         estimate D2E/DX2                !
 ! R18   R(7,8)                  1.5147         estimate D2E/DX2                !
 ! R19   R(7,25)                 1.288          estimate D2E/DX2                !
 ! R20   R(8,9)                  1.5416         estimate D2E/DX2                !
 ! R21   R(8,10)                 1.5557         estimate D2E/DX2                !
 ! R22   R(8,17)                 1.5149         estimate D2E/DX2                !
 ! R23   R(9,36)                 1.112          estimate D2E/DX2                !
 ! R24   R(9,37)                 1.1102         estimate D2E/DX2                !
 ! R25   R(9,38)                 1.1116         estimate D2E/DX2                !
 ! R26   R(10,11)                1.5131         estimate D2E/DX2                !
 ! R27   R(10,39)                1.113          estimate D2E/DX2                !
 ! R28   R(10,40)                1.1134         estimate D2E/DX2                !
 ! R29   R(11,12)                1.4056         estimate D2E/DX2                !
 ! R30   R(11,16)                1.4061         estimate D2E/DX2                !
 ! R31   R(12,13)                1.3982         estimate D2E/DX2                !
 ! R32   R(12,41)                1.083          estimate D2E/DX2                !
 ! R33   R(13,14)                1.3974         estimate D2E/DX2                !
 ! R34   R(13,42)                1.0823         estimate D2E/DX2                !
 ! R35   R(14,15)                1.3973         estimate D2E/DX2                !
 ! R36   R(14,43)                1.0823         estimate D2E/DX2                !
 ! R37   R(15,16)                1.3979         estimate D2E/DX2                !
 ! R38   R(15,44)                1.0823         estimate D2E/DX2                !
 ! R39   R(16,45)                1.0829         estimate D2E/DX2                !
 ! R40   R(17,18)                1.2885         estimate D2E/DX2                !
 ! R41   R(17,24)                1.3804         estimate D2E/DX2                !
 ! R42   R(18,19)                1.4586         estimate D2E/DX2                !
 ! R43   R(18,56)                1.9625         estimate D2E/DX2                !
 ! R44   R(19,20)                1.5492         estimate D2E/DX2                !
 ! R45   R(19,23)                1.5467         estimate D2E/DX2                !
 ! R46   R(19,46)                1.113          estimate D2E/DX2                !
 ! R47   R(20,21)                1.537          estimate D2E/DX2                !
 ! R48   R(20,22)                1.5369         estimate D2E/DX2                !
 ! R49   R(20,47)                1.113          estimate D2E/DX2                !
 ! R50   R(21,48)                1.1098         estimate D2E/DX2                !
 ! R51   R(21,49)                1.111          estimate D2E/DX2                !
 ! R52   R(21,50)                1.1113         estimate D2E/DX2                !
 ! R53   R(22,51)                1.1093         estimate D2E/DX2                !
 ! R54   R(22,52)                1.111          estimate D2E/DX2                !
 ! R55   R(22,53)                1.1113         estimate D2E/DX2                !
 ! R56   R(23,24)                1.4152         estimate D2E/DX2                !
 ! R57   R(23,54)                1.1108         estimate D2E/DX2                !
 ! R58   R(23,55)                1.1107         estimate D2E/DX2                !
 ! R59   R(25,56)                1.9625         estimate D2E/DX2                !
 ! R60   R(48,56)                1.6853         estimate D2E/DX2                !
 ! A1    A(2,1,26)             110.1707         estimate D2E/DX2                !
 ! A2    A(2,1,27)             111.0132         estimate D2E/DX2                !
 ! A3    A(2,1,28)             110.5998         estimate D2E/DX2                !
 ! A4    A(26,1,27)            107.5527         estimate D2E/DX2                !
 ! A5    A(26,1,28)            108.7263         estimate D2E/DX2                !
 ! A6    A(27,1,28)            108.6915         estimate D2E/DX2                !
 ! A7    A(1,2,3)              109.3323         estimate D2E/DX2                !
 ! A8    A(1,2,4)              111.0664         estimate D2E/DX2                !
 ! A9    A(1,2,29)             108.4145         estimate D2E/DX2                !
 ! A10   A(3,2,4)              111.0249         estimate D2E/DX2                !
 ! A11   A(3,2,29)             107.9063         estimate D2E/DX2                !
 ! A12   A(4,2,29)             109.0049         estimate D2E/DX2                !
 ! A13   A(2,3,30)             110.749          estimate D2E/DX2                !
 ! A14   A(2,3,31)             110.6159         estimate D2E/DX2                !
 ! A15   A(2,3,32)             110.2382         estimate D2E/DX2                !
 ! A16   A(30,3,31)            108.7603         estimate D2E/DX2                !
 ! A17   A(30,3,32)            107.535          estimate D2E/DX2                !
 ! A18   A(31,3,32)            108.862          estimate D2E/DX2                !
 ! A19   A(2,4,5)              113.5696         estimate D2E/DX2                !
 ! A20   A(2,4,25)             110.7853         estimate D2E/DX2                !
 ! A21   A(2,4,33)             110.0858         estimate D2E/DX2                !
 ! A22   A(5,4,25)             103.8608         estimate D2E/DX2                !
 ! A23   A(5,4,33)             109.6642         estimate D2E/DX2                !
 ! A24   A(25,4,33)            108.6271         estimate D2E/DX2                !
 ! A25   A(4,5,6)              103.6078         estimate D2E/DX2                !
 ! A26   A(4,5,34)             112.9053         estimate D2E/DX2                !
 ! A27   A(4,5,35)             111.1551         estimate D2E/DX2                !
 ! A28   A(6,5,34)             108.8822         estimate D2E/DX2                !
 ! A29   A(6,5,35)             109.9198         estimate D2E/DX2                !
 ! A30   A(34,5,35)            110.1485         estimate D2E/DX2                !
 ! A31   A(5,6,7)              109.3314         estimate D2E/DX2                !
 ! A32   A(6,7,8)              123.8806         estimate D2E/DX2                !
 ! A33   A(6,7,25)             113.4461         estimate D2E/DX2                !
 ! A34   A(8,7,25)             122.6527         estimate D2E/DX2                !
 ! A35   A(7,8,9)              110.2647         estimate D2E/DX2                !
 ! A36   A(7,8,10)             109.7064         estimate D2E/DX2                !
 ! A37   A(7,8,17)             108.839          estimate D2E/DX2                !
 ! A38   A(9,8,10)             110.8671         estimate D2E/DX2                !
 ! A39   A(9,8,17)             107.6731         estimate D2E/DX2                !
 ! A40   A(10,8,17)            109.4405         estimate D2E/DX2                !
 ! A41   A(8,9,36)             110.5415         estimate D2E/DX2                !
 ! A42   A(8,9,37)             111.2992         estimate D2E/DX2                !
 ! A43   A(8,9,38)             110.5186         estimate D2E/DX2                !
 ! A44   A(36,9,37)            107.6668         estimate D2E/DX2                !
 ! A45   A(36,9,38)            108.3117         estimate D2E/DX2                !
 ! A46   A(37,9,38)            108.3947         estimate D2E/DX2                !
 ! A47   A(8,10,11)            113.8705         estimate D2E/DX2                !
 ! A48   A(8,10,39)            109.6438         estimate D2E/DX2                !
 ! A49   A(8,10,40)            109.3689         estimate D2E/DX2                !
 ! A50   A(11,10,39)           108.9765         estimate D2E/DX2                !
 ! A51   A(11,10,40)           108.7324         estimate D2E/DX2                !
 ! A52   A(39,10,40)           105.9427         estimate D2E/DX2                !
 ! A53   A(10,11,12)           120.418          estimate D2E/DX2                !
 ! A54   A(10,11,16)           120.3868         estimate D2E/DX2                !
 ! A55   A(12,11,16)           119.1921         estimate D2E/DX2                !
 ! A56   A(11,12,13)           120.2991         estimate D2E/DX2                !
 ! A57   A(11,12,41)           120.4157         estimate D2E/DX2                !
 ! A58   A(13,12,41)           119.2842         estimate D2E/DX2                !
 ! A59   A(12,13,14)           120.0962         estimate D2E/DX2                !
 ! A60   A(12,13,42)           119.9554         estimate D2E/DX2                !
 ! A61   A(14,13,42)           119.9483         estimate D2E/DX2                !
 ! A62   A(13,14,15)           120.0116         estimate D2E/DX2                !
 ! A63   A(13,14,43)           119.9957         estimate D2E/DX2                !
 ! A64   A(15,14,43)           119.9926         estimate D2E/DX2                !
 ! A65   A(14,15,16)           120.0841         estimate D2E/DX2                !
 ! A66   A(14,15,44)           119.9656         estimate D2E/DX2                !
 ! A67   A(16,15,44)           119.9503         estimate D2E/DX2                !
 ! A68   A(11,16,15)           120.3155         estimate D2E/DX2                !
 ! A69   A(11,16,45)           120.4597         estimate D2E/DX2                !
 ! A70   A(15,16,45)           119.2244         estimate D2E/DX2                !
 ! A71   A(8,17,18)            122.7506         estimate D2E/DX2                !
 ! A72   A(8,17,24)            123.8782         estimate D2E/DX2                !
 ! A73   A(18,17,24)           113.3629         estimate D2E/DX2                !
 ! A74   A(17,18,19)           109.6589         estimate D2E/DX2                !
 ! A75   A(17,18,56)           110.5577         estimate D2E/DX2                !
 ! A76   A(19,18,56)           113.3685         estimate D2E/DX2                !
 ! A77   A(18,19,20)           110.7631         estimate D2E/DX2                !
 ! A78   A(18,19,23)           103.833          estimate D2E/DX2                !
 ! A79   A(18,19,46)           108.6645         estimate D2E/DX2                !
 ! A80   A(20,19,23)           113.5887         estimate D2E/DX2                !
 ! A81   A(20,19,46)           110.0717         estimate D2E/DX2                !
 ! A82   A(23,19,46)           109.6731         estimate D2E/DX2                !
 ! A83   A(19,20,21)           111.0019         estimate D2E/DX2                !
 ! A84   A(19,20,22)           111.0963         estimate D2E/DX2                !
 ! A85   A(19,20,47)           109.0026         estimate D2E/DX2                !
 ! A86   A(21,20,22)           109.3197         estimate D2E/DX2                !
 ! A87   A(21,20,47)           107.9006         estimate D2E/DX2                !
 ! A88   A(22,20,47)           108.4281         estimate D2E/DX2                !
 ! A89   A(20,21,48)           110.7463         estimate D2E/DX2                !
 ! A90   A(20,21,49)           110.2375         estimate D2E/DX2                !
 ! A91   A(20,21,50)           110.6205         estimate D2E/DX2                !
 ! A92   A(48,21,49)           107.5504         estimate D2E/DX2                !
 ! A93   A(48,21,50)           108.7444         estimate D2E/DX2                !
 ! A94   A(49,21,50)           108.8613         estimate D2E/DX2                !
 ! A95   A(20,22,51)           111.0192         estimate D2E/DX2                !
 ! A96   A(20,22,52)           110.1716         estimate D2E/DX2                !
 ! A97   A(20,22,53)           110.5998         estimate D2E/DX2                !
 ! A98   A(51,22,52)           107.5422         estimate D2E/DX2                !
 ! A99   A(51,22,53)           108.6959         estimate D2E/DX2                !
 ! A100  A(52,22,53)           108.7252         estimate D2E/DX2                !
 ! A101  A(19,23,24)           103.5956         estimate D2E/DX2                !
 ! A102  A(19,23,54)           111.2228         estimate D2E/DX2                !
 ! A103  A(19,23,55)           112.84           estimate D2E/DX2                !
 ! A104  A(24,23,54)           110.0048         estimate D2E/DX2                !
 ! A105  A(24,23,55)           108.8342         estimate D2E/DX2                !
 ! A106  A(54,23,55)           110.1243         estimate D2E/DX2                !
 ! A107  A(17,24,23)           109.3502         estimate D2E/DX2                !
 ! A108  A(4,25,7)             109.6102         estimate D2E/DX2                !
 ! A109  A(4,25,56)            101.6477         estimate D2E/DX2                !
 ! A110  A(7,25,56)            100.387          estimate D2E/DX2                !
 ! A111  A(21,48,56)           132.8087         estimate D2E/DX2                !
 ! A112  A(18,56,25)           100.0001         estimate D2E/DX2                !
 ! A113  A(18,56,48)            90.4671         estimate D2E/DX2                !
 ! A114  L(25,56,48,18,-1)     190.4672         estimate D2E/DX2                !
 ! A115  L(25,56,48,18,-2)     179.3528         estimate D2E/DX2                !
 ! D1    D(26,1,2,3)            57.0868         estimate D2E/DX2                !
 ! D2    D(26,1,2,4)           179.9463         estimate D2E/DX2                !
 ! D3    D(26,1,2,29)          -60.3146         estimate D2E/DX2                !
 ! D4    D(27,1,2,3)           176.118          estimate D2E/DX2                !
 ! D5    D(27,1,2,4)           -61.0225         estimate D2E/DX2                !
 ! D6    D(27,1,2,29)           58.7166         estimate D2E/DX2                !
 ! D7    D(28,1,2,3)           -63.1426         estimate D2E/DX2                !
 ! D8    D(28,1,2,4)            59.717          estimate D2E/DX2                !
 ! D9    D(28,1,2,29)          179.456          estimate D2E/DX2                !
 ! D10   D(1,2,3,30)          -176.0582         estimate D2E/DX2                !
 ! D11   D(1,2,3,31)            63.2804         estimate D2E/DX2                !
 ! D12   D(1,2,3,32)           -57.1727         estimate D2E/DX2                !
 ! D13   D(4,2,3,30)            61.0576         estimate D2E/DX2                !
 ! D14   D(4,2,3,31)           -59.6038         estimate D2E/DX2                !
 ! D15   D(4,2,3,32)           179.9431         estimate D2E/DX2                !
 ! D16   D(29,2,3,30)          -58.3373         estimate D2E/DX2                !
 ! D17   D(29,2,3,31)         -178.9988         estimate D2E/DX2                !
 ! D18   D(29,2,3,32)           60.5481         estimate D2E/DX2                !
 ! D19   D(1,2,4,5)             66.4674         estimate D2E/DX2                !
 ! D20   D(1,2,4,25)          -177.0993         estimate D2E/DX2                !
 ! D21   D(1,2,4,33)           -56.9296         estimate D2E/DX2                !
 ! D22   D(3,2,4,5)           -171.6545         estimate D2E/DX2                !
 ! D23   D(3,2,4,25)           -55.2212         estimate D2E/DX2                !
 ! D24   D(3,2,4,33)            64.9485         estimate D2E/DX2                !
 ! D25   D(29,2,4,5)           -52.9192         estimate D2E/DX2                !
 ! D26   D(29,2,4,25)           63.5141         estimate D2E/DX2                !
 ! D27   D(29,2,4,33)         -176.3162         estimate D2E/DX2                !
 ! D28   D(2,4,5,6)            124.0059         estimate D2E/DX2                !
 ! D29   D(2,4,5,34)             6.3764         estimate D2E/DX2                !
 ! D30   D(2,4,5,35)          -117.9889         estimate D2E/DX2                !
 ! D31   D(25,4,5,6)             3.5799         estimate D2E/DX2                !
 ! D32   D(25,4,5,34)         -114.0496         estimate D2E/DX2                !
 ! D33   D(25,4,5,35)          121.585          estimate D2E/DX2                !
 ! D34   D(33,4,5,6)          -112.367          estimate D2E/DX2                !
 ! D35   D(33,4,5,34)          130.0035         estimate D2E/DX2                !
 ! D36   D(33,4,5,35)            5.6381         estimate D2E/DX2                !
 ! D37   D(2,4,25,7)          -124.6941         estimate D2E/DX2                !
 ! D38   D(2,4,25,56)          -19.0973         estimate D2E/DX2                !
 ! D39   D(5,4,25,7)            -2.4053         estimate D2E/DX2                !
 ! D40   D(5,4,25,56)          103.1915         estimate D2E/DX2                !
 ! D41   D(33,4,25,7)          114.2698         estimate D2E/DX2                !
 ! D42   D(33,4,25,56)        -140.1334         estimate D2E/DX2                !
 ! D43   D(4,5,6,7)             -3.607          estimate D2E/DX2                !
 ! D44   D(34,5,6,7)           116.7921         estimate D2E/DX2                !
 ! D45   D(35,5,6,7)          -122.4669         estimate D2E/DX2                !
 ! D46   D(5,6,7,8)           -179.2535         estimate D2E/DX2                !
 ! D47   D(5,6,7,25)             2.3585         estimate D2E/DX2                !
 ! D48   D(6,7,8,9)             20.5285         estimate D2E/DX2                !
 ! D49   D(6,7,8,10)          -101.8539         estimate D2E/DX2                !
 ! D50   D(6,7,8,17)           138.4269         estimate D2E/DX2                !
 ! D51   D(25,7,8,9)          -161.228          estimate D2E/DX2                !
 ! D52   D(25,7,8,10)           76.3895         estimate D2E/DX2                !
 ! D53   D(25,7,8,17)          -43.3296         estimate D2E/DX2                !
 ! D54   D(6,7,25,4)             0.208          estimate D2E/DX2                !
 ! D55   D(6,7,25,56)         -106.2434         estimate D2E/DX2                !
 ! D56   D(8,7,25,4)          -178.2025         estimate D2E/DX2                !
 ! D57   D(8,7,25,56)           75.3461         estimate D2E/DX2                !
 ! D58   D(7,8,9,36)            61.4536         estimate D2E/DX2                !
 ! D59   D(7,8,9,37)           -58.1459         estimate D2E/DX2                !
 ! D60   D(7,8,9,38)          -178.6466         estimate D2E/DX2                !
 ! D61   D(10,8,9,36)         -176.8495         estimate D2E/DX2                !
 ! D62   D(10,8,9,37)           63.551          estimate D2E/DX2                !
 ! D63   D(10,8,9,38)          -56.9497         estimate D2E/DX2                !
 ! D64   D(17,8,9,36)          -57.1604         estimate D2E/DX2                !
 ! D65   D(17,8,9,37)         -176.7599         estimate D2E/DX2                !
 ! D66   D(17,8,9,38)           62.7394         estimate D2E/DX2                !
 ! D67   D(7,8,10,11)           57.7919         estimate D2E/DX2                !
 ! D68   D(7,8,10,39)         -179.8283         estimate D2E/DX2                !
 ! D69   D(7,8,10,40)          -64.0666         estimate D2E/DX2                !
 ! D70   D(9,8,10,11)          -64.2316         estimate D2E/DX2                !
 ! D71   D(9,8,10,39)           58.1481         estimate D2E/DX2                !
 ! D72   D(9,8,10,40)          173.9098         estimate D2E/DX2                !
 ! D73   D(17,8,10,11)         177.1427         estimate D2E/DX2                !
 ! D74   D(17,8,10,39)         -60.4776         estimate D2E/DX2                !
 ! D75   D(17,8,10,40)          55.2841         estimate D2E/DX2                !
 ! D76   D(7,8,17,18)          -38.977          estimate D2E/DX2                !
 ! D77   D(7,8,17,24)          142.1408         estimate D2E/DX2                !
 ! D78   D(9,8,17,18)           80.5478         estimate D2E/DX2                !
 ! D79   D(9,8,17,24)          -98.3345         estimate D2E/DX2                !
 ! D80   D(10,8,17,18)        -158.8612         estimate D2E/DX2                !
 ! D81   D(10,8,17,24)          22.2565         estimate D2E/DX2                !
 ! D82   D(8,10,11,12)          92.2627         estimate D2E/DX2                !
 ! D83   D(8,10,11,16)         -87.0943         estimate D2E/DX2                !
 ! D84   D(39,10,11,12)        -30.4832         estimate D2E/DX2                !
 ! D85   D(39,10,11,16)        150.1598         estimate D2E/DX2                !
 ! D86   D(40,10,11,12)       -145.5275         estimate D2E/DX2                !
 ! D87   D(40,10,11,16)         35.1156         estimate D2E/DX2                !
 ! D88   D(10,11,12,13)       -178.982          estimate D2E/DX2                !
 ! D89   D(10,11,12,41)          0.6469         estimate D2E/DX2                !
 ! D90   D(16,11,12,13)          0.3826         estimate D2E/DX2                !
 ! D91   D(16,11,12,41)       -179.9885         estimate D2E/DX2                !
 ! D92   D(10,11,16,15)        178.9089         estimate D2E/DX2                !
 ! D93   D(10,11,16,45)         -0.851          estimate D2E/DX2                !
 ! D94   D(12,11,16,15)         -0.4559         estimate D2E/DX2                !
 ! D95   D(12,11,16,45)        179.7842         estimate D2E/DX2                !
 ! D96   D(11,12,13,14)         -0.0934         estimate D2E/DX2                !
 ! D97   D(11,12,13,42)        179.798          estimate D2E/DX2                !
 ! D98   D(41,12,13,14)       -179.7265         estimate D2E/DX2                !
 ! D99   D(41,12,13,42)          0.165          estimate D2E/DX2                !
 ! D100  D(12,13,14,15)         -0.1274         estimate D2E/DX2                !
 ! D101  D(12,13,14,43)        179.9159         estimate D2E/DX2                !
 ! D102  D(42,13,14,15)        179.9811         estimate D2E/DX2                !
 ! D103  D(42,13,14,43)          0.0244         estimate D2E/DX2                !
 ! D104  D(13,14,15,16)          0.0542         estimate D2E/DX2                !
 ! D105  D(13,14,15,44)       -179.9654         estimate D2E/DX2                !
 ! D106  D(43,14,15,16)       -179.9891         estimate D2E/DX2                !
 ! D107  D(43,14,15,44)         -0.0087         estimate D2E/DX2                !
 ! D108  D(14,15,16,11)          0.2401         estimate D2E/DX2                !
 ! D109  D(14,15,16,45)       -179.9971         estimate D2E/DX2                !
 ! D110  D(44,15,16,11)       -179.7403         estimate D2E/DX2                !
 ! D111  D(44,15,16,45)          0.0225         estimate D2E/DX2                !
 ! D112  D(8,17,18,19)        -179.0423         estimate D2E/DX2                !
 ! D113  D(8,17,18,56)          55.2382         estimate D2E/DX2                !
 ! D114  D(24,17,18,19)         -0.0531         estimate D2E/DX2                !
 ! D115  D(24,17,18,56)       -125.7726         estimate D2E/DX2                !
 ! D116  D(8,17,24,23)        -178.0001         estimate D2E/DX2                !
 ! D117  D(18,17,24,23)          3.0239         estimate D2E/DX2                !
 ! D118  D(17,18,19,20)       -124.8923         estimate D2E/DX2                !
 ! D119  D(17,18,19,23)         -2.6093         estimate D2E/DX2                !
 ! D120  D(17,18,19,46)        114.0786         estimate D2E/DX2                !
 ! D121  D(56,18,19,20)         -0.7974         estimate D2E/DX2                !
 ! D122  D(56,18,19,23)        121.4855         estimate D2E/DX2                !
 ! D123  D(56,18,19,46)       -121.8266         estimate D2E/DX2                !
 ! D124  D(17,18,56,25)        -13.6207         estimate D2E/DX2                !
 ! D125  D(17,18,56,48)        167.0266         estimate D2E/DX2                !
 ! D126  D(19,18,56,25)       -137.2248         estimate D2E/DX2                !
 ! D127  D(19,18,56,48)         43.4224         estimate D2E/DX2                !
 ! D128  D(18,19,20,21)        -55.6545         estimate D2E/DX2                !
 ! D129  D(18,19,20,22)       -177.5212         estimate D2E/DX2                !
 ! D130  D(18,19,20,47)         63.0586         estimate D2E/DX2                !
 ! D131  D(23,19,20,21)       -172.0497         estimate D2E/DX2                !
 ! D132  D(23,19,20,22)         66.0835         estimate D2E/DX2                !
 ! D133  D(23,19,20,47)        -53.3367         estimate D2E/DX2                !
 ! D134  D(46,19,20,21)         64.5386         estimate D2E/DX2                !
 ! D135  D(46,19,20,22)        -57.3281         estimate D2E/DX2                !
 ! D136  D(46,19,20,47)       -176.7483         estimate D2E/DX2                !
 ! D137  D(18,19,23,24)          4.1393         estimate D2E/DX2                !
 ! D138  D(18,19,23,54)        122.27           estimate D2E/DX2                !
 ! D139  D(18,19,23,55)       -113.3935         estimate D2E/DX2                !
 ! D140  D(20,19,23,24)        124.5306         estimate D2E/DX2                !
 ! D141  D(20,19,23,54)       -117.3387         estimate D2E/DX2                !
 ! D142  D(20,19,23,55)          6.9978         estimate D2E/DX2                !
 ! D143  D(46,19,23,24)       -111.8402         estimate D2E/DX2                !
 ! D144  D(46,19,23,54)          6.2905         estimate D2E/DX2                !
 ! D145  D(46,19,23,55)        130.627          estimate D2E/DX2                !
 ! D146  D(19,20,21,48)         60.8171         estimate D2E/DX2                !
 ! D147  D(19,20,21,49)        179.7196         estimate D2E/DX2                !
 ! D148  D(19,20,21,50)        -59.8256         estimate D2E/DX2                !
 ! D149  D(22,20,21,48)       -176.2849         estimate D2E/DX2                !
 ! D150  D(22,20,21,49)        -57.3825         estimate D2E/DX2                !
 ! D151  D(22,20,21,50)         63.0724         estimate D2E/DX2                !
 ! D152  D(47,20,21,48)        -58.558          estimate D2E/DX2                !
 ! D153  D(47,20,21,49)         60.3444         estimate D2E/DX2                !
 ! D154  D(47,20,21,50)       -179.2007         estimate D2E/DX2                !
 ! D155  D(19,20,22,51)        -61.1597         estimate D2E/DX2                !
 ! D156  D(19,20,22,52)        179.8179         estimate D2E/DX2                !
 ! D157  D(19,20,22,53)         59.5893         estimate D2E/DX2                !
 ! D158  D(21,20,22,51)        175.9986         estimate D2E/DX2                !
 ! D159  D(21,20,22,52)         56.9761         estimate D2E/DX2                !
 ! D160  D(21,20,22,53)        -63.2524         estimate D2E/DX2                !
 ! D161  D(47,20,22,51)         58.6033         estimate D2E/DX2                !
 ! D162  D(47,20,22,52)        -60.4192         estimate D2E/DX2                !
 ! D163  D(47,20,22,53)        179.3523         estimate D2E/DX2                !
 ! D164  D(20,21,48,56)          4.377          estimate D2E/DX2                !
 ! D165  D(49,21,48,56)       -116.1375         estimate D2E/DX2                !
 ! D166  D(50,21,48,56)        126.128          estimate D2E/DX2                !
 ! D167  D(19,23,24,17)         -4.3344         estimate D2E/DX2                !
 ! D168  D(54,23,24,17)       -123.3071         estimate D2E/DX2                !
 ! D169  D(55,23,24,17)        115.9594         estimate D2E/DX2                !
 ! D170  D(4,25,56,18)        -154.3536         estimate D2E/DX2                !
 ! D171  D(7,25,56,18)         -41.6372         estimate D2E/DX2                !
 ! D172  D(21,48,56,18)        -51.638          estimate D2E/DX2                !
 --------------------------------------------------------------------------------
 Trust Radius=3.00D-01 FncErr=1.00D-07 GrdErr=1.00D-06 EigMax=2.50D+02 EigMin=1.00D-04
 Number of steps in this run=    336 maximum allowed number of steps=    336.
 GradGradGradGradGradGradGradGradGradGradGradGradGradGradGradGradGradGrad

 Leave Link  103 at Thu Aug  1 11:11:47 2024, MaxMem= 13421772800 cpu:               0.8 elap:               0.0
 (Enter /public/software/apps/Gaussian/g16/l202.exe)
 Symmetry turned off by external request.
 Stoichiometry    C21H30CuN2O2(2+,2)
 Framework group  C1[X(C21H30CuN2O2)]
 Deg. of freedom   162
 Full point group                 C1      NOp   1
                          Input orientation:                          
 ---------------------------------------------------------------------
 Center     Atomic      Atomic             Coordinates (Angstroms)
 Number     Number       Type             X           Y           Z
 ---------------------------------------------------------------------
      1          6           0       -0.862330    4.040007    2.481807
      2          6           0       -0.231535    3.029836    1.510464
      3          6           0        1.274696    3.311621    1.390503
      4          6           0       -0.489457    1.574786    1.975199
      5          6           0       -1.979444    1.162785    1.920098
      6          8           0       -1.975616    0.008467    1.101757
      7          6           0       -0.695893   -0.217781    0.636873
      8          6           0       -0.321496   -1.361646   -0.282738
      9          6           0       -1.571917   -1.891235   -1.012567
     10          6           0        0.361554   -2.492784    0.538298
     11          6           0       -0.491859   -3.032200    1.665302
     12          6           0       -1.326439   -4.143829    1.456732
     13          6           0       -2.129929   -4.627166    2.493927
     14          6           0       -2.105711   -4.007417    3.746091
     15          6           0       -1.275834   -2.904663    3.964145
     16          6           0       -0.469712   -2.419035    2.930446
     17          6           0        0.641827   -0.849265   -1.333571
     18          7           0        0.522669    0.310505   -1.882162
     19          6           0        1.584318    0.500219   -2.864217
     20          6           0        2.381983    1.794742   -2.567538
     21          6           0        1.449115    3.014718   -2.506096
     22          6           0        3.463299    2.034653   -3.633003
     23          6           0        2.430921   -0.788975   -2.747316
     24          8           0        1.713103   -1.574923   -1.814622
     25          7           0        0.169182    0.623436    1.087328
     26          1           0       -0.667793    5.077502    2.135292
     27          1           0       -1.962234    3.906127    2.536136
     28          1           0       -0.438030    3.919051    3.501762
     29          1           0       -0.687998    3.175774    0.506057
     30          1           0        1.741842    2.640173    0.640141
     31          1           0        1.780070    3.160933    2.368653
     32          1           0        1.444598    4.357267    1.055761
     33          1           0       -0.098158    1.427958    3.006793
     34          1           0       -2.624285    1.934861    1.449474
     35          1           0       -2.362761    0.908594    2.931265
     36          1           0       -2.023283   -1.093563   -1.642249
     37          1           0       -2.345837   -2.230351   -0.292389
     38          1           0       -1.305941   -2.746873   -1.670391
     39          1           0        0.638999   -3.331346   -0.138869
     40          1           0        1.318141   -2.114067    0.963880
     41          1           0       -1.358879   -4.631408    0.490293
     42          1           0       -2.772918   -5.481492    2.326239
     43          1           0       -2.729357   -4.382068    4.547411
     44          1           0       -1.257246   -2.425552    4.934467
     45          1           0        0.168174   -1.563614    3.114787
     46          1           0        1.126535    0.557301   -3.877109
     47          1           0        2.879929    1.694648   -1.577237
     48          1           0        0.698365    2.895224   -1.697493
     49          1           0        2.033000    3.934374   -2.287900
     50          1           0        0.915682    3.148509   -3.471722
     51          1           0        4.195449    1.201436   -3.651527
     52          1           0        4.023134    2.967405   -3.407430
     53          1           0        3.004959    2.128585   -4.641003
     54          1           0        2.493774   -1.318490   -3.721744
     55          1           0        3.450178   -0.600694   -2.348279
     56         29           0        0.466671    1.717175   -0.514793
 ---------------------------------------------------------------------
 Rotational constants (GHZ):           0.2972928           0.1482036           0.1088590
 Leave Link  202 at Thu Aug  1 11:11:47 2024, MaxMem= 13421772800 cpu:               0.1 elap:               0.0
 (Enter /public/software/apps/Gaussian/g16/l301.exe)
 Standard basis: def2SVPP (5D, 7F)
 Ernie: Thresh=  0.10000D-02 Tol=  0.10000D-05 Strict=F.
   434 basis functions,   816 primitive gaussians,   461 cartesian basis functions
   107 alpha electrons      106 beta electrons
       nuclear repulsion energy      3157.3907376581 Hartrees.
 IExCor=  402 DFT=T Ex+Corr=B3LYP ExCW=0 ScaHFX=  0.200000
 ScaDFX=  0.800000  0.720000  1.000000  0.810000 ScalE2=  1.000000  1.000000
 IRadAn=      5 IRanWt=     -1 IRanGd=            0 ICorTp=0 IEmpDi=141
 NAtoms=   56 NActive=   56 NUniq=   56 SFac= 1.00D+00 NAtFMM=   60 NAOKFM=F Big=F
 Integral buffers will be    131072 words long.
 Raffenetti 2 integral format.
 Two-electron integral symmetry is turned off.
 R6Disp:  Grimme-D3(BJ) Dispersion energy=       -0.1331458244 Hartrees.
 Nuclear repulsion after empirical dispersion term =     3157.2575918337 Hartrees.
 Leave Link  301 at Thu Aug  1 11:11:47 2024, MaxMem= 13421772800 cpu:               1.5 elap:               0.1
 (Enter /public/software/apps/Gaussian/g16/l302.exe)
 NPDir=0 NMtPBC=     1 NCelOv=     1 NCel=       1 NClECP=     1 NCelD=      1
         NCelK=      1 NCelE2=     1 NClLst=     1 CellRange=     0.0.
 One-electron integrals computed using PRISM.
   1 Symmetry operations used in ECPInt.
 ECPInt:  NShTT=   24310 NPrTT=  101031 LenC2=   22425 LenP2D=   61840.
 LDataN:  DoStor=T MaxTD1= 4 Len=   56
 NBasis=   434 RedAO= T EigKep=  2.93D-04  NBF=   434
 NBsUse=   434 1.00D-06 EigRej= -1.00D+00 NBFU=   434
 Precomputing XC quadrature grid using
 IXCGrd= 4 IRadAn=           5 IRanWt=          -1 IRanGd=           0 AccXCQ= 0.00D+00.
 Generated NRdTot=       0 NPtTot=           0 NUsed=           0 NTot=          32
 NSgBfM=   455   455   455   455   455 MxSgAt=    56 MxSgA2=    56.
 Leave Link  302 at Thu Aug  1 11:11:47 2024, MaxMem= 13421772800 cpu:              14.3 elap:               0.5
 (Enter /public/software/apps/Gaussian/g16/l303.exe)
 DipDrv:  MaxL=1.
 Leave Link  303 at Thu Aug  1 11:11:48 2024, MaxMem= 13421772800 cpu:               2.4 elap:               0.1
 (Enter /public/software/apps/Gaussian/g16/l401.exe)
 ExpMin= 3.30D-02 ExpMax= 7.64D+04 ExpMxC= 1.15D+04 IAcc=3 IRadAn=         5 AccDes= 0.00D+00
 Harris functional with IExCor=  402 and IRadAn=       5 diagonalized for initial guess.
 HarFok:  IExCor=  402 AccDes= 0.00D+00 IRadAn=         5 IDoV= 1 UseB2=F ITyADJ=14
 ICtDFT=  3500011 ScaDFX=  1.000000  1.000000  1.000000  1.000000
 FoFCou: FMM=F IPFlag=           0 FMFlag=      100000 FMFlg1=           0
         NFxFlg=           0 DoJE=T BraDBF=F KetDBF=T FulRan=T
         wScrn=  0.000000 ICntrl=       500 IOpCl=  0 I1Cent=   200000004 NGrid=           0
         NMat0=    1 NMatS0=      1 NMatT0=    0 NMatD0=    1 NMtDS0=    0 NMtDT0=    0
 Symmetry not used in FoFCou.
 Harris En= -2717.48003654542    
 JPrj=0 DoOrth=F DoCkMO=F.
 Initial guess <Sx>= 0.0000 <Sy>= 0.0000 <Sz>= 0.5000 <S**2>= 0.7500 S= 0.5000
 Leave Link  401 at Thu Aug  1 11:11:49 2024, MaxMem= 13421772800 cpu:              37.9 elap:               1.2
 (Enter /public/software/apps/Gaussian/g16/l502.exe)
 Two-electron integral symmetry not used.
 UHF open shell SCF:
 Using DIIS extrapolation, IDIIS=  1040.
 NGot= 13421772800 LenX= 13421327511 LenY= 13421114529
 Requested convergence on RMS density matrix=1.00D-08 within 128 cycles.
 Requested convergence on MAX density matrix=1.00D-06.
 Requested convergence on             energy=1.00D-06.
 No special actions if energy rises.
 Fock matrices will be formed incrementally for  20 cycles.

 Cycle   1  Pass 1  IDiag  1:
 FoFJK:  IHMeth= 1 ICntrl=       0 DoSepK=F KAlg= 0 I1Cent=           0 FoldK=F
 IRaf= 870000000 NMat=       1 IRICut=       1 DoRegI=T DoRafI=F ISym2E= 0 IDoP0=0 IntGTp=1.
 FoFCou: FMM=F IPFlag=           0 FMFlag=      100000 FMFlg1=           0
         NFxFlg=           0 DoJE=F BraDBF=F KetDBF=F FulRan=T
         wScrn=  0.000000 ICntrl=         0 IOpCl=  1 I1Cent=           0 NGrid=           0
         NMat0=    1 NMatS0=      1 NMatT0=    0 NMatD0=    1 NMtDS0=    0 NMtDT0=    0
 Symmetry not used in FoFCou.
 E= -2714.29570731294    
 DIIS: error= 8.12D-02 at cycle   1 NSaved=   1.
 NSaved= 1 IEnMin= 1 EnMin= -2714.29570731294     IErMin= 1 ErrMin= 8.12D-02
 ErrMax= 8.12D-02  0.00D+00 EMaxC= 1.00D-01 BMatC= 1.95D+01 BMatP= 1.95D+01
 IDIUse=3 WtCom= 1.88D-01 WtEn= 8.12D-01
 Coeff-Com:  0.100D+01
 Coeff-En:   0.100D+01
 Coeff:      0.100D+01
 Gap=     0.960 Goal=   None    Shift=    0.000
 Gap=     0.982 Goal=   None    Shift=    0.000
 GapD=    0.960 DampG=2.000 DampE=0.250 DampFc=0.5000 IDamp=-1.
 Damping current iteration by 5.00D-01
 RMSDP=3.24D-02 MaxDP=7.06D+00              OVMax= 9.47D-01

 Cycle   2  Pass 1  IDiag  1:
 RMSU=  1.62D-02    CP:  9.81D-01
 E= -2710.07773346272     Delta-E=        4.217973850218 Rises=F Damp=T
 DIIS: error= 4.26D-02 at cycle   2 NSaved=   2.
 NSaved= 2 IEnMin= 1 EnMin= -2714.29570731294     IErMin= 2 ErrMin= 4.26D-02
 ErrMax= 4.26D-02  0.00D+00 EMaxC= 1.00D-01 BMatC= 7.55D+00 BMatP= 1.95D+01
 IDIUse=3 WtCom= 5.74D-01 WtEn= 4.26D-01
 Coeff-Com:  0.341D+00 0.659D+00
 Coeff-En:   0.720D+00 0.280D+00
 Coeff:      0.503D+00 0.497D+00
 Gap=    -0.515 Goal=   None    Shift=    0.000
 Gap=     0.839 Goal=   None    Shift=    0.000
 RMSDP=1.99D-02 MaxDP=3.34D+00 DE= 4.22D+00 OVMax= 9.77D-01

 Cycle   3  Pass 1  IDiag  1:
 RMSU=  1.32D-02    CP:  9.21D-01  8.89D-02
 E= -2696.81063104916     Delta-E=       13.267102413556 Rises=F Damp=F
 DIIS: error= 1.00D-01 at cycle   3 NSaved=   3.
 NSaved= 3 IEnMin= 1 EnMin= -2714.29570731294     IErMin= 2 ErrMin= 4.26D-02
 ErrMax= 1.00D-01  0.00D+00 EMaxC= 1.00D-01 BMatC= 3.76D+01 BMatP= 7.55D+00
 IDIUse=2 WtCom= 0.00D+00 WtEn= 1.00D+00
 EnCoef did     6 forward-backward iterations
 Coeff-En:   0.622D+00 0.306D+00 0.717D-01
 Coeff:      0.622D+00 0.306D+00 0.717D-01
 Gap=     0.062 Goal=   None    Shift=    0.000
 Gap=    -0.014 Goal=   None    Shift=    0.000
 RMSDP=1.28D-02 MaxDP=9.39D-01 DE= 1.33D+01 OVMax= 8.94D-01

 Cycle   4  Pass 1  IDiag  1:
 RMSU=  5.87D-03    CP:  9.31D-01  2.27D-01  1.59D-01
 E= -2715.42438075976     Delta-E=      -18.613749710599 Rises=F Damp=F
 DIIS: error= 5.29D-02 at cycle   4 NSaved=   4.
 NSaved= 4 IEnMin= 4 EnMin= -2715.42438075976     IErMin= 2 ErrMin= 4.26D-02
 ErrMax= 5.29D-02  0.00D+00 EMaxC= 1.00D-01 BMatC= 9.29D+00 BMatP= 7.55D+00
 IDIUse=2 WtCom= 0.00D+00 WtEn= 1.00D+00
 Coeff-En:   0.418D+00 0.000D+00 0.000D+00 0.582D+00
 Coeff:      0.418D+00 0.000D+00 0.000D+00 0.582D+00
 Gap=     0.179 Goal=   None    Shift=    0.000
 Gap=    -0.004 Goal=   None    Shift=    0.000
 RMSDP=4.70D-03 MaxDP=8.67D-01 DE=-1.86D+01 OVMax= 3.03D-01

 Cycle   5  Pass 1  IDiag  1:
 RMSU=  2.78D-03    CP:  9.36D-01  5.84D-02  8.08D-02  5.90D-01
 E= -2717.10159316867     Delta-E=       -1.677212408911 Rises=F Damp=F
 DIIS: error= 1.61D-02 at cycle   5 NSaved=   5.
 NSaved= 5 IEnMin= 5 EnMin= -2717.10159316867     IErMin= 5 ErrMin= 1.61D-02
 ErrMax= 1.61D-02  0.00D+00 EMaxC= 1.00D-01 BMatC= 4.34D-01 BMatP= 7.55D+00
 IDIUse=3 WtCom= 8.39D-01 WtEn= 1.61D-01
 Coeff-Com:  0.782D-01-0.271D-01 0.397D-01 0.851D-01 0.824D+00
 Coeff-En:   0.258D-01 0.000D+00 0.000D+00 0.000D+00 0.974D+00
 Coeff:      0.698D-01-0.228D-01 0.333D-01 0.714D-01 0.848D+00
 Gap=     0.266 Goal=   None    Shift=    0.000
 Gap=     0.030 Goal=   None    Shift=    0.000
 RMSDP=2.75D-03 MaxDP=4.29D-01 DE=-1.68D+00 OVMax= 8.95D-01

 Cycle   6  Pass 1  IDiag  1:
 RMSU=  2.14D-03    CP:  9.45D-01  3.01D-02  8.39D-02  4.42D-01  4.94D-01
 E= -2716.94786346597     Delta-E=        0.153729702705 Rises=F Damp=F
 DIIS: error= 2.48D-02 at cycle   6 NSaved=   6.
 NSaved= 6 IEnMin= 5 EnMin= -2717.10159316867     IErMin= 5 ErrMin= 1.61D-02
 ErrMax= 2.48D-02  0.00D+00 EMaxC= 1.00D-01 BMatC= 1.36D+00 BMatP= 4.34D-01
 IDIUse=2 WtCom= 0.00D+00 WtEn= 1.00D+00
 Coeff-En:   0.000D+00 0.000D+00 0.000D+00 0.000D+00 0.615D+00 0.385D+00
 Coeff:      0.000D+00 0.000D+00 0.000D+00 0.000D+00 0.615D+00 0.385D+00
 Gap=     0.249 Goal=   None    Shift=    0.000
 Gap=     0.004 Goal=   None    Shift=    0.000
 RMSDP=1.78D-03 MaxDP=3.02D-01 DE= 1.54D-01 OVMax= 3.43D-01

 Cycle   7  Pass 1  IDiag  1:
 RMSU=  1.29D-03    CP:  9.36D-01  4.89D-02  1.16D-01  5.80D-01  5.79D-01
                    CP:  6.64D-01
 E= -2717.14460248705     Delta-E=       -0.196739021083 Rises=F Damp=F
 DIIS: error= 1.30D-02 at cycle   7 NSaved=   7.
 NSaved= 7 IEnMin= 7 EnMin= -2717.14460248705     IErMin= 7 ErrMin= 1.30D-02
 ErrMax= 1.30D-02  0.00D+00 EMaxC= 1.00D-01 BMatC= 5.51D-01 BMatP= 4.34D-01
 IDIUse=2 WtCom= 0.00D+00 WtEn= 1.00D+00
 EnCoef did     2 forward-backward iterations
 Coeff-En:   0.000D+00 0.000D+00 0.000D+00 0.000D+00 0.436D+00 0.219D+00
 Coeff-En:   0.345D+00
 Coeff:      0.000D+00 0.000D+00 0.000D+00 0.000D+00 0.436D+00 0.219D+00
 Coeff:      0.345D+00
 Gap=     0.257 Goal=   None    Shift=    0.000
 Gap=    -0.008 Goal=   None    Shift=    0.000
 RMSDP=1.26D-03 MaxDP=2.57D-01 DE=-1.97D-01 OVMax= 2.74D-01

 Cycle   8  Pass 1  IDiag  1:
 RMSU=  7.10D-04    CP:  9.39D-01  4.01D-02  8.37D-02  5.07D-01  6.66D-01
                    CP:  7.20D-01  3.80D-01
 E= -2717.20975852486     Delta-E=       -0.065156037807 Rises=F Damp=F
 DIIS: error= 9.02D-03 at cycle   8 NSaved=   8.
 NSaved= 8 IEnMin= 8 EnMin= -2717.20975852486     IErMin= 8 ErrMin= 9.02D-03
 ErrMax= 9.02D-03  0.00D+00 EMaxC= 1.00D-01 BMatC= 2.87D-01 BMatP= 4.34D-01
 IDIUse=3 WtCom= 9.10D-01 WtEn= 9.02D-02
 EnCoef did     2 forward-backward iterations
 Coeff-Com: -0.705D-02 0.158D-01-0.850D-02 0.785D-02 0.244D+00 0.701D-01
 Coeff-Com:  0.312D+00 0.365D+00
 Coeff-En:   0.000D+00 0.000D+00 0.000D+00 0.000D+00 0.266D+00 0.000D+00
 Coeff-En:   0.193D+00 0.541D+00
 Coeff:     -0.642D-02 0.144D-01-0.774D-02 0.714D-02 0.246D+00 0.638D-01
 Coeff:      0.301D+00 0.381D+00
 Gap=     0.175 Goal=   None    Shift=    0.000
 Gap=     0.011 Goal=   None    Shift=    0.000
 RMSDP=4.15D-04 MaxDP=7.88D-02 DE=-6.52D-02 OVMax= 9.33D-02

 Cycle   9  Pass 1  IDiag  1:
 RMSU=  2.42D-04    CP:  9.37D-01  4.58D-02  9.05D-02  5.48D-01  6.68D-01
                    CP:  6.69D-01  5.01D-01  9.36D-01
 E= -2717.25281667135     Delta-E=       -0.043058146490 Rises=F Damp=F
 DIIS: error= 4.08D-03 at cycle   9 NSaved=   9.
 NSaved= 9 IEnMin= 9 EnMin= -2717.25281667135     IErMin= 9 ErrMin= 4.08D-03
 ErrMax= 4.08D-03  0.00D+00 EMaxC= 1.00D-01 BMatC= 4.14D-02 BMatP= 2.87D-01
 IDIUse=3 WtCom= 9.59D-01 WtEn= 4.08D-02
 Coeff-Com:  0.639D-03 0.906D-02-0.427D-02 0.800D-02 0.128D+00-0.212D-01
 Coeff-Com:  0.405D-01-0.132D+00 0.972D+00
 Coeff-En:   0.000D+00 0.000D+00 0.000D+00 0.000D+00 0.141D+00 0.000D+00
 Coeff-En:   0.000D+00 0.000D+00 0.859D+00
 Coeff:      0.613D-03 0.869D-02-0.409D-02 0.767D-02 0.128D+00-0.203D-01
 Coeff:      0.389D-01-0.127D+00 0.967D+00
 Gap=     0.157 Goal=   None    Shift=    0.000
 Gap=     0.008 Goal=   None    Shift=    0.000
 RMSDP=8.67D-04 MaxDP=1.61D-01 DE=-4.31D-02 OVMax= 4.43D-01

 Cycle  10  Pass 1  IDiag  1:
 RMSU=  4.92D-04    CP:  9.36D-01  5.05D-02  9.15D-02  5.85D-01  7.62D-01
                    CP:  4.40D-01  3.20D-01  7.43D-01  2.12D+00
 E= -2717.25891349335     Delta-E=       -0.006096822006 Rises=F Damp=F
 DIIS: error= 3.49D-03 at cycle  10 NSaved=  10.
 NSaved=10 IEnMin=10 EnMin= -2717.25891349335     IErMin=10 ErrMin= 3.49D-03
 ErrMax= 3.49D-03  0.00D+00 EMaxC= 1.00D-01 BMatC= 5.26D-02 BMatP= 4.14D-02
 IDIUse=3 WtCom= 9.59D-01 WtEn= 4.08D-02
 Coeff-Com: -0.146D-03 0.218D-02-0.505D-03-0.776D-02 0.788D-01-0.995D-02
 Coeff-Com:  0.486D-01 0.184D-01 0.522D+00 0.349D+00
 Coeff-En:   0.000D+00 0.000D+00 0.000D+00 0.000D+00 0.000D+00 0.000D+00
 Coeff-En:   0.000D+00 0.000D+00 0.432D+00 0.568D+00
 Coeff:     -0.140D-03 0.209D-02-0.485D-03-0.744D-02 0.755D-01-0.955D-02
 Coeff:      0.466D-01 0.176D-01 0.518D+00 0.358D+00
 Gap=     0.162 Goal=   None    Shift=    0.000
 Gap=     0.016 Goal=   None    Shift=    0.000
 RMSDP=1.30D-04 MaxDP=4.02D-03 DE=-6.10D-03 OVMax= 3.09D-02

 Cycle  11  Pass 1  IDiag  1:
 RMSU=  1.09D-04    CP:  9.36D-01  4.91D-02  9.10D-02  5.77D-01  7.67D-01
                    CP:  4.43D-01  3.17D-01  6.84D-01  2.13D+00  1.01D+00
 E= -2717.26343286018     Delta-E=       -0.004519366822 Rises=F Damp=F
 DIIS: error= 2.61D-03 at cycle  11 NSaved=  11.
 NSaved=11 IEnMin=11 EnMin= -2717.26343286018     IErMin=11 ErrMin= 2.61D-03
 ErrMax= 2.61D-03  0.00D+00 EMaxC= 1.00D-01 BMatC= 2.80D-02 BMatP= 4.14D-02
 IDIUse=3 WtCom= 9.74D-01 WtEn= 2.61D-02
 Coeff-Com: -0.479D-03 0.185D-02-0.624D-03-0.789D-02 0.224D-01-0.259D-01
 Coeff-Com:  0.591D-01 0.147D+00 0.249D+00-0.492D-01 0.604D+00
 Coeff-En:   0.000D+00 0.000D+00 0.000D+00 0.000D+00 0.000D+00 0.000D+00
 Coeff-En:   0.000D+00 0.000D+00 0.356D+00 0.000D+00 0.644D+00
 Coeff:     -0.467D-03 0.180D-02-0.608D-03-0.768D-02 0.218D-01-0.252D-01
 Coeff:      0.575D-01 0.143D+00 0.252D+00-0.479D-01 0.605D+00
 Gap=     0.169 Goal=   None    Shift=    0.000
 Gap=     0.018 Goal=   None    Shift=    0.000
 RMSDP=1.24D-04 MaxDP=1.89D-02 DE=-4.52D-03 OVMax= 5.23D-02

 Cycle  12  Pass 1  IDiag  1:
 RMSU=  6.14D-05    CP:  9.36D-01  4.80D-02  9.14D-02  5.70D-01  7.53D-01
                    CP:  4.73D-01  3.54D-01  7.22D-01  2.03D+00  9.85D-01
                    CP:  1.20D+00
 E= -2717.26753319952     Delta-E=       -0.004100339341 Rises=F Damp=F
 DIIS: error= 1.69D-03 at cycle  12 NSaved=  12.
 NSaved=12 IEnMin=12 EnMin= -2717.26753319952     IErMin=12 ErrMin= 1.69D-03
 ErrMax= 1.69D-03  0.00D+00 EMaxC= 1.00D-01 BMatC= 1.20D-02 BMatP= 2.80D-02
 IDIUse=3 WtCom= 9.83D-01 WtEn= 1.69D-02
 Coeff-Com: -0.173D-03 0.492D-03-0.388D-03-0.288D-02-0.116D-02-0.268D-01
 Coeff-Com:  0.282D-01 0.114D+00 0.140D+00-0.302D+00 0.189D+00 0.861D+00
 Coeff-En:   0.000D+00 0.000D+00 0.000D+00 0.000D+00 0.000D+00 0.000D+00
 Coeff-En:   0.000D+00 0.000D+00 0.225D+00 0.000D+00 0.000D+00 0.775D+00
 Coeff:     -0.170D-03 0.484D-03-0.381D-03-0.283D-02-0.114D-02-0.263D-01
 Coeff:      0.278D-01 0.112D+00 0.141D+00-0.297D+00 0.186D+00 0.860D+00
 Gap=     0.173 Goal=   None    Shift=    0.000
 Gap=     0.020 Goal=   None    Shift=    0.000
 RMSDP=8.48D-05 MaxDP=7.32D-03 DE=-4.10D-03 OVMax= 3.86D-02

 Cycle  13  Pass 1  IDiag  1:
 RMSU=  5.07D-05    CP:  9.37D-01  4.72D-02  9.13D-02  5.65D-01  7.49D-01
                    CP:  4.85D-01  3.63D-01  7.31D-01  1.97D+00  9.96D-01
                    CP:  1.62D+00  1.31D+00
 E= -2717.26901556545     Delta-E=       -0.001482365930 Rises=F Damp=F
 DIIS: error= 1.19D-03 at cycle  13 NSaved=  13.
 NSaved=13 IEnMin=13 EnMin= -2717.26901556545     IErMin=13 ErrMin= 1.19D-03
 ErrMax= 1.19D-03  0.00D+00 EMaxC= 1.00D-01 BMatC= 5.77D-03 BMatP= 1.20D-02
 IDIUse=3 WtCom= 9.88D-01 WtEn= 1.19D-02
 Coeff-Com: -0.727D-04 0.186D-03-0.118D-03 0.137D-02 0.273D-02-0.614D-02
 Coeff-Com:  0.624D-02 0.315D-01 0.451D-01-0.284D+00-0.416D+00 0.724D+00
 Coeff-Com:  0.895D+00
 Coeff-En:   0.000D+00 0.000D+00 0.000D+00 0.000D+00 0.000D+00 0.000D+00
 Coeff-En:   0.000D+00 0.000D+00 0.134D+00 0.000D+00 0.000D+00 0.000D+00
 Coeff-En:   0.866D+00
 Coeff:     -0.719D-04 0.184D-03-0.117D-03 0.135D-02 0.269D-02-0.607D-02
 Coeff:      0.616D-02 0.312D-01 0.462D-01-0.281D+00-0.411D+00 0.716D+00
 Coeff:      0.895D+00
 Gap=     0.178 Goal=   None    Shift=    0.000
 Gap=     0.022 Goal=   None    Shift=    0.000
 RMSDP=1.53D-04 MaxDP=2.65D-02 DE=-1.48D-03 OVMax= 6.24D-02

 Cycle  14  Pass 1  IDiag  1:
 RMSU=  2.51D-05    CP:  9.37D-01  4.60D-02  9.13D-02  5.56D-01  7.34D-01
                    CP:  5.20D-01  3.98D-01  7.74D-01  1.82D+00  9.07D-01
                    CP:  2.05D+00  2.23D+00  1.40D+00
 E= -2717.27050465983     Delta-E=       -0.001489094378 Rises=F Damp=F
 DIIS: error= 1.57D-04 at cycle  14 NSaved=  14.
 NSaved=14 IEnMin=14 EnMin= -2717.27050465983     IErMin=14 ErrMin= 1.57D-04
 ErrMax= 1.57D-04  0.00D+00 EMaxC= 1.00D-01 BMatC= 1.18D-04 BMatP= 5.77D-03
 IDIUse=3 WtCom= 9.98D-01 WtEn= 1.57D-03
 Coeff-Com:  0.130D-03-0.632D-04 0.115D-03 0.664D-03 0.273D-02-0.125D-02
 Coeff-Com: -0.186D-02-0.895D-02 0.439D-01-0.804D-01-0.233D+00 0.276D+00
 Coeff-Com:  0.437D+00 0.565D+00
 Coeff-En:   0.000D+00 0.000D+00 0.000D+00 0.000D+00 0.000D+00 0.000D+00
 Coeff-En:   0.000D+00 0.000D+00 0.000D+00 0.000D+00 0.000D+00 0.000D+00
 Coeff-En:   0.000D+00 0.100D+01
 Coeff:      0.130D-03-0.631D-04 0.115D-03 0.663D-03 0.272D-02-0.125D-02
 Coeff:     -0.185D-02-0.893D-02 0.438D-01-0.803D-01-0.232D+00 0.275D+00
 Coeff:      0.436D+00 0.566D+00
 Gap=     0.178 Goal=   None    Shift=    0.000
 Gap=     0.022 Goal=   None    Shift=    0.000
 RMSDP=4.15D-05 MaxDP=7.42D-03 DE=-1.49D-03 OVMax= 1.74D-02

 Cycle  15  Pass 1  IDiag  1:
 RMSU=  1.78D-05    CP:  9.37D-01  4.62D-02  9.14D-02  5.58D-01  7.36D-01
                    CP:  5.13D-01  3.92D-01  7.54D-01  1.87D+00  9.32D-01
                    CP:  2.12D+00  2.41D+00  1.73D+00  8.82D-01
 E= -2717.27050723113     Delta-E=       -0.000002571306 Rises=F Damp=F
 DIIS: error= 2.21D-04 at cycle  15 NSaved=  15.
 NSaved=15 IEnMin=15 EnMin= -2717.27050723113     IErMin=14 ErrMin= 1.57D-04
 ErrMax= 2.21D-04  0.00D+00 EMaxC= 1.00D-01 BMatC= 1.83D-04 BMatP= 1.18D-04
 IDIUse=3 WtCom= 9.98D-01 WtEn= 1.57D-03
 Coeff-Com:  0.476D-04-0.111D-03 0.734D-04 0.507D-03 0.185D-02 0.104D-02
 Coeff-Com: -0.118D-02-0.117D-01 0.160D-01 0.422D-02-0.126D+00 0.385D-01
 Coeff-Com:  0.139D+00 0.444D+00 0.494D+00
 Coeff-En:   0.000D+00 0.000D+00 0.000D+00 0.000D+00 0.000D+00 0.000D+00
 Coeff-En:   0.000D+00 0.000D+00 0.000D+00 0.000D+00 0.000D+00 0.000D+00
 Coeff-En:   0.000D+00 0.487D+00 0.513D+00
 Coeff:      0.475D-04-0.111D-03 0.733D-04 0.506D-03 0.185D-02 0.104D-02
 Coeff:     -0.118D-02-0.117D-01 0.160D-01 0.422D-02-0.126D+00 0.385D-01
 Coeff:      0.139D+00 0.444D+00 0.494D+00
 Gap=     0.179 Goal=   None    Shift=    0.000
 Gap=     0.022 Goal=   None    Shift=    0.000
 RMSDP=3.09D-05 MaxDP=3.54D-03 DE=-2.57D-06 OVMax= 1.51D-02

 Cycle  16  Pass 1  IDiag  1:
 RMSU=  5.42D-06    CP:  9.37D-01  4.61D-02  9.15D-02  5.57D-01  7.34D-01
                    CP:  5.18D-01  3.97D-01  7.60D-01  1.84D+00  9.15D-01
                    CP:  2.20D+00  2.64D+00  2.00D+00  1.18D+00  1.18D+00
 E= -2717.27058292336     Delta-E=       -0.000075692231 Rises=F Damp=F
 DIIS: error= 1.13D-04 at cycle  16 NSaved=  16.
 NSaved=16 IEnMin=16 EnMin= -2717.27058292336     IErMin=16 ErrMin= 1.13D-04
 ErrMax= 1.13D-04  0.00D+00 EMaxC= 1.00D-01 BMatC= 1.41D-05 BMatP= 1.18D-04
 IDIUse=3 WtCom= 9.99D-01 WtEn= 1.13D-03
 Coeff-Com: -0.338D-04-0.725D-04 0.161D-04 0.953D-04-0.255D-03 0.554D-03
 Coeff-Com: -0.496D-03-0.347D-02-0.454D-02 0.549D-01 0.166D-01-0.103D+00
 Coeff-Com: -0.102D+00 0.218D-02-0.105D+00 0.124D+01
 Coeff-En:   0.000D+00 0.000D+00 0.000D+00 0.000D+00 0.000D+00 0.000D+00
 Coeff-En:   0.000D+00 0.000D+00 0.000D+00 0.000D+00 0.000D+00 0.000D+00
 Coeff-En:   0.000D+00 0.000D+00 0.000D+00 0.100D+01
 Coeff:     -0.338D-04-0.724D-04 0.161D-04 0.952D-04-0.254D-03 0.554D-03
 Coeff:     -0.495D-03-0.347D-02-0.453D-02 0.549D-01 0.166D-01-0.103D+00
 Coeff:     -0.102D+00 0.218D-02-0.105D+00 0.124D+01
 Gap=     0.180 Goal=   None    Shift=    0.000
 Gap=     0.022 Goal=   None    Shift=    0.000
 RMSDP=4.34D-05 MaxDP=2.74D-03 DE=-7.57D-05 OVMax= 2.61D-02

 Cycle  17  Pass 1  IDiag  1:
 RMSU=  6.18D-06    CP:  9.37D-01  4.60D-02  9.15D-02  5.56D-01  7.32D-01
                    CP:  5.22D-01  4.02D-01  7.63D-01  1.83D+00  8.99D-01
                    CP:  2.31D+00  3.00D+00  2.50D+00  1.64D+00  1.88D+00
                    CP:  1.76D+00
 E= -2717.27062665402     Delta-E=       -0.000043730662 Rises=F Damp=F
 DIIS: error= 1.27D-04 at cycle  17 NSaved=  17.
 NSaved=17 IEnMin=17 EnMin= -2717.27062665402     IErMin=16 ErrMin= 1.13D-04
 ErrMax= 1.27D-04  0.00D+00 EMaxC= 1.00D-01 BMatC= 1.52D-05 BMatP= 1.41D-05
 IDIUse=3 WtCom= 9.99D-01 WtEn= 1.13D-03
 Coeff-Com:  0.201D-04 0.586D-06 0.365D-05-0.745D-04-0.637D-03-0.142D-02
 Coeff-Com: -0.169D-02 0.969D-03 0.628D-02 0.208D-01 0.157D-01-0.744D-02
 Coeff-Com:  0.113D-01-0.258D+00-0.720D+00 0.106D+01 0.877D+00
 Coeff-En:   0.000D+00 0.000D+00 0.000D+00 0.000D+00 0.000D+00 0.000D+00
 Coeff-En:   0.000D+00 0.000D+00 0.000D+00 0.000D+00 0.000D+00 0.000D+00
 Coeff-En:   0.000D+00 0.000D+00 0.000D+00 0.000D+00 0.100D+01
 Coeff:      0.200D-04 0.586D-06 0.364D-05-0.744D-04-0.636D-03-0.142D-02
 Coeff:     -0.169D-02 0.968D-03 0.627D-02 0.208D-01 0.157D-01-0.743D-02
 Coeff:      0.113D-01-0.258D+00-0.719D+00 0.106D+01 0.877D+00
 Gap=     0.179 Goal=   None    Shift=    0.000
 Gap=     0.022 Goal=   None    Shift=    0.000
 RMSDP=3.64D-05 MaxDP=2.35D-03 DE=-4.37D-05 OVMax= 2.19D-02

 Cycle  18  Pass 1  IDiag  1:
 RMSU=  1.68D-05    CP:  9.37D-01  4.61D-02  9.15D-02  5.56D-01  7.32D-01
                    CP:  5.22D-01  4.03D-01  7.61D-01  1.83D+00  8.94D-01
                    CP:  2.39D+00  3.00D+00  2.98D+00  2.03D+00  2.71D+00
                    CP:  2.98D+00  1.55D+00
 E= -2717.27065399059     Delta-E=       -0.000027336568 Rises=F Damp=F
 DIIS: error= 1.05D-04 at cycle  18 NSaved=  18.
 NSaved=18 IEnMin=18 EnMin= -2717.27065399059     IErMin=18 ErrMin= 1.05D-04
 ErrMax= 1.05D-04  0.00D+00 EMaxC= 1.00D-01 BMatC= 1.85D-05 BMatP= 1.41D-05
 IDIUse=3 WtCom= 9.99D-01 WtEn= 1.13D-03
 Coeff-Com:  0.432D-04 0.402D-04 0.103D-04-0.852D-04-0.291D-03-0.116D-02
 Coeff-Com: -0.205D-02 0.204D-02 0.438D-02 0.245D-02-0.924D-02 0.251D-01
 Coeff-Com:  0.739D-01-0.305D+00-0.895D+00 0.683D+00 0.631D+00 0.790D+00
 Coeff-En:   0.000D+00 0.000D+00 0.000D+00 0.000D+00 0.000D+00 0.000D+00
 Coeff-En:   0.000D+00 0.000D+00 0.000D+00 0.000D+00 0.000D+00 0.000D+00
 Coeff-En:   0.000D+00 0.000D+00 0.000D+00 0.000D+00 0.000D+00 0.100D+01
 Coeff:      0.432D-04 0.402D-04 0.103D-04-0.851D-04-0.291D-03-0.116D-02
 Coeff:     -0.205D-02 0.204D-02 0.438D-02 0.245D-02-0.923D-02 0.251D-01
 Coeff:      0.738D-01-0.304D+00-0.894D+00 0.682D+00 0.631D+00 0.790D+00
 Gap=     0.179 Goal=   None    Shift=    0.000
 Gap=     0.022 Goal=   None    Shift=    0.000
 RMSDP=4.69D-05 MaxDP=3.11D-03 DE=-2.73D-05 OVMax= 2.88D-02

 Cycle  19  Pass 1  IDiag  1:
 RMSU=  3.29D-05    CP:  9.37D-01  4.61D-02  9.15D-02  5.56D-01  7.31D-01
                    CP:  5.23D-01  4.06D-01  7.57D-01  1.82D+00  8.82D-01
                    CP:  2.50D+00  3.00D+00  3.00D+00  2.51D+00  3.00D+00
                    CP:  3.00D+00  2.39D+00  2.34D+00
 E= -2717.27067928026     Delta-E=       -0.000025289667 Rises=F Damp=F
 DIIS: error= 7.66D-05 at cycle  19 NSaved=  19.
 NSaved=19 IEnMin=19 EnMin= -2717.27067928026     IErMin=19 ErrMin= 7.66D-05
 ErrMax= 7.66D-05  0.00D+00 EMaxC= 1.00D-01 BMatC= 2.35D-05 BMatP= 1.41D-05
 IDIUse=1 WtCom= 1.00D+00 WtEn= 0.00D+00
 Coeff-Com:  0.116D-04 0.158D-04 0.157D-06-0.109D-03 0.614D-03-0.345D-03
 Coeff-Com: -0.518D-03 0.204D-02 0.253D-02 0.100D-01-0.151D-01-0.763D-02
 Coeff-Com:  0.287D-01-0.128D+00-0.512D+00 0.470D+00 0.196D-01 0.432D+00
 Coeff-Com:  0.698D+00
 Coeff:      0.116D-04 0.158D-04 0.157D-06-0.109D-03 0.614D-03-0.345D-03
 Coeff:     -0.518D-03 0.204D-02 0.253D-02 0.100D-01-0.151D-01-0.763D-02
 Coeff:      0.287D-01-0.128D+00-0.512D+00 0.470D+00 0.196D-01 0.432D+00
 Coeff:      0.698D+00
 Gap=     0.180 Goal=   None    Shift=    0.000
 Gap=     0.022 Goal=   None    Shift=    0.000
 RMSDP=2.38D-05 MaxDP=1.60D-03 DE=-2.53D-05 OVMax= 1.46D-02

 Cycle  20  Pass 1  IDiag  1:
 RMSU=  3.40D-06    CP:  9.37D-01  4.61D-02  9.15D-02  5.55D-01  7.30D-01
                    CP:  5.25D-01  4.08D-01  7.57D-01  1.81D+00  8.71D-01
                    CP:  2.55D+00  3.00D+00  3.00D+00  2.76D+00  3.00D+00
                    CP:  3.00D+00  2.83D+00  3.00D+00  1.50D+00
 E= -2717.27069162191     Delta-E=       -0.000012341651 Rises=F Damp=F
 DIIS: error= 4.88D-05 at cycle  20 NSaved=  20.
 NSaved=20 IEnMin=20 EnMin= -2717.27069162191     IErMin=20 ErrMin= 4.88D-05
 ErrMax= 4.88D-05  0.00D+00 EMaxC= 1.00D-01 BMatC= 9.38D-06 BMatP= 1.41D-05
 IDIUse=1 WtCom= 1.00D+00 WtEn= 0.00D+00
 Coeff-Com: -0.573D-06-0.163D-04 0.107D-04-0.772D-04 0.531D-03-0.484D-03
 Coeff-Com: -0.224D-03 0.779D-04 0.725D-02 0.202D-01 0.397D-02-0.405D-01
 Coeff-Com: -0.457D-01 0.479D-01 0.501D-01 0.253D+00-0.263D+00-0.491D+00
 Coeff-Com:  0.135D-01 0.144D+01
 Coeff:     -0.573D-06-0.163D-04 0.107D-04-0.772D-04 0.531D-03-0.484D-03
 Coeff:     -0.224D-03 0.779D-04 0.725D-02 0.202D-01 0.397D-02-0.405D-01
 Coeff:     -0.457D-01 0.479D-01 0.501D-01 0.253D+00-0.263D+00-0.491D+00
 Coeff:      0.135D-01 0.144D+01
 Gap=     0.180 Goal=   None    Shift=    0.000
 Gap=     0.022 Goal=   None    Shift=    0.000
 RMSDP=2.79D-05 MaxDP=1.87D-03 DE=-1.23D-05 OVMax= 1.65D-02

 Cycle  21  Pass 1  IDiag  1:
 Restarting incremental Fock formation.
 E= -2717.27070113684     Delta-E=       -0.000009514932 Rises=F Damp=F
 DIIS: error= 2.62D-05 at cycle  21 NSaved=  20.
 NSaved=20 IEnMin=20 EnMin= -2717.27070113684     IErMin=20 ErrMin= 2.62D-05
 ErrMax= 2.62D-05  0.00D+00 EMaxC= 1.00D-01 BMatC= 6.30D-07 BMatP= 9.38D-06
 IDIUse=1 WtCom= 1.00D+00 WtEn= 0.00D+00
 Coeff-Com:  0.202D-04-0.173D-04-0.994D-05 0.123D-03-0.602D-03-0.182D-03
 Coeff-Com: -0.116D-02 0.881D-02 0.200D-02 0.735D-03-0.933D-03-0.130D-01
 Coeff-Com:  0.107D+00 0.228D+00-0.761D-01-0.240D+00-0.564D+00-0.340D+00
 Coeff-Com:  0.943D+00 0.947D+00
 Coeff:      0.202D-04-0.173D-04-0.994D-05 0.123D-03-0.602D-03-0.182D-03
 Coeff:     -0.116D-02 0.881D-02 0.200D-02 0.735D-03-0.933D-03-0.130D-01
 Coeff:      0.107D+00 0.228D+00-0.761D-01-0.240D+00-0.564D+00-0.340D+00
 Coeff:      0.943D+00 0.947D+00
 Gap=     0.179 Goal=   None    Shift=    0.000
 Gap=     0.022 Goal=   None    Shift=    0.000
 RMSDP=2.66D-05 MaxDP=1.84D-03 DE=-9.51D-06 OVMax= 1.63D-02

 Cycle  22  Pass 1  IDiag  1:
 RMSU=  2.66D-05    CP:  1.00D+00
 E= -2717.27070464872     Delta-E=       -0.000003511881 Rises=F Damp=F
 DIIS: error= 1.20D-05 at cycle  22 NSaved=  20.
 NSaved=20 IEnMin=20 EnMin= -2717.27070464872     IErMin=20 ErrMin= 1.20D-05
 ErrMax= 1.20D-05  0.00D+00 EMaxC= 1.00D-01 BMatC= 2.72D-07 BMatP= 6.30D-07
 IDIUse=1 WtCom= 1.00D+00 WtEn= 0.00D+00
 Coeff-Com:  0.957D-05 0.257D-04-0.438D-04-0.198D-03 0.275D-05-0.601D-03
 Coeff-Com:  0.279D-02-0.501D-02-0.298D-02 0.132D-01 0.970D-02 0.521D-01
 Coeff-Com:  0.101D+00-0.105D+00-0.992D-01-0.205D+00-0.152D+00 0.141D+00
 Coeff-Com:  0.632D+00 0.617D+00
 Coeff:      0.957D-05 0.257D-04-0.438D-04-0.198D-03 0.275D-05-0.601D-03
 Coeff:      0.279D-02-0.501D-02-0.298D-02 0.132D-01 0.970D-02 0.521D-01
 Coeff:      0.101D+00-0.105D+00-0.992D-01-0.205D+00-0.152D+00 0.141D+00
 Coeff:      0.632D+00 0.617D+00
 Gap=     0.179 Goal=   None    Shift=    0.000
 Gap=     0.023 Goal=   None    Shift=    0.000
 RMSDP=9.34D-06 MaxDP=6.67D-04 DE=-3.51D-06 OVMax= 5.72D-03

 Cycle  23  Pass 1  IDiag  1:
 RMSU=  1.25D-06    CP:  1.00D+00  1.35D+00
 E= -2717.27070505437     Delta-E=       -0.000000405650 Rises=F Damp=F
 DIIS: error= 3.81D-06 at cycle  23 NSaved=  20.
 NSaved=20 IEnMin=20 EnMin= -2717.27070505437     IErMin=20 ErrMin= 3.81D-06
 ErrMax= 3.81D-06  0.00D+00 EMaxC= 1.00D-01 BMatC= 4.05D-08 BMatP= 2.72D-07
 IDIUse=1 WtCom= 1.00D+00 WtEn= 0.00D+00
 Coeff-Com:  0.251D-04-0.397D-04-0.552D-04 0.364D-04-0.219D-03 0.759D-03
 Coeff-Com: -0.347D-02-0.212D-02 0.932D-02 0.736D-02 0.120D-01 0.248D-01
 Coeff-Com: -0.503D-01-0.174D-01-0.371D-01-0.435D-01-0.457D-01 0.207D+00
 Coeff-Com:  0.290D+00 0.649D+00
 Coeff:      0.251D-04-0.397D-04-0.552D-04 0.364D-04-0.219D-03 0.759D-03
 Coeff:     -0.347D-02-0.212D-02 0.932D-02 0.736D-02 0.120D-01 0.248D-01
 Coeff:     -0.503D-01-0.174D-01-0.371D-01-0.435D-01-0.457D-01 0.207D+00
 Coeff:      0.290D+00 0.649D+00
 Gap=     0.179 Goal=   None    Shift=    0.000
 Gap=     0.023 Goal=   None    Shift=    0.000
 RMSDP=2.45D-06 MaxDP=1.69D-04 DE=-4.06D-07 OVMax= 1.48D-03

 Cycle  24  Pass 1  IDiag  1:
 RMSU=  3.92D-07    CP:  1.00D+00  1.44D+00  1.04D+00
 E= -2717.27070508161     Delta-E=       -0.000000027235 Rises=F Damp=F
 DIIS: error= 1.65D-06 at cycle  24 NSaved=  20.
 NSaved=20 IEnMin=20 EnMin= -2717.27070508161     IErMin=20 ErrMin= 1.65D-06
 ErrMax= 1.65D-06  0.00D+00 EMaxC= 1.00D-01 BMatC= 1.21D-08 BMatP= 4.05D-08
 IDIUse=1 WtCom= 1.00D+00 WtEn= 0.00D+00
 Coeff-Com:  0.614D-05 0.173D-04 0.569D-04 0.944D-04-0.425D-03-0.228D-03
 Coeff-Com: -0.585D-03 0.150D-02 0.199D-02-0.208D-01-0.407D-01 0.221D-01
 Coeff-Com:  0.416D-01 0.756D-01 0.341D-01-0.958D-01-0.104D+00-0.917D-01
 Coeff-Com:  0.314D+00 0.863D+00
 Coeff:      0.614D-05 0.173D-04 0.569D-04 0.944D-04-0.425D-03-0.228D-03
 Coeff:     -0.585D-03 0.150D-02 0.199D-02-0.208D-01-0.407D-01 0.221D-01
 Coeff:      0.416D-01 0.756D-01 0.341D-01-0.958D-01-0.104D+00-0.917D-01
 Coeff:      0.314D+00 0.863D+00
 Gap=     0.179 Goal=   None    Shift=    0.000
 Gap=     0.023 Goal=   None    Shift=    0.000
 RMSDP=4.57D-07 MaxDP=5.47D-05 DE=-2.72D-08 OVMax= 1.89D-04

 Cycle  25  Pass 1  IDiag  1:
 RMSU=  3.53D-07    CP:  1.00D+00  1.43D+00  1.02D+00  1.15D+00
 E= -2717.27070508722     Delta-E=       -0.000000005615 Rises=F Damp=F
 DIIS: error= 7.55D-07 at cycle  25 NSaved=  20.
 NSaved=20 IEnMin=20 EnMin= -2717.27070508722     IErMin=20 ErrMin= 7.55D-07
 ErrMax= 7.55D-07  0.00D+00 EMaxC= 1.00D-01 BMatC= 2.03D-09 BMatP= 1.21D-08
 IDIUse=1 WtCom= 1.00D+00 WtEn= 0.00D+00
 Coeff-Com:  0.973D-05 0.965D-05 0.285D-04-0.981D-04 0.159D-03-0.342D-03
 Coeff-Com:  0.162D-03 0.666D-03-0.115D-01-0.231D-01 0.189D-01 0.236D-01
 Coeff-Com:  0.382D-01 0.199D-01-0.401D-01-0.776D-01-0.915D-01 0.429D-01
 Coeff-Com:  0.439D+00 0.661D+00
 Coeff:      0.973D-05 0.965D-05 0.285D-04-0.981D-04 0.159D-03-0.342D-03
 Coeff:      0.162D-03 0.666D-03-0.115D-01-0.231D-01 0.189D-01 0.236D-01
 Coeff:      0.382D-01 0.199D-01-0.401D-01-0.776D-01-0.915D-01 0.429D-01
 Coeff:      0.439D+00 0.661D+00
 Gap=     0.179 Goal=   None    Shift=    0.000
 Gap=     0.023 Goal=   None    Shift=    0.000
 RMSDP=2.15D-07 MaxDP=4.05D-05 DE=-5.62D-09 OVMax= 9.44D-05

 Cycle  26  Pass 1  IDiag  1:
 RMSU=  1.26D-07    CP:  1.00D+00  1.43D+00  9.54D-01  1.22D+00  1.42D+00
 E= -2717.27070508715     Delta-E=        0.000000000071 Rises=F Damp=F
 DIIS: error= 9.83D-07 at cycle  26 NSaved=  20.
 NSaved=20 IEnMin=19 EnMin= -2717.27070508722     IErMin=19 ErrMin= 7.55D-07
 ErrMax= 9.83D-07  0.00D+00 EMaxC= 1.00D-01 BMatC= 4.34D-09 BMatP= 2.03D-09
 IDIUse=1 WtCom= 1.00D+00 WtEn= 0.00D+00
 Coeff-Com: -0.767D-05-0.663D-05 0.340D-05 0.733D-04-0.169D-03-0.137D-03
 Coeff-Com:  0.254D-03-0.111D-02-0.343D-02 0.383D-02-0.226D-02 0.427D-02
 Coeff-Com:  0.111D-01-0.881D-03-0.192D-01-0.240D-01-0.525D-01 0.324D-01
 Coeff-Com:  0.299D+00 0.753D+00
 Coeff:     -0.767D-05-0.663D-05 0.340D-05 0.733D-04-0.169D-03-0.137D-03
 Coeff:      0.254D-03-0.111D-02-0.343D-02 0.383D-02-0.226D-02 0.427D-02
 Coeff:      0.111D-01-0.881D-03-0.192D-01-0.240D-01-0.525D-01 0.324D-01
 Coeff:      0.299D+00 0.753D+00
 Gap=     0.179 Goal=   None    Shift=    0.000
 Gap=     0.023 Goal=   None    Shift=    0.000
 RMSDP=3.64D-07 MaxDP=2.56D-05 DE= 7.09D-11 OVMax= 2.07D-04

 Cycle  27  Pass 1  IDiag  1:
 RMSU=  8.51D-08    CP:  1.00D+00  1.44D+00  1.03D+00  1.39D+00  1.25D+00
                    CP:  3.53D-01
 E= -2717.27070508879     Delta-E=       -0.000000001640 Rises=F Damp=F
 DIIS: error= 3.59D-07 at cycle  27 NSaved=  20.
 NSaved=20 IEnMin=20 EnMin= -2717.27070508879     IErMin=20 ErrMin= 3.59D-07
 ErrMax= 3.59D-07  0.00D+00 EMaxC= 1.00D-01 BMatC= 5.63D-10 BMatP= 2.03D-09
 IDIUse=1 WtCom= 1.00D+00 WtEn= 0.00D+00
 Coeff-Com: -0.131D-04 0.565D-04 0.171D-03 0.193D-03-0.561D-03-0.710D-03
 Coeff-Com:  0.321D-02 0.730D-02-0.181D-02-0.807D-02-0.146D-01-0.424D-02
[...]
 22,0.07594848,-0.11297015,0.15236124,-0.00000111,0.00000710,-0.0000058
 5,0.00000705,-0.00001270,0.00001111,-0.00000667,0.00001319,0.00000105,
 0.00001687,0.00000020,-0.00000003,-0.00001564,-0.00003398,-0.00001990,
 -0.00005719,0.00015233,0.00012671,-0.00025857,-0.00031038,0.00006075,-
 0.00042099,0.00084073,0.00022476,0.00006788,0.00002863,0.00007175,-0.0
 0008414,0.00011564,-0.00011046,0.00000225,0.00001074,0.00002020,0.0000
 4918,0.00007893,-0.00001001,-0.00000064,0.00001261,0.00006155,0.000030
 76,0.00003863,-0.00001103,-0.00006400,-0.00006751,0.00001607,0.0000011
 0,-0.00003588,-0.00004771,-0.00091669,-0.00450818,0.00223434,-0.000591
 95,0.00122374,0.00019427,0.00231642,0.00246888,0.00081119,-0.00024341,
 -0.00020945,-0.00041026,0.00010782,-0.00016775,0.00031680,0.00024822,-
 0.00011454,-0.00008642,-0.09747029,-0.01563603,-0.11401070,0.00506865,
 0.00228664,0.03219532,0.00002891,0.00004847,-0.00000695,0.00000018,0.0
 0000241,0.00000240,0.00000278,-0.00000231,-0.00000071,-0.00000067,-0.0
 0000119,-0.00000014,-0.00000104,0.00000089,-0.00000157,0.00000514,-0.0
 0000679,0.00000029,-0.00000170,-0.00000230,-0.00000215,-0.00000079,0.0
 0000119,0.00000283,-0.00000683,0.00000415,0.00000674,0.00000190,0.0000
 1248,0.00001007,0.00000087,0.00000455,0.00000215,-0.00003266,0.0000257
 9,0.00002730,-0.00003910,-0.00002293,-0.00005174,0.00002846,-0.0000522
 3,0.00001644,-0.00001869,0.00005083,-0.00004762,0.00000947,0.00001652,
 0.00001596,0.00000303,-0.00000068,-0.00000261,0.00000069,-0.00000169,0
 .00000167,0.00000227,0.00000037,-0.00000182,-0.00000309,0.00000075,0.0
 0000120,0.00000096,0.00000447,-0.00000162,0.00084978,-0.00022133,0.000
 41256,0.00034054,-0.00011766,0.00031113,-0.00000900,0.00003317,-0.0000
 2285,-0.00001096,-0.00002470,-0.00003650,-0.00000667,-0.00007677,-0.00
 005979,-0.00019977,0.00012997,-0.00010680,-0.00000518,0.00008243,0.000
 08112,-0.00002476,-0.00005970,0.00003031,0.09781890,-0.00000184,-0.000
 00844,-0.00000480,0.00000094,0.00002964,0.00000840,0.00001077,0.000013
 63,-0.00002458,-0.00004026,-0.00007659,-0.00007636,-0.00001562,0.00001
 317,-0.00001490,-0.00012710,0.00000610,0.00020607,0.00000277,-0.000057
 18,-0.00006059,-0.00044803,0.00051008,-0.00001714,-0.00000223,0.000013
 35,0.00017414,-0.00002995,0.00003450,0.00010643,0.00017864,0.00020547,
 -0.00031372,-0.00027351,-0.00031018,0.00010376,0.00001850,-0.00005878,
 -0.00037111,-0.00006937,-0.00007306,0.00012409,0.00025453,0.00027628,-
 0.00007159,-0.00003650,0.00003356,0.00043705,0.00055583,-0.00585709,-0
 .00089704,0.00085627,-0.00182432,-0.00276619,-0.01107443,-0.00218137,-
 0.02465676,0.00124411,-0.00254811,-0.00134286,-0.00088475,-0.00037084,
 0.00016353,-0.00001285,0.00013867,0.00000405,-0.01459772,-0.05649411,-
 0.04382623,-0.00014781,0.00390537,0.02089052,-0.00001665,-0.00003962,0
 .00013622,0.00000064,0.00000033,-0.00000087,-0.00000410,0.00000178,0.0
 0000231,0.00000209,0.00000220,0.00000024,0.00000426,-0.00000581,0.0000
 0258,-0.00000692,-0.00001580,0.00001610,-0.00000766,-0.00000076,-0.000
 00426,-0.00001070,0.00000151,0.00001044,0.00001363,0.00000706,-0.00000
 131,-0.00000302,-0.00000363,0.00000589,-0.00001023,0.00001349,0.000011
 66,0.00004150,-0.00000996,-0.00001230,-0.00005314,-0.00002934,-0.00002
 162,0.00002318,0.00002667,-0.00001002,-0.00002694,0.00006052,-0.000011
 37,-0.00001014,-0.00001978,-0.00000504,-0.00000172,0.00001955,0.000012
 86,-0.00000217,0.00000087,0.00000299,-0.00001008,-0.00000124,0.0000077
 2,-0.00000352,-0.00000059,-0.00000153,-0.00002230,-0.00001543,-0.00000
 994,-0.00007892,0.00135013,-0.00023497,0.00013057,0.00004127,-0.000022
 25,0.00006905,0.00011448,-0.00003784,0.00004340,-0.00025146,-0.0001480
 7,0.00003413,0.00001230,0.00002769,-0.00018883,-0.00002432,0.00006257,
 -0.00001029,-0.00002028,0.00009801,-0.00002525,-0.00009415,0.00000648,
 0.01872977,0.05903059,0.00000065,-0.00000060,0.00000249,0.00000086,-0.
 00000378,-0.00000969,-0.00000160,-0.00000084,0.00000462,0.00001078,0.0
 0001508,0.00001930,0.00001539,0.00000858,0.00000706,0.00002080,-0.0000
 7746,-0.00010002,0.00015618,0.00019742,0.00000127,0.00029411,-0.000514
 98,-0.00019930,-0.00004956,0.00000296,-0.00007015,0.00003224,-0.000071
 40,0.00006358,-0.00003446,-0.00005540,0.00006640,0.00003753,0.00003331
 ,-0.00002197,-0.00000388,0.00001077,0.00006657,-0.00000090,-0.00000480
 ,-0.00003041,-0.00003020,-0.00003278,0.00000715,0.00001205,0.00000828,
 -0.00008336,-0.00023803,0.00414546,-0.00053795,-0.00045767,-0.00025351
 ,0.00024076,-0.00222235,-0.00088953,-0.00038359,0.00054229,-0.00057988
 ,-0.00001099,-0.00016697,0.00009897,0.00003708,0.00019572,-0.00020137,
 -0.00023377,-0.10129468,-0.03909737,-0.28126982,0.00249956,-0.00131607
 ,-0.02177267,0.00000512,-0.00004639,-0.00004126,-0.00000011,-0.0000008
 3,-0.00000036,-0.00000024,0.00000004,0.00000013,-0.00000010,-0.0000001
 4,0.00000031,0.00000030,0.00000103,-0.00000007,0.00000096,-0.00000069,
 -0.00000413,-0.00000029,-0.00000017,-0.00000130,-0.00000112,-0.0000006
 1,-0.00000170,-0.00000237,-0.00000199,-0.00000050,0.00000192,-0.000002
 11,-0.00000643,0.00000179,-0.00000603,-0.00000484,0.00001742,-0.000014
 98,-0.00000912,0.00003651,0.00000607,0.00004103,-0.00002535,-0.0000007
 9,-0.00001562,0.00001553,-0.00006472,0.00003288,-0.00000536,0.00000350
 ,-0.00000328,0.00000111,-0.00000439,-0.00000188,0.00000078,0.00000065,
 -0.00000156,0.00000180,0.00000002,-0.00000098,0.00000221,0.00000029,-0
 .00000042,0.00000398,0.00000141,0.00000256,0.00031352,0.00053687,0.001
 25609,0.00004936,0.00006446,0.00000498,0.00000322,-0.00002594,0.000015
 82,0.00003128,-0.00002412,-0.00004872,-0.00000074,-0.00000725,0.000002
 15,0.00001792,0.00013353,0.00013614,-0.00000991,0.00008200,0.00004579,
 -0.00003652,0.00001891,0.00001853,0.10181569,0.03867700,0.30143096,0.0
 0000093,0.00001040,-0.00000491,-0.00000193,-0.00001904,0.00000685,-0.0
 0000542,-0.00000543,0.00001537,0.00002266,0.00002423,-0.00000194,-0.00
 000100,-0.00002902,-0.00002294,-0.00001936,0.00008285,0.00005584,-0.00
 000734,-0.00016972,0.00007306,0.00009910,0.00022148,0.00034064,0.00005
 822,-0.00000490,0.00005005,-0.00013286,0.00004692,-0.00001304,0.000043
 24,-0.00005427,0.00003302,0.00006758,0.00008025,-0.00000974,-0.0000021
 6,0.00001751,0.00008016,0.00002601,0.00003282,-0.00002377,-0.00007347,
 -0.00007288,0.00001507,0.00000977,-0.00002885,-0.00008343,-0.00189015,
 -0.00443853,-0.00271110,0.00050408,0.00056649,-0.00043172,0.00618635,-
 0.00004042,-0.00066280,0.00017432,-0.00161786,0.00052584,0.00001212,-0
 .00017938,0.00020746,0.00013962,-0.00013781,-0.00003614,-0.25275033,0.
 11439243,-0.03206630,-0.01992425,0.00495300,0.01109477,-0.00000055,-0.
 00000047,0.00000411,-0.00000060,0.00000211,0.00000255,0.00000260,-0.00
 000202,-0.00000187,-0.00000018,-0.00000124,0.00000093,0.00000214,0.000
 00168,-0.00000062,0.00000188,-0.00001183,-0.00001087,-0.00000130,-0.00
 000206,-0.00000056,0.00000114,0.00000111,-0.00000574,-0.00000728,0.000
 00344,0.00000718,0.00000279,0.00000738,0.00000313,0.00000117,0.0000026
 5,0.00000063,0.00001097,-0.00000521,-0.00001400,-0.00001429,0.00003346
 ,0.00000536,0.00003535,0.00007369,0.00001375,-0.00004659,0.00003429,-0
 .00002501,0.00001362,0.00002288,0.00002686,-0.00000415,0.00000528,-0.0
 0000216,-0.00000117,0.00000079,0.00000117,0.00000268,0.00000061,-0.000
 00223,-0.00000255,0.00000203,0.00000018,0.00000222,0.00000415,-0.00000
 058,0.00036341,-0.00102519,0.00018653,0.00055528,0.00034476,0.00007207
 ,0.00002139,0.00003824,-0.00007518,0.00002117,-0.00002453,-0.00001628,
 -0.00008768,-0.00004775,-0.00008697,0.00001759,-0.00030156,0.00002071,
 0.00000171,0.00000811,-0.00008393,0.00004000,-0.00000141,0.00000825,-0
 .00646011,0.00594772,-0.00153551,0.27301215,-0.00000284,0.00001197,-0.
 00000602,0.00001167,-0.00002129,0.00000809,-0.00001832,-0.00000455,0.0
 0004069,0.00002887,0.00001313,-0.00000504,0.00000342,-0.00003494,-0.00
 002128,-0.00010169,0.00003749,0.00006683,0.00010140,-0.00008342,0.0001
 1239,0.00030287,0.00011016,0.00049712,0.00002887,0.00003524,0.00010871
 ,-0.00011842,0.00017246,0.00014681,0.00001530,-0.00008985,-0.00002354,
 0.00003494,0.00003855,0.00001704,-0.00000357,0.00000650,0.00001332,0.0
 0002281,0.00003256,0.00000706,-0.00004950,-0.00003785,0.00000151,0.000
 03252,-0.00002267,-0.00001926,-0.00235651,-0.00533503,-0.00237217,0.00
 164913,0.00050412,-0.00201526,0.02177703,-0.01290425,0.00584518,0.0021
 3165,0.00139577,0.00075415,-0.00011238,0.00031106,-0.00018940,-0.00013
 049,-0.00031173,-0.00016997,0.12100567,-0.11625535,0.01329723,-0.02016
 066,0.01126013,0.00520233,-0.00006225,-0.00007256,-0.00004466,0.000000
 22,0.00000251,0.00000384,0.00000204,-0.00000263,-0.00000076,0.00000028
 ,-0.00000132,-0.00000076,-0.00000411,0.00000090,-0.00000008,0.00001445
 ,-0.00002953,-0.00002181,-0.00000537,-0.00000418,-0.00001760,-0.000003
 60,0.00000220,-0.00000998,-0.00000787,0.00000474,0.00000523,0.00000367
 ,0.00001055,0.00000428,-0.00000270,0.00000351,-0.00000043,0.00000101,-
 0.00000683,-0.00001350,-0.00002770,0.00002975,-0.00001017,0.00000694,0
 .00004078,0.00002440,-0.00002892,-0.00002843,-0.00003501,-0.00000542,-
 0.00000147,-0.00001775,-0.00000410,0.00000427,-0.00000051,-0.00000262,
 0.00000075,0.00000248,0.00000303,-0.00000140,-0.00000100,-0.00000429,0
 .00000432,-0.00000107,0.00000070,-0.00000015,-0.00000482,0.00009624,-0
 .00381900,-0.00220628,-0.00086561,0.00000623,-0.00076522,-0.00005931,0
 .00001913,0.00006716,-0.00003538,0.00002286,0.00000604,-0.00000664,0.0
 0022994,0.00006405,-0.00030581,-0.00011814,0.00054762,-0.00005398,0.00
 018088,0.00009741,0.00010195,0.00019659,-0.00005662,-0.00462286,0.0042
 8921,-0.00079649,-0.11862363,0.12014944,-0.00000149,-0.00000515,0.0000
 0258,0.00000966,0.00000480,-0.00001239,-0.00000377,-0.00000260,0.00000
 673,0.00000419,-0.00001537,0.00000911,0.00001236,0.00000173,0.00001634
 ,-0.00004633,-0.00010716,-0.00005530,0.00009391,0.00036964,-0.00002398
 ,-0.00022793,-0.00029381,-0.00057690,-0.00011704,-0.00000808,-0.000052
 35,0.00010543,-0.00004816,0.00007426,-0.00004098,0.00006881,-0.0000768
 9,-0.00004902,-0.00004888,0.00002080,0.00000212,-0.00001483,-0.0000670
 4,-0.00000592,-0.00000519,0.00002414,0.00003896,0.00004105,-0.00001291
 ,0.00000927,0.00000582,0.00008158,0.00250683,0.00318841,0.00058652,-0.
 00093035,-0.00075992,-0.00120490,0.00697536,-0.00458168,0.00282618,0.0
 0067748,-0.00015772,0.00140753,0.00015154,0.00011188,-0.00016029,-0.00
 037722,0.00027442,0.00033579,-0.04001862,0.01677402,-0.05674733,0.0298
 5228,-0.00944165,-0.00454404,-0.00005478,-0.00013842,-0.00004051,0.000
 00029,-0.00000133,-0.00000109,-0.00000196,0.00000045,0.00000156,0.0000
 0062,0.00000018,-0.00000054,-0.00000175,-0.00000009,0.00000043,0.00000
 306,-0.00000834,-0.00000366,-0.00000287,-0.00000098,-0.00000903,-0.000
 00552,-0.00000080,-0.00000226,0.00000188,-0.00000224,-0.00000389,0.000
 00102,-0.00000175,-0.00000554,-0.00000294,-0.00000226,-0.00000264,-0.0
 0000226,-0.00001115,0.00000245,0.00002842,-0.00002214,-0.00000833,-0.0
 0003609,-0.00004864,-0.00002323,0.00005406,0.00003261,0.00001687,-0.00
 001391,-0.00003580,-0.00004511,0.00000162,-0.00000093,0.00000267,0.000
 00004,-0.00000059,0.00000089,-0.00000074,-0.00000144,0.00000127,-0.000
 00075,0.00000075,-0.00000086,-0.00000242,-0.00000555,-0.00000340,-0.00
 007842,-0.00090152,0.00010320,0.00002946,0.00011064,-0.00027806,0.0000
 1064,-0.00002446,0.00001142,-0.00004419,0.00007660,0.00007136,-0.00005
 940,0.00006525,-0.00001106,0.00021990,0.00017442,-0.00020875,0.0000279
 4,-0.00014922,-0.00003930,-0.00000864,-0.00003869,-0.00010602,-0.02403
 293,0.01370772,0.00131812,0.02514219,-0.01829265,0.05729862,0.00001105
 ,0.00009900,0.00018901,-0.00143124,0.00044737,0.00118641,-0.00149111,-
 0.00217378,0.01047988,-0.00268039,0.00064336,0.00626685,-0.00032349,0.
 00041283,0.00116124,0.00662169,0.00190220,-0.00228721,-0.01277268,-0.0
 1657967,0.00164837,-0.00096638,0.00060667,-0.00081248,-0.00066698,0.00
 038092,0.00039706,0.00050110,0.00029106,0.00136362,-0.00108152,-0.0011
 9605,0.00182437,0.00180357,0.00199671,-0.00059097,-0.00013211,0.000349
 00,0.00260960,0.00043608,0.00036073,-0.00092510,-0.00168739,-0.0018013
 4,0.00060079,-0.00007827,-0.00016967,-0.00287384,0.00086584,-0.0030795
 6,-0.00455743,-0.00842771,-0.00568069,0.00119313,0.00414011,0.00530773
 ,0.00011313,0.00067752,0.00312360,0.00085252,-0.00095079,-0.00144847,0
 .01826137,-0.00081117,-0.00189578,-0.00060428,-0.00032519,0.00046402,0
 .00061795,-0.00025430,0.00041228,0.00327935,-0.03457314,-0.01794373,0.
 03291002,-0.00002835,-0.00005532,-0.00011978,0.00016499,0.00005130,-0.
 00016857,-0.00003136,-0.00005594,-0.00009366,-0.00061555,0.00020914,0.
 00008084,0.00081495,0.00550296,-0.00564176,-0.00027810,0.00007611,-0.0
 0168673,-0.00024400,-0.00045821,-0.00315851,-0.00001283,-0.00026410,-0
 .00052825,-0.00008582,-0.00016477,-0.00007275,0.00016994,-0.00007780,-
 0.00015311,-0.00004162,-0.00001741,-0.00022224,0.00009893,-0.00024789,
 -0.00005863,0.00019213,0.00014698,0.00016425,-0.00016003,0.00051532,-0
 .00029438,0.00019234,-0.00004134,-0.00032457,0.00002366,-0.00010546,-0
 .00007859,0.00000634,-0.00001251,-0.00000011,0.00006192,0.00000889,-0.
 00004601,0.00005555,-0.00004248,0.00005048,0.00035649,0.00007742,0.000
 10659,-0.00008606,-0.00013711,0.00012913,-0.00041632,-0.00013847,0.000
 01467,-0.01280316,-0.00326549,-0.00943576,0.00078944,0.00056444,-0.004
 29109,-0.00036377,0.00030623,-0.00112036,0.00031394,-0.00013339,-0.000
 67927,-0.00030920,0.00004788,0.00022748,0.00004425,0.00017115,0.000029
 28,-0.00005777,0.00009228,-0.00002066,-0.00001856,0.00040987,0.0002076
 9,0.06586453,-0.00124061,-0.00199308,0.00068776,0.00214375,0.00298611,
 -0.00048463,0.00101221,-0.00209090,-0.01496343,0.00098172,0.00883564,0
 .00366026,0.00057078,-0.00003988,0.00003121,0.00582656,0.00172833,-0.0
 0588351,-0.01364279,-0.01313322,0.00727035,0.00067499,-0.00018431,-0.0
 0000074,-0.00063015,0.00068869,-0.00122285,0.00021751,-0.00026879,-0.0
 0049260,-0.00185603,-0.00171637,0.00390107,0.00305261,0.00348992,-0.00
 116962,-0.00018748,0.00061173,0.00424713,0.00072884,0.00074572,-0.0015
 1085,-0.00282068,-0.00300963,0.00094830,0.00022329,-0.00040571,-0.0051
 3130,-0.00689573,-0.02262795,-0.00687665,-0.00248020,-0.04791872,-0.04
 080652,0.00490797,0.00341753,-0.00668697,0.00159035,0.00135985,-0.0005
 2251,-0.00185128,-0.00239914,-0.00038872,-0.00046851,-0.00108763,-0.00
 063632,0.00041949,0.00046851,-0.00042396,-0.00222800,0.00694296,0.0050
 6991,-0.02181081,-0.02459787,0.01894324,0.00028957,-0.00031168,-0.0002
 9359,-0.00037975,0.00020889,0.00064884,0.00010241,0.00012659,-0.000075
 85,-0.00028076,-0.00037639,0.00005010,0.00470365,-0.01270441,0.0082934
 7,0.00014149,-0.00046898,-0.00030486,-0.00118964,0.00083751,0.00331365
 ,-0.00000274,-0.00046100,-0.00066611,0.00037708,0.00021448,-0.00021494
 ,0.00033842,-0.00008608,-0.00006724,-0.00018523,-0.00003568,-0.0000281
 8,0.00058361,-0.00004283,0.00034374,0.00013247,-0.00007778,0.00026708,
 0.00020736,0.00034446,-0.00003438,0.00058262,-0.00020258,0.00002377,-0
 .00001484,-0.00020752,-0.00012362,0.00001549,-0.00000594,-0.00001642,0
 .00011380,0.00001934,-0.00007970,0.00005642,-0.00001044,0.00002899,0.0
 0034219,0.00016048,0.00022390,-0.00025438,-0.00023297,0.00082473,0.000
 26991,-0.00054899,-0.00019831,-0.00471602,0.00082995,0.00048923,0.0007
 2306,-0.00089672,0.00053867,-0.00013631,-0.00050271,0.00188000,0.00018
 477,0.00005143,-0.00025603,-0.00024825,-0.00005474,0.00026348,0.000031
 27,0.00005639,0.00010428,-0.00011669,0.00024047,0.00005079,-0.00011776
 ,0.00005889,0.00017001,0.03220897,0.10427678,0.00016308,0.00066973,-0.
 00026224,0.00210142,-0.00021264,-0.00167239,0.00051351,0.00243278,0.00
 093944,0.00420350,-0.00059225,-0.00742460,0.00018625,-0.00040827,-0.00
 105763,-0.00545070,-0.00422685,0.00264631,0.00485410,0.01158586,0.0046
 0713,-0.00031942,0.00035175,0.00072207,0.00060698,-0.00030647,-0.00118
 691,0.00092599,0.00005675,-0.00153785,-0.00073758,-0.00002982,0.000413
 22,0.00008108,0.00034316,-0.00008666,0.00003773,-0.00002573,-0.0000454
 2,0.00018080,0.00025631,0.00012656,-0.00016488,-0.00036921,-0.00006407
 ,0.00033049,0.00009224,-0.00007279,-0.00728126,-0.01300921,0.00325234,
 0.00093850,-0.04002029,-0.05090722,0.00236514,-0.00296337,-0.00792495,
 0.00139730,-0.00132723,-0.00230064,-0.00216202,-0.00207702,-0.00015759
 ,-0.00044579,-0.00056894,-0.00025325,0.00038601,0.00012286,-0.00107878
 ,0.00098594,0.00685910,0.00339508,0.03331674,0.02025850,-0.04427595,-0
 .00001619,0.00004067,0.00014612,-0.00004246,-0.00016872,0.00003664,-0.
 00000562,-0.00000350,-0.00000248,-0.00040078,-0.00020857,0.00017546,0.
 00313800,-0.00649734,0.00007844,-0.00079963,-0.00168831,-0.00292136,-0
 .00161799,-0.00010678,0.00040091,0.00064070,0.00019377,-0.00054826,-0.
 00022813,-0.00014068,0.00008497,0.00000146,0.00004280,0.00011670,-0.00
 019789,0.00005075,0.00012047,0.00028184,0.00026073,0.00023443,-0.00029
 793,-0.00024682,-0.00003496,0.00014565,-0.00042921,0.00033438,-0.00019
 678,-0.00011416,0.00009785,-0.00002682,-0.00004004,-0.00000356,0.00001
 214,-0.00000512,-0.00000328,-0.00002557,0.00001693,-0.00001520,-0.0000
 1622,0.00005228,-0.00004424,-0.00018781,0.00004421,-0.00006963,0.00004
 087,-0.00047842,-0.00054958,-0.00005498,0.00033874,0.00020822,0.007907
 08,0.00163457,-0.00050630,-0.00077203,0.00118214,0.00092949,0.00078420
 ,0.00180687,-0.00258716,0.00012879,0.00016495,0.00003309,-0.00002824,-
 0.00002790,0.00014648,0.00000038,0.00001104,0.00001071,0.00000442,-0.0
 0004123,0.00004409,-0.00006440,0.00017816,0.00010718,-0.04511896,0.027
 28644,0.10818719\\-0.00000118,0.00000038,0.00000116,0.00000428,-0.0000
 0615,0.00000328,-0.00000116,0.00001126,-0.00003400,-0.00000184,0.00001
 330,-0.00000098,-0.00000382,0.00000397,0.00000432,-0.00000260,-0.00000
 850,-0.00000231,0.00002151,0.00000670,0.00001190,-0.00001755,0.0000054
 9,-0.00000790,0.00000793,0.00000526,0.00000138,0.00000859,-0.00002025,
 0.00000903,0.00000020,0.00000243,-0.00001148,-0.00000139,-0.00000144,0
 .00000285,0.00000004,-0.00000068,-0.00000734,0.00000024,0.00000149,0.0
 0000341,0.00000439,0.00000477,-0.00000358,-0.00000298,-0.00000131,0.00
 001316,0.00000806,0.00002777,0.00002448,0.00000686,-0.00000964,-0.0000
 4666,0.00000333,-0.00000934,0.00000760,-0.00000779,0.00000086,-0.00000
 928,0.00000239,0.00000974,0.00000186,-0.00000211,-0.00000260,0.0000004
 9,-0.00000213,0.00000075,0.00000172,-0.00000125,-0.00001475,-0.0000054
 4,-0.00002252,-0.00001726,-0.00003530,0.00000044,-0.00000035,-0.000000
 36,0.00000035,0.00000305,0.00000127,0.00000079,0.00000024,-0.00000022,
 -0.00000291,-0.00000011,0.00000006,0.00000032,-0.00001195,0.00001266,0
 .00000431,-0.00000054,0.00000397,0.00000044,-0.00000212,0.00001105,-0.
 00000252,0.00000053,0.00000224,0.00000143,-0.00000219,0.00000056,0.000
 00332,0.00000145,-0.00000034,-0.00000034,-0.00000093,-0.00000046,0.000
 00019,-0.00000279,0.00000053,-0.00000258,-0.00000092,-0.00000084,-0.00
 000345,0.00000417,-0.00000022,-0.00000160,0.00000144,-0.00000091,-0.00
 000101,0.00000110,-0.00000161,-0.00000088,-0.00000028,0.00000049,-0.00
 000083,-0.00000019,0.00000080,-0.00000056,0.00000024,0.00000092,0.0000
 0052,0.00000063,-0.00000052,-0.00000003,0.00000142,0.00000207,0.000003
 59,0.00000123,0.00000026,-0.00001645,-0.00000737,0.00001073,-0.0000004
 5,-0.00000259,0.00000154,-0.00000039,-0.00000588,-0.00000325,-0.000000
 98,-0.00000100,0.00000011,-0.00000059,-0.00000086,0.00000015,0.0000005
 1,-0.00000067,-0.00000058,-0.00000094,-0.00000096,0.00000122,-0.000000
 09,0.00000030,-0.00000015,0.00002092,0.00002366,0.00003647\\\@
 The archive entry for this job was punched.


 QUHEN THE CAUSS IS TAKEN AWAY THE EFFECT WANISHETH.
 -- PROVERBS AND REASONS OF THE YEAR 1585
           AS REPRINTED IN PAISLEY MAGAZINE 1828.
 Job cpu time:       0 days  9 hours  0 minutes 36.3 seconds.
 Elapsed time:       0 days  0 hours 16 minutes 58.4 seconds.
 File lengths (MBytes):  RWF=   2538 Int=      0 D2E=      0 Chk=     24 Scr=      1
 Normal termination of Gaussian 16 at Thu Aug  1 12:08:59 2024.
