 Entering Gaussian System, Link 0=g16
 Initial command:
 /public/software/apps/Gaussian/g16/l1.exe "/tmp/Gau-88058.inp" -scrdir="/tmp/"
 Entering Link 1 = /public/software/apps/Gaussian/g16/l1.exe PID=     88059.
  
 Copyright (c) 1988-2019, Gaussian, Inc.  All Rights Reserved.
  
 This is part of the Gaussian(R) 16 program.  It is based on
 the Gaussian(R) 09 system (copyright 2009, Gaussian, Inc.),
 the Gaussian(R) 03 system (copyright 2003, Gaussian, Inc.),
 the Gaussian(R) 98 system (copyright 1998, Gaussian, Inc.),
 the Gaussian(R) 94 system (copyright 1995, Gaussian, Inc.),
 the Gaussian 92(TM) system (copyright 1992, Gaussian, Inc.),
 the Gaussian 90(TM) system (copyright 1990, Gaussian, Inc.),
 the Gaussian 88(TM) system (copyright 1988, Gaussian, Inc.),
 the Gaussian 86(TM) system (copyright 1986, Carnegie Mellon
 University), and the Gaussian 82(TM) system (copyright 1983,
 Carnegie Mellon University). Gaussian is a federally registered
 trademark of Gaussian, Inc.
  
 This software contains proprietary and confidential information,
 including trade secrets, belonging to Gaussian, Inc.
  
 This software is provided under written license and may be
 used, copied, transmitted, or stored only in accord with that
 written license.
  
 The following legend is applicable only to US Government
 contracts under FAR:
  
                    RESTRICTED RIGHTS LEGEND
  
 Use, reproduction and disclosure by the US Government is
 subject to restrictions as set forth in subparagraphs (a)
 and (c) of the Commercial Computer Software - Restricted
 Rights clause in FAR 52.227-19.
  
 Gaussian, Inc.
 340 Quinnipiac St., Bldg. 40, Wallingford CT 06492
  
  
 ---------------------------------------------------------------
 Warning -- This program may not be used in any manner that
 competes with the business of Gaussian, Inc. or will provide
 assistance to any competitor of Gaussian, Inc.  The licensee
 of this program is prohibited from giving any competitor of
 Gaussian, Inc. access to this program.  By using this program,
 the user acknowledges that Gaussian, Inc. is engaged in the
 business of creating and licensing software in the field of
 computational chemistry and represents and warrants to the
 licensee that it is not a competitor of Gaussian, Inc. and that
 it will not use this program in any manner prohibited above.
 ---------------------------------------------------------------
  

 Cite this work as:
 Gaussian 16, Revision C.01,
 M. J. Frisch, G. W. Trucks, H. B. Schlegel, G. E. Scuseria, 
 M. A. Robb, J. R. Cheeseman, G. Scalmani, V. Barone, 
 G. A. Petersson, H. Nakatsuji, X. Li, M. Caricato, A. V. Marenich, 
 J. Bloino, B. G. Janesko, R. Gomperts, B. Mennucci, H. P. Hratchian, 
 J. V. Ortiz, A. F. Izmaylov, J. L. Sonnenberg, D. Williams-Young, 
 F. Ding, F. Lipparini, F. Egidi, J. Goings, B. Peng, A. Petrone, 
 T. Henderson, D. Ranasinghe, V. G. Zakrzewski, J. Gao, N. Rega, 
 G. Zheng, W. Liang, M. Hada, M. Ehara, K. Toyota, R. Fukuda, 
 J. Hasegawa, M. Ishida, T. Nakajima, Y. Honda, O. Kitao, H. Nakai, 
 T. Vreven, K. Throssell, J. A. Montgomery, Jr., J. E. Peralta, 
 F. Ogliaro, M. J. Bearpark, J. J. Heyd, E. N. Brothers, K. N. Kudin, 
 V. N. Staroverov, T. A. Keith, R. Kobayashi, J. Normand, 
 K. Raghavachari, A. P. Rendell, J. C. Burant, S. S. Iyengar, 
 J. Tomasi, M. Cossi, J. M. Millam, M. Klene, C. Adamo, R. Cammi, 
 J. W. Ochterski, R. L. Martin, K. Morokuma, O. Farkas, 
 J. B. Foresman, and D. J. Fox, Gaussian, Inc., Wallingford CT, 2019.
 
 ******************************************
 Gaussian 16:  ES64L-G16RevC.01  3-Jul-2019
                 1-Aug-2024 
 ******************************************
 %nprocshared=32
 Will use up to   32 processors via shared memory.
 %mem=100GB
 ------------------------------------------
 #p opt freq b3lyp nosymm def2svpp em=gd3bj
 ------------------------------------------
 1/18=20,19=15,26=3,38=1/1,3;
 2/9=110,12=2,15=1,17=6,18=5,40=1/2;
 3/5=43,7=202,11=2,25=1,30=1,71=1,74=-5,124=41/1,2,3;
 4//1;
 5/5=2,38=5/2;
 6/7=2,8=2,9=2,10=2,28=1/1;
 7/30=1/1,2,3,16;
 1/18=20,19=15,26=3/3(2);
 2/9=110,15=1/2;
 99//99;
 2/9=110,15=1/2;
 3/5=43,7=202,11=2,25=1,30=1,71=1,74=-5,124=41/1,2,3;
 4/5=5,16=3,69=1/1;
 5/5=2,38=5/2;
 7/30=1/1,2,3,16;
 1/18=20,19=15,26=3/3(-5);
 2/9=110,15=1/2;
 6/7=2,8=2,9=2,10=2,19=2,28=1/1;
 99/9=1/99;
 Leave Link    1 at Thu Aug  1 10:46:02 2024, MaxMem= 13421772800 cpu:               0.8 elap:               0.0
 (Enter /public/software/apps/Gaussian/g16/l101.exe)
 ------------------
 $$$$Title####2????
 ------------------
 Symbolic Z-matrix:
 Charge =  2 Multiplicity = 2
 C                    -5.02759  -1.70458  -0.61548 
 C                    -5.33137  -0.89019   0.47838 
 C                    -4.31861  -0.17042   1.12016 
 C                    -2.99085  -0.25413   0.66628 
 C                    -1.89736   0.50948   1.37956 
 C                    -0.93811  -0.41979   2.14993 
 O                     0.32208  -0.14159   1.56844 
 C                     0.17606   0.81454   0.58254 
 C                     1.27695   1.30856  -0.2703 
 N                     0.95184   2.20026  -1.24723 
 C                     1.85736   2.67953  -2.13623 
 C                     3.18101   2.25552  -2.08309 
 C                     3.57687   1.35709  -1.0863 
 C                     4.91622   0.94424  -1.00749 
 C                     5.32705   0.08163   0.0086 
 C                     4.41114  -0.36354   0.96089 
 C                     3.07333   0.03485   0.89478 
 C                     2.62603   0.87916  -0.14503 
 N                    -1.04252   1.20075   0.42159 
 C                    -2.69344  -1.08615  -0.42994 
 C                    -3.70959  -1.80378  -1.06799 
 H                    -5.81285  -2.26157  -1.11003 
 H                    -6.35213  -0.81828   0.83107 
 H                    -4.57114   0.45094   1.97036 
 H                    -2.32848   1.26276   2.07595 
 H                    -1.18019  -1.49739   2.02293 
 H                    -0.91747  -0.1624    3.2305 
 H                     1.54387   3.38409  -2.89492 
 H                     3.8924    2.63788  -2.80559 
 H                     5.6467    1.2962   -1.72647 
 H                     6.36193  -0.23003   0.06747 
 H                     4.74117  -1.01344   1.76124 
 H                     2.41762  -0.3015    1.68172 
 H                    -1.67573  -1.18139  -0.7875 
 H                    -3.47444  -2.43943  -1.91188 
 Cu                   -0.98288   2.48296  -1.11141 
 
 ITRead=  0  0  0  0  0  0  0  0  0  0  0  0  0  0  0  0  0  0  0  0
 ITRead=  0  0  0  0  0  0  0  0  0  0  0  0  0  0  0  0
 MicOpt= -1 -1 -1 -1 -1 -1 -1 -1 -1 -1 -1 -1 -1 -1 -1 -1 -1 -1 -1 -1
 MicOpt= -1 -1 -1 -1 -1 -1 -1 -1 -1 -1 -1 -1 -1 -1 -1 -1
 NAtoms=     36 NQM=       36 NQMF=       0 NMMI=      0 NMMIF=      0
                NMic=       0 NMicF=      0.
                    Isotopes and Nuclear Properties:
 (Nuclear quadrupole moments (NQMom) in fm**2, nuclear magnetic moments (NMagM)
  in nuclear magnetons)

  Atom         1           2           3           4           5           6           7           8           9          10
 IAtWgt=          12          12          12          12          12          12          16          12          12          14
 AtmWgt=  12.0000000  12.0000000  12.0000000  12.0000000  12.0000000  12.0000000  15.9949146  12.0000000  12.0000000  14.0030740
 NucSpn=           0           0           0           0           0           0           0           0           0           2
 AtZEff=  -0.0000000  -0.0000000  -0.0000000  -0.0000000  -0.0000000  -0.0000000  -0.0000000  -0.0000000  -0.0000000  -0.0000000
 NQMom=    0.0000000   0.0000000   0.0000000   0.0000000   0.0000000   0.0000000   0.0000000   0.0000000   0.0000000   2.0440000
 NMagM=    0.0000000   0.0000000   0.0000000   0.0000000   0.0000000   0.0000000   0.0000000   0.0000000   0.0000000   0.4037610
 AtZNuc=   6.0000000   6.0000000   6.0000000   6.0000000   6.0000000   6.0000000   8.0000000   6.0000000   6.0000000   7.0000000

  Atom        11          12          13          14          15          16          17          18          19          20
 IAtWgt=          12          12          12          12          12          12          12          12          14          12
 AtmWgt=  12.0000000  12.0000000  12.0000000  12.0000000  12.0000000  12.0000000  12.0000000  12.0000000  14.0030740  12.0000000
 NucSpn=           0           0           0           0           0           0           0           0           2           0
 AtZEff=  -0.0000000  -0.0000000  -0.0000000  -0.0000000  -0.0000000  -0.0000000  -0.0000000  -0.0000000  -0.0000000  -0.0000000
 NQMom=    0.0000000   0.0000000   0.0000000   0.0000000   0.0000000   0.0000000   0.0000000   0.0000000   2.0440000   0.0000000
 NMagM=    0.0000000   0.0000000   0.0000000   0.0000000   0.0000000   0.0000000   0.0000000   0.0000000   0.4037610   0.0000000
 AtZNuc=   6.0000000   6.0000000   6.0000000   6.0000000   6.0000000   6.0000000   6.0000000   6.0000000   7.0000000   6.0000000

  Atom        21          22          23          24          25          26          27          28          29          30
 IAtWgt=          12           1           1           1           1           1           1           1           1           1
 AtmWgt=  12.0000000   1.0078250   1.0078250   1.0078250   1.0078250   1.0078250   1.0078250   1.0078250   1.0078250   1.0078250
 NucSpn=           0           1           1           1           1           1           1           1           1           1
 AtZEff=  -0.0000000  -0.0000000  -0.0000000  -0.0000000  -0.0000000  -0.0000000  -0.0000000  -0.0000000  -0.0000000  -0.0000000
 NQMom=    0.0000000   0.0000000   0.0000000   0.0000000   0.0000000   0.0000000   0.0000000   0.0000000   0.0000000   0.0000000
 NMagM=    0.0000000   2.7928460   2.7928460   2.7928460   2.7928460   2.7928460   2.7928460   2.7928460   2.7928460   2.7928460
 AtZNuc=   6.0000000   1.0000000   1.0000000   1.0000000   1.0000000   1.0000000   1.0000000   1.0000000   1.0000000   1.0000000

  Atom        31          32          33          34          35          36
 IAtWgt=           1           1           1           1           1          63
 AtmWgt=   1.0078250   1.0078250   1.0078250   1.0078250   1.0078250  62.9295992
 NucSpn=           1           1           1           1           1           3
 AtZEff=  -0.0000000  -0.0000000  -0.0000000  -0.0000000  -0.0000000  -0.0000000
 NQMom=    0.0000000   0.0000000   0.0000000   0.0000000   0.0000000 -22.0000000
 NMagM=    2.7928460   2.7928460   2.7928460   2.7928460   2.7928460   2.2233000
 AtZNuc=   1.0000000   1.0000000   1.0000000   1.0000000   1.0000000  29.0000000
 Leave Link  101 at Thu Aug  1 10:46:03 2024, MaxMem= 13421772800 cpu:               3.9 elap:               0.1
 (Enter /public/software/apps/Gaussian/g16/l103.exe)

 GradGradGradGradGradGradGradGradGradGradGradGradGradGradGradGradGradGrad
 Berny optimization.
 Initialization pass.
                           ----------------------------
                           !    Initial Parameters    !
                           ! (Angstroms and Degrees)  !
 --------------------------                            --------------------------
 ! Name  Definition              Value          Derivative Info.                !
 --------------------------------------------------------------------------------
 ! R1    R(1,2)                  1.3972         estimate D2E/DX2                !
 ! R2    R(1,21)                 1.397          estimate D2E/DX2                !
 ! R3    R(1,22)                 1.0823         estimate D2E/DX2                !
 ! R4    R(2,3)                  1.3984         estimate D2E/DX2                !
 ! R5    R(2,23)                 1.0824         estimate D2E/DX2                !
 ! R6    R(3,4)                  1.4057         estimate D2E/DX2                !
 ! R7    R(3,24)                 1.0829         estimate D2E/DX2                !
 ! R8    R(4,5)                  1.5125         estimate D2E/DX2                !
 ! R9    R(4,20)                 1.408          estimate D2E/DX2                !
 ! R10   R(5,6)                  1.5418         estimate D2E/DX2                !
 ! R11   R(5,19)                 1.4582         estimate D2E/DX2                !
 ! R12   R(5,25)                 1.1128         estimate D2E/DX2                !
 ! R13   R(6,7)                  1.4155         estimate D2E/DX2                !
 ! R14   R(6,26)                 1.1117         estimate D2E/DX2                !
 ! R15   R(6,27)                 1.111          estimate D2E/DX2                !
 ! R16   R(7,8)                  1.3811         estimate D2E/DX2                !
 ! R17   R(8,9)                  1.4776         estimate D2E/DX2                !
 ! R18   R(8,19)                 1.2884         estimate D2E/DX2                !
 ! R19   R(9,10)                 1.3621         estimate D2E/DX2                !
 ! R20   R(9,18)                 1.4213         estimate D2E/DX2                !
 ! R21   R(10,11)                1.3565         estimate D2E/DX2                !
 ! R22   R(10,36)                1.96           estimate D2E/DX2                !
 ! R23   R(11,12)                1.3909         estimate D2E/DX2                !
 ! R24   R(11,28)                1.0818         estimate D2E/DX2                !
 ! R25   R(12,13)                1.3991         estimate D2E/DX2                !
 ! R26   R(12,29)                1.0836         estimate D2E/DX2                !
 ! R27   R(13,14)                1.4038         estimate D2E/DX2                !
 ! R28   R(13,18)                1.4207         estimate D2E/DX2                !
 ! R29   R(14,15)                1.3947         estimate D2E/DX2                !
 ! R30   R(14,30)                1.0837         estimate D2E/DX2                !
 ! R31   R(15,16)                1.3942         estimate D2E/DX2                !
 ! R32   R(15,31)                1.0824         estimate D2E/DX2                !
 ! R33   R(16,17)                1.3974         estimate D2E/DX2                !
 ! R34   R(16,32)                1.0825         estimate D2E/DX2                !
 ! R35   R(17,18)                1.4121         estimate D2E/DX2                !
 ! R36   R(17,33)                1.0781         estimate D2E/DX2                !
 ! R37   R(19,36)                1.9994         estimate D2E/DX2                !
 ! R38   R(20,21)                1.3981         estimate D2E/DX2                !
 ! R39   R(20,34)                1.0829         estimate D2E/DX2                !
 ! R40   R(21,35)                1.0824         estimate D2E/DX2                !
 ! A1    A(2,1,21)             120.007          estimate D2E/DX2                !
 ! A2    A(2,1,22)             119.9971         estimate D2E/DX2                !
 ! A3    A(21,1,22)            119.9955         estimate D2E/DX2                !
 ! A4    A(1,2,3)              120.1226         estimate D2E/DX2                !
 ! A5    A(1,2,23)             119.9268         estimate D2E/DX2                !
 ! A6    A(3,2,23)             119.9504         estimate D2E/DX2                !
 ! A7    A(2,3,4)              120.3466         estimate D2E/DX2                !
 ! A8    A(2,3,24)             119.1273         estimate D2E/DX2                !
 ! A9    A(4,3,24)             120.5261         estimate D2E/DX2                !
 ! A10   A(3,4,5)              120.0373         estimate D2E/DX2                !
 ! A11   A(3,4,20)             119.0845         estimate D2E/DX2                !
 ! A12   A(5,4,20)             120.8509         estimate D2E/DX2                !
 ! A13   A(4,5,6)              112.4045         estimate D2E/DX2                !
 ! A14   A(4,5,19)             110.6928         estimate D2E/DX2                !
 ! A15   A(4,5,25)             110.9041         estimate D2E/DX2                !
 ! A16   A(6,5,19)             104.4327         estimate D2E/DX2                !
 ! A17   A(6,5,25)             109.6548         estimate D2E/DX2                !
 ! A18   A(19,5,25)            108.5029         estimate D2E/DX2                !
 ! A19   A(5,6,7)              103.3078         estimate D2E/DX2                !
 ! A20   A(5,6,26)             113.0576         estimate D2E/DX2                !
 ! A21   A(5,6,27)             110.9709         estimate D2E/DX2                !
 ! A22   A(7,6,26)             109.7211         estimate D2E/DX2                !
 ! A23   A(7,6,27)             109.7235         estimate D2E/DX2                !
 ! A24   A(26,6,27)            109.8593         estimate D2E/DX2                !
 ! A25   A(6,7,8)              109.5837         estimate D2E/DX2                !
 ! A26   A(7,8,9)              124.3813         estimate D2E/DX2                !
 ! A27   A(7,8,19)             113.3715         estimate D2E/DX2                !
 ! A28   A(9,8,19)             122.1632         estimate D2E/DX2                !
 ! A29   A(8,9,10)             117.0664         estimate D2E/DX2                !
 ! A30   A(8,9,18)             123.7314         estimate D2E/DX2                !
 ! A31   A(10,9,18)            119.1807         estimate D2E/DX2                !
 ! A32   A(9,10,11)            122.8221         estimate D2E/DX2                !
 ! A33   A(9,10,36)            106.2804         estimate D2E/DX2                !
 ! A34   A(11,10,36)           130.7997         estimate D2E/DX2                !
 ! A35   A(10,11,12)           120.1675         estimate D2E/DX2                !
 ! A36   A(10,11,28)           119.7552         estimate D2E/DX2                !
 ! A37   A(12,11,28)           120.0731         estimate D2E/DX2                !
 ! A38   A(11,12,13)           119.4874         estimate D2E/DX2                !
 ! A39   A(11,12,29)           119.4515         estimate D2E/DX2                !
 ! A40   A(13,12,29)           121.0547         estimate D2E/DX2                !
 ! A41   A(12,13,14)           119.9218         estimate D2E/DX2                !
 ! A42   A(12,13,18)           119.9119         estimate D2E/DX2                !
 ! A43   A(14,13,18)           120.1605         estimate D2E/DX2                !
 ! A44   A(13,14,15)           120.2541         estimate D2E/DX2                !
 ! A45   A(13,14,30)           120.6886         estimate D2E/DX2                !
 ! A46   A(15,14,30)           119.0549         estimate D2E/DX2                !
 ! A47   A(14,15,16)           120.1033         estimate D2E/DX2                !
 ! A48   A(14,15,31)           119.9557         estimate D2E/DX2                !
 ! A49   A(16,15,31)           119.9337         estimate D2E/DX2                !
 ! A50   A(15,16,17)           120.3683         estimate D2E/DX2                !
 ! A51   A(15,16,32)           119.7617         estimate D2E/DX2                !
 ! A52   A(17,16,32)           119.8672         estimate D2E/DX2                !
 ! A53   A(16,17,18)           120.5656         estimate D2E/DX2                !
 ! A54   A(16,17,33)           117.3083         estimate D2E/DX2                !
 ! A55   A(18,17,33)           122.0958         estimate D2E/DX2                !
 ! A56   A(9,18,13)            118.3741         estimate D2E/DX2                !
 ! A57   A(9,18,17)            123.1064         estimate D2E/DX2                !
 ! A58   A(13,18,17)           118.4878         estimate D2E/DX2                !
 ! A59   A(5,19,8)             109.2862         estimate D2E/DX2                !
 ! A60   A(5,19,36)            145.6086         estimate D2E/DX2                !
 ! A61   A(8,19,36)            105.0585         estimate D2E/DX2                !
 ! A62   A(4,20,21)            120.3393         estimate D2E/DX2                !
 ! A63   A(4,20,34)            120.5017         estimate D2E/DX2                !
 ! A64   A(21,20,34)           119.1587         estimate D2E/DX2                !
 ! A65   A(1,21,20)            120.0939         estimate D2E/DX2                !
 ! A66   A(1,21,35)            119.9476         estimate D2E/DX2                !
 ! A67   A(20,21,35)           119.9582         estimate D2E/DX2                !
 ! A68   A(10,36,19)            89.4315         estimate D2E/DX2                !
 ! D1    D(21,1,2,3)             0.1657         estimate D2E/DX2                !
 ! D2    D(21,1,2,23)         -179.6842         estimate D2E/DX2                !
 ! D3    D(22,1,2,3)           179.9361         estimate D2E/DX2                !
 ! D4    D(22,1,2,23)            0.0862         estimate D2E/DX2                !
 ! D5    D(2,1,21,20)           -0.1717         estimate D2E/DX2                !
 ! D6    D(2,1,21,35)          179.6454         estimate D2E/DX2                !
 ! D7    D(22,1,21,20)        -179.9421         estimate D2E/DX2                !
 ! D8    D(22,1,21,35)          -0.125          estimate D2E/DX2                !
 ! D9    D(1,2,3,4)              0.3665         estimate D2E/DX2                !
 ! D10   D(1,2,3,24)          -179.6131         estimate D2E/DX2                !
 ! D11   D(23,2,3,4)          -179.7837         estimate D2E/DX2                !
 ! D12   D(23,2,3,24)            0.2367         estimate D2E/DX2                !
 ! D13   D(2,3,4,5)           -178.9962         estimate D2E/DX2                !
 ! D14   D(2,3,4,20)            -0.8798         estimate D2E/DX2                !
 ! D15   D(24,3,4,5)             0.9831         estimate D2E/DX2                !
 ! D16   D(24,3,4,20)          179.0995         estimate D2E/DX2                !
 ! D17   D(3,4,5,6)            109.8253         estimate D2E/DX2                !
 ! D18   D(3,4,5,19)          -133.8213         estimate D2E/DX2                !
 ! D19   D(3,4,5,25)           -13.3299         estimate D2E/DX2                !
 ! D20   D(20,4,5,6)           -68.2573         estimate D2E/DX2                !
 ! D21   D(20,4,5,19)           48.096          estimate D2E/DX2                !
 ! D22   D(20,4,5,25)          168.5874         estimate D2E/DX2                !
 ! D23   D(3,4,20,21)            0.8737         estimate D2E/DX2                !
 ! D24   D(3,4,20,34)         -178.9139         estimate D2E/DX2                !
 ! D25   D(5,4,20,21)          178.9743         estimate D2E/DX2                !
 ! D26   D(5,4,20,34)           -0.8133         estimate D2E/DX2                !
 ! D27   D(4,5,6,7)            120.8549         estimate D2E/DX2                !
 ! D28   D(4,5,6,26)             2.3299         estimate D2E/DX2                !
 ! D29   D(4,5,6,27)          -121.6255         estimate D2E/DX2                !
 ! D30   D(19,5,6,7)             0.8043         estimate D2E/DX2                !
 ! D31   D(19,5,6,26)         -117.7208         estimate D2E/DX2                !
 ! D32   D(19,5,6,27)          118.3239         estimate D2E/DX2                !
 ! D33   D(25,5,6,7)          -115.2925         estimate D2E/DX2                !
 ! D34   D(25,5,6,26)          126.1824         estimate D2E/DX2                !
 ! D35   D(25,5,6,27)            2.2271         estimate D2E/DX2                !
 ! D36   D(4,5,19,8)          -122.5176         estimate D2E/DX2                !
 ! D37   D(4,5,19,36)           54.3689         estimate D2E/DX2                !
 ! D38   D(6,5,19,8)            -1.325          estimate D2E/DX2                !
 ! D39   D(6,5,19,36)          175.5615         estimate D2E/DX2                !
 ! D40   D(25,5,19,8)          115.571          estimate D2E/DX2                !
 ! D41   D(25,5,19,36)         -67.5425         estimate D2E/DX2                !
 ! D42   D(5,6,7,8)             -0.0768         estimate D2E/DX2                !
 ! D43   D(26,6,7,8)           120.7423         estimate D2E/DX2                !
 ! D44   D(27,6,7,8)          -118.4681         estimate D2E/DX2                !
 ! D45   D(6,7,8,9)           -177.5406         estimate D2E/DX2                !
 ! D46   D(6,7,8,19)            -0.8188         estimate D2E/DX2                !
 ! D47   D(7,8,9,10)           176.4449         estimate D2E/DX2                !
 ! D48   D(7,8,9,18)            -1.8529         estimate D2E/DX2                !
 ! D49   D(19,8,9,10)            0.0            estimate D2E/DX2                !
 ! D50   D(19,8,9,18)         -178.2977         estimate D2E/DX2                !
 ! D51   D(7,8,19,5)             1.3753         estimate D2E/DX2                !
 ! D52   D(7,8,19,36)         -176.8041         estimate D2E/DX2                !
 ! D53   D(9,8,19,5)           178.1794         estimate D2E/DX2                !
 ! D54   D(9,8,19,36)            0.0            estimate D2E/DX2                !
 ! D55   D(8,9,10,11)         -176.7576         estimate D2E/DX2                !
 ! D56   D(8,9,10,36)            0.0            estimate D2E/DX2                !
 ! D57   D(18,9,10,11)           1.621          estimate D2E/DX2                !
 ! D58   D(18,9,10,36)         178.3785         estimate D2E/DX2                !
 ! D59   D(8,9,18,13)          175.6098         estimate D2E/DX2                !
 ! D60   D(8,9,18,17)           -6.4703         estimate D2E/DX2                !
 ! D61   D(10,9,18,13)          -2.654          estimate D2E/DX2                !
 ! D62   D(10,9,18,17)         175.2659         estimate D2E/DX2                !
 ! D63   D(9,10,11,12)           0.5186         estimate D2E/DX2                !
 ! D64   D(9,10,11,28)         179.7785         estimate D2E/DX2                !
 ! D65   D(36,10,11,12)       -175.3685         estimate D2E/DX2                !
 ! D66   D(36,10,11,28)          3.8914         estimate D2E/DX2                !
 ! D67   D(9,10,36,19)           0.0            estimate D2E/DX2                !
 ! D68   D(11,10,36,19)        176.4001         estimate D2E/DX2                !
 ! D69   D(10,11,12,13)         -1.5504         estimate D2E/DX2                !
 ! D70   D(10,11,12,29)        179.3532         estimate D2E/DX2                !
 ! D71   D(28,11,12,13)        179.192          estimate D2E/DX2                !
 ! D72   D(28,11,12,29)          0.0957         estimate D2E/DX2                !
 ! D73   D(11,12,13,14)       -178.7047         estimate D2E/DX2                !
 ! D74   D(11,12,13,18)          0.4292         estimate D2E/DX2                !
 ! D75   D(29,12,13,14)          0.3767         estimate D2E/DX2                !
 ! D76   D(29,12,13,18)        179.5106         estimate D2E/DX2                !
 ! D77   D(12,13,14,15)        177.9916         estimate D2E/DX2                !
 ! D78   D(12,13,14,30)         -1.4401         estimate D2E/DX2                !
 ! D79   D(18,13,14,15)         -1.1401         estimate D2E/DX2                !
 ! D80   D(18,13,14,30)        179.4281         estimate D2E/DX2                !
 ! D81   D(12,13,18,9)           1.6464         estimate D2E/DX2                !
 ! D82   D(12,13,18,17)       -176.3712         estimate D2E/DX2                !
 ! D83   D(14,13,18,9)        -179.2218         estimate D2E/DX2                !
 ! D84   D(14,13,18,17)          2.7606         estimate D2E/DX2                !
 ! D85   D(13,14,15,16)         -0.7115         estimate D2E/DX2                !
 ! D86   D(13,14,15,31)       -179.7198         estimate D2E/DX2                !
 ! D87   D(30,14,15,16)        178.7295         estimate D2E/DX2                !
 ! D88   D(30,14,15,31)         -0.2788         estimate D2E/DX2                !
 ! D89   D(14,15,16,17)          0.8903         estimate D2E/DX2                !
 ! D90   D(14,15,16,32)       -178.4978         estimate D2E/DX2                !
 ! D91   D(31,15,16,17)        179.8988         estimate D2E/DX2                !
 ! D92   D(31,15,16,32)          0.5106         estimate D2E/DX2                !
 ! D93   D(15,16,17,18)          0.7977         estimate D2E/DX2                !
 ! D94   D(15,16,17,33)       -177.2425         estimate D2E/DX2                !
 ! D95   D(32,16,17,18)       -179.8148         estimate D2E/DX2                !
 ! D96   D(32,16,17,33)          2.145          estimate D2E/DX2                !
 ! D97   D(16,17,18,9)         179.4872         estimate D2E/DX2                !
 ! D98   D(16,17,18,13)         -2.5951         estimate D2E/DX2                !
 ! D99   D(33,17,18,9)          -2.5683         estimate D2E/DX2                !
 ! D100  D(33,17,18,13)        175.3493         estimate D2E/DX2                !
 ! D101  D(5,19,36,10)        -176.9568         estimate D2E/DX2                !
 ! D102  D(8,19,36,10)           0.0            estimate D2E/DX2                !
 ! D103  D(4,20,21,1)           -0.3536         estimate D2E/DX2                !
 ! D104  D(4,20,21,35)         179.8292         estimate D2E/DX2                !
 ! D105  D(34,20,21,1)         179.4368         estimate D2E/DX2                !
 ! D106  D(34,20,21,35)         -0.3803         estimate D2E/DX2                !
 --------------------------------------------------------------------------------
 Trust Radius=3.00D-01 FncErr=1.00D-07 GrdErr=1.00D-06 EigMax=2.50D+02 EigMin=1.00D-04
 Number of steps in this run=    216 maximum allowed number of steps=    216.
 GradGradGradGradGradGradGradGradGradGradGradGradGradGradGradGradGradGrad

 Leave Link  103 at Thu Aug  1 10:46:03 2024, MaxMem= 13421772800 cpu:               0.2 elap:               0.0
 (Enter /public/software/apps/Gaussian/g16/l202.exe)
                          Input orientation:                          
 ---------------------------------------------------------------------
 Center     Atomic      Atomic             Coordinates (Angstroms)
 Number     Number       Type             X           Y           Z
 ---------------------------------------------------------------------
      1          6           0       -5.027589   -1.704583   -0.615482
      2          6           0       -5.331368   -0.890193    0.478379
      3          6           0       -4.318610   -0.170422    1.120157
      4          6           0       -2.990847   -0.254131    0.666282
      5          6           0       -1.897359    0.509483    1.379557
      6          6           0       -0.938108   -0.419791    2.149928
      7          8           0        0.322080   -0.141593    1.568439
      8          6           0        0.176060    0.814535    0.582544
      9          6           0        1.276947    1.308562   -0.270304
     10          7           0        0.951836    2.200263   -1.247232
     11          6           0        1.857360    2.679526   -2.136232
     12          6           0        3.181011    2.255516   -2.083085
     13          6           0        3.576870    1.357092   -1.086301
     14          6           0        4.916221    0.944242   -1.007492
     15          6           0        5.327046    0.081631    0.008597
     16          6           0        4.411138   -0.363538    0.960888
     17          6           0        3.073332    0.034850    0.894783
     18          6           0        2.626025    0.879162   -0.145032
     19          7           0       -1.042518    1.200746    0.421585
     20          6           0       -2.693441   -1.086152   -0.429935
     21          6           0       -3.709590   -1.803784   -1.067989
     22          1           0       -5.812853   -2.261574   -1.110034
     23          1           0       -6.352130   -0.818280    0.831068
     24          1           0       -4.571137    0.450942    1.970361
     25          1           0       -2.328475    1.262764    2.075949
     26          1           0       -1.180192   -1.497386    2.022935
     27          1           0       -0.917466   -0.162398    3.230498
     28          1           0        1.543874    3.384091   -2.894919
     29          1           0        3.892400    2.637882   -2.805593
     30          1           0        5.646696    1.296195   -1.726469
     31          1           0        6.361934   -0.230032    0.067472
     32          1           0        4.741165   -1.013439    1.761237
     33          1           0        2.417619   -0.301497    1.681724
     34          1           0       -1.675734   -1.181387   -0.787495
     35          1           0       -3.474441   -2.439429   -1.911875
     36         29           0       -0.982877    2.482964   -1.111409
 ---------------------------------------------------------------------
                    Distance matrix (angstroms):
                    1          2          3          4          5
     1  C    0.000000
     2  C    1.397156   0.000000
     3  C    2.422549   1.398438   0.000000
     4  C    2.809813   2.432678   1.405690   0.000000
     5  C    4.322107   3.816233   2.528244   1.512476   0.000000
     6  C    5.101180   4.723991   3.542655   2.538186   1.541812
     7  O    5.985934   5.806041   4.662380   3.435409   2.320665
     8  C    5.904167   5.766170   4.632626   3.343405   2.242176
     9  C    6.996096   7.004633   5.952397   4.640395   3.665622
    10  N    7.169411   7.211609   6.245180   5.022980   4.228081
    11  C    8.302748   8.441380   7.541146   6.321831   5.582811
    12  C    9.231325   9.429591   8.508246   7.207578   6.389708
    13  C    9.145067   9.319615   8.339087   6.985878   6.063504
    14  C   10.298024  10.515990   9.542089   8.170639   7.232696
    15  C   10.526087  10.712933   9.712764   8.350607   7.365773
    16  C    9.662966   9.768654   8.733336   7.408653   6.382365
    17  C    8.422081   8.465700   7.398225   6.075359   5.016777
    18  C    8.091655   8.175535   7.136546   5.787213   4.787697
    19  N    5.039567   4.771738   3.619514   2.443876   1.458187
    20  C    2.421803   2.796801   2.425391   1.407978   2.540484
    21  C    1.397041   2.419931   2.797635   2.434279   3.824378
    22  H    1.082340   2.153037   3.402856   3.892152   5.404435
    23  H    2.152312   1.082366   2.153717   3.412278   4.680682
    24  H    3.397237   2.145368   1.082917   2.166810   2.738899
    25  H    4.830545   4.025521   2.632147   2.174136   1.112769
    26  H    4.669758   4.470637   3.524984   2.581601   2.226160
    27  H    5.836352   5.252273   4.002672   3.298868   2.199454
    28  H    8.618269   8.770267   7.945068   6.817808   6.194885
    29  H   10.159714  10.407194   9.524640   8.233878   7.454319
    30  H   11.143577  11.408748  10.467166   9.095928   8.196284
    31  H   11.504867  11.719129  10.732461   9.371962   8.395497
    32  H   10.077452  10.154646   9.121469   7.845986   6.821655
    33  H    7.916876   7.863930   6.760866   5.503169   4.400912
    34  H    3.396801   3.879548   3.412621   2.168593   2.757585
    35  H    2.152418   3.400239   3.879978   3.414130   4.692206
    36  Cu   5.843046   5.728436   4.811180   3.831947   3.306934
                    6          7          8          9         10
     6  C    0.000000
     7  O    1.415485   0.000000
     8  C    2.285087   1.381120   0.000000
     9  C    3.708260   2.528971   1.477621   0.000000
    10  N    4.687992   3.716031   2.422839   1.362063   0.000000
    11  C    5.982606   4.903099   3.700906   2.387071   1.356462
    12  C    6.484043   5.220464   4.267521   2.794344   2.381371
    13  C    5.832283   4.459525   3.826869   2.440872   2.761819
    14  C    6.789923   5.377786   5.001416   3.731017   4.165503
    15  C    6.639946   5.247154   5.234426   4.241043   5.020774
    16  C    5.480093   4.139900   4.412129   3.759642   4.838971
    17  C    4.227735   2.838016   3.016552   2.491339   3.711871
    18  C    4.433640   3.047308   2.556536   1.421299   2.400638
    19  N    2.371542   2.231429   1.288410   2.422860   2.785934
    20  C    3.190756   3.738858   3.587724   4.639409   4.975594
    21  C    4.466715   5.095880   4.967709   5.931994   6.147635
    22  H    6.146760   7.021819   6.942215   7.982248   8.104803
    23  H    5.586575   6.748830   6.733878   7.996205   8.171832
    24  H    3.740230   4.945322   4.959245   6.321090   6.626934
    25  H    2.183938   3.042240   2.950231   4.301868   4.762654
    26  H    1.111730   2.074021   3.042881   4.378335   5.377001
    27  H    1.110994   2.073487   3.026856   4.385748   5.396899
    28  H    6.788242   5.817627   4.535006   3.356735   2.113487
    29  H    7.565736   6.293236   5.349322   3.877548   3.356623
    30  H    7.831392   6.424577   5.957465   4.606004   4.805072
    31  H    7.593632   6.224192   6.294558   5.323388   6.074862
    32  H    5.723429   4.508392   5.056777   4.638928   5.808423
    33  H    3.390296   2.104682   2.734650   2.775579   4.121421
    34  H    3.122911   3.259273   3.047926   3.896878   4.307092
    35  H    5.197131   5.639699   5.489678   6.270397   6.446737
    36  Cu   4.366269   3.971498   2.645046   2.682067   1.959970
                   11         12         13         14         15
    11  C    0.000000
    12  C    1.390921   0.000000
    13  C    2.409959   1.399089   0.000000
    14  C    3.693493   2.426375   1.403751   0.000000
    15  C    4.836121   3.702213   2.426668   1.394744   0.000000
    16  C    5.037278   4.199813   2.801349   2.416592   1.394246
    17  C    4.202374   3.716268   2.434454   2.800336   2.422135
    18  C    2.792317   2.440985   1.420743   2.448074   2.820491
    19  N    4.139868   5.022361   4.861781   6.133076   6.480303
    20  C    6.148298   6.957646   6.761439   7.897026   8.116911
    21  C    7.227181   8.061558   7.942542   9.053172   9.293795
    22  H    9.181488  10.111406  10.062913  11.198250  11.438501
    23  H    9.404002  10.431744  10.343771  11.552598  11.742634
    24  H    7.947092   8.932117   8.749532   9.955949  10.097472
    25  H    6.104990   6.974063   6.699390   7.880018   8.017233
    26  H    6.631138   7.068506   6.359641   7.232654   6.992496
    27  H    6.676674   7.132881   6.414255   7.295006   7.030941
    28  H    1.081800   2.147783   3.393066   4.570335   5.800779
    29  H    2.142700   1.083649   2.167013   2.673910   4.063532
    30  H    4.054698   2.669658   2.167418   1.083694   2.141914
    31  H    5.797674   4.573961   3.406866   2.150478   1.082402
    32  H    6.094635   5.281946   3.883744   3.395440   2.148064
    33  H    4.876184   4.614637   3.428811   3.876437   3.378004
    34  H    5.404489   6.089239   5.841491   6.929687   7.160161
    35  H    7.394738   8.146586   8.050847   9.092323   9.354685
    36  Cu   3.025863   4.281805   4.696756   6.097362   6.843679
                   16         17         18         19         20
    16  C    0.000000
    17  C    1.397429   0.000000
    18  C    2.440080   1.412148   0.000000
    19  N    5.699140   4.303888   3.725947   0.000000
    20  C    7.275411   6.022225   5.678059   2.946275   0.000000
    21  C    8.493343   7.296649   6.941907   4.284776   1.398094
    22  H   10.602889   9.394527   9.055944   6.090124   3.402188
    23  H   10.773652   9.464208   9.189198   5.695272   3.879161
    24  H    9.075444   7.730971   7.513814   3.925820   3.413183
    25  H    7.022151   5.664137   5.443067   2.096295   3.453992
    26  H    5.803148   4.659715   4.983508   3.140572   2.911290
    27  H    5.795309   4.628277   5.003537   3.124707   4.172071
    28  H    6.093699   5.283795   3.873964   4.738736   6.634309
    29  H    4.843964   4.597763   3.431528   6.069057   7.930037
    30  H    3.391637   3.883832   3.435012   7.026295   8.770089
    31  H    2.149796   3.401398   3.902882   7.549731   9.109346
    32  H    1.082519   2.152050   3.419008   6.336267   7.751122
    33  H    2.120748   1.078131   2.185046   3.977088   5.585492
    34  H    6.385588   5.182945   4.812874   2.745432   1.082888
    35  H    8.645487   7.541400   7.165924   4.960863   2.153478
    36  Cu   6.441459   5.144988   4.065740   1.999427   4.016096
                   21         22         23         24         25
    21  C    0.000000
    22  H    2.152918   0.000000
    23  H    3.400096   2.478264   0.000000
    24  H    3.880415   4.288174   2.465938   0.000000
    25  H    4.603862   5.891718   4.697901   2.387412   0.000000
    26  H    4.005689   5.644557   5.350764   3.911170   2.989949
    27  H    5.382109   6.871068   5.976874   3.913239   2.314091
    28  H    7.605958   9.443557   9.689674   8.346716   6.648657
    29  H    8.974292  11.003251  11.407048   9.961119   8.026188
    30  H    9.878439  12.014948  12.449250  10.898858   8.835318
    31  H   10.256782  12.399158  12.750551  11.118307   9.043541
    32  H    8.946755  11.008603  11.133935   9.429057   7.433704
    33  H    6.881895   8.909348   8.826051   7.035068   5.012757
    34  H    2.145373   4.287959   4.961882   4.318984   3.820897
    35  H    1.082351   2.478458   4.293362   4.962735   5.560774
    36  Cu   5.080655   6.770473   6.595476   5.148012   3.668620
                   26         27         28         29         30
    26  H    0.000000
    27  H    1.819183   0.000000
    28  H    7.445444   7.493765   0.000000
    29  H    8.133038   8.210406   2.465843   0.000000
    30  H    8.274571   8.353875   4.749498   2.458086   0.000000
    31  H    7.893902   7.937189   6.712030   4.751635   2.461536
    32  H    5.946862   5.907885   7.158262   5.908340   4.280009
    33  H    3.806680   3.679788   5.940761   5.563357   4.959369
    34  H    2.871225   4.213974   5.970820   7.047244   7.787045
    35  H    4.651210   6.177944   7.750048   8.991561   9.858215
    36  Cu   5.070131   5.084720   3.221399   5.163583   6.762985
                   31         32         33         34         35
    31  H    0.000000
    32  H    2.471731   0.000000
    33  H    4.262457   2.431471   0.000000
    34  H    8.138806   6.906579   4.860739   0.000000
    35  H   10.273925   9.111607   7.225031   2.466221   0.000000
    36  Cu   7.918104   7.296683   5.207513   3.743319   5.574817
                   36
    36  Cu   0.000000
 Symmetry turned off by external request.
 Stoichiometry    C18H14CuN2O(2+,2)
 Framework group  C1[X(C18H14CuN2O)]
 Deg. of freedom   102
 Full point group                 C1      NOp   1
 Rotational constants (GHZ):           0.5089082           0.1503892           0.1298667
 Leave Link  202 at Thu Aug  1 10:46:03 2024, MaxMem= 13421772800 cpu:               0.1 elap:               0.0
 (Enter /public/software/apps/Gaussian/g16/l301.exe)
 Standard basis: def2SVPP (5D, 7F)
 Ernie: Thresh=  0.10000D-02 Tol=  0.10000D-05 Strict=F.
   346 basis functions,   652 primitive gaussians,   369 cartesian basis functions
    86 alpha electrons       85 beta electrons
       nuclear repulsion energy      2063.3944108086 Hartrees.
 IExCor=  402 DFT=T Ex+Corr=B3LYP ExCW=0 ScaHFX=  0.200000
 ScaDFX=  0.800000  0.720000  1.000000  0.810000 ScalE2=  1.000000  1.000000
 IRadAn=      5 IRanWt=     -1 IRanGd=            0 ICorTp=0 IEmpDi=141
 NAtoms=   36 NActive=   36 NUniq=   36 SFac= 1.00D+00 NAtFMM=   60 NAOKFM=F Big=F
 Integral buffers will be    131072 words long.
 Raffenetti 2 integral format.
 Two-electron integral symmetry is turned off.
 R6Disp:  Grimme-D3(BJ) Dispersion energy=       -0.0886375082 Hartrees.
 Nuclear repulsion after empirical dispersion term =     2063.3057733004 Hartrees.
 Leave Link  301 at Thu Aug  1 10:46:03 2024, MaxMem= 13421772800 cpu:               0.6 elap:               0.0
 (Enter /public/software/apps/Gaussian/g16/l302.exe)
 NPDir=0 NMtPBC=     1 NCelOv=     1 NCel=       1 NClECP=     1 NCelD=      1
         NCelK=      1 NCelE2=     1 NClLst=     1 CellRange=     0.0.
 One-electron integrals computed using PRISM.
   1 Symmetry operations used in ECPInt.
 ECPInt:  NShTT=   13530 NPrTT=   56971 LenC2=   12256 LenP2D=   34472.
 LDataN:  DoStor=T MaxTD1= 4 Len=   56
 NBasis=   346 RedAO= T EigKep=  2.81D-04  NBF=   346
 NBsUse=   346 1.00D-06 EigRej= -1.00D+00 NBFU=   346
 Precomputing XC quadrature grid using
 IXCGrd= 4 IRadAn=           5 IRanWt=          -1 IRanGd=           0 AccXCQ= 0.00D+00.
 Generated NRdTot=       0 NPtTot=           0 NUsed=           0 NTot=          32
 NSgBfM=   363   363   363   363   363 MxSgAt=    36 MxSgA2=    36.
 Leave Link  302 at Thu Aug  1 10:46:03 2024, MaxMem= 13421772800 cpu:              16.5 elap:               0.5
 (Enter /public/software/apps/Gaussian/g16/l303.exe)
 DipDrv:  MaxL=1.
 Leave Link  303 at Thu Aug  1 10:46:03 2024, MaxMem= 13421772800 cpu:               5.4 elap:               0.2
 (Enter /public/software/apps/Gaussian/g16/l401.exe)
 ExpMin= 3.30D-02 ExpMax= 7.64D+04 ExpMxC= 1.15D+04 IAcc=3 IRadAn=         5 AccDes= 0.00D+00
 Harris functional with IExCor=  402 and IRadAn=       5 diagonalized for initial guess.
 HarFok:  IExCor=  402 AccDes= 0.00D+00 IRadAn=         5 IDoV= 1 UseB2=F ITyADJ=14
 ICtDFT=  3500011 ScaDFX=  1.000000  1.000000  1.000000  1.000000
 FoFCou: FMM=F IPFlag=           0 FMFlag=      100000 FMFlg1=           0
         NFxFlg=           0 DoJE=T BraDBF=F KetDBF=T FulRan=T
         wScrn=  0.000000 ICntrl=       500 IOpCl=  0 I1Cent=   200000004 NGrid=           0
         NMat0=    1 NMatS0=      1 NMatT0=    0 NMatD0=    1 NMtDS0=    0 NMtDT0=    0
 Symmetry not used in FoFCou.
 Harris En= -2518.57165759699    
 JPrj=0 DoOrth=F DoCkMO=F.
 Initial guess <Sx>= 0.0000 <Sy>= 0.0000 <Sz>= 0.5000 <S**2>= 0.7500 S= 0.5000
 Leave Link  401 at Thu Aug  1 10:46:04 2024, MaxMem= 13421772800 cpu:              21.2 elap:               0.7
 (Enter /public/software/apps/Gaussian/g16/l502.exe)
 Two-electron integral symmetry not used.
 UHF open shell SCF:
 Using DIIS extrapolation, IDIIS=  1040.
 NGot= 13421772800 LenX= 13421484715 LenY= 13421348113
 Requested convergence on RMS density matrix=1.00D-08 within 128 cycles.
 Requested convergence on MAX density matrix=1.00D-06.
 Requested convergence on             energy=1.00D-06.
 No special actions if energy rises.
 Fock matrices will be formed incrementally for  20 cycles.

 Cycle   1  Pass 1  IDiag  1:
 FoFJK:  IHMeth= 1 ICntrl=       0 DoSepK=F KAlg= 0 I1Cent=           0 FoldK=F
 IRaf= 840000000 NMat=       1 IRICut=       1 DoRegI=T DoRafI=F ISym2E= 0 IDoP0=0 IntGTp=1.
 FoFCou: FMM=F IPFlag=           0 FMFlag=      100000 FMFlg1=           0
         NFxFlg=           0 DoJE=F BraDBF=F KetDBF=F FulRan=T
         wScrn=  0.000000 ICntrl=         0 IOpCl=  1 I1Cent=           0 NGrid=           0
         NMat0=    1 NMatS0=      1 NMatT0=    0 NMatD0=    1 NMtDS0=    0 NMtDT0=    0
 Symmetry not used in FoFCou.
 E= -2508.01812001355    
 DIIS: error= 2.41D-01 at cycle   1 NSaved=   1.
 NSaved= 1 IEnMin= 1 EnMin= -2508.01812001355     IErMin= 1 ErrMin= 2.41D-01
 ErrMax= 2.41D-01  0.00D+00 EMaxC= 1.00D-01 BMatC= 5.62D+01 BMatP= 5.62D+01
 IDIUse=3 WtCom= 0.00D+00 WtEn= 1.00D+00
 Coeff-Com:  0.100D+01
 Coeff-En:   0.100D+01
 Coeff:      0.100D+01
 Gap=     3.060 Goal=   None    Shift=    0.000
 Gap=     0.451 Goal=   None    Shift=    0.000
 GapD=    0.451 DampG=2.000 DampE=0.125 DampFc=0.2500 IDamp=-1.
 Damping current iteration by 2.50D-01
 RMSDP=6.11D-02 MaxDP=7.40D+00              OVMax= 9.91D-01

 Cycle   2  Pass 1  IDiag  1:
 RMSU=  1.53D-02    CP:  9.84D-01
 E= -2509.08932429752     Delta-E=       -1.071204283970 Rises=F Damp=T
 DIIS: error= 8.21D-02 at cycle   2 NSaved=   2.
 NSaved= 2 IEnMin= 2 EnMin= -2509.08932429752     IErMin= 2 ErrMin= 8.21D-02
 ErrMax= 8.21D-02  0.00D+00 EMaxC= 1.00D-01 BMatC= 7.18D+00 BMatP= 5.62D+01
 IDIUse=3 WtCom= 1.79D-01 WtEn= 8.21D-01
 Coeff-Com: -0.113D+00 0.111D+01
 Coeff-En:   0.446D+00 0.554D+00
 Coeff:      0.346D+00 0.654D+00
 Gap=     0.605 Goal=   None    Shift=    0.000
 Gap=     0.002 Goal=   None    Shift=    0.000
 RMSDP=1.47D-02 MaxDP=1.15D+00 DE=-1.07D+00 OVMax= 9.93D-01

 Cycle   3  Pass 1  IDiag  1:
 RMSU=  1.25D-02    CP:  9.13D-01  5.12D-01
 E= -2501.17002746544     Delta-E=        7.919296832086 Rises=F Damp=F
 DIIS: error= 1.21D-01 at cycle   3 NSaved=   3.
 NSaved= 3 IEnMin= 2 EnMin= -2509.08932429752     IErMin= 2 ErrMin= 8.21D-02
 ErrMax= 1.21D-01  0.00D+00 EMaxC= 1.00D-01 BMatC= 3.51D+01 BMatP= 7.18D+00
 IDIUse=2 WtCom= 0.00D+00 WtEn= 1.00D+00
 EnCoef did     2 forward-backward iterations
 Coeff-En:   0.380D+00 0.310D+00 0.310D+00
 Coeff:      0.380D+00 0.310D+00 0.310D+00
 Gap=    -0.199 Goal=   None    Shift=    0.000
 Gap=    -0.081 Goal=   None    Shift=    0.000
 RMSDP=5.01D-02 MaxDP=5.18D+00 DE= 7.92D+00 OVMax= 9.96D-01

 Cycle   4  Pass 1  IDiag  1:
 RMSU=  4.89D-02    CP:  9.48D-01  6.39D-01  1.49D-01
 E= -2460.03677133221     Delta-E=       41.133256133226 Rises=F Damp=F
 DIIS: error= 1.22D-01 at cycle   4 NSaved=   4.
 NSaved= 4 IEnMin= 2 EnMin= -2509.08932429752     IErMin= 2 ErrMin= 8.21D-02
 ErrMax= 1.22D-01  0.00D+00 EMaxC= 1.00D-01 BMatC= 8.75D+01 BMatP= 7.18D+00
 IDIUse=2 WtCom= 0.00D+00 WtEn= 1.00D+00
 EnCoef did   100 forward-backward iterations
 Coeff-En:   0.470D+00 0.137D-01 0.356D+00 0.160D+00
 Coeff:      0.470D+00 0.137D-01 0.356D+00 0.160D+00
 Gap=    -0.045 Goal=   None    Shift=    0.000
 Gap=     0.164 Goal=   None    Shift=    0.000
 RMSDP=4.88D-02 MaxDP=5.14D+00 DE= 4.11D+01 OVMax= 9.83D-01

 Cycle   5  Pass 1  IDiag  1:
 RMSU=  7.65D-03    CP:  9.14D-01  3.23D-01  3.75D-01  2.16D-02
 E= -2513.95975728159     Delta-E=      -53.922985949383 Rises=F Damp=F
 DIIS: error= 8.56D-02 at cycle   5 NSaved=   5.
 NSaved= 5 IEnMin= 5 EnMin= -2513.95975728159     IErMin= 2 ErrMin= 8.21D-02
 ErrMax= 8.56D-02  0.00D+00 EMaxC= 1.00D-01 BMatC= 1.11D+01 BMatP= 7.18D+00
 IDIUse=2 WtCom= 0.00D+00 WtEn= 1.00D+00
 EnCoef did     1 forward-backward iterations
 Coeff-En:   0.342D+00 0.000D+00 0.801D-01 0.000D+00 0.578D+00
 Coeff:      0.342D+00 0.000D+00 0.801D-01 0.000D+00 0.578D+00
 Gap=    -0.020 Goal=   None    Shift=    0.000
 Gap=    -0.238 Goal=   None    Shift=    0.000
 RMSDP=9.78D-03 MaxDP=1.58D+00 DE=-5.39D+01 OVMax= 8.33D-01

 Cycle   6  Pass 1  IDiag  1:
 RMSU=  5.90D-03    CP:  9.09D-01  4.70D-02  3.67D-01  3.22D-03  1.50D-01
 E= -2513.81657194256     Delta-E=        0.143185339037 Rises=F Damp=F
 DIIS: error= 1.18D-01 at cycle   6 NSaved=   6.
 NSaved= 6 IEnMin= 5 EnMin= -2513.95975728159     IErMin= 2 ErrMin= 8.21D-02
 ErrMax= 1.18D-01  0.00D+00 EMaxC= 1.00D-01 BMatC= 1.34D+01 BMatP= 7.18D+00
 IDIUse=2 WtCom= 0.00D+00 WtEn= 1.00D+00
 EnCoef did     7 forward-backward iterations
 Coeff-En:   0.224D+00 0.000D+00 0.000D+00 0.000D+00 0.490D+00 0.286D+00
 Coeff:      0.224D+00 0.000D+00 0.000D+00 0.000D+00 0.490D+00 0.286D+00
 Gap=    -0.138 Goal=   None    Shift=    0.000
 Gap=    -0.005 Goal=   None    Shift=    0.000
 RMSDP=6.38D-03 MaxDP=3.08D-01 DE= 1.43D-01 OVMax= 8.21D-01

 Cycle   7  Pass 1  IDiag  1:
 RMSU=  5.00D-03    CP:  9.14D-01  3.55D-02  2.19D-01  4.80D-03  2.85D-01
                    CP:  4.32D-01
 E= -2515.15963145408     Delta-E=       -1.343059511526 Rises=F Damp=F
 DIIS: error= 5.23D-02 at cycle   7 NSaved=   7.
 NSaved= 7 IEnMin= 7 EnMin= -2515.15963145408     IErMin= 7 ErrMin= 5.23D-02
 ErrMax= 5.23D-02  0.00D+00 EMaxC= 1.00D-01 BMatC= 3.99D+00 BMatP= 7.18D+00
 IDIUse=3 WtCom= 4.77D-01 WtEn= 5.23D-01
 EnCoef did     7 forward-backward iterations
 Coeff-Com: -0.219D-01 0.358D+00-0.335D-01 0.435D-02 0.101D+00 0.251D+00
 Coeff-Com:  0.342D+00
 Coeff-En:   0.182D+00 0.000D+00 0.000D+00 0.000D+00 0.404D+00 0.214D+00
 Coeff-En:   0.199D+00
 Coeff:      0.849D-01 0.171D+00-0.160D-01 0.208D-02 0.259D+00 0.232D+00
 Coeff:      0.267D+00
 Gap=    -0.236 Goal=   None    Shift=    0.000
 Gap=     0.067 Goal=   None    Shift=    0.000
 RMSDP=5.38D-03 MaxDP=1.89D-01 DE=-1.34D+00 OVMax= 9.86D-01

 Cycle   8  Pass 1  IDiag  1:
 RMSU=  3.52D-03    CP:  9.13D-01  2.10D-02  1.82D-01  1.10D-02  3.39D-01
                    CP:  6.05D-01  2.25D-01
 E= -2517.87295372118     Delta-E=       -2.713322267095 Rises=F Damp=F
 DIIS: error= 4.07D-02 at cycle   8 NSaved=   8.
 NSaved= 8 IEnMin= 8 EnMin= -2517.87295372118     IErMin= 8 ErrMin= 4.07D-02
 ErrMax= 4.07D-02  0.00D+00 EMaxC= 1.00D-01 BMatC= 9.86D-01 BMatP= 3.99D+00
 IDIUse=3 WtCom= 5.93D-01 WtEn= 4.07D-01
 EnCoef did     1 forward-backward iterations
 Coeff-Com: -0.246D-01 0.131D+00-0.144D-01-0.371D-02 0.571D-01-0.322D-01
 Coeff-Com:  0.232D+00 0.655D+00
 Coeff-En:   0.000D+00 0.000D+00 0.000D+00 0.000D+00 0.811D-01 0.000D+00
 Coeff-En:   0.118D+00 0.801D+00
 Coeff:     -0.146D-01 0.779D-01-0.856D-02-0.220D-02 0.668D-01-0.191D-01
 Coeff:      0.185D+00 0.714D+00
 Gap=     0.233 Goal=   None    Shift=    0.000
 Gap=    -0.004 Goal=   None    Shift=    0.000
 RMSDP=3.33D-03 MaxDP=1.78D-01 DE=-2.71D+00 OVMax= 9.77D-01

 Cycle   9  Pass 1  IDiag  1:
 RMSU=  2.49D-03    CP:  9.06D-01  4.36D-02  1.62D-01  9.54D-03  4.87D-01
                    CP:  5.02D-01  4.33D-01  6.07D-01
 E= -2518.04541284140     Delta-E=       -0.172459120221 Rises=F Damp=F
 DIIS: error= 2.87D-02 at cycle   9 NSaved=   9.
 NSaved= 9 IEnMin= 9 EnMin= -2518.04541284140     IErMin= 9 ErrMin= 2.87D-02
 ErrMax= 2.87D-02  0.00D+00 EMaxC= 1.00D-01 BMatC= 5.90D-01 BMatP= 9.86D-01
 IDIUse=3 WtCom= 7.13D-01 WtEn= 2.87D-01
 EnCoef did     4 forward-backward iterations
 Coeff-Com: -0.803D-02 0.636D-01-0.120D-02-0.358D-02-0.546D-01-0.244D-01
 Coeff-Com:  0.129D+00 0.409D+00 0.491D+00
 Coeff-En:   0.000D+00 0.000D+00 0.000D+00 0.000D+00 0.000D+00 0.000D+00
 Coeff-En:   0.420D-01 0.363D+00 0.595D+00
 Coeff:     -0.572D-02 0.453D-01-0.858D-03-0.255D-02-0.389D-01-0.174D-01
 Coeff:      0.104D+00 0.396D+00 0.521D+00
 Gap=     0.142 Goal=   None    Shift=    0.000
 Gap=     0.001 Goal=   None    Shift=    0.000
 RMSDP=1.58D-03 MaxDP=4.27D-02 DE=-1.72D-01 OVMax= 4.76D-01

 Cycle  10  Pass 1  IDiag  1:
 RMSU=  1.31D-03    CP:  9.08D-01  3.39D-02  1.78D-01  7.66D-03  4.15D-01
                    CP:  5.32D-01  4.25D-01  6.61D-01  7.70D-01
 E= -2518.22007937650     Delta-E=       -0.174666535100 Rises=F Damp=F
 DIIS: error= 6.76D-03 at cycle  10 NSaved=  10.
 NSaved=10 IEnMin=10 EnMin= -2518.22007937650     IErMin=10 ErrMin= 6.76D-03
 ErrMax= 6.76D-03  0.00D+00 EMaxC= 1.00D-01 BMatC= 7.45D-02 BMatP= 5.90D-01
 IDIUse=3 WtCom= 9.32D-01 WtEn= 6.76D-02
 Coeff-Com:  0.131D-02 0.284D-01-0.509D-02-0.229D-02-0.574D-01-0.113D-01
 Coeff-Com:  0.550D-01 0.147D+00 0.301D+00 0.543D+00
 Coeff-En:   0.000D+00 0.000D+00 0.000D+00 0.000D+00 0.000D+00 0.000D+00
 Coeff-En:   0.000D+00 0.000D+00 0.000D+00 0.100D+01
 Coeff:      0.122D-02 0.265D-01-0.474D-02-0.214D-02-0.535D-01-0.105D-01
 Coeff:      0.513D-01 0.137D+00 0.281D+00 0.574D+00
 Gap=     0.109 Goal=   None    Shift=    0.000
 Gap=     0.020 Goal=   None    Shift=    0.000
 RMSDP=6.13D-04 MaxDP=2.09D-02 DE=-1.75D-01 OVMax= 1.47D-01

 Cycle  11  Pass 1  IDiag  1:
 RMSU=  5.89D-04    CP:  9.08D-01  3.24D-02  1.76D-01  7.85D-03  4.11D-01
                    CP:  5.30D-01  4.40D-01  6.61D-01  7.76D-01  8.92D-01
 E= -2518.22941303290     Delta-E=       -0.009333656396 Rises=F Damp=F
 DIIS: error= 8.30D-03 at cycle  11 NSaved=  11.
 NSaved=11 IEnMin=11 EnMin= -2518.22941303290     IErMin=10 ErrMin= 6.76D-03
 ErrMax= 8.30D-03  0.00D+00 EMaxC= 1.00D-01 BMatC= 5.77D-02 BMatP= 7.45D-02
 IDIUse=3 WtCom= 9.32D-01 WtEn= 6.76D-02
 Coeff-Com:  0.182D-02 0.250D-01-0.940D-02-0.136D-02-0.332D-01-0.134D-01
 Coeff-Com:  0.165D-01 0.557D-01 0.131D-01 0.299D+00 0.646D+00
 Coeff-En:   0.000D+00 0.000D+00 0.000D+00 0.000D+00 0.000D+00 0.000D+00
 Coeff-En:   0.000D+00 0.000D+00 0.000D+00 0.204D+00 0.796D+00
 Coeff:      0.170D-02 0.233D-01-0.876D-02-0.127D-02-0.310D-01-0.125D-01
 Coeff:      0.154D-01 0.519D-01 0.122D-01 0.293D+00 0.656D+00
 Gap=     0.111 Goal=   None    Shift=    0.000
 Gap=     0.017 Goal=   None    Shift=    0.000
 RMSDP=6.60D-04 MaxDP=2.36D-02 DE=-9.33D-03 OVMax= 2.41D-01

 Cycle  12  Pass 1  IDiag  1:
 RMSU=  5.35D-04    CP:  9.09D-01  3.05D-02  1.74D-01  7.76D-03  3.93D-01
                    CP:  5.22D-01  4.63D-01  6.88D-01  6.74D-01  9.94D-01
                    CP:  1.26D+00
 E= -2518.22429068749     Delta-E=        0.005122345411 Rises=F Damp=F
 DIIS: error= 8.23D-03 at cycle  12 NSaved=  12.
 NSaved=12 IEnMin=11 EnMin= -2518.22941303290     IErMin=10 ErrMin= 6.76D-03
 ErrMax= 8.23D-03  0.00D+00 EMaxC= 1.00D-01 BMatC= 4.27D-02 BMatP= 5.77D-02
 IDIUse=3 WtCom= 9.32D-01 WtEn= 6.76D-02
 EnCoef did     2 forward-backward iterations
 Coeff-Com:  0.998D-03 0.230D-01-0.831D-02-0.984D-03-0.277D-01-0.129D-01
 Coeff-Com: -0.270D-02 0.618D-01 0.530D-01 0.171D+00 0.358D+00 0.385D+00
 Coeff-En:   0.000D+00 0.000D+00 0.000D+00 0.000D+00 0.000D+00 0.000D+00
 Coeff-En:   0.000D+00 0.000D+00 0.000D+00 0.159D+00 0.506D+00 0.334D+00
 Coeff:      0.931D-03 0.215D-01-0.775D-02-0.917D-03-0.258D-01-0.120D-01
 Coeff:     -0.252D-02 0.576D-01 0.494D-01 0.171D+00 0.368D+00 0.381D+00
 Gap=     0.124 Goal=   None    Shift=    0.000
 Gap=     0.021 Goal=   None    Shift=    0.000
 RMSDP=1.89D-04 MaxDP=6.34D-03 DE= 5.12D-03 OVMax= 6.31D-02

 Cycle  13  Pass 1  IDiag  1:
 RMSU=  1.46D-04    CP:  9.09D-01  3.08D-02  1.72D-01  7.95D-03  3.98D-01
                    CP:  5.18D-01  4.54D-01  6.94D-01  6.90D-01  9.84D-01
                    CP:  1.23D+00  8.40D-01
 E= -2518.23279730426     Delta-E=       -0.008506616772 Rises=F Damp=F
 DIIS: error= 5.77D-03 at cycle  13 NSaved=  13.
 NSaved=13 IEnMin=13 EnMin= -2518.23279730426     IErMin=13 ErrMin= 5.77D-03
 ErrMax= 5.77D-03  0.00D+00 EMaxC= 1.00D-01 BMatC= 2.31D-02 BMatP= 4.27D-02
 IDIUse=3 WtCom= 9.42D-01 WtEn= 5.77D-02
 EnCoef did     2 forward-backward iterations
 Coeff-Com:  0.196D-03 0.182D-01-0.488D-02-0.275D-03-0.240D-01-0.644D-02
 Coeff-Com: -0.111D-01 0.472D-01 0.104D+00 0.834D-01-0.111D+00-0.252D+00
 Coeff-Com:  0.116D+01
 Coeff-En:   0.000D+00 0.000D+00 0.000D+00 0.000D+00 0.000D+00 0.000D+00
 Coeff-En:   0.000D+00 0.000D+00 0.000D+00 0.971D-01 0.250D+00 0.000D+00
 Coeff-En:   0.653D+00
 Coeff:      0.185D-03 0.172D-01-0.460D-02-0.259D-03-0.226D-01-0.607D-02
 Coeff:     -0.104D-01 0.445D-01 0.976D-01 0.842D-01-0.904D-01-0.238D+00
 Coeff:      0.113D+01
 Gap=     0.140 Goal=   None    Shift=    0.000
 Gap=     0.019 Goal=   None    Shift=    0.000
 RMSDP=2.36D-04 MaxDP=5.90D-03 DE=-8.51D-03 OVMax= 8.18D-02

 Cycle  14  Pass 1  IDiag  1:
 RMSU=  1.66D-04    CP:  9.10D-01  3.15D-02  1.68D-01  8.43D-03  4.03D-01
                    CP:  5.16D-01  4.41D-01  7.04D-01  7.09D-01  9.65D-01
                    CP:  1.11D+00  7.17D-01  1.51D+00
 E= -2518.23847161951     Delta-E=       -0.005674315254 Rises=F Damp=F
 DIIS: error= 3.09D-03 at cycle  14 NSaved=  14.
 NSaved=14 IEnMin=14 EnMin= -2518.23847161951     IErMin=14 ErrMin= 3.09D-03
 ErrMax= 3.09D-03  0.00D+00 EMaxC= 1.00D-01 BMatC= 9.86D-03 BMatP= 2.31D-02
 IDIUse=3 WtCom= 9.69D-01 WtEn= 3.09D-02
 Coeff-Com:  0.555D-03 0.535D-02-0.146D-02-0.461D-03-0.952D-02-0.797D-03
 Coeff-Com:  0.289D-04 0.184D-02 0.110D-01 0.106D-02-0.231D+00-0.783D+00
 Coeff-Com:  0.850D+00 0.116D+01
 Coeff-En:   0.000D+00 0.000D+00 0.000D+00 0.000D+00 0.000D+00 0.000D+00
 Coeff-En:   0.000D+00 0.000D+00 0.000D+00 0.000D+00 0.000D+00 0.000D+00
 Coeff-En:   0.000D+00 0.100D+01
 Coeff:      0.538D-03 0.518D-02-0.141D-02-0.446D-03-0.922D-02-0.772D-03
 Coeff:      0.280D-04 0.178D-02 0.107D-01 0.103D-02-0.224D+00-0.758D+00
 Coeff:      0.824D+00 0.115D+01
 Gap=     0.130 Goal=   None    Shift=    0.000
 Gap=     0.021 Goal=   None    Shift=    0.000
 RMSDP=6.27D-04 MaxDP=2.27D-02 DE=-5.67D-03 OVMax= 3.17D-01

 Cycle  15  Pass 1  IDiag  1:
 RMSU=  3.14D-04    CP:  9.10D-01  3.15D-02  1.60D-01  8.53D-03  4.09D-01
                    CP:  5.13D-01  4.09D-01  7.18D-01  7.58D-01  9.17D-01
                    CP:  5.86D-01  1.22D-01  2.77D+00  1.49D+00
 E= -2518.23328560926     Delta-E=        0.005186010248 Rises=F Damp=F
 DIIS: error= 5.76D-03 at cycle  15 NSaved=  15.
 NSaved=15 IEnMin=14 EnMin= -2518.23847161951     IErMin=14 ErrMin= 3.09D-03
 ErrMax= 5.76D-03  0.00D+00 EMaxC= 1.00D-01 BMatC= 1.85D-02 BMatP= 9.86D-03
 IDIUse=3 WtCom= 9.69D-01 WtEn= 3.09D-02
 Coeff-Com:  0.610D-04 0.276D-02-0.526D-03-0.189D-03-0.154D-02 0.150D-03
 Coeff-Com:  0.337D-02-0.156D-01-0.290D-01-0.346D-01-0.106D+00-0.897D-01
 Coeff-Com:  0.261D+00 0.592D+00 0.419D+00
 Coeff-En:   0.000D+00 0.000D+00 0.000D+00 0.000D+00 0.000D+00 0.000D+00
 Coeff-En:   0.000D+00 0.000D+00 0.000D+00 0.000D+00 0.000D+00 0.000D+00
 Coeff-En:   0.000D+00 0.658D+00 0.342D+00
 Coeff:      0.591D-04 0.267D-02-0.509D-03-0.184D-03-0.150D-02 0.145D-03
 Coeff:      0.326D-02-0.151D-01-0.281D-01-0.335D-01-0.103D+00-0.869D-01
 Coeff:      0.252D+00 0.594D+00 0.416D+00
 Gap=     0.131 Goal=   None    Shift=    0.000
 Gap=     0.022 Goal=   None    Shift=    0.000
 RMSDP=2.22D-04 MaxDP=1.37D-02 DE= 5.19D-03 OVMax= 7.05D-02

 Cycle  16  Pass 1  IDiag  1:
 RMSU=  1.67D-04    CP:  9.10D-01  3.09D-02  1.61D-01  8.36D-03  4.02D-01
                    CP:  5.14D-01  4.12D-01  7.20D-01  7.22D-01  9.71D-01
                    CP:  5.97D-01  2.23D-01  2.52D+00  1.63D+00  1.08D+00
 E= -2518.23722497885     Delta-E=       -0.003939369586 Rises=F Damp=F
 DIIS: error= 3.27D-03 at cycle  16 NSaved=  16.
 NSaved=16 IEnMin=14 EnMin= -2518.23847161951     IErMin=14 ErrMin= 3.09D-03
 ErrMax= 3.27D-03  0.00D+00 EMaxC= 1.00D-01 BMatC= 1.46D-02 BMatP= 9.86D-03
 IDIUse=3 WtCom= 9.69D-01 WtEn= 3.09D-02
 Coeff-Com: -0.193D-03 0.181D-02-0.398D-03-0.109D-03-0.476D-03-0.169D-03
 Coeff-Com:  0.194D-02-0.146D-01-0.610D-02 0.658D-02-0.174D-01 0.121D+00
 Coeff-Com:  0.137D+00 0.223D+00 0.152D+00 0.395D+00
 Coeff-En:   0.000D+00 0.000D+00 0.000D+00 0.000D+00 0.000D+00 0.000D+00
 Coeff-En:   0.000D+00 0.000D+00 0.000D+00 0.000D+00 0.000D+00 0.000D+00
 Coeff-En:   0.000D+00 0.550D+00 0.000D+00 0.450D+00
 Coeff:     -0.187D-03 0.176D-02-0.385D-03-0.106D-03-0.461D-03-0.164D-03
 Coeff:      0.188D-02-0.141D-01-0.592D-02 0.637D-02-0.169D-01 0.118D+00
 Coeff:      0.133D+00 0.233D+00 0.147D+00 0.397D+00
 Gap=     0.131 Goal=   None    Shift=    0.000
 Gap=     0.023 Goal=   None    Shift=    0.000
 RMSDP=1.90D-04 MaxDP=5.41D-03 DE=-3.94D-03 OVMax= 7.74D-02

 Cycle  17  Pass 1  IDiag  1:
 RMSU=  6.99D-05    CP:  9.10D-01  3.11D-02  1.63D-01  8.13D-03  4.01D-01
                    CP:  5.15D-01  4.23D-01  7.10D-01  7.09D-01  1.00D+00
                    CP:  7.03D-01  3.73D-01  2.08D+00  1.35D+00  8.46D-01
                    CP:  1.17D+00
 E= -2518.24105308815     Delta-E=       -0.003828109302 Rises=F Damp=F
 DIIS: error= 1.97D-03 at cycle  17 NSaved=  17.
 NSaved=17 IEnMin=17 EnMin= -2518.24105308815     IErMin=17 ErrMin= 1.97D-03
 ErrMax= 1.97D-03  0.00D+00 EMaxC= 1.00D-01 BMatC= 4.06D-03 BMatP= 9.86D-03
 IDIUse=3 WtCom= 9.80D-01 WtEn= 1.97D-02
 Coeff-Com: -0.141D-03 0.895D-03-0.278D-03-0.281D-04-0.672D-03-0.334D-04
 Coeff-Com:  0.711D-03-0.100D-01 0.598D-02 0.306D-01 0.469D-02-0.567D-01
 Coeff-Com:  0.148D+00 0.222D+00 0.662D-02-0.319D-01 0.680D+00
 Coeff-En:   0.000D+00 0.000D+00 0.000D+00 0.000D+00 0.000D+00 0.000D+00
 Coeff-En:   0.000D+00 0.000D+00 0.000D+00 0.000D+00 0.000D+00 0.000D+00
 Coeff-En:   0.000D+00 0.289D+00 0.000D+00 0.000D+00 0.711D+00
 Coeff:     -0.138D-03 0.877D-03-0.273D-03-0.275D-04-0.659D-03-0.327D-04
 Coeff:      0.697D-03-0.984D-02 0.586D-02 0.300D-01 0.460D-02-0.555D-01
 Coeff:      0.145D+00 0.224D+00 0.648D-02-0.313D-01 0.680D+00
 Gap=     0.133 Goal=   None    Shift=    0.000
 Gap=     0.022 Goal=   None    Shift=    0.000
 RMSDP=8.48D-05 MaxDP=2.49D-03 DE=-3.83D-03 OVMax= 3.38D-02

 Cycle  18  Pass 1  IDiag  1:
 RMSU=  2.54D-05    CP:  9.10D-01  3.14D-02  1.65D-01  8.12D-03  4.02D-01
                    CP:  5.15D-01  4.28D-01  7.06D-01  7.06D-01  1.01D+00
                    CP:  7.38D-01  4.41D-01  1.94D+00  1.24D+00  7.03D-01
                    CP:  1.33D+00  1.19D+00
 E= -2518.24181193111     Delta-E=       -0.000758842958 Rises=F Damp=F
 DIIS: error= 1.26D-03 at cycle  18 NSaved=  18.
 NSaved=18 IEnMin=18 EnMin= -2518.24181193111     IErMin=18 ErrMin= 1.26D-03
 ErrMax= 1.26D-03  0.00D+00 EMaxC= 1.00D-01 BMatC= 1.43D-03 BMatP= 4.06D-03
 IDIUse=3 WtCom= 9.87D-01 WtEn= 1.26D-02
 Coeff-Com: -0.639D-04 0.288D-03-0.116D-03-0.910D-05-0.143D-03-0.219D-03
 Coeff-Com:  0.909D-03-0.198D-02 0.596D-02 0.307D-01 0.771D-02-0.198D+00
 Coeff-Com:  0.121D+00 0.227D+00 0.417D-02-0.353D+00 0.402D+00 0.755D+00
 Coeff-En:   0.000D+00 0.000D+00 0.000D+00 0.000D+00 0.000D+00 0.000D+00
 Coeff-En:   0.000D+00 0.000D+00 0.000D+00 0.000D+00 0.000D+00 0.000D+00
 Coeff-En:   0.000D+00 0.718D-01 0.000D+00 0.000D+00 0.000D+00 0.928D+00
 Coeff:     -0.631D-04 0.285D-03-0.115D-03-0.899D-05-0.141D-03-0.216D-03
 Coeff:      0.898D-03-0.195D-02 0.589D-02 0.303D-01 0.762D-02-0.196D+00
 Coeff:      0.119D+00 0.225D+00 0.412D-02-0.349D+00 0.397D+00 0.757D+00
 Gap=     0.131 Goal=   None    Shift=    0.000
 Gap=     0.023 Goal=   None    Shift=    0.000
 RMSDP=4.97D-05 MaxDP=1.62D-03 DE=-7.59D-04 OVMax= 8.88D-03

 Cycle  19  Pass 1  IDiag  1:
 RMSU=  2.50D-05    CP:  9.10D-01  3.17D-02  1.65D-01  8.13D-03  4.03D-01
                    CP:  5.15D-01  4.27D-01  7.05D-01  7.04D-01  1.00D+00
                    CP:  6.99D-01  4.34D-01  1.93D+00  1.23D+00  6.59D-01
                    CP:  1.44D+00  1.48D+00  1.26D+00
 E= -2518.24193774506     Delta-E=       -0.000125813953 Rises=F Damp=F
 DIIS: error= 9.27D-04 at cycle  19 NSaved=  19.
 NSaved=19 IEnMin=19 EnMin= -2518.24193774506     IErMin=19 ErrMin= 9.27D-04
 ErrMax= 9.27D-04  0.00D+00 EMaxC= 1.00D-01 BMatC= 8.32D-04 BMatP= 1.43D-03
 IDIUse=3 WtCom= 9.91D-01 WtEn= 9.27D-03
 Coeff-Com: -0.260D-05 0.713D-04-0.103D-03-0.552D-06 0.280D-03-0.281D-03
 Coeff-Com:  0.622D-03 0.552D-03 0.246D-02 0.209D-01 0.187D-01-0.136D+00
 Coeff-Com:  0.573D-01 0.109D+00 0.177D-01-0.309D+00-0.444D-01 0.500D+00
 Coeff-Com:  0.762D+00
 Coeff-En:   0.000D+00 0.000D+00 0.000D+00 0.000D+00 0.000D+00 0.000D+00
 Coeff-En:   0.000D+00 0.000D+00 0.000D+00 0.000D+00 0.000D+00 0.000D+00
 Coeff-En:   0.000D+00 0.161D-01 0.000D+00 0.000D+00 0.000D+00 0.000D+00
 Coeff-En:   0.984D+00
 Coeff:     -0.258D-05 0.707D-04-0.102D-03-0.547D-06 0.277D-03-0.278D-03
 Coeff:      0.616D-03 0.547D-03 0.243D-02 0.207D-01 0.185D-01-0.135D+00
 Coeff:      0.568D-01 0.108D+00 0.176D-01-0.307D+00-0.440D-01 0.496D+00
 Coeff:      0.764D+00
 Gap=     0.130 Goal=   None    Shift=    0.000
 Gap=     0.023 Goal=   None    Shift=    0.000
 RMSDP=4.87D-05 MaxDP=1.31D-03 DE=-1.26D-04 OVMax= 1.05D-02

 Cycle  20  Pass 1  IDiag  1:
 RMSU=  1.06D-05    CP:  9.10D-01  3.19D-02  1.66D-01  8.10D-03  4.04D-01
                    CP:  5.15D-01  4.29D-01  7.03D-01  7.01D-01  9.99D-01
                    CP:  6.90D-01  4.56D-01  1.87D+00  1.16D+00  5.98D-01
                    CP:  1.58D+00  1.75D+00  1.85D+00  1.36D+00
 E= -2518.24208138878     Delta-E=       -0.000143643718 Rises=F Damp=F
 DIIS: error= 5.30D-04 at cycle  20 NSaved=  20.
 NSaved=20 IEnMin=20 EnMin= -2518.24208138878     IErMin=20 ErrMin= 5.30D-04
 ErrMax= 5.30D-04  0.00D+00 EMaxC= 1.00D-01 BMatC= 2.54D-04 BMatP= 8.32D-04
 IDIUse=3 WtCom= 9.95D-01 WtEn= 5.30D-03
 Coeff-Com:  0.373D-04-0.949D-04-0.258D-04 0.123D-04 0.131D-03-0.271D-04
 Coeff-Com:  0.207D-03 0.196D-04-0.275D-03 0.284D-02 0.383D-02-0.185D-01
 Coeff-Com:  0.601D-02 0.465D-02 0.433D-01-0.455D-01-0.354D+00-0.133D+00
 Coeff-Com:  0.455D+00 0.104D+01
 Coeff-En:   0.000D+00 0.000D+00 0.000D+00 0.000D+00 0.000D+00 0.000D+00
 Coeff-En:   0.000D+00 0.000D+00 0.000D+00 0.000D+00 0.000D+00 0.000D+00
 Coeff-En:   0.000D+00 0.000D+00 0.000D+00 0.000D+00 0.000D+00 0.000D+00
 Coeff-En:   0.000D+00 0.100D+01
 Coeff:      0.371D-04-0.944D-04-0.257D-04 0.122D-04 0.130D-03-0.269D-04
 Coeff:      0.206D-03 0.195D-04-0.274D-03 0.282D-02 0.381D-02-0.184D-01
 Coeff:      0.598D-02 0.463D-02 0.431D-01-0.453D-01-0.352D+00-0.133D+00
 Coeff:      0.452D+00 0.104D+01
 Gap=     0.129 Goal=   None    Shift=    0.000
 Gap=     0.023 Goal=   None    Shift=    0.000
 RMSDP=4.35D-05 MaxDP=1.29D-03 DE=-1.44D-04 OVMax= 6.41D-03

 Cycle  21  Pass 1  IDiag  1:
 Restarting incremental Fock formation.
 E= -2518.24213590595     Delta-E=       -0.000054517172 Rises=F Damp=F
 DIIS: error= 1.13D-04 at cycle  21 NSaved=  20.
 NSaved=20 IEnMin=20 EnMin= -2518.24213590595     IErMin=20 ErrMin= 1.13D-04
 ErrMax= 1.13D-04  0.00D+00 EMaxC= 1.00D-01 BMatC= 1.53D-05 BMatP= 2.54D-04
 IDIUse=3 WtCom= 9.99D-01 WtEn= 1.13D-03
 Coeff-Com: -0.163D-05 0.211D-04 0.170D-04 0.248D-04 0.443D-04 0.319D-04
 Coeff-Com: -0.251D-03-0.617D-03-0.116D-02-0.991D-03 0.449D-02 0.866D-03
 Coeff-Com: -0.582D-02 0.213D-01 0.103D-01-0.172D+00-0.139D+00 0.706D-01
 Coeff-Com:  0.573D+00 0.639D+00
 Coeff-En:   0.000D+00 0.000D+00 0.000D+00 0.000D+00 0.000D+00 0.000D+00
 Coeff-En:   0.000D+00 0.000D+00 0.000D+00 0.000D+00 0.000D+00 0.000D+00
 Coeff-En:   0.000D+00 0.000D+00 0.000D+00 0.000D+00 0.000D+00 0.000D+00
 Coeff-En:   0.000D+00 0.100D+01
 Coeff:     -0.163D-05 0.211D-04 0.169D-04 0.247D-04 0.443D-04 0.319D-04
 Coeff:     -0.250D-03-0.617D-03-0.116D-02-0.990D-03 0.448D-02 0.865D-03
 Coeff:     -0.581D-02 0.213D-01 0.103D-01-0.171D+00-0.139D+00 0.706D-01
 Coeff:      0.572D+00 0.640D+00
 Gap=     0.129 Goal=   None    Shift=    0.000
 Gap=     0.023 Goal=   None    Shift=    0.000
 RMSDP=1.02D-05 MaxDP=3.18D-04 DE=-5.45D-05 OVMax= 1.59D-03

 Cycle  22  Pass 1  IDiag  1:
 RMSU=  1.02D-05    CP:  1.00D+00
 E= -2518.24213927129     Delta-E=       -0.000003365343 Rises=F Damp=F
 DIIS: error= 6.13D-05 at cycle  22 NSaved=  20.
 NSaved=20 IEnMin=20 EnMin= -2518.24213927129     IErMin=20 ErrMin= 6.13D-05
 ErrMax= 6.13D-05  0.00D+00 EMaxC= 1.00D-01 BMatC= 2.30D-06 BMatP= 1.53D-05
 IDIUse=1 WtCom= 1.00D+00 WtEn= 0.00D+00
 Coeff-Com:  0.387D-05-0.937D-05-0.239D-04 0.976D-05-0.340D-04-0.130D-03
 Coeff-Com: -0.227D-03-0.120D-02-0.851D-03 0.563D-02-0.198D-03-0.674D-02
 Coeff-Com:  0.486D-03 0.360D-02-0.196D-01-0.375D-01-0.556D-01 0.119D+00
 Coeff-Com:  0.327D+00 0.666D+00
 Coeff:      0.387D-05-0.937D-05-0.239D-04 0.976D-05-0.340D-04-0.130D-03
 Coeff:     -0.227D-03-0.120D-02-0.851D-03 0.563D-02-0.198D-03-0.674D-02
 Coeff:      0.486D-03 0.360D-02-0.196D-01-0.375D-01-0.556D-01 0.119D+00
 Coeff:      0.327D+00 0.666D+00
 Gap=     0.129 Goal=   None    Shift=    0.000
 Gap=     0.023 Goal=   None    Shift=    0.000
 RMSDP=7.34D-06 MaxDP=2.95D-04 DE=-3.37D-06 OVMax= 2.87D-03

 Cycle  23  Pass 1  IDiag  1:
 RMSU=  6.29D-06    CP:  1.00D+00  1.37D+00
 E= -2518.24214007457     Delta-E=       -0.000000803273 Rises=F Damp=F
 DIIS: error= 5.80D-05 at cycle  23 NSaved=  20.
 NSaved=20 IEnMin=20 EnMin= -2518.24214007457     IErMin=20 ErrMin= 5.80D-05
 ErrMax= 5.80D-05  0.00D+00 EMaxC= 1.00D-01 BMatC= 3.05D-06 BMatP= 2.30D-06
 IDIUse=1 WtCom= 1.00D+00 WtEn= 0.00D+00
 Coeff-Com: -0.234D-05-0.571D-05-0.110D-05 0.468D-05-0.793D-05 0.187D-04
 Coeff-Com: -0.106D-02-0.192D-02 0.208D-02 0.366D-03-0.668D-03-0.498D-02
 Coeff-Com: -0.947D-03 0.450D-01 0.308D-01-0.486D-01-0.955D-01 0.358D-02
 Coeff-Com:  0.365D+00 0.707D+00
 Coeff:     -0.234D-05-0.571D-05-0.110D-05 0.468D-05-0.793D-05 0.187D-04
 Coeff:     -0.106D-02-0.192D-02 0.208D-02 0.366D-03-0.668D-03-0.498D-02
 Coeff:     -0.947D-03 0.450D-01 0.308D-01-0.486D-01-0.955D-01 0.358D-02
 Coeff:      0.365D+00 0.707D+00
 Gap=     0.129 Goal=   None    Shift=    0.000
 Gap=     0.023 Goal=   None    Shift=    0.000
 RMSDP=4.23D-06 MaxDP=1.01D-04 DE=-8.03D-07 OVMax= 1.33D-03

 Cycle  24  Pass 1  IDiag  1:
 RMSU=  3.81D-06    CP:  1.00D+00  1.20D+00  9.31D-01
 E= -2518.24214084178     Delta-E=       -0.000000767208 Rises=F Damp=F
 DIIS: error= 1.98D-05 at cycle  24 NSaved=  20.
 NSaved=20 IEnMin=20 EnMin= -2518.24214084178     IErMin=20 ErrMin= 1.98D-05
 ErrMax= 1.98D-05  0.00D+00 EMaxC= 1.00D-01 BMatC= 4.17D-07 BMatP= 2.30D-06
 IDIUse=1 WtCom= 1.00D+00 WtEn= 0.00D+00
 Coeff-Com: -0.591D-05-0.400D-05-0.133D-04 0.361D-04 0.146D-03-0.115D-03
 Coeff-Com:  0.113D-03 0.129D-02-0.132D-02-0.263D-02-0.345D-02-0.124D-02
 Coeff-Com:  0.171D-01 0.217D-01 0.109D-01-0.529D-01-0.835D-01-0.136D+00
 Coeff-Com:  0.130D+00 0.110D+01
 Coeff:     -0.591D-05-0.400D-05-0.133D-04 0.361D-04 0.146D-03-0.115D-03
 Coeff:      0.113D-03 0.129D-02-0.132D-02-0.263D-02-0.345D-02-0.124D-02
 Coeff:      0.171D-01 0.217D-01 0.109D-01-0.529D-01-0.835D-01-0.136D+00
 Coeff:      0.130D+00 0.110D+01
 Gap=     0.129 Goal=   None    Shift=    0.000
 Gap=     0.023 Goal=   None    Shift=    0.000
 RMSDP=4.22D-06 MaxDP=1.43D-04 DE=-7.67D-07 OVMax= 1.90D-03

 Cycle  25  Pass 1  IDiag  1:
 RMSU=  1.63D-06    CP:  1.00D+00  1.20D+00  1.28D+00  1.84D+00
 E= -2518.24214111780     Delta-E=       -0.000000276028 Rises=F Damp=F
 DIIS: error= 1.87D-05 at cycle  25 NSaved=  20.
 NSaved=20 IEnMin=20 EnMin= -2518.24214111780     IErMin=20 ErrMin= 1.87D-05
 ErrMax= 1.87D-05  0.00D+00 EMaxC= 1.00D-01 BMatC= 1.63D-07 BMatP= 4.17D-07
 IDIUse=1 WtCom= 1.00D+00 WtEn= 0.00D+00
 Coeff-Com:  0.145D-05-0.107D-04 0.174D-04 0.454D-04 0.314D-03 0.795D-03
 Coeff-Com: -0.162D-03-0.816D-03-0.967D-03 0.487D-03 0.180D-02-0.907D-02
 Coeff-Com: -0.284D-02 0.256D-01 0.348D-02-0.428D-01-0.189D+00-0.240D+00
 Coeff-Com:  0.737D+00 0.716D+00
 Coeff:      0.145D-05-0.107D-04 0.174D-04 0.454D-04 0.314D-03 0.795D-03
 Coeff:     -0.162D-03-0.816D-03-0.967D-03 0.487D-03 0.180D-02-0.907D-02
 Coeff:     -0.284D-02 0.256D-01 0.348D-02-0.428D-01-0.189D+00-0.240D+00
 Coeff:      0.737D+00 0.716D+00
 Gap=     0.129 Goal=   None    Shift=    0.000
 Gap=     0.023 Goal=   None    Shift=    0.000
 RMSDP=2.92D-06 MaxDP=8.69D-05 DE=-2.76D-07 OVMax= 1.45D-03

 Cycle  26  Pass 1  IDiag  1:
 RMSU=  8.54D-07    CP:  1.00D+00  1.26D+00  1.29D+00  2.54D+00  1.40D+00
 E= -2518.24214130544     Delta-E=       -0.000000187633 Rises=F Damp=F
 DIIS: error= 1.33D-05 at cycle  26 NSaved=  20.
 NSaved=20 IEnMin=20 EnMin= -2518.24214130544     IErMin=20 ErrMin= 1.33D-05
 ErrMax= 1.33D-05  0.00D+00 EMaxC= 1.00D-01 BMatC= 1.74D-07 BMatP= 1.63D-07
 IDIUse=1 WtCom= 1.00D+00 WtEn= 0.00D+00
 Coeff-Com:  0.226D-05 0.350D-05-0.546D-04 0.449D-03 0.788D-03-0.125D-02
 Coeff-Com:  0.602D-03 0.131D-02 0.211D-02 0.268D-02-0.123D-01-0.176D-01
 Coeff-Com: -0.349D-02 0.159D-01 0.370D-01 0.620D-01-0.167D+00-0.289D+00
 Coeff-Com: -0.235D+00 0.160D+01
 Coeff:      0.226D-05 0.350D-05-0.546D-04 0.449D-03 0.788D-03-0.125D-02
 Coeff:      0.602D-03 0.131D-02 0.211D-02 0.268D-02-0.123D-01-0.176D-01
 Coeff:     -0.349D-02 0.159D-01 0.370D-01 0.620D-01-0.167D+00-0.289D+00
 Coeff:     -0.235D+00 0.160D+01
 Gap=     0.129 Goal=   None    Shift=    0.000
 Gap=     0.023 Goal=   None    Shift=    0.000
 RMSDP=4.93D-06 MaxDP=1.50D-04 DE=-1.88D-07 OVMax= 2.44D-03

 Cycle  27  Pass 1  IDiag  1:
 RMSU=  1.99D-06    CP:  1.00D+00  1.52D+00  1.32D+00  3.00D+00  1.87D+00
                    CP:  3.00D+00
 E= -2518.24214156701     Delta-E=       -0.000000261575 Rises=F Damp=F
 DIIS: error= 5.78D-06 at cycle  27 NSaved=  20.
 NSaved=20 IEnMin=20 EnMin= -2518.24214156701     IErMin=20 ErrMin= 5.78D-06
 ErrMax= 5.78D-06  0.00D+00 EMaxC= 1.00D-01 BMatC= 2.77D-08 BMatP= 1.63D-07
 IDIUse=1 WtCom= 1.00D+00 WtEn= 0.00D+00
 Coeff-Com: -0.318D-05-0.595D-04 0.115D-03 0.208D-03-0.675D-03 0.643D-03
 Coeff-Com:  0.100D-02 0.552D-03-0.406D-03-0.843D-03-0.554D-02-0.155D-01
 Coeff-Com: -0.170D-03 0.364D-01 0.115D+00 0.741D-01-0.517D+00-0.758D+00
 Coeff-Com:  0.107D+01 0.998D+00
 Coeff:     -0.318D-05-0.595D-04 0.115D-03 0.208D-03-0.675D-03 0.643D-03
 Coeff:      0.100D-02 0.552D-03-0.406D-03-0.843D-03-0.554D-02-0.155D-01
 Coeff:     -0.170D-03 0.364D-01 0.115D+00 0.741D-01-0.517D+00-0.758D+00
 Coeff:      0.107D+01 0.998D+00
 Gap=     0.129 Goal=   None    Shift=    0.000
 Gap=     0.023 Goal=   None    Shift=    0.000
 RMSDP=4.49D-06 MaxDP=1.40D-04 DE=-2.62D-07 OVMax= 2.28D-03

 Cycle  28  Pass 1  IDiag  1:
 RMSU=  1.55D-06    CP:  1.00D+00  1.74D+00  1.43D+00  3.00D+00  2.38D+00
                    CP:  3.00D+00  2.69D+00
 E= -2518.24214170594     Delta-E=       -0.000000138932 Rises=F Damp=F
 DIIS: error= 5.88D-06 at cycle  28 NSaved=  20.
 NSaved=20 IEnMin=20 EnMin= -2518.24214170594     IErMin=19 ErrMin= 5.78D-06
 ErrMax= 5.88D-06  0.00D+00 EMaxC= 1.00D-01 BMatC= 3.92D-08 BMatP= 2.77D-08
 IDIUse=1 WtCom= 1.00D+00 WtEn= 0.00D+00
 Coeff-Com:  0.361D-04-0.159D-03-0.331D-03 0.921D-04 0.723D-04-0.589D-04
 Coeff-Com: -0.629D-03-0.354D-02 0.510D-02 0.108D-01 0.360D-03-0.925D-03
 Coeff-Com: -0.295D-02-0.137D-01 0.160D+00-0.126D+00-0.386D+00-0.138D+00
 Coeff-Com:  0.377D+00 0.112D+01
 Coeff:      0.361D-04-0.159D-03-0.331D-03 0.921D-04 0.723D-04-0.589D-04
 Coeff:     -0.629D-03-0.354D-02 0.510D-02 0.108D-01 0.360D-03-0.925D-03
 Coeff:     -0.295D-02-0.137D-01 0.160D+00-0.126D+00-0.386D+00-0.138D+00
 Coeff:      0.377D+00 0.112D+01
 Gap=     0.129 Goal=   None    Shift=    0.000
 Gap=     0.023 Goal=   None    Shift=    0.000
 RMSDP=3.81D-06 MaxDP=1.23D-04 DE=-1.39D-07 OVMax= 2.02D-03

 Cycle  29  Pass 1  IDiag  1:
 RMSU=  2.63D-06    CP:  1.00D+00  1.84D+00  1.55D+00  3.00D+00  2.94D+00
                    CP:  3.00D+00  3.00D+00  1.81D+00
 E= -2518.24214179011     Delta-E=       -0.000000084169 Rises=F Damp=F
 DIIS: error= 3.28D-06 at cycle  29 NSaved=  20.
 NSaved=20 IEnMin=20 EnMin= -2518.24214179011     IErMin=20 ErrMin= 3.28D-06
 ErrMax= 3.28D-06  0.00D+00 EMaxC= 1.00D-01 BMatC= 9.60D-09 BMatP= 2.77D-08
 IDIUse=1 WtCom= 1.00D+00 WtEn= 0.00D+00
 Coeff-Com: -0.150D-03-0.801D-04 0.845D-03-0.584D-03-0.856D-03-0.354D-03
 Coeff-Com: -0.827D-03 0.131D-02 0.452D-02 0.371D-02 0.570D-02-0.472D-02
 Coeff-Com: -0.418D-01 0.315D-01 0.869D-01 0.123D+00-0.271D+00-0.642D+00
 Coeff-Com:  0.672D+00 0.103D+01
 Coeff:     -0.150D-03-0.801D-04 0.845D-03-0.584D-03-0.856D-03-0.354D-03
 Coeff:     -0.827D-03 0.131D-02 0.452D-02 0.371D-02 0.570D-02-0.472D-02
 Coeff:     -0.418D-01 0.315D-01 0.869D-01 0.123D+00-0.271D+00-0.642D+00
 Coeff:      0.672D+00 0.103D+01
 Gap=     0.129 Goal=   None    Shift=    0.000
 Gap=     0.023 Goal=   None    Shift=    0.000
 RMSDP=2.85D-06 MaxDP=9.10D-05 DE=-8.42D-08 OVMax= 1.49D-03

 Cycle  30  Pass 1  IDiag  1:
 RMSU=  7.52D-07    CP:  1.00D+00  1.93D+00  1.66D+00  3.00D+00  3.00D+00
                    CP:  3.00D+00  3.00D+00  2.40D+00  1.87D+00
 E= -2518.24214182214     Delta-E=       -0.000000032023 Rises=F Damp=F
 DIIS: error= 1.07D-06 at cycle  30 NSaved=  20.
 NSaved=20 IEnMin=20 EnMin= -2518.24214182214     IErMin=20 ErrMin= 1.07D-06
 ErrMax= 1.07D-06  0.00D+00 EMaxC= 1.00D-01 BMatC= 2.49D-09 BMatP= 9.60D-09
 IDIUse=1 WtCom= 1.00D+00 WtEn= 0.00D+00
 Coeff-Com:  0.553D-04 0.248D-03-0.195D-03-0.181D-03 0.123D-03 0.391D-03
 Coeff-Com: -0.943D-03-0.665D-03 0.284D-02 0.513D-02-0.151D-02-0.258D-01
 Coeff-Com: -0.342D-01 0.855D-01 0.183D+00-0.840D-01-0.626D+00 0.164D+00
 Coeff-Com:  0.613D+00 0.719D+00
 Coeff:      0.553D-04 0.248D-03-0.195D-03-0.181D-03 0.123D-03 0.391D-03
 Coeff:     -0.943D-03-0.665D-03 0.284D-02 0.513D-02-0.151D-02-0.258D-01
 Coeff:     -0.342D-01 0.855D-01 0.183D+00-0.840D-01-0.626D+00 0.164D+00
 Coeff:      0.613D+00 0.719D+00
 Gap=     0.129 Goal=   None    Shift=    0.000
 Gap=     0.023 Goal=   None    Shift=    0.000
 RMSDP=1.50D-06 MaxDP=4.79D-05 DE=-3.20D-08 OVMax= 7.85D-04

 Cycle  31  Pass 1  IDiag  1:
 RMSU=  1.13D-07    CP:  1.00D+00  1.97D+00  1.70D+00  3.00D+00  3.00D+00
                    CP:  3.00D+00  3.00D+00  2.73D+00  2.34D+00  1.51D+00
 E= -2518.24214182663     Delta-E=       -0.000000004497 Rises=F Damp=F
 DIIS: error= 2.77D-06 at cycle  31 NSaved=  20.
 NSaved=20 IEnMin=20 EnMin= -2518.24214182663     IErMin=19 ErrMin= 1.07D-06
 ErrMax= 2.77D-06  0.00D+00 EMaxC= 1.00D-01 BMatC= 7.09D-09 BMatP= 2.49D-09
 IDIUse=1 WtCom= 1.00D+00 WtEn= 0.00D+00
 Coeff-Com: -0.115D-04 0.404D-04 0.982D-04-0.682D-04 0.306D-03 0.117D-02
 Coeff-Com: -0.221D-03-0.154D-02-0.330D-02-0.126D-02 0.548D-02 0.389D-02
 Coeff-Com:  0.384D-01 0.253D-01-0.712D-02-0.171D+00 0.784D-02 0.340D-01
 Coeff-Com:  0.341D+00 0.727D+00
 Coeff:     -0.115D-04 0.404D-04 0.982D-04-0.682D-04 0.306D-03 0.117D-02
 Coeff:     -0.221D-03-0.154D-02-0.330D-02-0.126D-02 0.548D-02 0.389D-02
 Coeff:      0.384D-01 0.253D-01-0.712D-02-0.171D+00 0.784D-02 0.340D-01
 Coeff:      0.341D+00 0.727D+00
 Gap=     0.129 Goal=   None    Shift=    0.000
 Gap=     0.023 Goal=   None    Shift=    0.000
[...]
 0.00003623,-0.00000203,-0.00001736,-0.00000055,-0.00000064,-0.00000082
 ,-0.00000212,-0.00000095,0.00000144,-0.00000054,-0.00000030,0.,0.00000
 105,0.00000286,-0.00000107,0.00000767,-0.00000012,0.00000020,-0.000003
 95,-0.00000133,0.00000228,-0.00011408,0.00003012,0.00003285,0.00002129
 ,0.00007215,0.00004024,0.00022002,-0.00186147,0.00040224,0.01020956,-0
 .01041276,0.05539382,0.00001892,-0.00001883,-0.00003970,-0.00000541,0.
 00001117,0.00003464,0.00000367,0.00000388,0.00001262,-0.00002845,0.000
 02542,0.00003568,-0.00002230,0.00001171,0.00000166,-0.00003034,-0.0000
 0946,-0.00000254,-0.00005509,0.00007469,0.00002205,0.00022389,0.000062
 95,-0.00015565,0.00042577,0.00036990,-0.00110724,-0.00071383,0.0000099
 0,-0.00010280,0.00010707,-0.00004946,0.00005024,-0.00010603,0.00003497
 ,-0.00012320,-0.00021878,-0.00023286,0.00064397,-0.00186731,-0.0009394
 5,0.00324781,0.01223109,-0.00579269,0.01593494,-0.12395794,0.04228067,
 -0.11194632,-0.01017149,0.00952289,-0.02573409,-0.00528047,0.00027584,
 0.00089822,-0.00011900,-0.00010239,0.00000583,0.00001921,0.00002017,-0
 .00003191,-0.00002498,-0.00000608,-0.00002061,-0.00000133,-0.00000077,
 -0.00000221,-0.00000306,0.00000026,0.00000093,-0.00000219,0.00000009,-
 0.00000016,-0.00000264,-0.00000421,0.00000004,-0.00000275,-0.00000275,
 0.00000267,-0.00001556,0.00000277,0.00000263,0.00001547,0.00000415,-0.
 00001411,-0.00004042,0.00002301,-0.00002888,0.00047295,-0.00032882,0.0
 0070923,0.00079073,0.00004261,-0.00041200,0.12693474,0.00004206,-0.000
 03034,-0.00005949,0.00000101,0.00002630,0.00007100,-0.00002460,0.00000
 012,0.00000334,0.00000705,0.00005044,0.00007291,0.00003416,-0.00004734
 ,0.00000544,-0.00000458,-0.00002265,-0.00004269,-0.00019433,-0.0000120
 0,0.00008275,0.00038869,0.00023853,-0.00008784,-0.00009960,0.00018383,
 0.00030528,-0.00020198,-0.00061717,-0.00066715,-0.00012431,0.00023222,
 0.00016017,0.00009704,-0.00054169,-0.00011027,-0.00028377,-0.00057395,
 -0.00046227,-0.00091304,0.00477931,0.00244630,0.00417843,0.00453786,0.
 00726787,0.04256159,-0.07362657,0.07782824,-0.00036605,0.00635445,0.00
 092177,0.00032714,0.00688072,0.00242809,-0.00029551,0.00000498,0.00000
 122,0.00002925,0.00000115,-0.00005812,-0.00001368,0.00000476,-0.000014
 08,-0.00000123,-0.00000224,-0.00000070,-0.00000174,0.00000138,0.000000
 32,0.00000094,0.00000084,-0.00000190,0.00000146,0.00000425,0.00000339,
 -0.00002302,0.00000365,0.00000053,0.00000581,0.00000738,0.00000148,0.0
 0000276,0.00003792,0.00003815,-0.00000349,0.00001763,0.00000628,0.0001
 6456,-0.00071727,-0.00006573,-0.00005084,-0.00258143,-0.00128701,-0.04
 510614,0.05927309,0.00002265,-0.00002132,-0.00004559,-0.00000364,0.000
 01846,0.00005613,-0.00001514,0.00000374,0.00000900,-0.00000379,0.00004
 472,0.00004789,0.00001649,-0.00002158,0.00001656,-0.00003453,-0.000027
 68,0.00002072,-0.00003713,0.00007622,-0.00009563,-0.00004145,0.0000129
 0,0.00014885,0.00024155,-0.00002919,0.00025369,0.00000608,-0.00024321,
 0.00007546,0.00024310,0.00009383,-0.00009944,-0.00034689,-0.00006276,-
 0.00029822,0.00089557,-0.00052972,0.00054844,0.00292180,0.00265571,-0.
 00214431,-0.01259393,0.00778732,-0.01356383,-0.11259974,0.07798429,-0.
 25426142,0.00289268,0.00028373,0.00560882,0.00130241,0.00202747,0.0016
 6508,-0.00005172,-0.00002274,-0.00003424,0.00001665,0.00000493,-0.0000
 5467,0.00000343,0.00000019,-0.00001635,-0.00000160,-0.00000181,-0.0000
 0134,-0.00000217,0.00000028,0.00000129,-0.00000071,-0.00000030,-0.0000
 0007,0.00000369,0.00000542,0.00000142,0.00000265,-0.00000032,0.0000031
 8,0.00001656,0.00000009,0.00000332,-0.00000725,0.00000295,0.00000828,0
 .00002660,0.00000526,0.00002528,-0.00063222,0.00001927,-0.00065579,-0.
 00023934,-0.00129357,0.00061776,0.11807942,-0.08713435,0.26195704,-0.0
 0007487,0.00005792,0.00011293,-0.00001300,-0.00003302,-0.00011373,0.00
 006518,0.00000435,0.00003168,0.00001802,-0.00015807,-0.00012883,-0.000
 00301,-0.00001264,0.00011275,-0.00101190,-0.00050009,0.00047128,-0.002
 30437,-0.00201786,0.00168518,-0.00253276,0.00264924,-0.00261480,0.0007
 0990,-0.00045094,0.00031023,0.00024130,0.00021342,-0.00035593,-0.00050
 599,-0.00009907,0.00038802,0.00151467,0.00011510,-0.00053718,-0.002393
 07,0.00120048,-0.00274569,-0.00022386,0.00028458,-0.00077938,-0.004899
 49,0.00068257,-0.00096863,-0.01075646,-0.00850253,0.02599129,-0.134602
 28,-0.03880000,0.12219378,0.01240475,0.00498324,-0.01444779,0.00144235
 ,-0.00049345,0.00043499,-0.00007546,-0.00007084,0.00009333,0.00010927,
 0.00000116,0.00005936,0.00000063,0.00000301,0.00000199,0.00000592,0.00
 000101,0.00000151,-0.00000910,0.00000346,0.00000236,0.00000524,-0.0000
 0432,-0.00000134,0.00001384,0.00003849,-0.00002892,0.00002487,-0.00001
 116,-0.00003349,-0.00003656,0.00002034,0.00002065,-0.00013497,0.000054
 90,-0.00021578,0.00006641,-0.00002341,0.00005053,-0.00036501,-0.000406
 36,0.00107883,0.00123086,-0.00011610,-0.00002744,0.14241778,-0.0000076
 6,0.00001270,0.00002748,-0.00002040,-0.00003145,-0.00010489,0.00014394
 ,0.00002008,0.00003681,-0.00012442,-0.00010969,-0.00009973,0.00016518,
 0.00017413,0.00005967,-0.00013242,0.00005410,0.00014154,-0.00120126,-0
 .00092281,0.00000320,0.00000414,0.00103406,-0.00035360,-0.00048568,-0.
 00262310,-0.00091383,-0.00002987,-0.00006386,-0.00006415,0.00010837,-0
 .00010435,0.00007704,-0.00031925,0.00040031,0.00011863,0.00161067,0.00
 478257,0.00257473,-0.00004899,-0.00056918,-0.00043773,0.00095432,0.006
 38405,0.00227492,0.00169383,0.00690770,-0.00151451,-0.03848523,-0.0631
 8267,0.07148196,-0.00523924,0.00127836,0.00698872,0.00026585,-0.000189
 21,0.00038265,0.00000662,0.00000982,0.00007175,-0.00004982,-0.00000922
 ,0.00001213,0.00000238,0.00000498,0.00000033,-0.00000051,-0.00000706,0
 .00000423,-0.00000069,0.00000420,-0.00000066,0.00000945,0.00001792,-0.
 00001191,-0.00000891,-0.00000478,-0.00001970,-0.00003770,0.00003592,0.
 00002833,0.00001230,0.00006082,0.00001294,0.00010234,-0.00015194,0.000
 01302,-0.00004213,-0.00069968,-0.00026869,0.00007869,-0.00031971,-0.00
 027592,-0.00019722,-0.00381610,-0.00158328,0.04131943,0.05157028,0.000
 03104,-0.00002323,-0.00004885,-0.00001733,0.00000635,0.00000450,0.0000
 8691,0.00003041,0.00005206,-0.00009757,-0.00004584,0.00001815,0.000215
 86,0.00002343,-0.00006038,-0.00008111,-0.00020439,0.00075739,0.0020022
 0,0.00051496,-0.00034351,-0.00123934,0.00085567,-0.00117872,0.00085715
 ,-0.00141391,0.00063573,-0.00017988,0.00021220,-0.00049183,-0.00036528
 ,-0.00015788,0.00033082,0.00137405,0.00035248,-0.00053368,-0.00370959,
 0.00244312,-0.00088685,-0.00017308,-0.00044373,0.00044577,-0.00082722,
 0.00218872,0.00134969,-0.00288788,0.00034377,0.00619667,0.12169871,0.0
 7001063,-0.25173879,0.01291752,0.00602095,-0.01457366,0.00000011,-0.00
 012522,0.00020624,0.00006531,0.00004982,-0.00002880,-0.00005185,-0.000
 01118,-0.00003078,-0.00000103,-0.00000050,-0.00000288,-0.00000471,-0.0
 0000571,0.00000654,-0.00000476,-0.00000015,0.00000249,0.00003188,0.000
 00236,0.00001118,0.00009713,0.00001003,-0.00004504,0.00007211,0.000000
 18,-0.00001533,-0.00003573,0.00001214,0.00001654,-0.00017020,0.0000277
 4,-0.00018806,0.00004929,-0.00024550,-0.00011352,-0.00019988,-0.000194
 15,0.00009487,-0.00003012,-0.00167705,0.00018340,-0.12953296,-0.078586
 06,0.25995801,-0.00107256,0.00062665,-0.00548552,0.00018575,-0.0007877
 9,-0.00097169,0.00355588,0.00197402,0.00122590,-0.00600548,0.00306536,
 0.00371597,-0.00103362,-0.00119642,0.00015825,0.00041720,0.00007099,-0
 .00026132,-0.00002929,0.00028306,0.00024164,0.00045505,-0.00109480,-0.
 00023858,-0.00000088,-0.00018258,-0.00015203,-0.00018833,-0.00030782,-
 0.00007513,0.00014287,0.00003568,-0.00002932,-0.00005048,0.00008002,0.
 00000508,0.00000179,-0.00001394,-0.00001602,0.00003086,-0.00002384,0.0
 0003847,-0.00000904,0.00003294,-0.00006528,-0.00005207,0.00000233,0.00
 002437,0.00002586,0.00001502,-0.00000435,-0.00002158,0.00002549,0.0000
 5576,-0.00075854,-0.00085399,-0.00175635,-0.25244106,0.10857167,0.0248
 4283,-0.01752988,0.01041808,0.00458867,-0.00079780,0.00016274,0.000589
 91,-0.00012174,-0.00022142,0.00009609,-0.00020886,0.00031285,-0.000262
 83,0.00015112,0.00003175,0.00015153,0.00013636,-0.00018010,-0.00007076
 ,-0.00008568,-0.00010683,-0.00001199,-0.00000177,-0.00004290,-0.000005
 05,0.00000334,-0.00001474,0.00000126,-0.00000343,-0.00000325,0.0000002
 5,-0.00000177,-0.00000130,-0.00000095,-0.00000104,-0.00000827,-0.00000
 440,0.00000577,-0.00000280,-0.00000398,0.27544953,-0.00092991,0.004289
 04,-0.00297710,-0.00080907,-0.00148731,-0.00165011,0.00317010,0.002689
 36,-0.00190881,0.00393510,-0.00144222,0.00545783,-0.00045781,-0.001253
 82,0.00076007,0.00021154,0.00024986,-0.00050695,-0.00049404,0.00009952
 ,-0.00006190,0.00025705,-0.00009196,-0.00035945,-0.00024907,0.00013698
 ,-0.00042949,0.00022717,0.00056922,0.00084177,0.00061476,0.00012126,-0
 .00012809,-0.00059749,0.00010393,-0.00013993,0.00038673,-0.00003176,0.
 00000599,0.00011536,-0.00013514,0.00036461,-0.00010481,0.00026523,-0.0
 0068281,-0.00080532,-0.00002711,0.00025984,0.00058666,-0.00005429,0.00
 003917,0.00005280,-0.00026861,0.00019058,-0.00036923,-0.00016661,-0.00
 123878,0.12333447,-0.08666848,-0.02855729,-0.00908550,0.00448135,0.000
 37430,-0.00034105,0.00003183,0.00009298,-0.00017201,-0.00058223,0.0002
 0116,0.00044335,0.00072159,-0.00016572,0.00014823,-0.00000553,0.000121
 91,0.00002762,0.00003977,0.00007144,-0.00005495,0.00000096,-0.00000795
 ,0.00000550,-0.00002894,-0.00000712,0.00000402,-0.00003014,0.00002070,
 -0.00002586,-0.00000024,0.00001219,-0.00001195,-0.00000229,-0.00000930
 ,-0.00001022,-0.00000212,-0.00000905,0.00002323,0.00001278,-0.00001968
 ,-0.11896098,0.09084900,-0.00385359,-0.00304811,-0.00068489,-0.0005068
 4,-0.00009489,-0.00110058,-0.00083963,-0.00352085,-0.00491201,0.025849
 55,-0.01076722,0.00001677,0.00085105,0.00142280,0.00033589,-0.00049445
 ,-0.00047001,-0.00020317,0.00007935,0.00046261,-0.00029668,-0.00099211
 ,-0.00113093,0.00036538,0.00017635,0.00004317,0.00015760,-0.00009779,-
 0.00020147,-0.00019974,-0.00009110,-0.00007150,-0.00005184,0.00006288,
 -0.00004623,-0.00003775,-0.00005443,-0.00000966,0.00007829,-0.00011489
 ,0.00006573,-0.00016748,0.00002433,-0.00011683,0.00028899,0.00027181,0
 .00001163,-0.00009822,-0.00015558,-0.00001972,0.00006461,-0.00007831,0
 .00019006,-0.00021458,0.00001274,-0.00000815,0.00049895,0.02307290,-0.
 02438582,-0.05735533,-0.01703052,0.01033775,0.00775510,-0.00082626,0.0
 0007580,0.00043507,0.00011511,0.00032057,-0.00003996,0.00131085,0.0000
 8600,-0.00010850,0.00013181,0.00016742,0.00004898,-0.00009831,0.000325
 13,-0.00046142,0.00011271,0.00019532,-0.00000210,0.00000220,0.00005879
 ,0.00000976,-0.00000447,0.00003083,0.00000123,0.00001072,0.00000264,-0
 .00000289,0.00000527,0.00000337,0.00000355,0.00000019,0.00000663,0.000
 00400,-0.00003153,-0.00001237,-0.00000605,-0.02792428,0.02607199,0.055
 29891,-0.00173978,0.01305279,0.02659251,-0.00544624,0.00224074,-0.0000
 4291,-0.00056098,-0.00019267,-0.00035491,-0.00324054,0.00054020,-0.002
 58740,0.00036677,-0.00019731,-0.00102037,0.00012315,-0.00008595,-0.000
 01905,-0.00007071,-0.00001594,0.00004254,-0.00004325,0.00004267,-0.000
 00806,0.00000418,-0.00000467,-0.00006367,0.00005861,0.00004645,0.00001
 672,-0.00000358,-0.00000160,0.00001136,-0.00002401,-0.00000527,0.00000
 070,0.00000082,-0.00000174,0.00000847,-0.00000611,-0.00000265,0.000011
 86,-0.00000664,0.00000463,-0.00000865,-0.00003193,-0.00000550,0.000005
 27,0.00004359,-0.00000356,0.00000817,-0.00001263,0.00000546,-0.0000083
 4,0.00018468,0.00008971,-0.00004010,0.00868479,-0.01048556,-0.02135728
 ,-0.07374734,0.03214742,0.05771824,0.00105724,-0.00100434,0.00010338,-
 0.00006704,0.00018835,0.00127882,0.00005997,-0.00015986,0.00009402,-0.
 00021449,-0.00017838,-0.00013172,-0.00001084,0.00001087,0.00001191,-0.
 00001487,0.00002088,-0.00000443,-0.00000043,-0.00001776,0.00000325,-0.
 00000162,-0.00000482,0.00000095,-0.00000289,-0.00000315,-0.00000051,-0
 .00000158,-0.00000041,-0.00000012,-0.00000104,-0.00000033,-0.00000200,
 0.00000320,0.00000192,0.00000010,0.00068439,-0.00055895,0.00071035,0.0
 7391175,-0.00095044,0.00356267,-0.00608597,0.00186386,0.00577924,-0.00
 237718,0.00004497,-0.00063873,0.00032960,0.00050877,0.00560294,-0.0016
 9000,0.00020635,0.00099938,-0.00017912,-0.00004446,-0.00013051,-0.0000
 8675,-0.00001934,-0.00000635,0.00002969,-0.00012530,-0.00002786,0.0000
 1144,0.00005381,-0.00001382,-0.00002734,0.00005549,-0.00004122,0.00002
 325,-0.00005509,-0.00001691,-0.00004008,-0.00006194,-0.00001740,-0.000
 00612,0.00005847,-0.00000847,0.00004250,-0.00006581,0.00000946,-0.0000
 2008,-0.00000910,-0.00001113,0.00003105,-0.00004340,-0.00001426,0.0000
 0084,0.00007896,-0.00001883,0.00003585,-0.00002917,0.00006225,-0.00003
 552,-0.00002615,0.00002159,0.00012096,0.00103128,-0.00027297,-0.003348
 83,0.03596351,-0.09530343,-0.11252931,-0.00085444,-0.00309157,0.001520
 87,-0.00015964,-0.00059318,-0.00005672,-0.00012766,-0.00080761,0.00032
 795,0.00012840,-0.00005124,0.00009787,0.00002317,0.00000284,0.00002142
 ,-0.00000494,0.00002177,-0.00001107,-0.00002119,-0.00000084,0.00000606
 ,-0.00000606,0.00001089,0.00000217,-0.00000242,-0.00000165,-0.00000092
 ,0.00000005,0.00000297,0.00000123,-0.00000126,0.00000459,-0.00000088,-
 0.00000011,0.00000875,0.00000239,-0.00172588,-0.00226924,0.00156930,-0
 .03523058,0.08738648,-0.00005240,-0.00246354,0.00025791,0.00024490,-0.
 00268098,0.00198431,0.00033229,0.00051008,0.00074683,-0.00446026,-0.00
 218773,0.00096370,0.00045351,-0.00066464,-0.00062034,0.00007981,0.0000
 2392,0.00001314,-0.00005819,0.00006585,-0.00004158,0.00017294,0.000005
 02,0.00000445,-0.00000143,-0.00000502,-0.00003065,-0.00006530,0.000003
 61,0.00013145,0.00012104,0.00003226,-0.00006367,-0.00012330,0.00001717
 ,-0.00001226,0.00008118,-0.00000095,-0.00001442,0.00002178,-0.00002426
 ,0.00006281,-0.00001833,0.00004971,-0.00013445,-0.00015462,-0.00000628
 ,0.00005336,0.00010327,-0.00000814,0.00001471,-0.00001642,-0.00003628,
 0.00004375,0.00011862,0.00006516,-0.00009597,0.00661193,-0.00700771,-0
 .01238980,0.05639187,-0.11216437,-0.27351380,0.00031176,0.00182407,-0.
 00006825,-0.00010573,0.00019163,-0.00012393,0.00007075,0.00037314,-0.0
 0020982,-0.00027049,-0.00007108,-0.00017044,-0.00002493,0.00000085,-0.
 00000308,-0.00001094,0.00000963,0.00000781,0.00000412,-0.00000175,0.00
 000331,-0.00000157,-0.00000469,0.00000366,-0.00000432,0.00000090,0.000
 00296,-0.00000142,-0.00000110,-0.00000187,-0.00000296,-0.00000092,-0.0
 0000051,0.00000682,-0.00000284,-0.00000406,0.00082226,0.00125693,0.000
 23751,-0.06069449,0.12318121,0.28297678,-0.00210167,0.00103200,0.00113
 434,-0.00026486,-0.00038526,-0.00005683,-0.00248702,-0.00008196,-0.000
 70505,-0.00074885,-0.00124333,0.00449123,0.00409846,-0.00017129,0.0034
 8850,0.00090180,-0.00043459,0.00010091,-0.00013251,-0.00401770,0.00410
 800,-0.01065915,0.00654132,-0.01520970,-0.01485356,0.00261903,-0.00919
 651,-0.03910491,-0.00388756,-0.00538277,-0.00977909,-0.00453711,0.0137
 8755,0.00919447,-0.00019707,0.00015647,-0.00682686,-0.00038847,0.00113
 634,0.00044653,0.00071148,-0.00195980,0.00087736,-0.00243812,0.0066709
 6,0.00902892,0.00066107,-0.00308372,-0.00579150,0.00112869,-0.00216178
 ,0.00409033,0.00067308,-0.00191731,-0.00801965,0.00018769,-0.01546775,
 -0.00141874,-0.00851393,0.00153272,-0.00067547,0.00022716,-0.00158606,
 -0.00001504,0.00009292,-0.00006096,0.00003189,-0.00000474,-0.00005712,
 0.00011276,-0.00001131,0.00001785,-0.00068289,-0.00061217,0.00060437,-
 0.00018459,-0.00001336,0.00006378,-0.00006967,-0.00020140,-0.00006125,
 -0.00016099,-0.00040326,-0.00010441,0.00077716,-0.00012316,0.00002223,
 0.00023416,0.00000514,-0.00008531,-0.00004384,-0.00001404,0.00011764,0
 .00019708,-0.00000936,-0.00004625,-0.00033779,-0.00004525,0.00011409,-
 0.00083085,0.00049452,0.00039393,0.00006539,-0.00045270,0.00011827,0.0
 7513317,0.00100557,-0.00030863,-0.00078104,0.00024398,-0.00068558,-0.0
 0177530,0.00368603,-0.00090063,0.00031955,-0.00397847,-0.00239420,0.00
 758791,0.00226415,0.00069718,0.00332821,0.00045583,-0.00061063,0.00065
 102,0.00039136,-0.00165085,0.00175307,0.00406134,-0.00027732,0.0027795
 1,0.00148941,0.00182061,-0.00021646,-0.00995548,-0.01022861,-0.0011337
 7,-0.00289303,-0.00010260,0.00139759,0.00063366,0.00140409,0.00077264,
 0.00020374,-0.00040064,0.00023810,-0.00057027,-0.00012269,-0.00030730,
 -0.00000914,-0.00014422,0.00065800,0.00031907,0.00000223,-0.00013313,0
 .00020184,0.00031908,-0.00023313,0.00082267,0.00069094,0.00106372,-0.0
 0448642,-0.00111377,-0.00203544,-0.00267055,-0.00130334,0.00246260,-0.
 00471853,-0.00213339,-0.00330861,0.00018795,0.00007771,-0.00012559,-0.
 00012390,0.00009374,-0.00007987,0.00024973,0.00002177,-0.00005701,-0.0
 0005066,-0.00013069,-0.00009410,0.00016601,-0.00022569,0.00023008,-0.0
 0005439,-0.00014253,0.00000672,-0.00061764,-0.00068371,0.00005919,0.00
 008294,0.00001624,0.00002309,-0.00000451,0.00002440,-0.00000091,-0.000
 00479,0.00002354,0.00002581,0.00002554,-0.00005453,-0.00004500,0.00004
 404,0.00003128,0.00004682,0.00002099,-0.01011366,0.00245622,-0.0002310
 8,-0.00013864,-0.00027886,0.01381302,0.02864375,-0.00340708,0.00170307
 ,0.00152971,-0.00076758,-0.00116688,-0.00318966,0.00429861,-0.00051487
 ,0.00010343,0.00225427,0.00283263,-0.00329474,0.00488265,0.00119948,-0
 .00945338,0.00028252,-0.00038861,-0.00048246,0.00487315,-0.00732783,0.
 00511945,-0.02826516,0.00675180,-0.00978025,-0.00633599,0.00035400,0.0
 0124071,0.00264893,0.00101340,-0.01545109,0.00401506,-0.00094631,0.002
 92552,0.00372403,0.00063237,-0.00119265,-0.00356735,-0.00014337,0.0009
 5895,-0.00074212,0.00093885,-0.00255420,0.00066236,-0.00205967,0.00550
 573,0.00654023,0.00033839,-0.00223119,-0.00452367,0.00029836,-0.000137
 00,-0.00032467,0.00286148,-0.00404789,-0.00938261,0.00318782,-0.063447
 78,0.00078816,0.00301248,-0.00312632,0.00228996,0.00006719,0.00066156,
 0.00003160,0.00026434,0.00002864,0.00001166,-0.00020631,-0.00007082,-0
 .00003635,-0.00012603,-0.00000113,-0.00058362,0.00058455,0.00012355,-0
 .00000034,-0.00004088,0.00006162,0.00011806,-0.00012080,0.00002674,0.0
 0077468,0.00053385,-0.00033151,0.00031708,-0.00009724,-0.00003132,0.00
 020011,-0.00002072,-0.00008162,0.00004547,0.00002524,0.00007709,0.0000
 7171,0.00001839,0.00001577,-0.00048408,-0.00006019,0.00002074,0.000781
 56,0.00271609,0.00034259,-0.00027462,-0.00085978,-0.00000954,0.0190833
 7,-0.01525430,0.10017274\\0.00001155,-0.00000555,-0.00000825,0.0000037
 7,0.00000390,0.00001122,-0.00000799,0.00000063,-0.00000329,0.00000246,
 -0.00000103,-0.00000397,-0.00000538,0.00000770,-0.00000551,0.00001745,
 -0.00000895,0.00000110,-0.00001233,0.00000197,-0.00000413,0.00000726,-
 0.00000330,0.00000442,0.00000755,0.00000069,-0.00000162,-0.00000569,0.
 00000334,-0.00000067,0.00000529,-0.00000150,-0.00000074,-0.00000375,-0
 .00000055,0.00000211,0.00000360,0.00000222,-0.00000877,0.00000230,-0.0
 0000136,0.00000414,0.00000009,0.00000162,-0.00000488,-0.00000357,-0.00
 000033,0.00000020,0.00000410,-0.00000043,-0.00000072,-0.00000914,-0.00
 000230,0.00000868,-0.00000603,-0.00000154,-0.00000466,0.00000377,0.000
 00444,0.00000833,-0.00001612,0.00000025,-0.00000231,-0.00000174,0.0000
 0052,0.00000181,-0.00000064,-0.00000051,-0.00000066,0.00000189,0.00000
 005,0.00000115,0.00000121,-0.00000254,0.00000135,0.00000036,0.00000016
 ,0.00000103,-0.00000100,0.00000302,-0.00000053,-0.00000119,0.00000194,
 0.00000079,-0.00000007,0.00000049,-0.00000038,-0.00000126,0.00000054,-
 0.00000157,0.00000028,-0.00000025,-0.00000043,0.00000009,-0.00000041,-
 0.00000026,-0.00000025,-0.00000073,-0.00000028,0.00000039,-0.00000155,
 -0.00000153,0.00000147,0.00000152,0.00000021,0.00000123,-0.00000214,0.
 00000866\\\@
 The archive entry for this job was punched.


 CURIOUSER AND CURIOUSER

                  -- ALICE, IN WONDERLAND
 Job cpu time:       0 days  2 hours 24 minutes 13.0 seconds.
 Elapsed time:       0 days  0 hours  4 minutes 34.1 seconds.
 File lengths (MBytes):  RWF=   1068 Int=      0 D2E=      0 Chk=     15 Scr=      1
 Normal termination of Gaussian 16 at Thu Aug  1 11:09:05 2024.
