 Entering Gaussian System, Link 0=g16
 Initial command:
 /public/apps/g16-C01//g16/l1.exe "/public/home/ljq/tmp/Gau-70514.inp" -scrdir="/public/home/ljq/tmp/"
 Entering Link 1 = /public/apps/g16-C01//g16/l1.exe PID=     70515.
  
 Copyright (c) 1988-2019, Gaussian, Inc.  All Rights Reserved.
  
 This is part of the Gaussian(R) 16 program.  It is based on
 the Gaussian(R) 09 system (copyright 2009, Gaussian, Inc.),
 the Gaussian(R) 03 system (copyright 2003, Gaussian, Inc.),
 the Gaussian(R) 98 system (copyright 1998, Gaussian, Inc.),
 the Gaussian(R) 94 system (copyright 1995, Gaussian, Inc.),
 the Gaussian 92(TM) system (copyright 1992, Gaussian, Inc.),
 the Gaussian 90(TM) system (copyright 1990, Gaussian, Inc.),
 the Gaussian 88(TM) system (copyright 1988, Gaussian, Inc.),
 the Gaussian 86(TM) system (copyright 1986, Carnegie Mellon
 University), and the Gaussian 82(TM) system (copyright 1983,
 Carnegie Mellon University). Gaussian is a federally registered
 trademark of Gaussian, Inc.
  
 This software contains proprietary and confidential information,
 including trade secrets, belonging to Gaussian, Inc.
  
 This software is provided under written license and may be
 used, copied, transmitted, or stored only in accord with that
 written license.
  
 The following legend is applicable only to US Government
 contracts under FAR:
  
                    RESTRICTED RIGHTS LEGEND
  
 Use, reproduction and disclosure by the US Government is
 subject to restrictions as set forth in subparagraphs (a)
 and (c) of the Commercial Computer Software - Restricted
 Rights clause in FAR 52.227-19.
  
 Gaussian, Inc.
 340 Quinnipiac St., Bldg. 40, Wallingford CT 06492
  
  
 ---------------------------------------------------------------
 Warning -- This program may not be used in any manner that
 competes with the business of Gaussian, Inc. or will provide
 assistance to any competitor of Gaussian, Inc.  The licensee
 of this program is prohibited from giving any competitor of
 Gaussian, Inc. access to this program.  By using this program,
 the user acknowledges that Gaussian, Inc. is engaged in the
 business of creating and licensing software in the field of
 computational chemistry and represents and warrants to the
 licensee that it is not a competitor of Gaussian, Inc. and that
 it will not use this program in any manner prohibited above.
 ---------------------------------------------------------------
  

 Cite this work as:
 Gaussian 16, Revision C.01,
 M. J. Frisch, G. W. Trucks, H. B. Schlegel, G. E. Scuseria, 
 M. A. Robb, J. R. Cheeseman, G. Scalmani, V. Barone, 
 G. A. Petersson, H. Nakatsuji, X. Li, M. Caricato, A. V. Marenich, 
 J. Bloino, B. G. Janesko, R. Gomperts, B. Mennucci, H. P. Hratchian, 
 J. V. Ortiz, A. F. Izmaylov, J. L. Sonnenberg, D. Williams-Young, 
 F. Ding, F. Lipparini, F. Egidi, J. Goings, B. Peng, A. Petrone, 
 T. Henderson, D. Ranasinghe, V. G. Zakrzewski, J. Gao, N. Rega, 
 G. Zheng, W. Liang, M. Hada, M. Ehara, K. Toyota, R. Fukuda, 
 J. Hasegawa, M. Ishida, T. Nakajima, Y. Honda, O. Kitao, H. Nakai, 
 T. Vreven, K. Throssell, J. A. Montgomery, Jr., J. E. Peralta, 
 F. Ogliaro, M. J. Bearpark, J. J. Heyd, E. N. Brothers, K. N. Kudin, 
 V. N. Staroverov, T. A. Keith, R. Kobayashi, J. Normand, 
 K. Raghavachari, A. P. Rendell, J. C. Burant, S. S. Iyengar, 
 J. Tomasi, M. Cossi, J. M. Millam, M. Klene, C. Adamo, R. Cammi, 
 J. W. Ochterski, R. L. Martin, K. Morokuma, O. Farkas, 
 J. B. Foresman, and D. J. Fox, Gaussian, Inc., Wallingford CT, 2019.
 
 ******************************************
 Gaussian 16:  ES64L-G16RevC.01  3-Jul-2019
                24-Feb-2024 
 ******************************************
 %nproc=40
 Will use up to   40 processors via shared memory.
 %mem=56GB
 ------------------------------------------
 #p opt freq b3lyp/def2svpp em=gd3bj nosymm
 ------------------------------------------
 1/18=20,19=15,26=3,38=1/1,3;
 2/9=110,12=2,15=1,17=6,18=5,40=1/2;
 3/5=43,7=202,11=2,25=1,30=1,71=1,74=-5,124=41/1,2,3;
 4//1;
 5/5=2,38=5/2;
 6/7=2,8=2,9=2,10=2,28=1/1;
 7/30=1/1,2,3,16;
 1/18=20,19=15,26=3/3(2);
 2/9=110,15=1/2;
 99//99;
 2/9=110,15=1/2;
 3/5=43,7=202,11=2,25=1,30=1,71=1,74=-5,124=41/1,2,3;
 4/5=5,16=3,69=1/1;
 5/5=2,38=5/2;
 7/30=1/1,2,3,16;
 1/18=20,19=15,26=3/3(-5);
 2/9=110,15=1/2;
 6/7=2,8=2,9=2,10=2,19=2,28=1/1;
 99/9=1/99;
 Leave Link    1 at Sat Feb 24 15:37:24 2024, MaxMem=  7516192768 cpu:               7.3 elap:               0.5
 (Enter /public/apps/g16-C01//g16/l101.exe)
 ----------------------
 $$$$Singlemol####0????
 ----------------------
 Symbolic Z-matrix:
 Charge =  0 Multiplicity = 1
 C                    -5.00752   0.46968   4.2544 
 O                    -5.19472  -0.55287   3.30907 
 C                    -4.11818  -0.72796   2.41825 
 C                    -3.96824   0.40627   1.38924 
 C                    -2.92548   0.05039   0.37369 
 C                    -3.25031  -0.41059  -0.87207 
 C                    -2.26409  -0.7629   -1.81542 
 C                    -2.59622  -1.23708  -3.10047 
 C                    -1.62126  -1.5782   -3.99575 
 C                    -0.26911  -1.46463  -3.64053 
 C                     0.08586  -1.00876  -2.40164 
 C                    -0.8966   -0.63937  -1.46017 
 C                    -0.56371  -0.16049  -0.17063 
 C                     0.86048   0.00018   0.22254 
 C                     1.54096   1.13181  -0.19396 
 O                     0.84922   2.04803  -0.91049 
 C                     2.90338   1.31733   0.15846 
 C                     3.65251   2.55832  -0.25796 
 C                     3.96968   2.59849  -1.75719 
 O                     2.85758   3.14416  -2.44072 
 C                     2.95725   3.07217  -3.84048 
 C                     3.53504   0.35254   0.89836 
 C                     2.87548  -0.81239   1.33481 
 C                     3.52724  -1.80181   2.09888 
 C                     2.859    -2.92211   2.50597 
 C                     1.5101   -3.10341   2.16224 
 C                     0.84896  -2.16261   1.42411 
 C                     1.50995  -0.99113   0.9951 
 C                    -1.55819   0.17418   0.72211 
 O                    -1.26685   0.64035   1.97071 
 H                    -5.82567   0.38209   4.9675 
 H                    -5.03857   1.46429   3.79605 
 H                    -4.05137   0.3528    4.77907 
 H                    -4.33264  -1.6649    1.89633 
 H                    -3.17674  -0.83664   2.97545 
 H                    -4.93182   0.56712   0.9034 
 H                    -3.6677    1.32003   1.9041 
 H                    -4.29015  -0.50566  -1.15095 
 H                    -3.64059  -1.32695  -3.36437 
 H                    -1.88385  -1.94023  -4.97925 
 H                     0.49149  -1.74479  -4.35548 
 H                     1.12762  -0.92989  -2.12554 
 H                     1.46221   2.6305   -1.39452 
 H                     4.58996   2.60018   0.29721 
 H                     3.07479   3.45442  -0.01474 
 H                     4.18457   1.58603  -2.13055 
 H                     4.85364   3.22603  -1.94354 
 H                     3.82986   3.62779  -4.20166 
 H                     2.04875   3.51843  -4.23878 
 H                     3.03295   2.03174  -4.17712 
 H                     4.57368   0.48401   1.16928 
 H                     4.56713  -1.65623   2.3554 
 H                     3.36376  -3.67648   3.09137 
 H                     0.99694  -3.99696   2.48591 
 H                    -0.18744  -2.30357   1.15354 
 H                    -0.30635   0.71622   2.05311 
 
 ITRead=  0  0  0  0  0  0  0  0  0  0  0  0  0  0  0  0  0  0  0  0
 ITRead=  0  0  0  0  0  0  0  0  0  0  0  0  0  0  0  0  0  0  0  0
 ITRead=  0  0  0  0  0  0  0  0  0  0  0  0  0  0  0  0
 MicOpt= -1 -1 -1 -1 -1 -1 -1 -1 -1 -1 -1 -1 -1 -1 -1 -1 -1 -1 -1 -1
 MicOpt= -1 -1 -1 -1 -1 -1 -1 -1 -1 -1 -1 -1 -1 -1 -1 -1 -1 -1 -1 -1
 MicOpt= -1 -1 -1 -1 -1 -1 -1 -1 -1 -1 -1 -1 -1 -1 -1 -1
 NAtoms=     56 NQM=       56 NQMF=       0 NMMI=      0 NMMIF=      0
                NMic=       0 NMicF=      0.
                    Isotopes and Nuclear Properties:
 (Nuclear quadrupole moments (NQMom) in fm**2, nuclear magnetic moments (NMagM)
  in nuclear magnetons)

  Atom         1           2           3           4           5           6           7           8           9          10
 IAtWgt=          12          16          12          12          12          12          12          12          12          12
 AtmWgt=  12.0000000  15.9949146  12.0000000  12.0000000  12.0000000  12.0000000  12.0000000  12.0000000  12.0000000  12.0000000
 NucSpn=           0           0           0           0           0           0           0           0           0           0
 AtZEff=  -0.0000000  -0.0000000  -0.0000000  -0.0000000  -0.0000000  -0.0000000  -0.0000000  -0.0000000  -0.0000000  -0.0000000
 NQMom=    0.0000000   0.0000000   0.0000000   0.0000000   0.0000000   0.0000000   0.0000000   0.0000000   0.0000000   0.0000000
 NMagM=    0.0000000   0.0000000   0.0000000   0.0000000   0.0000000   0.0000000   0.0000000   0.0000000   0.0000000   0.0000000
 AtZNuc=   6.0000000   8.0000000   6.0000000   6.0000000   6.0000000   6.0000000   6.0000000   6.0000000   6.0000000   6.0000000

  Atom        11          12          13          14          15          16          17          18          19          20
 IAtWgt=          12          12          12          12          12          16          12          12          12          16
 AtmWgt=  12.0000000  12.0000000  12.0000000  12.0000000  12.0000000  15.9949146  12.0000000  12.0000000  12.0000000  15.9949146
 NucSpn=           0           0           0           0           0           0           0           0           0           0
 AtZEff=  -0.0000000  -0.0000000  -0.0000000  -0.0000000  -0.0000000  -0.0000000  -0.0000000  -0.0000000  -0.0000000  -0.0000000
 NQMom=    0.0000000   0.0000000   0.0000000   0.0000000   0.0000000   0.0000000   0.0000000   0.0000000   0.0000000   0.0000000
 NMagM=    0.0000000   0.0000000   0.0000000   0.0000000   0.0000000   0.0000000   0.0000000   0.0000000   0.0000000   0.0000000
 AtZNuc=   6.0000000   6.0000000   6.0000000   6.0000000   6.0000000   8.0000000   6.0000000   6.0000000   6.0000000   8.0000000

  Atom        21          22          23          24          25          26          27          28          29          30
 IAtWgt=          12          12          12          12          12          12          12          12          12          16
 AtmWgt=  12.0000000  12.0000000  12.0000000  12.0000000  12.0000000  12.0000000  12.0000000  12.0000000  12.0000000  15.9949146
 NucSpn=           0           0           0           0           0           0           0           0           0           0
 AtZEff=  -0.0000000  -0.0000000  -0.0000000  -0.0000000  -0.0000000  -0.0000000  -0.0000000  -0.0000000  -0.0000000  -0.0000000
 NQMom=    0.0000000   0.0000000   0.0000000   0.0000000   0.0000000   0.0000000   0.0000000   0.0000000   0.0000000   0.0000000
 NMagM=    0.0000000   0.0000000   0.0000000   0.0000000   0.0000000   0.0000000   0.0000000   0.0000000   0.0000000   0.0000000
 AtZNuc=   6.0000000   6.0000000   6.0000000   6.0000000   6.0000000   6.0000000   6.0000000   6.0000000   6.0000000   8.0000000

  Atom        31          32          33          34          35          36          37          38          39          40
 IAtWgt=           1           1           1           1           1           1           1           1           1           1
 AtmWgt=   1.0078250   1.0078250   1.0078250   1.0078250   1.0078250   1.0078250   1.0078250   1.0078250   1.0078250   1.0078250
 NucSpn=           1           1           1           1           1           1           1           1           1           1
 AtZEff=  -0.0000000  -0.0000000  -0.0000000  -0.0000000  -0.0000000  -0.0000000  -0.0000000  -0.0000000  -0.0000000  -0.0000000
 NQMom=    0.0000000   0.0000000   0.0000000   0.0000000   0.0000000   0.0000000   0.0000000   0.0000000   0.0000000   0.0000000
 NMagM=    2.7928460   2.7928460   2.7928460   2.7928460   2.7928460   2.7928460   2.7928460   2.7928460   2.7928460   2.7928460
 AtZNuc=   1.0000000   1.0000000   1.0000000   1.0000000   1.0000000   1.0000000   1.0000000   1.0000000   1.0000000   1.0000000

  Atom        41          42          43          44          45          46          47          48          49          50
 IAtWgt=           1           1           1           1           1           1           1           1           1           1
 AtmWgt=   1.0078250   1.0078250   1.0078250   1.0078250   1.0078250   1.0078250   1.0078250   1.0078250   1.0078250   1.0078250
 NucSpn=           1           1           1           1           1           1           1           1           1           1
 AtZEff=  -0.0000000  -0.0000000  -0.0000000  -0.0000000  -0.0000000  -0.0000000  -0.0000000  -0.0000000  -0.0000000  -0.0000000
 NQMom=    0.0000000   0.0000000   0.0000000   0.0000000   0.0000000   0.0000000   0.0000000   0.0000000   0.0000000   0.0000000
 NMagM=    2.7928460   2.7928460   2.7928460   2.7928460   2.7928460   2.7928460   2.7928460   2.7928460   2.7928460   2.7928460
 AtZNuc=   1.0000000   1.0000000   1.0000000   1.0000000   1.0000000   1.0000000   1.0000000   1.0000000   1.0000000   1.0000000

  Atom        51          52          53          54          55          56
 IAtWgt=           1           1           1           1           1           1
 AtmWgt=   1.0078250   1.0078250   1.0078250   1.0078250   1.0078250   1.0078250
 NucSpn=           1           1           1           1           1           1
 AtZEff=  -0.0000000  -0.0000000  -0.0000000  -0.0000000  -0.0000000  -0.0000000
 NQMom=    0.0000000   0.0000000   0.0000000   0.0000000   0.0000000   0.0000000
 NMagM=    2.7928460   2.7928460   2.7928460   2.7928460   2.7928460   2.7928460
 AtZNuc=   1.0000000   1.0000000   1.0000000   1.0000000   1.0000000   1.0000000
 Leave Link  101 at Sat Feb 24 15:37:24 2024, MaxMem=  7516192768 cpu:               5.7 elap:               0.4
 (Enter /public/apps/g16-C01//g16/l103.exe)

 GradGradGradGradGradGradGradGradGradGradGradGradGradGradGradGradGradGrad
 Berny optimization.
 Initialization pass.
                           ----------------------------
                           !    Initial Parameters    !
                           ! (Angstroms and Degrees)  !
 --------------------------                            --------------------------
 ! Name  Definition              Value          Derivative Info.                !
 --------------------------------------------------------------------------------
 ! R1    R(1,2)                  1.4051         estimate D2E/DX2                !
 ! R2    R(1,31)                 1.0888         estimate D2E/DX2                !
 ! R3    R(1,32)                 1.0956         estimate D2E/DX2                !
 ! R4    R(1,33)                 1.0969         estimate D2E/DX2                !
 ! R5    R(2,3)                  1.4083         estimate D2E/DX2                !
 ! R6    R(3,4)                  1.5388         estimate D2E/DX2                !
 ! R7    R(3,34)                 1.0937         estimate D2E/DX2                !
 ! R8    R(3,35)                 1.0994         estimate D2E/DX2                !
 ! R9    R(4,5)                  1.4985         estimate D2E/DX2                !
 ! R10   R(4,36)                 1.0911         estimate D2E/DX2                !
 ! R11   R(4,37)                 1.091          estimate D2E/DX2                !
 ! R12   R(5,6)                  1.3675         estimate D2E/DX2                !
 ! R13   R(5,29)                 1.4164         estimate D2E/DX2                !
 ! R14   R(6,7)                  1.4095         estimate D2E/DX2                !
 ! R15   R(6,38)                 1.0808         estimate D2E/DX2                !
 ! R16   R(7,8)                  1.4094         estimate D2E/DX2                !
 ! R17   R(7,12)                 1.4183         estimate D2E/DX2                !
 ! R18   R(8,9)                  1.3669         estimate D2E/DX2                !
 ! R19   R(8,39)                 1.0809         estimate D2E/DX2                !
 ! R20   R(9,10)                 1.4026         estimate D2E/DX2                !
 ! R21   R(9,40)                 1.0804         estimate D2E/DX2                !
 ! R22   R(10,11)                1.367          estimate D2E/DX2                !
 ! R23   R(10,41)                1.0808         estimate D2E/DX2                !
 ! R24   R(11,12)                1.41           estimate D2E/DX2                !
 ! R25   R(11,42)                1.0806         estimate D2E/DX2                !
 ! R26   R(12,13)                1.4153         estimate D2E/DX2                !
 ! R27   R(13,14)                1.4862         estimate D2E/DX2                !
 ! R28   R(13,29)                1.3777         estimate D2E/DX2                !
 ! R29   R(14,15)                1.3846         estimate D2E/DX2                !
 ! R30   R(14,28)                1.4147         estimate D2E/DX2                !
 ! R31   R(15,16)                1.3533         estimate D2E/DX2                !
 ! R32   R(15,17)                1.4194         estimate D2E/DX2                !
 ! R33   R(16,43)                0.9743         estimate D2E/DX2                !
 ! R34   R(17,18)                1.5082         estimate D2E/DX2                !
 ! R35   R(17,22)                1.3701         estimate D2E/DX2                !
 ! R36   R(18,19)                1.5329         estimate D2E/DX2                !
 ! R37   R(18,44)                1.0903         estimate D2E/DX2                !
 ! R38   R(18,45)                1.0936         estimate D2E/DX2                !
 ! R39   R(19,20)                1.4148         estimate D2E/DX2                !
 ! R40   R(19,46)                1.1003         estimate D2E/DX2                !
 ! R41   R(19,47)                1.1            estimate D2E/DX2                !
 ! R42   R(20,21)                1.4052         estimate D2E/DX2                !
 ! R43   R(21,48)                1.0957         estimate D2E/DX2                !
 ! R44   R(21,49)                1.0877         estimate D2E/DX2                !
 ! R45   R(21,50)                1.0961         estimate D2E/DX2                !
 ! R46   R(22,23)                1.408          estimate D2E/DX2                !
 ! R47   R(22,51)                1.0814         estimate D2E/DX2                !
 ! R48   R(23,24)                1.4098         estimate D2E/DX2                !
 ! R49   R(23,28)                1.4185         estimate D2E/DX2                !
 ! R50   R(24,25)                1.3665         estimate D2E/DX2                !
 ! R51   R(24,52)                1.0809         estimate D2E/DX2                !
 ! R52   R(25,26)                1.4038         estimate D2E/DX2                !
 ! R53   R(25,53)                1.0801         estimate D2E/DX2                !
 ! R54   R(26,27)                1.3664         estimate D2E/DX2                !
 ! R55   R(26,54)                1.0801         estimate D2E/DX2                !
 ! R56   R(27,28)                1.4119         estimate D2E/DX2                !
 ! R57   R(27,55)                1.0804         estimate D2E/DX2                !
 ! R58   R(29,30)                1.3642         estimate D2E/DX2                !
 ! R59   R(30,56)                0.967          estimate D2E/DX2                !
 ! A1    A(2,1,31)             106.3776         estimate D2E/DX2                !
 ! A2    A(2,1,32)             112.0505         estimate D2E/DX2                !
 ! A3    A(2,1,33)             111.1253         estimate D2E/DX2                !
 ! A4    A(31,1,32)            109.0094         estimate D2E/DX2                !
 ! A5    A(31,1,33)            109.4613         estimate D2E/DX2                !
 ! A6    A(32,1,33)            108.7565         estimate D2E/DX2                !
 ! A7    A(1,2,3)              114.47           estimate D2E/DX2                !
 ! A8    A(2,3,4)              113.9448         estimate D2E/DX2                !
 ! A9    A(2,3,34)             104.9794         estimate D2E/DX2                !
 ! A10   A(2,3,35)             110.2624         estimate D2E/DX2                !
 ! A11   A(4,3,34)             109.3553         estimate D2E/DX2                !
 ! A12   A(4,3,35)             109.1697         estimate D2E/DX2                !
 ! A13   A(34,3,35)            108.9711         estimate D2E/DX2                !
 ! A14   A(3,4,5)              110.2407         estimate D2E/DX2                !
 ! A15   A(3,4,36)             108.6866         estimate D2E/DX2                !
 ! A16   A(3,4,37)             109.1837         estimate D2E/DX2                !
 ! A17   A(5,4,36)             110.3537         estimate D2E/DX2                !
 ! A18   A(5,4,37)             109.0888         estimate D2E/DX2                !
 ! A19   A(36,4,37)            109.2655         estimate D2E/DX2                !
 ! A20   A(4,5,6)              122.1524         estimate D2E/DX2                !
 ! A21   A(4,5,29)             118.9659         estimate D2E/DX2                !
 ! A22   A(6,5,29)             118.8733         estimate D2E/DX2                !
 ! A23   A(5,6,7)              121.8549         estimate D2E/DX2                !
 ! A24   A(5,6,38)             119.5564         estimate D2E/DX2                !
 ! A25   A(7,6,38)             118.5879         estimate D2E/DX2                !
 ! A26   A(6,7,8)              121.9664         estimate D2E/DX2                !
 ! A27   A(6,7,12)             119.0279         estimate D2E/DX2                !
 ! A28   A(8,7,12)             119.0055         estimate D2E/DX2                !
 ! A29   A(7,8,9)              120.8664         estimate D2E/DX2                !
 ! A30   A(7,8,39)             118.5712         estimate D2E/DX2                !
 ! A31   A(9,8,39)             120.5624         estimate D2E/DX2                !
 ! A32   A(8,9,10)             120.1001         estimate D2E/DX2                !
 ! A33   A(8,9,40)             120.4298         estimate D2E/DX2                !
 ! A34   A(10,9,40)            119.4698         estimate D2E/DX2                !
 ! A35   A(9,10,11)            120.454          estimate D2E/DX2                !
 ! A36   A(9,10,41)            119.3331         estimate D2E/DX2                !
 ! A37   A(11,10,41)           120.2125         estimate D2E/DX2                !
 ! A38   A(10,11,12)           120.7685         estimate D2E/DX2                !
 ! A39   A(10,11,42)           120.4134         estimate D2E/DX2                !
 ! A40   A(12,11,42)           118.8174         estimate D2E/DX2                !
 ! A41   A(7,12,11)            118.8016         estimate D2E/DX2                !
 ! A42   A(7,12,13)            118.9785         estimate D2E/DX2                !
 ! A43   A(11,12,13)           122.2179         estimate D2E/DX2                !
 ! A44   A(12,13,14)           120.2002         estimate D2E/DX2                !
 ! A45   A(12,13,29)           120.1882         estimate D2E/DX2                !
 ! A46   A(14,13,29)           119.6074         estimate D2E/DX2                !
 ! A47   A(13,14,15)           118.6686         estimate D2E/DX2                !
 ! A48   A(13,14,28)           120.5746         estimate D2E/DX2                !
 ! A49   A(15,14,28)           120.7536         estimate D2E/DX2                !
 ! A50   A(14,15,16)           117.477          estimate D2E/DX2                !
 ! A51   A(14,15,17)           120.2558         estimate D2E/DX2                !
 ! A52   A(16,15,17)           122.2485         estimate D2E/DX2                !
 ! A53   A(15,16,43)           110.2541         estimate D2E/DX2                !
 ! A54   A(15,17,18)           121.0475         estimate D2E/DX2                !
 ! A55   A(15,17,22)           118.9827         estimate D2E/DX2                !
 ! A56   A(18,17,22)           119.9675         estimate D2E/DX2                !
 ! A57   A(17,18,19)           113.226          estimate D2E/DX2                !
 ! A58   A(17,18,44)           108.5461         estimate D2E/DX2                !
 ! A59   A(17,18,45)           110.5136         estimate D2E/DX2                !
 ! A60   A(19,18,44)           108.6079         estimate D2E/DX2                !
 ! A61   A(19,18,45)           107.7791         estimate D2E/DX2                !
 ! A62   A(44,18,45)           108.0305         estimate D2E/DX2                !
 ! A63   A(18,19,20)           108.6612         estimate D2E/DX2                !
 ! A64   A(18,19,46)           110.3755         estimate D2E/DX2                !
 ! A65   A(18,19,47)           110.2985         estimate D2E/DX2                !
 ! A66   A(20,19,46)           110.1492         estimate D2E/DX2                !
 ! A67   A(20,19,47)           109.256          estimate D2E/DX2                !
 ! A68   A(46,19,47)           108.0911         estimate D2E/DX2                !
 ! A69   A(19,20,21)           113.9382         estimate D2E/DX2                !
 ! A70   A(20,21,48)           111.0308         estimate D2E/DX2                !
 ! A71   A(20,21,49)           106.5292         estimate D2E/DX2                !
 ! A72   A(20,21,50)           111.0672         estimate D2E/DX2                !
 ! A73   A(48,21,49)           109.6582         estimate D2E/DX2                !
 ! A74   A(48,21,50)           108.9698         estimate D2E/DX2                !
 ! A75   A(49,21,50)           109.551          estimate D2E/DX2                !
 ! A76   A(17,22,23)           122.277          estimate D2E/DX2                !
 ! A77   A(17,22,51)           119.5034         estimate D2E/DX2                !
 ! A78   A(23,22,51)           118.2176         estimate D2E/DX2                !
 ! A79   A(22,23,24)           122.146          estimate D2E/DX2                !
 ! A80   A(22,23,28)           118.7484         estimate D2E/DX2                !
 ! A81   A(24,23,28)           119.1055         estimate D2E/DX2                !
 ! A82   A(23,24,25)           120.7134         estimate D2E/DX2                !
 ! A83   A(23,24,52)           118.6105         estimate D2E/DX2                !
 ! A84   A(25,24,52)           120.6761         estimate D2E/DX2                !
 ! A85   A(24,25,26)           120.1882         estimate D2E/DX2                !
 ! A86   A(24,25,53)           120.3663         estimate D2E/DX2                !
 ! A87   A(26,25,53)           119.4452         estimate D2E/DX2                !
 ! A88   A(25,26,27)           120.5504         estimate D2E/DX2                !
 ! A89   A(25,26,54)           119.3422         estimate D2E/DX2                !
 ! A90   A(27,26,54)           120.1074         estimate D2E/DX2                !
 ! A91   A(26,27,28)           120.5924         estimate D2E/DX2                !
 ! A92   A(26,27,55)           120.6387         estimate D2E/DX2                !
 ! A93   A(28,27,55)           118.7682         estimate D2E/DX2                !
 ! A94   A(14,28,23)           118.9762         estimate D2E/DX2                !
 ! A95   A(14,28,27)           122.1704         estimate D2E/DX2                !
 ! A96   A(23,28,27)           118.8474         estimate D2E/DX2                !
 ! A97   A(5,29,13)            121.0766         estimate D2E/DX2                !
 ! A98   A(5,29,30)            117.4612         estimate D2E/DX2                !
 ! A99   A(13,29,30)           121.4618         estimate D2E/DX2                !
 ! A100  A(29,30,56)           108.4762         estimate D2E/DX2                !
 ! D1    D(31,1,2,3)          -170.755          estimate D2E/DX2                !
 ! D2    D(32,1,2,3)            70.2106         estimate D2E/DX2                !
 ! D3    D(33,1,2,3)           -51.6881         estimate D2E/DX2                !
 ! D4    D(1,2,3,4)            -71.2344         estimate D2E/DX2                !
 ! D5    D(1,2,3,34)           169.1479         estimate D2E/DX2                !
 ! D6    D(1,2,3,35)            51.922          estimate D2E/DX2                !
 ! D7    D(2,3,4,5)           -172.324          estimate D2E/DX2                !
 ! D8    D(2,3,4,36)           -51.2563         estimate D2E/DX2                !
 ! D9    D(2,3,4,37)            67.8519         estimate D2E/DX2                !
 ! D10   D(34,3,4,5)           -55.2109         estimate D2E/DX2                !
 ! D11   D(34,3,4,36)           65.8568         estimate D2E/DX2                !
 ! D12   D(34,3,4,37)         -175.0351         estimate D2E/DX2                !
 ! D13   D(35,3,4,5)            63.9269         estimate D2E/DX2                !
 ! D14   D(35,3,4,36)         -175.0054         estimate D2E/DX2                !
 ! D15   D(35,3,4,37)          -55.8972         estimate D2E/DX2                !
 ! D16   D(3,4,5,6)            101.1395         estimate D2E/DX2                !
 ! D17   D(3,4,5,29)           -77.7931         estimate D2E/DX2                !
 ! D18   D(36,4,5,6)           -18.9275         estimate D2E/DX2                !
 ! D19   D(36,4,5,29)          162.1399         estimate D2E/DX2                !
 ! D20   D(37,4,5,6)          -138.9789         estimate D2E/DX2                !
 ! D21   D(37,4,5,29)           42.0885         estimate D2E/DX2                !
 ! D22   D(4,5,6,7)           -179.0114         estimate D2E/DX2                !
 ! D23   D(4,5,6,38)             1.3081         estimate D2E/DX2                !
 ! D24   D(29,5,6,7)            -0.0779         estimate D2E/DX2                !
 ! D25   D(29,5,6,38)         -179.7583         estimate D2E/DX2                !
 ! D26   D(4,5,29,13)          178.9965         estimate D2E/DX2                !
 ! D27   D(4,5,29,30)           -1.2095         estimate D2E/DX2                !
 ! D28   D(6,5,29,13)            0.0285         estimate D2E/DX2                !
 ! D29   D(6,5,29,30)          179.8225         estimate D2E/DX2                !
 ! D30   D(5,6,7,8)           -179.9396         estimate D2E/DX2                !
 ! D31   D(5,6,7,12)             0.199          estimate D2E/DX2                !
 ! D32   D(38,6,7,8)            -0.2562         estimate D2E/DX2                !
 ! D33   D(38,6,7,12)          179.8824         estimate D2E/DX2                !
 ! D34   D(6,7,8,9)           -179.6961         estimate D2E/DX2                !
 ! D35   D(6,7,8,39)             0.236          estimate D2E/DX2                !
 ! D36   D(12,7,8,9)             0.1654         estimate D2E/DX2                !
 ! D37   D(12,7,8,39)         -179.9025         estimate D2E/DX2                !
 ! D38   D(6,7,12,11)          179.2254         estimate D2E/DX2                !
 ! D39   D(6,7,12,13)           -0.2663         estimate D2E/DX2                !
 ! D40   D(8,7,12,11)           -0.6402         estimate D2E/DX2                !
 ! D41   D(8,7,12,13)          179.8681         estimate D2E/DX2                !
 ! D42   D(7,8,9,10)             0.2768         estimate D2E/DX2                !
 ! D43   D(7,8,9,40)          -179.9531         estimate D2E/DX2                !
 ! D44   D(39,8,9,10)         -179.6539         estimate D2E/DX2                !
 ! D45   D(39,8,9,40)            0.1161         estimate D2E/DX2                !
 ! D46   D(8,9,10,11)           -0.2351         estimate D2E/DX2                !
 ! D47   D(8,9,10,41)          179.5449         estimate D2E/DX2                !
 ! D48   D(40,9,10,11)         179.9926         estimate D2E/DX2                !
 ! D49   D(40,9,10,41)          -0.2274         estimate D2E/DX2                !
 ! D50   D(9,10,11,12)          -0.2575         estimate D2E/DX2                !
 ! D51   D(9,10,11,42)         179.4506         estimate D2E/DX2                !
 ! D52   D(41,10,11,12)        179.9644         estimate D2E/DX2                !
 ! D53   D(41,10,11,42)         -0.3275         estimate D2E/DX2                !
 ! D54   D(10,11,12,7)           0.6919         estimate D2E/DX2                !
 ! D55   D(10,11,12,13)       -179.8337         estimate D2E/DX2                !
 ! D56   D(42,11,12,7)        -179.0208         estimate D2E/DX2                !
 ! D57   D(42,11,12,13)          0.4537         estimate D2E/DX2                !
 ! D58   D(7,12,13,14)        -179.0235         estimate D2E/DX2                !
 ! D59   D(7,12,13,29)           0.222          estimate D2E/DX2                !
 ! D60   D(11,12,13,14)          1.5029         estimate D2E/DX2                !
 ! D61   D(11,12,13,29)       -179.2515         estimate D2E/DX2                !
 ! D62   D(12,13,14,15)         80.6456         estimate D2E/DX2                !
 ! D63   D(12,13,14,28)        -98.7027         estimate D2E/DX2                !
 ! D64   D(29,13,14,15)        -98.6044         estimate D2E/DX2                !
 ! D65   D(29,13,14,28)         82.0474         estimate D2E/DX2                !
 ! D66   D(12,13,29,5)          -0.1029         estimate D2E/DX2                !
 ! D67   D(12,13,29,30)       -179.8887         estimate D2E/DX2                !
 ! D68   D(14,13,29,5)         179.1471         estimate D2E/DX2                !
 ! D69   D(14,13,29,30)         -0.6387         estimate D2E/DX2                !
 ! D70   D(13,14,15,16)          1.75           estimate D2E/DX2                !
 ! D71   D(13,14,15,17)       -179.7874         estimate D2E/DX2                !
 ! D72   D(28,14,15,16)       -178.9029         estimate D2E/DX2                !
 ! D73   D(28,14,15,17)         -0.4403         estimate D2E/DX2                !
 ! D74   D(13,14,28,23)        179.091          estimate D2E/DX2                !
 ! D75   D(13,14,28,27)         -0.008          estimate D2E/DX2                !
 ! D76   D(15,14,28,23)         -0.2436         estimate D2E/DX2                !
 ! D77   D(15,14,28,27)       -179.3426         estimate D2E/DX2                !
 ! D78   D(14,15,16,43)       -161.1089         estimate D2E/DX2                !
 ! D79   D(17,15,16,43)         20.4614         estimate D2E/DX2                !
 ! D80   D(14,15,17,18)       -178.5448         estimate D2E/DX2                !
 ! D81   D(14,15,17,22)          0.9072         estimate D2E/DX2                !
 ! D82   D(16,15,17,18)         -0.1576         estimate D2E/DX2                !
 ! D83   D(16,15,17,22)        179.2944         estimate D2E/DX2                !
 ! D84   D(15,17,18,19)        -71.9307         estimate D2E/DX2                !
 ! D85   D(15,17,18,44)        167.3906         estimate D2E/DX2                !
 ! D86   D(15,17,18,45)         49.0893         estimate D2E/DX2                !
 ! D87   D(22,17,18,19)        108.6226         estimate D2E/DX2                !
 ! D88   D(22,17,18,44)        -12.0561         estimate D2E/DX2                !
 ! D89   D(22,17,18,45)       -130.3573         estimate D2E/DX2                !
 ! D90   D(15,17,22,23)         -0.6975         estimate D2E/DX2                !
 ! D91   D(15,17,22,51)        179.836          estimate D2E/DX2                !
 ! D92   D(18,17,22,23)        178.7606         estimate D2E/DX2                !
 ! D93   D(18,17,22,51)         -0.7059         estimate D2E/DX2                !
 ! D94   D(17,18,19,20)         85.661          estimate D2E/DX2                !
 ! D95   D(17,18,19,46)        -35.2217         estimate D2E/DX2                !
 ! D96   D(17,18,19,47)       -154.5995         estimate D2E/DX2                !
 ! D97   D(44,18,19,20)       -153.6953         estimate D2E/DX2                !
 ! D98   D(44,18,19,46)         85.422          estimate D2E/DX2                !
 ! D99   D(44,18,19,47)        -33.9558         estimate D2E/DX2                !
 ! D100  D(45,18,19,20)        -36.8912         estimate D2E/DX2                !
 ! D101  D(45,18,19,46)       -157.774          estimate D2E/DX2                !
 ! D102  D(45,18,19,47)         82.8483         estimate D2E/DX2                !
 ! D103  D(18,19,20,21)       -172.124          estimate D2E/DX2                !
 ! D104  D(46,19,20,21)        -51.1019         estimate D2E/DX2                !
 ! D105  D(47,19,20,21)         67.489          estimate D2E/DX2                !
 ! D106  D(19,20,21,48)        -60.756          estimate D2E/DX2                !
 ! D107  D(19,20,21,49)        179.8999         estimate D2E/DX2                !
 ! D108  D(19,20,21,50)         60.6649         estimate D2E/DX2                !
 ! D109  D(17,22,23,24)       -179.8382         estimate D2E/DX2                !
 ! D110  D(17,22,23,28)          0.0189         estimate D2E/DX2                !
 ! D111  D(51,22,23,24)         -0.3651         estimate D2E/DX2                !
 ! D112  D(51,22,23,28)        179.492          estimate D2E/DX2                !
 ! D113  D(22,23,24,25)       -179.9332         estimate D2E/DX2                !
 ! D114  D(22,23,24,52)          0.015          estimate D2E/DX2                !
 ! D115  D(28,23,24,25)          0.2101         estimate D2E/DX2                !
 ! D116  D(28,23,24,52)       -179.8417         estimate D2E/DX2                !
 ! D117  D(22,23,28,14)          0.4563         estimate D2E/DX2                !
 ! D118  D(22,23,28,27)        179.5856         estimate D2E/DX2                !
 ! D119  D(24,23,28,14)       -179.6822         estimate D2E/DX2                !
 ! D120  D(24,23,28,27)         -0.5529         estimate D2E/DX2                !
 ! D121  D(23,24,25,26)          0.2159         estimate D2E/DX2                !
 ! D122  D(23,24,25,53)       -179.9845         estimate D2E/DX2                !
 ! D123  D(52,24,25,26)       -179.7312         estimate D2E/DX2                !
 ! D124  D(52,24,25,53)          0.0684         estimate D2E/DX2                !
 ! D125  D(24,25,26,27)         -0.2954         estimate D2E/DX2                !
 ! D126  D(24,25,26,54)        179.6138         estimate D2E/DX2                !
 ! D127  D(53,25,26,27)        179.9032         estimate D2E/DX2                !
 ! D128  D(53,25,26,54)         -0.1876         estimate D2E/DX2                !
 ! D129  D(25,26,27,28)         -0.0609         estimate D2E/DX2                !
 ! D130  D(25,26,27,55)        179.6168         estimate D2E/DX2                !
 ! D131  D(54,26,27,28)       -179.9694         estimate D2E/DX2                !
 ! D132  D(54,26,27,55)         -0.2917         estimate D2E/DX2                !
 ! D133  D(26,27,28,14)        179.5827         estimate D2E/DX2                !
 ! D134  D(26,27,28,23)          0.4825         estimate D2E/DX2                !
 ! D135  D(55,27,28,14)         -0.1009         estimate D2E/DX2                !
 ! D136  D(55,27,28,23)       -179.2011         estimate D2E/DX2                !
 ! D137  D(5,29,30,56)        -177.0905         estimate D2E/DX2                !
 ! D138  D(13,29,30,56)          2.7027         estimate D2E/DX2                !
 --------------------------------------------------------------------------------
 Trust Radius=3.00D-01 FncErr=1.00D-07 GrdErr=1.00D-06 EigMax=2.50D+02 EigMin=1.00D-04
 Number of steps in this run=    307 maximum allowed number of steps=    336.
 GradGradGradGradGradGradGradGradGradGradGradGradGradGradGradGradGradGrad

 Leave Link  103 at Sat Feb 24 15:37:24 2024, MaxMem=  7516192768 cpu:               0.9 elap:               0.1
 (Enter /public/apps/g16-C01//g16/l202.exe)
 Symmetry turned off by external request.
 Stoichiometry    C26H26O4
 Framework group  C1[X(C26H26O4)]
 Deg. of freedom   162
 Full point group                 C1      NOp   1
                          Input orientation:                          
 ---------------------------------------------------------------------
 Center     Atomic      Atomic             Coordinates (Angstroms)
 Number     Number       Type             X           Y           Z
 ---------------------------------------------------------------------
      1          6           0       -5.007516    0.469677    4.254404
      2          8           0       -5.194724   -0.552867    3.309073
      3          6           0       -4.118177   -0.727960    2.418251
      4          6           0       -3.968243    0.406268    1.389236
      5          6           0       -2.925477    0.050391    0.373685
      6          6           0       -3.250311   -0.410590   -0.872069
      7          6           0       -2.264085   -0.762897   -1.815423
      8          6           0       -2.596224   -1.237079   -3.100466
      9          6           0       -1.621258   -1.578202   -3.995746
     10          6           0       -0.269110   -1.464627   -3.640530
     11          6           0        0.085862   -1.008761   -2.401636
     12          6           0       -0.896599   -0.639372   -1.460174
     13          6           0       -0.563709   -0.160487   -0.170631
     14          6           0        0.860483    0.000176    0.222540
     15          6           0        1.540964    1.131807   -0.193955
     16          8           0        0.849219    2.048033   -0.910489
     17          6           0        2.903379    1.317328    0.158460
     18          6           0        3.652514    2.558321   -0.257959
     19          6           0        3.969679    2.598485   -1.757186
     20          8           0        2.857577    3.144160   -2.440719
     21          6           0        2.957247    3.072165   -3.840480
     22          6           0        3.535042    0.352541    0.898355
     23          6           0        2.875477   -0.812389    1.334810
     24          6           0        3.527241   -1.801813    2.098882
     25          6           0        2.858997   -2.922113    2.505967
     26          6           0        1.510101   -3.103409    2.162245
     27          6           0        0.848963   -2.162613    1.424112
     28          6           0        1.509945   -0.991128    0.995097
     29          6           0       -1.558187    0.174183    0.722113
     30          8           0       -1.266853    0.640352    1.970705
     31          1           0       -5.825672    0.382092    4.967497
     32          1           0       -5.038565    1.464285    3.796054
     33          1           0       -4.051367    0.352804    4.779065
     34          1           0       -4.332641   -1.664901    1.896327
     35          1           0       -3.176738   -0.836643    2.975454
     36          1           0       -4.931823    0.567118    0.903399
     37          1           0       -3.667696    1.320028    1.904100
     38          1           0       -4.290150   -0.505664   -1.150954
     39          1           0       -3.640594   -1.326950   -3.364370
     40          1           0       -1.883849   -1.940228   -4.979249
     41          1           0        0.491487   -1.744789   -4.355479
     42          1           0        1.127622   -0.929892   -2.125539
     43          1           0        1.462208    2.630495   -1.394518
     44          1           0        4.589957    2.600175    0.297207
     45          1           0        3.074787    3.454420   -0.014742
     46          1           0        4.184568    1.586027   -2.130554
     47          1           0        4.853643    3.226030   -1.943540
     48          1           0        3.829858    3.627790   -4.201662
     49          1           0        2.048754    3.518427   -4.238777
     50          1           0        3.032955    2.031740   -4.177117
     51          1           0        4.573679    0.484010    1.169284
     52          1           0        4.567131   -1.656225    2.355399
     53          1           0        3.363764   -3.676480    3.091373
     54          1           0        0.996943   -3.996956    2.485911
     55          1           0       -0.187436   -2.303566    1.153542
     56          1           0       -0.306349    0.716222    2.053108
 ---------------------------------------------------------------------
 Rotational constants (GHZ):           0.1882006           0.1109812           0.0935001
 Leave Link  202 at Sat Feb 24 15:37:24 2024, MaxMem=  7516192768 cpu:               1.8 elap:               0.1
 (Enter /public/apps/g16-C01//g16/l301.exe)
 Standard basis: def2SVPP (5D, 7F)
 Ernie: Thresh=  0.10000D-02 Tol=  0.10000D-05 Strict=F.
   472 basis functions,   854 primitive gaussians,   502 cartesian basis functions
   107 alpha electrons      107 beta electrons
       nuclear repulsion energy      2898.1972895199 Hartrees.
 IExCor=  402 DFT=T Ex+Corr=B3LYP ExCW=0 ScaHFX=  0.200000
 ScaDFX=  0.800000  0.720000  1.000000  0.810000 ScalE2=  1.000000  1.000000
 IRadAn=      5 IRanWt=     -1 IRanGd=            0 ICorTp=0 IEmpDi=141
 NAtoms=   56 NActive=   56 NUniq=   56 SFac= 1.00D+00 NAtFMM=   60 NAOKFM=F Big=F
 Integral buffers will be    131072 words long.
 Raffenetti 2 integral format.
 Two-electron integral symmetry is turned off.
 R6Disp:  Grimme-D3(BJ) Dispersion energy=       -0.1306480676 Hartrees.
 Nuclear repulsion after empirical dispersion term =     2898.0666414523 Hartrees.
 Leave Link  301 at Sat Feb 24 15:37:25 2024, MaxMem=  7516192768 cpu:               1.8 elap:               0.1
 (Enter /public/apps/g16-C01//g16/l302.exe)
 NPDir=0 NMtPBC=     1 NCelOv=     1 NCel=       1 NClECP=     1 NCelD=      1
         NCelK=      1 NCelE2=     1 NClLst=     1 CellRange=     0.0.
 One-electron integrals computed using PRISM.
   1 Symmetry operations used in ECPInt.
 ECPInt:  NShTT=   27028 NPrTT=  108348 LenC2=   23789 LenP2D=   61282.
 LDataN:  DoStor=T MaxTD1= 4 Len=   56
 NBasis=   472 RedAO= T EigKep=  1.53D-04  NBF=   472
 NBsUse=   472 1.00D-06 EigRej= -1.00D+00 NBFU=   472
 Precomputing XC quadrature grid using
 IXCGrd= 4 IRadAn=           5 IRanWt=          -1 IRanGd=           0 AccXCQ= 0.00D+00.
 Generated NRdTot=       0 NPtTot=           0 NUsed=           0 NTot=          32
 NSgBfM=   495   495   495   495   495 MxSgAt=    56 MxSgA2=    56.
 Leave Link  302 at Sat Feb 24 15:37:30 2024, MaxMem=  7516192768 cpu:              94.6 elap:               5.5
 (Enter /public/apps/g16-C01//g16/l303.exe)
 DipDrv:  MaxL=1.
 Leave Link  303 at Sat Feb 24 15:37:31 2024, MaxMem=  7516192768 cpu:               7.2 elap:               0.5
 (Enter /public/apps/g16-C01//g16/l401.exe)
 ExpMin= 1.22D-01 ExpMax= 2.27D+03 ExpMxC= 3.41D+02 IAcc=3 IRadAn=         5 AccDes= 0.00D+00
 Harris functional with IExCor=  402 and IRadAn=       5 diagonalized for initial guess.
 HarFok:  IExCor=  402 AccDes= 0.00D+00 IRadAn=         5 IDoV= 1 UseB2=F ITyADJ=14
 ICtDFT=  3500011 ScaDFX=  1.000000  1.000000  1.000000  1.000000
 FoFCou: FMM=F IPFlag=           0 FMFlag=      100000 FMFlg1=           0
         NFxFlg=           0 DoJE=T BraDBF=F KetDBF=T FulRan=T
         wScrn=  0.000000 ICntrl=       500 IOpCl=  0 I1Cent=   200000004 NGrid=           0
         NMat0=    1 NMatS0=      1 NMatT0=    0 NMatD0=    1 NMtDS0=    0 NMtDT0=    0
 Symmetry not used in FoFCou.
 Harris En= -1306.41953463219    
 JPrj=0 DoOrth=F DoCkMO=F.
 Leave Link  401 at Sat Feb 24 15:37:36 2024, MaxMem=  7516192768 cpu:              89.4 elap:               5.3
 (Enter /public/apps/g16-C01//g16/l502.exe)
 Two-electron integral symmetry not used.
 Closed shell SCF:
 Using DIIS extrapolation, IDIIS=  1040.
 NGot=  7516192768 LenX=  7515662980 LenY=  7515410474
 Requested convergence on RMS density matrix=1.00D-08 within 128 cycles.
 Requested convergence on MAX density matrix=1.00D-06.
 Requested convergence on             energy=1.00D-06.
 No special actions if energy rises.
 Fock matrices will be formed incrementally for  20 cycles.
 Integral accuracy reduced to 1.0D-05 until final iterations.

 Cycle   1  Pass 0  IDiag  1:
 FoFJK:  IHMeth= 1 ICntrl=       0 DoSepK=F KAlg= 0 I1Cent=           0 FoldK=F
 IRaf= 800000000 NMat=       1 IRICut=       1 DoRegI=T DoRafI=F ISym2E= 0 IDoP0=0 IntGTp=1.
 FoFCou: FMM=F IPFlag=           0 FMFlag=      100000 FMFlg1=           0
         NFxFlg=           0 DoJE=F BraDBF=F KetDBF=F FulRan=T
         wScrn=  0.000000 ICntrl=         0 IOpCl=  0 I1Cent=           0 NGrid=           0
         NMat0=    1 NMatS0=      1 NMatT0=    0 NMatD0=    1 NMtDS0=    0 NMtDT0=    0
 Symmetry not used in FoFCou.
 E= -1305.84192860412    
 DIIS: error= 2.23D-02 at cycle   1 NSaved=   1.
 NSaved= 1 IEnMin= 1 EnMin= -1305.84192860412     IErMin= 1 ErrMin= 2.23D-02
 ErrMax= 2.23D-02  0.00D+00 EMaxC= 1.00D-01 BMatC= 5.32D-01 BMatP= 5.32D-01
 IDIUse=3 WtCom= 7.77D-01 WtEn= 2.23D-01
 Coeff-Com:  0.100D+01
 Coeff-En:   0.100D+01
 Coeff:      0.100D+01
 Gap=     0.172 Goal=   None    Shift=    0.000
 GapD=    0.172 DampG=1.000 DampE=0.500 DampFc=0.5000 IDamp=-1.
 Damping current iteration by 5.00D-01
 RMSDP=5.58D-03 MaxDP=1.53D-01              OVMax= 1.63D-01

 Cycle   2  Pass 0  IDiag  1:
 RMSU=  2.56D-03    CP:  9.43D-01
 E= -1306.12204076346     Delta-E=       -0.280112159343 Rises=F Damp=T
 DIIS: error= 4.31D-03 at cycle   2 NSaved=   2.
 NSaved= 2 IEnMin= 2 EnMin= -1306.12204076346     IErMin= 2 ErrMin= 4.31D-03
 ErrMax= 4.31D-03  0.00D+00 EMaxC= 1.00D-01 BMatC= 2.69D-02 BMatP= 5.32D-01
 IDIUse=3 WtCom= 9.57D-01 WtEn= 4.31D-02
 Coeff-Com:  0.202D-01 0.980D+00
 Coeff-En:   0.636D-02 0.994D+00
 Coeff:      0.196D-01 0.980D+00
 Gap=     0.173 Goal=   None    Shift=    0.000
 RMSDP=1.88D-03 MaxDP=1.04D-01 DE=-2.80D-01 OVMax= 1.27D-01

 Cycle   3  Pass 0  IDiag  1:
 RMSU=  1.67D-03    CP:  9.02D-01  1.14D+00
 E= -1306.40784270948     Delta-E=       -0.285801946025 Rises=F Damp=F
 DIIS: error= 6.14D-03 at cycle   3 NSaved=   3.
 NSaved= 3 IEnMin= 3 EnMin= -1306.40784270948     IErMin= 2 ErrMin= 4.31D-03
 ErrMax= 6.14D-03  0.00D+00 EMaxC= 1.00D-01 BMatC= 2.69D-02 BMatP= 2.69D-02
 IDIUse=3 WtCom= 9.39D-01 WtEn= 6.14D-02
 Coeff-Com: -0.333D-01 0.513D+00 0.520D+00
 Coeff-En:   0.000D+00 0.000D+00 0.100D+01
 Coeff:     -0.313D-01 0.481D+00 0.550D+00
 Gap=     0.161 Goal=   None    Shift=    0.000
 RMSDP=7.47D-04 MaxDP=2.84D-02 DE=-2.86D-01 OVMax= 6.96D-02

 Cycle   4  Pass 0  IDiag  1:
 RMSU=  6.30D-04    CP:  9.03D-01  1.19D+00  7.77D-01
 E= -1306.42835000750     Delta-E=       -0.020507298021 Rises=F Damp=F
 DIIS: error= 3.26D-03 at cycle   4 NSaved=   4.
 NSaved= 4 IEnMin= 4 EnMin= -1306.42835000750     IErMin= 4 ErrMin= 3.26D-03
 ErrMax= 3.26D-03  0.00D+00 EMaxC= 1.00D-01 BMatC= 6.55D-03 BMatP= 2.69D-02
 IDIUse=3 WtCom= 9.67D-01 WtEn= 3.26D-02
 Coeff-Com: -0.192D-01 0.139D+00 0.347D+00 0.533D+00
 Coeff-En:   0.000D+00 0.000D+00 0.246D+00 0.754D+00
 Coeff:     -0.186D-01 0.134D+00 0.344D+00 0.541D+00
 Gap=     0.155 Goal=   None    Shift=    0.000
 RMSDP=3.34D-04 MaxDP=1.03D-02 DE=-2.05D-02 OVMax= 3.44D-02

 Cycle   5  Pass 0  IDiag  1:
 RMSU=  1.74D-04    CP:  9.02D-01  1.19D+00  8.34D-01  5.76D-01
 E= -1306.43548000393     Delta-E=       -0.007129996429 Rises=F Damp=F
 DIIS: error= 7.17D-04 at cycle   5 NSaved=   5.
 NSaved= 5 IEnMin= 5 EnMin= -1306.43548000393     IErMin= 5 ErrMin= 7.17D-04
 ErrMax= 7.17D-04  0.00D+00 EMaxC= 1.00D-01 BMatC= 4.92D-04 BMatP= 6.55D-03
 IDIUse=3 WtCom= 9.93D-01 WtEn= 7.17D-03
 Coeff-Com: -0.825D-02 0.426D-01 0.160D+00 0.316D+00 0.490D+00
 Coeff-En:   0.000D+00 0.000D+00 0.000D+00 0.000D+00 0.100D+01
 Coeff:     -0.819D-02 0.423D-01 0.159D+00 0.313D+00 0.494D+00
 Gap=     0.155 Goal=   None    Shift=    0.000
 RMSDP=8.90D-05 MaxDP=3.38D-03 DE=-7.13D-03 OVMax= 9.29D-03

 Cycle   6  Pass 0  IDiag  1:
 RMSU=  6.08D-05    CP:  9.02D-01  1.19D+00  8.33D-01  6.27D-01  6.83D-01
 E= -1306.43595732880     Delta-E=       -0.000477324862 Rises=F Damp=F
 DIIS: error= 2.84D-04 at cycle   6 NSaved=   6.
 NSaved= 6 IEnMin= 6 EnMin= -1306.43595732880     IErMin= 6 ErrMin= 2.84D-04
 ErrMax= 2.84D-04  0.00D+00 EMaxC= 1.00D-01 BMatC= 7.80D-05 BMatP= 4.92D-04
 IDIUse=3 WtCom= 9.97D-01 WtEn= 2.84D-03
 Coeff-Com: -0.220D-02 0.458D-02 0.452D-01 0.114D+00 0.315D+00 0.523D+00
 Coeff-En:   0.000D+00 0.000D+00 0.000D+00 0.000D+00 0.131D+00 0.869D+00
 Coeff:     -0.219D-02 0.457D-02 0.451D-01 0.114D+00 0.315D+00 0.524D+00
 Gap=     0.155 Goal=   None    Shift=    0.000
 RMSDP=3.28D-05 MaxDP=1.24D-03 DE=-4.77D-04 OVMax= 4.15D-03

 Cycle   7  Pass 0  IDiag  1:
 RMSU=  2.10D-05    CP:  9.02D-01  1.19D+00  8.35D-01  6.27D-01  7.42D-01
                    CP:  6.25D-01
 E= -1306.43603204940     Delta-E=       -0.000074720601 Rises=F Damp=F
 DIIS: error= 1.24D-04 at cycle   7 NSaved=   7.
 NSaved= 7 IEnMin= 7 EnMin= -1306.43603204940     IErMin= 7 ErrMin= 1.24D-04
 ErrMax= 1.24D-04  0.00D+00 EMaxC= 1.00D-01 BMatC= 1.22D-05 BMatP= 7.80D-05
 IDIUse=3 WtCom= 9.99D-01 WtEn= 1.24D-03
 Coeff-Com: -0.869D-03-0.945D-04 0.181D-01 0.517D-01 0.176D+00 0.358D+00
 Coeff-Com:  0.398D+00
 Coeff-En:   0.000D+00 0.000D+00 0.000D+00 0.000D+00 0.000D+00 0.105D+00
 Coeff-En:   0.895D+00
 Coeff:     -0.868D-03-0.944D-04 0.181D-01 0.516D-01 0.175D+00 0.358D+00
 Coeff:      0.398D+00
 Gap=     0.155 Goal=   None    Shift=    0.000
 RMSDP=1.35D-05 MaxDP=6.65D-04 DE=-7.47D-05 OVMax= 1.27D-03

 Cycle   8  Pass 0  IDiag  1:
 RMSU=  7.14D-06    CP:  9.02D-01  1.19D+00  8.36D-01  6.27D-01  7.22D-01
                    CP:  6.69D-01  5.12D-01
 E= -1306.43604789462     Delta-E=       -0.000015845224 Rises=F Damp=F
 DIIS: error= 1.75D-05 at cycle   8 NSaved=   8.
 NSaved= 8 IEnMin= 8 EnMin= -1306.43604789462     IErMin= 8 ErrMin= 1.75D-05
 ErrMax= 1.75D-05  0.00D+00 EMaxC= 1.00D-01 BMatC= 3.05D-07 BMatP= 1.22D-05
 IDIUse=1 WtCom= 1.00D+00 WtEn= 0.00D+00
 Coeff-Com: -0.190D-03-0.495D-03 0.470D-02 0.144D-01 0.579D-01 0.126D+00
 Coeff-Com:  0.187D+00 0.611D+00
 Coeff:     -0.190D-03-0.495D-03 0.470D-02 0.144D-01 0.579D-01 0.126D+00
 Coeff:      0.187D+00 0.611D+00
 Gap=     0.155 Goal=   None    Shift=    0.000
 RMSDP=2.86D-06 MaxDP=1.02D-04 DE=-1.58D-05 OVMax= 1.99D-04

 Initial convergence to 1.0D-05 achieved.  Increase integral accuracy.
 Cycle   9  Pass 1  IDiag  1:
 E= -1306.43597604992     Delta-E=        0.000071844703 Rises=F Damp=F
 DIIS: error= 2.85D-04 at cycle   1 NSaved=   1.
 NSaved= 1 IEnMin= 1 EnMin= -1306.43597604992     IErMin= 1 ErrMin= 2.85D-04
 ErrMax= 2.85D-04  0.00D+00 EMaxC= 1.00D-01 BMatC= 1.58D-05 BMatP= 1.58D-05
 IDIUse=3 WtCom= 9.97D-01 WtEn= 2.85D-03
 Coeff-Com:  0.100D+01
 Coeff-En:   0.100D+01
 Coeff:      0.100D+01
 Gap=     0.155 Goal=   None    Shift=    0.000
 RMSDP=2.86D-06 MaxDP=1.02D-04 DE= 7.18D-05 OVMax= 5.15D-04

 Cycle  10  Pass 1  IDiag  1:
 RMSU=  3.71D-04    CP:  9.99D-01
 E= -1306.43599235806     Delta-E=       -0.000016308140 Rises=F Damp=F
 DIIS: error= 1.45D-05 at cycle   2 NSaved=   2.
 NSaved= 2 IEnMin= 2 EnMin= -1306.43599235806     IErMin= 2 ErrMin= 1.45D-05
 ErrMax= 1.45D-05  0.00D+00 EMaxC= 1.00D-01 BMatC= 1.77D-07 BMatP= 1.58D-05
 IDIUse=1 WtCom= 1.00D+00 WtEn= 0.00D+00
 Coeff-Com:  0.814D-02 0.992D+00
 Coeff:      0.814D-02 0.992D+00
 Gap=     0.155 Goal=   None    Shift=    0.000
 RMSDP=5.65D-06 MaxDP=1.82D-04 DE=-1.63D-05 OVMax= 3.17D-04

 Cycle  11  Pass 1  IDiag  1:
 RMSU=  3.61D-06    CP:  9.99D-01  1.01D+00
 E= -1306.43599195947     Delta-E=        0.000000398590 Rises=F Damp=F
 DIIS: error= 2.64D-05 at cycle   3 NSaved=   3.
 NSaved= 3 IEnMin= 2 EnMin= -1306.43599235806     IErMin= 2 ErrMin= 1.45D-05
 ErrMax= 2.64D-05  0.00D+00 EMaxC= 1.00D-01 BMatC= 5.80D-07 BMatP= 1.77D-07
 IDIUse=1 WtCom= 1.00D+00 WtEn= 0.00D+00
 Coeff-Com: -0.574D-02 0.649D+00 0.357D+00
 Coeff:     -0.574D-02 0.649D+00 0.357D+00
 Gap=     0.155 Goal=   None    Shift=    0.000
 RMSDP=2.38D-06 MaxDP=1.17D-04 DE= 3.99D-07 OVMax= 2.16D-04

 Cycle  12  Pass 1  IDiag  1:
 RMSU=  8.74D-07    CP:  9.99D-01  1.01D+00  3.88D-01
 E= -1306.43599252881     Delta-E=       -0.000000569338 Rises=F Damp=F
 DIIS: error= 2.37D-06 at cycle   4 NSaved=   4.
 NSaved= 4 IEnMin= 4 EnMin= -1306.43599252881     IErMin= 4 ErrMin= 2.37D-06
 ErrMax= 2.37D-06  0.00D+00 EMaxC= 1.00D-01 BMatC= 5.70D-09 BMatP= 1.77D-07
 IDIUse=1 WtCom= 1.00D+00 WtEn= 0.00D+00
 Coeff-Com: -0.367D-02 0.391D+00 0.222D+00 0.391D+00
 Coeff:     -0.367D-02 0.391D+00 0.222D+00 0.391D+00
 Gap=     0.155 Goal=   None    Shift=    0.000
 RMSDP=2.57D-07 MaxDP=1.10D-05 DE=-5.69D-07 OVMax= 2.26D-05

 Cycle  13  Pass 1  IDiag  1:
 RMSU=  2.13D-07    CP:  9.99D-01  1.01D+00  4.12D-01  8.70D-01
 E= -1306.43599253476     Delta-E=       -0.000000005954 Rises=F Damp=F
 DIIS: error= 4.59D-07 at cycle   5 NSaved=   5.
 NSaved= 5 IEnMin= 5 EnMin= -1306.43599253476     IErMin= 5 ErrMin= 4.59D-07
 ErrMax= 4.59D-07  0.00D+00 EMaxC= 1.00D-01 BMatC= 1.87D-10 BMatP= 5.70D-09
 IDIUse=1 WtCom= 1.00D+00 WtEn= 0.00D+00
 Coeff-Com: -0.163D-02 0.171D+00 0.978D-01 0.210D+00 0.523D+00
 Coeff:     -0.163D-02 0.171D+00 0.978D-01 0.210D+00 0.523D+00
 Gap=     0.155 Goal=   None    Shift=    0.000
 RMSDP=6.33D-08 MaxDP=2.19D-06 DE=-5.95D-09 OVMax= 7.39D-06

 Cycle  14  Pass 1  IDiag  1:
 RMSU=  5.18D-08    CP:  9.99D-01  1.01D+00  4.13D-01  8.95D-01  8.74D-01
 E= -1306.43599253490     Delta-E=       -0.000000000135 Rises=F Damp=F
 DIIS: error= 2.24D-07 at cycle   6 NSaved=   6.
 NSaved= 6 IEnMin= 6 EnMin= -1306.43599253490     IErMin= 6 ErrMin= 2.24D-07
 ErrMax= 2.24D-07  0.00D+00 EMaxC= 1.00D-01 BMatC= 5.41D-11 BMatP= 1.87D-10
 IDIUse=1 WtCom= 1.00D+00 WtEn= 0.00D+00
 Coeff-Com: -0.201D-03 0.199D-01 0.116D-01 0.468D-01 0.361D+00 0.561D+00
 Coeff:     -0.201D-03 0.199D-01 0.116D-01 0.468D-01 0.361D+00 0.561D+00
 Gap=     0.155 Goal=   None    Shift=    0.000
 RMSDP=2.85D-08 MaxDP=1.08D-06 DE=-1.35D-10 OVMax= 3.56D-06

 Cycle  15  Pass 1  IDiag  1:
 RMSU=  1.55D-08    CP:  9.99D-01  1.01D+00  4.13D-01  8.95D-01  9.31D-01
                    CP:  6.15D-01
 E= -1306.43599253493     Delta-E=       -0.000000000039 Rises=F Damp=F
 DIIS: error= 8.46D-08 at cycle   7 NSaved=   7.
 NSaved= 7 IEnMin= 7 EnMin= -1306.43599253493     IErMin= 7 ErrMin= 8.46D-08
 ErrMax= 8.46D-08  0.00D+00 EMaxC= 1.00D-01 BMatC= 6.74D-12 BMatP= 5.41D-11
 IDIUse=1 WtCom= 1.00D+00 WtEn= 0.00D+00
 Coeff-Com:  0.780D-05-0.167D-02-0.812D-03 0.124D-01 0.189D+00 0.367D+00
 Coeff-Com:  0.433D+00
 Coeff:      0.780D-05-0.167D-02-0.812D-03 0.124D-01 0.189D+00 0.367D+00
 Coeff:      0.433D+00
 Gap=     0.155 Goal=   None    Shift=    0.000
 RMSDP=9.00D-09 MaxDP=3.46D-07 DE=-3.91D-11 OVMax= 8.00D-07

 SCF Done:  E(RB3LYP) =  -1306.43599253     A.U. after   15 cycles
            NFock= 15  Conv=0.90D-08     -V/T= 2.0092
 KE= 1.294553957872D+03 PE=-8.833130518480D+03 EE= 3.334073926620D+03
 Leave Link  502 at Sat Feb 24 15:39:25 2024, MaxMem=  7516192768 cpu:            1984.9 elap:             108.5
 (Enter /public/apps/g16-C01//g16/l601.exe)
 Copying SCF densities to generalized density rwf, IOpCl= 0 IROHF=0.

 **********************************************************************

            Population analysis using the SCF Density.

 **********************************************************************

 Alpha  occ. eigenvalues --  -19.16897 -19.15411 -19.14800 -19.11586 -10.25102
 Alpha  occ. eigenvalues --  -10.25008 -10.24246 -10.23735 -10.21040 -10.20804
 Alpha  occ. eigenvalues --  -10.20339 -10.20095 -10.19534 -10.19236 -10.19134
 Alpha  occ. eigenvalues --  -10.18847 -10.18544 -10.18367 -10.18316 -10.18245
 Alpha  occ. eigenvalues --  -10.18199 -10.17995 -10.17963 -10.17863 -10.17489
 Alpha  occ. eigenvalues --  -10.17410 -10.17407 -10.17195 -10.17132 -10.16850
 Alpha  occ. eigenvalues --   -1.06183  -1.04650  -1.04204  -1.01023  -0.87884
 Alpha  occ. eigenvalues --   -0.86328  -0.83016  -0.81624  -0.80461  -0.78079
 Alpha  occ. eigenvalues --   -0.75945  -0.75029  -0.73669  -0.72162  -0.71559
 Alpha  occ. eigenvalues --   -0.70097  -0.68773  -0.66976  -0.64438  -0.63815
 Alpha  occ. eigenvalues --   -0.61884  -0.60693  -0.60239  -0.59795  -0.57666
 Alpha  occ. eigenvalues --   -0.57287  -0.55793  -0.54343  -0.52505  -0.51889
 Alpha  occ. eigenvalues --   -0.51481  -0.51293  -0.49679  -0.49128  -0.48271
 Alpha  occ. eigenvalues --   -0.47637  -0.47198  -0.46865  -0.45271  -0.44936
 Alpha  occ. eigenvalues --   -0.44623  -0.44018  -0.43770  -0.43675  -0.42999
 Alpha  occ. eigenvalues --   -0.42876  -0.41812  -0.41140  -0.40786  -0.40329
 Alpha  occ. eigenvalues --   -0.39807  -0.39184  -0.39093  -0.38755  -0.38250
 Alpha  occ. eigenvalues --   -0.38029  -0.37641  -0.37015  -0.36431  -0.36082
 Alpha  occ. eigenvalues --   -0.35122  -0.35007  -0.34675  -0.33897  -0.33079
 Alpha  occ. eigenvalues --   -0.31918  -0.31283  -0.30370  -0.29731  -0.29207
 Alpha  occ. eigenvalues --   -0.28767  -0.27181  -0.24876  -0.23794  -0.22013
 Alpha  occ. eigenvalues --   -0.21339  -0.20117
 Alpha virt. eigenvalues --   -0.04642  -0.03085  -0.01042   0.00388   0.02063
 Alpha virt. eigenvalues --    0.03722   0.04052   0.05973   0.06605   0.07124
 Alpha virt. eigenvalues --    0.07632   0.08137   0.08400   0.09137   0.09383
 Alpha virt. eigenvalues --    0.09729   0.10091   0.10430   0.10619   0.11168
 Alpha virt. eigenvalues --    0.11539   0.11853   0.12606   0.12786   0.13354
 Alpha virt. eigenvalues --    0.13636   0.13803   0.14561   0.14837   0.15399
 Alpha virt. eigenvalues --    0.15694   0.16088   0.16966   0.17858   0.18311
 Alpha virt. eigenvalues --    0.18815   0.19606   0.19931   0.20781   0.21232
 Alpha virt. eigenvalues --    0.21914   0.24151   0.24500   0.25655   0.26532
 Alpha virt. eigenvalues --    0.27329   0.27786   0.28346   0.28756   0.28871
 Alpha virt. eigenvalues --    0.29390   0.30218   0.30922   0.31246   0.31670
 Alpha virt. eigenvalues --    0.32582   0.32911   0.33929   0.34843   0.35176
 Alpha virt. eigenvalues --    0.35861   0.36972   0.37449   0.37977   0.38785
 Alpha virt. eigenvalues --    0.38999   0.40320   0.40651   0.41566   0.42038
 Alpha virt. eigenvalues --    0.42808   0.42905   0.43841   0.44237   0.45357
 Alpha virt. eigenvalues --    0.45384   0.45871   0.45999   0.46609   0.47169
 Alpha virt. eigenvalues --    0.47587   0.47969   0.48166   0.48254   0.48684
 Alpha virt. eigenvalues --    0.49012   0.49380   0.49881   0.50242   0.50450
 Alpha virt. eigenvalues --    0.50935   0.51257   0.51780   0.52874   0.53059
 Alpha virt. eigenvalues --    0.53707   0.53819   0.54492   0.55353   0.55713
 Alpha virt. eigenvalues --    0.56171   0.56893   0.57138   0.58362   0.58639
 Alpha virt. eigenvalues --    0.59133   0.60304   0.60754   0.60871   0.61650
 Alpha virt. eigenvalues --    0.62409   0.63044   0.63524   0.63883   0.64171
 Alpha virt. eigenvalues --    0.64672   0.64973   0.65607   0.66853   0.67051
 Alpha virt. eigenvalues --    0.67497   0.68013   0.68260   0.68390   0.68533
 Alpha virt. eigenvalues --    0.69109   0.69321   0.69422   0.69629   0.70012
 Alpha virt. eigenvalues --    0.70271   0.70413   0.70620   0.70847   0.71014
 Alpha virt. eigenvalues --    0.71935   0.72190   0.72589   0.72818   0.73540
 Alpha virt. eigenvalues --    0.73850   0.74412   0.74513   0.74991   0.75388
 Alpha virt. eigenvalues --    0.75817   0.76745   0.76872   0.77110   0.77510
 Alpha virt. eigenvalues --    0.78096   0.78194   0.79141   0.80028   0.80571
 Alpha virt. eigenvalues --    0.81298   0.82009   0.82216   0.82895   0.83414
 Alpha virt. eigenvalues --    0.84871   0.85067   0.86360   0.87597   0.88478
 Alpha virt. eigenvalues --    0.88732   0.90248   0.91813   0.93264   0.94937
 Alpha virt. eigenvalues --    0.95203   0.96128   0.97195   0.97667   0.98287
 Alpha virt. eigenvalues --    1.00193   1.02392   1.04992   1.06158   1.06786
 Alpha virt. eigenvalues --    1.08689   1.09342   1.10830   1.12478   1.13393
 Alpha virt. eigenvalues --    1.13980   1.16026   1.16482   1.16742   1.17182
 Alpha virt. eigenvalues --    1.19094   1.20868   1.21138   1.22870   1.23233
 Alpha virt. eigenvalues --    1.24037   1.24804   1.26534   1.27830   1.28313
 Alpha virt. eigenvalues --    1.28560   1.29735   1.31163   1.32563   1.34949
 Alpha virt. eigenvalues --    1.36332   1.38211   1.38306   1.39873   1.40190
 Alpha virt. eigenvalues --    1.40791   1.41561   1.42688   1.45241   1.45777
 Alpha virt. eigenvalues --    1.47870   1.48457   1.49081   1.49427   1.49683
 Alpha virt. eigenvalues --    1.50228   1.51017   1.51345   1.51714   1.52653
 Alpha virt. eigenvalues --    1.54092   1.55146   1.56833   1.57719   1.61831
 Alpha virt. eigenvalues --    1.62254   1.64498   1.65952   1.67308   1.70255
 Alpha virt. eigenvalues --    1.72525   1.73039   1.73707   1.73846   1.75225
 Alpha virt. eigenvalues --    1.76087   1.76918   1.77676   1.78622   1.79560
 Alpha virt. eigenvalues --    1.81442   1.81885   1.83288   1.84075   1.84281
 Alpha virt. eigenvalues --    1.86014   1.86515   1.86869   1.87469   1.88091
 Alpha virt. eigenvalues --    1.88804   1.89406   1.89833   1.90404   1.91286
 Alpha virt. eigenvalues --    1.93490   1.94263   1.94717   1.96687   1.96927
 Alpha virt. eigenvalues --    1.98260   2.00791   2.02148   2.03702   2.04020
 Alpha virt. eigenvalues --    2.04651   2.05446   2.06164   2.07308   2.08002
 Alpha virt. eigenvalues --    2.08297   2.08843   2.09256   2.09782   2.10311
 Alpha virt. eigenvalues --    2.10909   2.11209   2.11885   2.13081   2.14946
 Alpha virt. eigenvalues --    2.15166   2.16650   2.17951   2.19742   2.21696
 Alpha virt. eigenvalues --    2.22460   2.23157   2.23811   2.24729   2.25730
 Alpha virt. eigenvalues --    2.25915   2.27111   2.27394   2.28280   2.29607
 Alpha virt. eigenvalues --    2.29887   2.31631   2.32622   2.33069   2.34771
 Alpha virt. eigenvalues --    2.36142   2.37298   2.37852   2.39532   2.41139
 Alpha virt. eigenvalues --    2.45243   2.49470   2.50307   2.51741   2.52226
 Alpha virt. eigenvalues --    2.55514   2.55726   2.57283   2.58818   2.59748
 Alpha virt. eigenvalues --    2.60681   2.61150   2.61554   2.64065   2.65024
 Alpha virt. eigenvalues --    2.66396   2.66461   2.67412   2.69272   2.70853
 Alpha virt. eigenvalues --    2.71951   2.72532   2.73770   2.75710   2.77631
 Alpha virt. eigenvalues --    2.81376   2.84625   2.85169   2.87616   2.88540
 Alpha virt. eigenvalues --    2.89235   2.90805   2.91612   2.93989   2.94534
 Alpha virt. eigenvalues --    2.95162   2.95625   2.96382   2.99636   3.01999
 Alpha virt. eigenvalues --    3.03133   3.04093   3.06715   3.21610   3.22549
 Alpha virt. eigenvalues --    3.25172   3.27630   3.31850   3.34294   3.42623
 Alpha virt. eigenvalues --    3.44538   3.45085   3.49020   3.58530   3.63518
          Condensed to atoms (all electrons):
 Mulliken charges:
               1
     1  C   -0.051798
     2  O   -0.375574
     3  C    0.050514
     4  C   -0.069867
     5  C    0.029278
     6  C   -0.281306
     7  C    0.180864
     8  C   -0.137995
     9  C   -0.035184
    10  C   -0.036198
    11  C   -0.147368
    12  C    0.130785
    13  C    0.036994
    14  C   -0.227138
    15  C    0.133525
    16  O   -0.363621
    17  C    0.041597
    18  C   -0.111628
    19  C    0.055541
    20  O   -0.406455
    21  C   -0.054139
    22  C   -0.271250
    23  C    0.182474
    24  C   -0.135794
    25  C   -0.033512
    26  C   -0.027028
    27  C   -0.140902
    28  C    0.123101
    29  C    0.107691
    30  O   -0.374887
    31  H    0.097062
    32  H    0.081234
    33  H    0.072435
    34  H    0.068992
    35  H    0.075112
    36  H    0.065783
    37  H    0.085890
    38  H    0.018099
    39  H    0.028673
    40  H    0.038362
    41  H    0.034840
    42  H    0.042866
    43  H    0.328655
    44  H    0.079287
    45  H    0.102540
    46  H    0.079747
    47  H    0.075002
    48  H    0.088237
    49  H    0.119343
    50  H    0.093494
    51  H    0.017484
    52  H    0.029877
    53  H    0.044382
    54  H    0.046595
    55  H    0.063166
    56  H    0.332125
 Sum of Mulliken charges =  -0.00000
 Mulliken charges with hydrogens summed into heavy atoms:
               1
     1  C    0.198932
     2  O   -0.375574
     3  C    0.194618
     4  C    0.081806
     5  C    0.029278
     6  C   -0.263207
     7  C    0.180864
     8  C   -0.109322
     9  C    0.003177
    10  C   -0.001358
    11  C   -0.104502
    12  C    0.130785
    13  C    0.036994
    14  C   -0.227138
    15  C    0.133525
    16  O   -0.034965
    17  C    0.041597
    18  C    0.070199
    19  C    0.210289
    20  O   -0.406455
    21  C    0.246935
    22  C   -0.253766
    23  C    0.182474
    24  C   -0.105917
    25  C    0.010871
    26  C    0.019567
    27  C   -0.077736
    28  C    0.123101
    29  C    0.107691
    30  O   -0.042762
 Electronic spatial extent (au):  <R**2>=          12884.9427
 Charge=             -0.0000 electrons
 Dipole moment (field-independent basis, Debye):
    X=              5.4994    Y=              2.2560    Z=             -1.8051  Tot=              6.2122
 Quadrupole moment (field-independent basis, Debye-Ang):
   XX=           -164.6584   YY=           -171.7609   ZZ=           -164.6661
   XY=              5.9137   XZ=             -1.8099   YZ=             -3.8611
 Traceless Quadrupole moment (field-independent basis, Debye-Ang):
   XX=              2.3701   YY=             -4.7324   ZZ=              2.3623
   XY=              5.9137   XZ=             -1.8099   YZ=             -3.8611
 Octapole moment (field-independent basis, Debye-Ang**2):
  XXX=            120.7115  YYY=             31.4265  ZZZ=            -38.9319  XYY=             27.1159
  XXY=             69.4785  XXZ=            -50.7192  XZZ=             29.7613  YZZ=             33.4130
  YYZ=              0.5897  XYZ=            -50.3885
 Hexadecapole moment (field-independent basis, Debye-Ang**3):
 XXXX=          -8736.6294 YYYY=          -3075.2004 ZZZZ=          -5153.4180 XXXY=           -599.5666
 XXXZ=            947.3611 YYYX=           -576.0120 YYYZ=            401.9808 ZZZX=            583.0525
 ZZZY=            511.8151 XXYY=          -1901.9958 XXZZ=          -2250.6580 YYZZ=          -1309.6972
 XXYZ=            201.0236 YYXZ=            225.8437 ZZXY=           -201.2268
 N-N= 2.898066641452D+03 E-N=-8.833130543077D+03  KE= 1.294553957872D+03
 No NMR shielding tensors so no spin-rotation constants.
 Leave Link  601 at Sat Feb 24 15:39:28 2024, MaxMem=  7516192768 cpu:              33.6 elap:               2.1
 (Enter /public/apps/g16-C01//g16/l701.exe)
 ... and contract with generalized density number  0.
 Compute integral first derivatives.
 R6Disp: Adding Grimme-D3(BJ) dispersion energy 1st derivatives to the gradient.
   1 Symmetry operations used in ECPInt.
 ECPInt:  NShTT=   27028 NPrTT=  108348 LenC2=   23789 LenP2D=   61282.
 LDataN:  DoStor=T MaxTD1= 5 Len=  102
 Leave Link  701 at Sat Feb 24 15:39:30 2024, MaxMem=  7516192768 cpu:              25.8 elap:               1.7
 (Enter /public/apps/g16-C01//g16/l702.exe)
 L702 exits ... SP integral derivatives will be done elsewhere.
 Leave Link  702 at Sat Feb 24 15:39:30 2024, MaxMem=  7516192768 cpu:               0.9 elap:               0.1
 (Enter /public/apps/g16-C01//g16/l703.exe)
 Integral derivatives from FoFJK, PRISM(SPDF).
 Compute integral first derivatives, UseDBF=F ICtDFT=           0.
 Calling FoFJK, ICntrl=      2127 FMM=F ISym2X=0 I1Cent= 0 IOpClX= 0 NMat=1 NMatS=1 NMatT=0.
 FoFJK:  IHMeth= 1 ICntrl=    2127 DoSepK=F KAlg= 0 I1Cent=           0 FoldK=F
 IRaf=         0 NMat=       1 IRICut=       1 DoRegI=T DoRafI=F ISym2E= 0 IDoP0=0 IntGTp=1.
 FoFCou: FMM=F IPFlag=           0 FMFlag=      100000 FMFlg1=         800
         NFxFlg=           0 DoJE=F BraDBF=F KetDBF=F FulRan=T
         wScrn=  0.000000 ICntrl=      2127 IOpCl=  0 I1Cent=           0 NGrid=           0
         NMat0=    1 NMatS0=      1 NMatT0=    0 NMatD0=    1 NMtDS0=    0 NMtDT0=    0
 Symmetry not used in FoFCou.
 Leave Link  703 at Sat Feb 24 15:39:48 2024, MaxMem=  7516192768 cpu:             317.8 elap:              17.9
 (Enter /public/apps/g16-C01//g16/l716.exe)
 Dipole        = 2.16363384D+00 8.87593492D-01-7.10189960D-01
 -------------------------------------------------------------------
 Center     Atomic                   Forces (Hartrees/Bohr)
 Number     Number              X              Y              Z
 -------------------------------------------------------------------
      1        6          -0.002559022   -0.009501796   -0.008738881
      2        8           0.000343263    0.001230196    0.000405482
      3        6          -0.008178767    0.004440048    0.001710320
      4        6           0.004003422   -0.009109241    0.002875129
      5        6          -0.005070173    0.006468606    0.008216697
      6        6           0.001765565   -0.000705086   -0.001090877
      7        6          -0.002638416   -0.001041872   -0.001901915
      8        6          -0.002876308    0.000591139    0.001295913
      9        6          -0.000683757   -0.001694423   -0.004931139
     10        6           0.002045942   -0.001259039   -0.003197503
     11        6           0.003165222    0.001270735    0.002212040
     12        6           0.000704692    0.000253283    0.002542587
     13        6           0.007955247    0.001174307    0.001805233
     14        6          -0.010816115    0.003004311   -0.001654946
     15        6          -0.006715405    0.003142862   -0.002856224
     16        8          -0.000170572   -0.003608243    0.004980879
     17        6           0.004511469    0.009391594   -0.001055250
     18        6          -0.001941663   -0.008749469   -0.008724855
     19        6          -0.003503329    0.005553504    0.004345639
     20        8          -0.000943208   -0.001664609    0.005423888
     21        6          -0.002771317   -0.000276815    0.007028243
     22        6          -0.000937228   -0.002568861    0.000514600
     23        6           0.003161677   -0.000438101    0.001234960
     24        6           0.002287842    0.002174447   -0.000436928
     25        6           0.002063099   -0.003765605    0.002685080
     26        6          -0.000793937   -0.002825711    0.001582587
     27        6          -0.003576119    0.000879902   -0.001498189
     28        6          -0.001125502    0.001255804   -0.001408541
     29        6           0.004937242    0.001395077    0.004084287
     30        8          -0.009662234   -0.000871439   -0.001823142
     31        1          -0.006313248    0.001148098    0.007397901
     32        1           0.000153882    0.008904768   -0.002169148
     33        1           0.007734404    0.000185115    0.005278585
     34        1           0.000744702   -0.005092038   -0.003729384
     35        1           0.005764556   -0.001769565    0.002389729
     36        1          -0.007042880    0.001526372   -0.002610542
     37        1           0.000205508    0.007140558    0.003095189
     38        1          -0.009576086   -0.000509537   -0.002087887
     39        1          -0.009485013   -0.000856608   -0.002555429
     40        1          -0.003018191   -0.003306311   -0.008900107
     41        1           0.007355212   -0.002486838   -0.006060178
     42        1           0.008189673    0.000784928    0.002062432
     43        1           0.004265740    0.004621135   -0.007776714
     44        1           0.006138766    0.001519996    0.003963850
     45        1          -0.001811712    0.007863860    0.002100834
     46        1           0.001914018   -0.004830846   -0.001637119
     47        1           0.004845975    0.003679254   -0.001665007
     48        1           0.006557021    0.004518855   -0.003014999
     49        1          -0.006972074    0.003492477   -0.005527951
     50        1           0.000327071   -0.007683586   -0.003488335
     51        1           0.009015194    0.001776126    0.002592260
     52        1           0.009488334    0.001065294    0.002520530
     53        1           0.005148754   -0.006737672    0.005446763
     54        1          -0.005270858   -0.008199602    0.002741207
     55        1          -0.008100051   -0.001201977   -0.002059913
     56        1           0.007759695    0.000302241    0.000068258
 -------------------------------------------------------------------
 Cartesian Forces:  Max     0.010816115 RMS     0.004583763
 Leave Link  716 at Sat Feb 24 15:39:48 2024, MaxMem=  7516192768 cpu:               1.0 elap:               0.1
 (Enter /public/apps/g16-C01//g16/l103.exe)

 GradGradGradGradGradGradGradGradGradGradGradGradGradGradGradGradGradGrad
 Berny optimization.
 FormGI is forming the generalized inverse of G from B-inverse, IUseBI=4.
 GSVD:  received Info=                   1 from GESDD.
 Internal  Forces:  Max     0.014761620 RMS     0.004521366
 Search for a local minimum.
 Step number   1 out of a maximum of  307
 All quantities printed in internal units (Hartrees-Bohrs-Radians)
 RMS Force = .45214D-02 SwitMx=.10000D-02 MixMth= 1
 Mixed Optimization -- RFO/linear search
 Second derivative matrix not updated -- first step.
 ITU=  0
     Eigenvalues ---    0.00253   0.00330   0.00657   0.00786   0.00949
     Eigenvalues ---    0.01496   0.01540   0.01583   0.01619   0.01624
     Eigenvalues ---    0.01624   0.01733   0.01758   0.01898   0.01902
     Eigenvalues ---    0.01909   0.01913   0.01934   0.01936   0.02059
     Eigenvalues ---    0.02082   0.02089   0.02125   0.02150   0.02153
     Eigenvalues ---    0.02159   0.02161   0.02165   0.02207   0.02235
     Eigenvalues ---    0.02245   0.02248   0.02280   0.02282   0.02284
     Eigenvalues ---    0.02302   0.02310   0.02318   0.02321   0.02399
     Eigenvalues ---    0.02399   0.04089   0.04433   0.04674   0.05224
     Eigenvalues ---    0.05487   0.05532   0.05768   0.05792   0.08943
     Eigenvalues ---    0.09366   0.10109   0.10216   0.10659   0.10672
     Eigenvalues ---    0.11294   0.11860   0.12541   0.12869   0.13701
     Eigenvalues ---    0.14071   0.15999   0.16000   0.16000   0.16000
     Eigenvalues ---    0.16000   0.16000   0.16000   0.16000   0.16000
     Eigenvalues ---    0.16000   0.16000   0.16000   0.16000   0.16000
     Eigenvalues ---    0.16000   0.16000   0.16000   0.16000   0.21991
     Eigenvalues ---    0.21996   0.22000   0.22000   0.22013   0.22124
     Eigenvalues ---    0.22541   0.22542   0.23516   0.23519   0.24509
     Eigenvalues ---    0.24509   0.24990   0.24995   0.24997   0.24998
     Eigenvalues ---    0.24998   0.24998   0.24999   0.24999   0.24999
     Eigenvalues ---    0.25000   0.25000   0.25000   0.28628   0.29154
     Eigenvalues ---    0.31532   0.32540   0.33649   0.33685   0.33753
     Eigenvalues ---    0.33872   0.34029   0.34112   0.34159   0.34176
     Eigenvalues ---    0.34384   0.34402   0.34691   0.34693   0.34778
     Eigenvalues ---    0.34948   0.35077   0.35824   0.35881   0.35885
     Eigenvalues ---    0.35897   0.35900   0.35921   0.35944   0.35950
     Eigenvalues ---    0.35985   0.35988   0.37921   0.37988   0.41029
     Eigenvalues ---    0.41051   0.41476   0.41570   0.41757   0.42046
     Eigenvalues ---    0.43248   0.43334   0.43457   0.43645   0.43698
     Eigenvalues ---    0.44280   0.44467   0.44637   0.44778   0.44786
     Eigenvalues ---    0.47271   0.48307   0.49667   0.49720   0.49898
     Eigenvalues ---    0.50411   0.50966   0.51051   0.52098   0.52504
     Eigenvalues ---    0.53992   0.54327
 RFO step:  Lambda=-1.74066290D-02 EMin= 2.53042668D-03
 Linear search not attempted -- first point.
 Iteration  1 RMS(Cart)=  0.10639353 RMS(Int)=  0.00254095
 Iteration  2 RMS(Cart)=  0.00627657 RMS(Int)=  0.00007400
 Iteration  3 RMS(Cart)=  0.00002280 RMS(Int)=  0.00007363
 Iteration  4 RMS(Cart)=  0.00000000 RMS(Int)=  0.00007363
 ITry= 1 IFail=0 DXMaxC= 7.19D-01 DCOld= 1.00D+10 DXMaxT= 3.00D-01 DXLimC= 3.00D+00 Rises=F
 Variable       Old X    -DE/DX   Delta X   Delta X   Delta X     New X
                                 (Linear)    (Quad)   (Total)
    R1        2.65525   0.00159   0.00000   0.00342   0.00342   2.65867
    R2        2.05759   0.00950   0.00000   0.02588   0.02588   2.08348
[...]
 8,0.00012301,0.00143973,-0.00253790,-0.00273895,0.08839925,-0.13393334
 ,0.15025407,-0.00000533,0.00002701,0.00001890,0.00004336,-0.00003484,-
 0.00003218,-0.00007410,0.00002603,0.00000360,0.00001625,-0.00000005,0.
 00000067,0.00001970,-0.00000574,0.00000407,-0.00000619,-0.00000738,-0.
 00001873,-0.00000603,0.00000356,0.00000865,-0.00000231,-0.00000216,-0.
 00001112,-0.00000745,0.00000139,0.00000648,0.00000783,0.00000337,0.000
 00528,0.00000267,0.00000317,-0.00000304,-0.00001493,-0.00000644,-0.000
 00007,0.00002341,-0.00008646,-0.00003840,0.00056736,0.00016259,0.00002
 477,-0.00003407,0.00034658,0.00003190,0.00005730,-0.00003544,0.0000157
 4,-0.00011593,0.00002226,-0.00010290,0.00001684,-0.00001354,-0.0000045
 8,-0.00000395,0.00000177,-0.00002031,0.00000060,0.00000170,0.00003351,
 0.00000489,-0.00000633,-0.00002327,-0.00000137,-0.00007428,0.00034070,
 -0.00025120,0.00079473,-0.00041818,-0.00445798,-0.00029500,-0.00352874
 ,-0.00978514,-0.02461355,0.01147363,-0.12790947,-0.11511823,0.04275229
 ,0.01087128,0.01261251,-0.00583274,-0.00026945,0.00088911,-0.00397165,
 -0.00001639,0.00001614,-0.00004933,0.00001643,-0.00002812,0.00005698,0
 .00000559,-0.00000212,-0.00000408,-0.00000079,-0.00000705,-0.00000059,
 0.00000053,-0.00000303,0.00000283,-0.00000915,-0.00000315,-0.00000878,
 0.00002470,0.00001342,0.00001602,0.00000230,-0.00000711,0.00000711,-0.
 00000257,-0.00000402,0.00000181,0.00000074,0.00000059,-0.00000071,0.00
 000150,0.00000056,-0.00000061,0.00000082,0.00000002,0.00000286,-0.0000
 0225,-0.00000115,0.00000306,-0.00000009,-0.00000583,-0.00000320,0.0000
 1522,0.00003574,-0.00001544,0.00000150,0.00000699,-0.00000135,-0.00000
 519,-0.00000767,0.00000564,0.00000155,0.00000135,-0.00000144,-0.000001
 36,-0.00000304,0.00000489,-0.00000314,-0.00000104,0.00000295,0.0000013
 7,0.00000097,0.00000098,-0.00000136,0.00000179,0.00000115,0.00003866,0
 .00004635,-0.00003399,-0.00060970,-0.00112358,0.00051718,0.00096417,0.
 00105306,0.00082263,0.13053667,0.00005576,-0.00003283,0.00004281,-0.00
 003937,0.00004424,-0.00005965,0.00008749,-0.00007183,0.00007340,-0.000
 02728,0.00001835,-0.00000682,-0.00009801,0.00001152,-0.00001356,0.0000
 2992,0.00002102,0.00005268,0.00003684,-0.00000148,-0.00001636,0.000003
 25,0.00000435,0.00002381,0.00002764,0.00000125,-0.00000713,-0.00001710
 ,-0.00000400,-0.00002506,-0.00003397,0.00000720,0.00002885,0.00006390,
 -0.00000294,-0.00009053,-0.00007797,0.00008545,0.00008575,-0.00098283,
 -0.00040527,0.00005816,0.00027551,-0.00017423,-0.00025050,0.00001409,-
 0.00025565,0.00020769,0.00008514,0.00002271,0.00007158,0.00000413,0.00
 004374,0.00000581,0.00000502,-0.00000244,-0.00000986,-0.00003362,-0.00
 000475,0.00006903,0.00000226,-0.00000885,-0.00005205,0.00008344,-0.000
 11578,-0.00039424,0.00054945,0.00018683,-0.00033315,-0.00130755,0.0025
 4582,0.00131059,0.00039900,0.00039539,0.00219333,-0.11486392,-0.227585
 42,0.08319745,-0.01199526,-0.01208959,0.00637603,0.00160938,0.00150784
 ,0.00535771,0.00004134,-0.00002506,0.00021568,-0.00000145,0.00004554,-
 0.00020071,-0.00000626,0.00000262,-0.00000275,-0.00000820,0.00001589,-
 0.00000554,-0.00002023,0.00000619,-0.00001405,0.00000508,0.00000349,0.
 00000294,-0.00003896,-0.00001763,-0.00001218,0.00000527,0.00001320,-0.
 00001394,0.00000207,0.00000121,-0.00000353,0.00000688,-0.00000069,0.00
 000664,0.00000557,-0.00000152,0.00000458,0.00000275,-0.00000046,0.0000
 0431,-0.00000182,-0.00000062,0.00000060,0.00001000,-0.00000455,-0.0000
 1782,0.00006044,0.00001642,-0.00005178,-0.00000832,0.00000005,0.000003
 30,0.00000816,-0.00000763,0.00000887,0.00000235,0.,-0.00000457,-0.0000
 0512,-0.00000882,0.00001421,-0.00000623,-0.00000220,0.00000841,0.00000
 402,0.00000126,0.00000142,-0.00000192,0.00000283,0.00000336,-0.0000352
 0,0.00000554,0.00001646,0.00002437,-0.00005927,0.00017855,0.00031140,-
 0.00038376,-0.00164420,0.12478843,0.23687320,0.00002638,0.00001625,0.0
 0003667,0.00000238,-0.00003040,-0.00004366,-0.00000960,0.00002753,0.00
 002936,0.00000051,-0.00000339,-0.00001159,-0.00003103,0.00000126,-0.00
 000264,-0.00001647,-0.00000104,0.00000994,0.00000014,-0.00001686,-0.00
 001703,-0.00000423,-0.00000582,0.00001075,0.00000375,-0.00000790,-0.00
 001175,-0.00000282,-0.00000896,-0.00000393,0.00001198,-0.00001203,-0.0
 0000041,-0.00000696,0.00005472,0.00002278,0.00004289,0.00012190,0.0001
 8044,0.00068897,0.00041058,0.00019102,0.00022682,-0.00013901,-0.000535
 47,0.00002404,0.00016312,-0.00017799,-0.00028140,0.00009075,-0.0000481
 8,-0.00001854,0.00002561,0.00001757,0.00000090,0.00000365,0.00003542,0
 .00001277,-0.00001049,-0.00005288,-0.00000361,0.00001524,0.00003972,0.
 00019126,-0.00058347,-0.00028639,-0.00029219,-0.00009637,-0.00065999,-
 0.00285971,0.00163409,0.00311676,-0.00497461,-0.00719938,0.00638931,0.
 04217515,0.08313726,-0.07798725,0.01072986,0.01545145,-0.00193096,-0.0
 0434303,0.00526290,0.00354439,0.00004597,-0.00007232,0.00006408,-0.000
 08561,0.00001455,-0.00005409,-0.00000096,-0.00000137,-0.00000343,-0.00
 000271,-0.00000452,-0.00000286,-0.00000891,0.00000313,-0.00000499,-0.0
 0001605,-0.00000594,-0.00001428,0.00000686,0.00001121,0.00001001,-0.00
 000414,-0.00000299,0.00000255,0.00000402,-0.00000831,0.00000065,-0.000
 00457,0.00000343,-0.00000314,-0.00000358,0.00000168,-0.00000280,-0.000
 00143,0.00000233,-0.00000373,0.00000181,0.00000548,-0.00000571,-0.0000
 0548,0.00001121,0.00000508,-0.00006248,0.00000211,0.00004565,0.0000078
 7,0.00000287,0.00000059,0.00000989,0.00000753,-0.00000653,0.00000010,-
 0.00000670,-0.00000257,0.00000396,0.00000352,-0.00000741,0.00000383,-0
 .00000012,-0.00000602,-0.00000162,0.00000066,-0.00000180,0.00000381,-0
 .00000487,-0.00000255,0.00002042,0.00004587,0.00001924,-0.00032415,-0.
 00027999,0.00028227,0.00132374,-0.00139562,-0.00159360,-0.04369733,-0.
 09382047,0.07218007,0.00002478,0.00001390,0.00003635,0.00004883,-0.000
 04832,-0.00003542,-0.00008043,0.00006712,-0.00001373,0.00000812,-0.000
 00952,0.00002148,0.00017991,-0.00012945,0.00014493,-0.00006300,-0.0001
 0613,-0.00016324,-0.00003601,-0.00003764,0.00010929,0.00000027,0.00000
 932,-0.00003469,-0.00003832,0.00000230,0.00003022,0.00005283,0.0000255
 2,0.00003452,-0.00000703,-0.00003807,-0.00000912,0.00016742,0.00026975
 ,0.00026728,-0.00011599,0.00098844,-0.00068269,-0.00084541,0.00145963,
 -0.00034773,-0.00029956,-0.00009163,0.00010178,0.00010459,-0.00004101,
 0.00004023,0.00015359,0.00000889,0.00008200,0.00003556,0.00000586,0.00
 000736,-0.00003007,-0.00001941,-0.00005715,0.00002248,0.00000879,0.000
 06753,0.00000681,-0.00001758,-0.00005080,-0.00054062,0.00033375,-0.000
 46049,0.00095597,-0.00310771,0.00016807,0.00071588,0.00008656,0.000460
 31,0.00159444,0.00094063,-0.00318007,-0.00842062,-0.00383069,-0.002472
 31,-0.31036575,-0.04501986,-0.07711133,-0.01096088,-0.00172742,-0.0043
 4071,-0.00037031,0.00209834,-0.00011050,-0.00022538,0.00037451,-0.0005
 5638,-0.00000181,-0.00000306,-0.00000472,-0.00000182,-0.00000514,-0.00
 000539,-0.00000715,0.00000266,-0.00000814,-0.00002250,-0.00000968,-0.0
 0001181,0.00010227,-0.00000862,-0.00001636,0.00000402,-0.00001131,0.00
 000236,0.00001126,-0.00001450,-0.00000625,-0.00000040,0.00001237,-0.00
 000377,-0.00000090,-0.00000040,-0.00000023,-0.00000191,-0.00000346,-0.
 00000030,-0.00000101,-0.00000307,-0.00000186,-0.00001456,-0.00003642,0
 .00000185,0.00000181,-0.00001037,-0.00003116,0.00000116,0.00000328,0.0
 0000563,-0.00001223,-0.00002560,0.00001510,0.00000489,0.00000322,-0.00
 000150,-0.00000083,-0.00000621,0.00002070,-0.00000342,0.00000196,0.000
 00623,0.00000341,-0.00000236,0.00000664,-0.00000661,0.00000419,0.00000
 351,-0.00009835,-0.00016406,0.00005527,-0.00018984,0.00017510,0.000238
 47,-0.00039420,-0.00022627,-0.00007852,0.00035142,0.00106963,0.0014134
 9,0.32880905,-0.00001474,-0.00001046,-0.00005292,-0.00009115,-0.000037
 34,0.00012117,0.00013524,0.00009410,-0.00003817,0.00002983,-0.00006659
 ,-0.00000959,0.00039639,-0.00005284,0.00006680,-0.00005792,-0.00003444
 ,-0.00022627,-0.00029106,-0.00004677,0.00005585,0.00009208,-0.00001433
 ,0.00000073,-0.00008555,-0.00002519,-0.00007581,0.00011445,0.00000362,
 0.00005256,-0.00004538,-0.00003219,-0.00023912,0.00027243,0.00036041,0
 .00059156,-0.00003273,-0.00092897,0.00039188,0.00021389,-0.00029527,-0
 .00151022,0.00016357,0.00025237,-0.00034864,0.00014536,-0.00002792,0.0
 0017461,-0.00010102,0.00006034,-0.00017429,0.00006011,0.00001238,0.000
 04336,-0.00006795,-0.00002036,-0.00006853,0.00005702,0.00001011,0.0000
 7512,-0.00000638,-0.00001090,-0.00005120,-0.00116639,0.00020277,-0.000
 48035,-0.00179100,-0.00223711,0.00424634,0.00015773,-0.00091748,0.0002
 6681,0.00016033,-0.00008885,0.00548408,0.02057388,0.00689845,0.0062690
 0,-0.04440542,-0.05871172,-0.00312938,-0.02350888,0.00108238,-0.007727
 83,0.00103018,-0.00108321,0.00070123,0.00002877,0.00011205,-0.00033742
 ,-0.00001115,-0.00000037,0.00000992,0.00001102,-0.00001145,0.00000336,
 0.00001353,0.00000760,0.00000230,-0.00005387,-0.00001189,-0.00002559,0
 .00002977,0.00003426,-0.00004385,-0.00003379,0.00000096,0.00000391,0.0
 0000700,-0.00001586,0.00001827,-0.00002903,0.00000354,-0.00003685,-0.0
 0001732,0.00000210,-0.00000573,0.00000157,0.00000037,-0.00001751,0.000
 01476,-0.00000493,-0.00002474,0.00003743,-0.00000342,-0.00002863,-0.00
 002250,0.00000463,0.00000823,0.00001343,0.00001737,0.00000090,-0.00001
 602,-0.00003518,0.00001589,0.00000974,-0.00000158,-0.00000563,0.000003
 13,-0.00000527,0.00002283,0.00000176,0.00000519,0.00000722,0.00000459,
 -0.00001010,0.00001275,-0.00000945,0.00000237,0.00000394,-0.00026283,-
 0.00024635,0.00021116,0.00014271,-0.00025440,-0.00049260,0.00088649,0.
 00021273,0.00034678,0.00062212,-0.00061554,-0.00275385,0.04705766,0.05
 709967,0.00006366,-0.00007100,0.00001570,-0.00016410,0.00011027,-0.000
 03809,0.00039978,-0.00014450,0.00020291,-0.00008597,0.00000979,-0.0000
 1045,-0.00017857,-0.00012516,0.00005671,0.00001463,0.00011272,0.000082
 40,0.00003789,-0.00005839,-0.00012740,-0.00002288,0.00001457,0.0000465
 7,0.00006254,-0.00000470,-0.00002155,-0.00006859,-0.00004776,-0.000058
 08,0.00003103,-0.00006066,0.00008784,-0.00008808,0.00014612,-0.0004316
 4,0.00032213,0.00033270,-0.00041008,0.00041928,-0.00094281,-0.00132730
 ,0.00015980,-0.00025886,-0.00018709,-0.00011038,0.00007011,0.00008436,
 0.00006486,-0.00008826,-0.00009437,-0.00002216,0.00003099,0.00000889,0
 .00002294,0.00000592,0.00003222,-0.00003442,-0.00001310,-0.00002627,0.
 00000072,0.00001275,0.00001624,0.00049430,-0.00003363,0.00024020,-0.00
 036201,0.00381760,0.00222967,0.00041887,0.00007364,-0.00048988,-0.0023
 7182,0.00587771,0.00322420,-0.01872347,-0.00317597,-0.00069619,-0.0777
 2461,-0.00339548,-0.06506387,0.01077019,0.00131578,0.00630634,-0.00047
 543,0.00112606,0.00162455,-0.00030520,-0.00008624,-0.00149642,-0.00001
 474,0.00000691,-0.00000029,-0.00000453,0.00002247,-0.00000101,-0.00001
 936,0.00001300,-0.00002021,-0.00000602,-0.00000708,-0.00000175,-0.0000
 9282,-0.00002465,-0.00015911,0.00000453,0.00003831,-0.00003849,0.00001
 777,-0.00000754,-0.00001362,0.00001497,-0.00001296,0.00001028,0.000009
 19,0.00000291,0.00000573,0.00000309,0.00000590,0.00000848,-0.00000545,
 0.00001190,0.00000659,0.00000547,0.00003198,-0.00000057,0.00003302,0.0
 0002543,0.00003135,-0.00000708,-0.00000518,0.00000022,0.00000547,0.000
 00881,-0.00000508,-0.00000251,-0.00000190,-0.00000207,-0.00000469,-0.0
 0000168,-0.00000391,-0.00000282,-0.00000530,-0.00000199,-0.00000152,0.
 00000647,-0.00000585,0.00000713,-0.00000286,-0.00000179,0.00005187,0.0
 0022607,0.00008032,0.00022417,-0.00051351,-0.00066180,-0.00082584,-0.0
 0006317,-0.00001676,0.00166781,-0.00266292,-0.00273892,0.08641639,-0.0
 0126251,0.05963747,-0.00000119,0.00002062,0.00006599,0.00017976,0.0000
 3429,-0.00020461,-0.00017793,-0.00002783,0.00005218,-0.00001061,0.0002
 0083,-0.00000732,0.00280849,-0.00013130,0.00067312,-0.00061896,-0.0001
 8125,-0.00055159,0.00021240,0.00015846,0.00091329,-0.00018471,-0.00012
 011,-0.00056957,-0.00020215,0.00010459,0.00048743,0.00009280,0.0000163
 2,0.00013632,0.00042870,0.00005855,0.00042899,-0.00140905,-0.00006349,
 -0.00105802,0.00080931,0.00231715,0.00751880,0.00495462,-0.00066272,-0
 .00061343,-0.00081733,-0.00322964,0.00146735,-0.00090200,0.00170178,-0
 .00131844,0.00012042,-0.00036453,0.00055619,-0.00008785,-0.00012244,-0
 .00000516,0.00010240,0.00003404,0.00020603,0.00001203,-0.00002715,-0.0
 0044770,0.00001119,0.00008214,0.00032943,0.00018529,0.00050029,-0.0000
 6286,-0.00060869,-0.00004645,-0.00030429,-0.00020451,0.00013509,-0.000
 24170,-0.00021793,-0.00013220,0.00000572,0.00003944,-0.00037364,0.0003
 0759,0.00047077,0.00134909,-0.00007837,-0.00211890,0.00191517,-0.00103
 233,-0.01348585,-0.00398107,-0.01334666,-0.44453964,-0.04495228,-0.054
 59015,0.00004155,0.00000754,-0.00002278,-0.00003709,0.00002917,-0.0000
 0553,-0.00001152,-0.00003351,0.00001416,0.00007412,0.00001059,0.000012
 67,-0.00009935,-0.00024387,0.00005347,0.00010553,-0.00000187,0.0000183
 3,-0.00015279,-0.00011152,-0.00012614,0.00011206,0.00000646,-0.0000731
 8,0.00003879,0.00000505,0.00001522,-0.00001923,0.00000602,0.00001961,-
 0.00002994,0.00002032,0.00007648,-0.00016496,0.00005463,0.00008627,-0.
 00032576,-0.00026860,0.00021163,0.00002396,0.00000161,-0.00001265,0.00
 001911,0.00005948,-0.00003359,-0.00002241,-0.00000696,0.00001419,0.000
 01038,0.00003833,-0.00008645,0.00001714,-0.00000947,-0.00005178,-0.000
 02411,0.00002455,-0.00003623,0.00003711,-0.00002358,-0.00002518,0.0000
 6461,-0.00000078,-0.00002217,0.00003725,-0.00000217,0.00002264,-0.0000
 0521,-0.00004851,0.00001548,0.00000225,-0.00006937,0.00007964,-0.00020
 386,-0.00036644,-0.00001843,0.45567206,-0.00003228,0.00015225,0.000018
 83,0.00008220,-0.00010381,-0.00010656,-0.00015093,-0.00014996,-0.00000
 263,0.00053205,-0.00025411,0.00042763,0.00047194,0.00189289,-0.0026623
 7,-0.00049993,0.00119108,0.00012449,0.00011932,-0.00011446,-0.00009419
 ,0.00001989,0.00001268,0.00012806,0.00011036,-0.00003007,-0.00005517,-
 0.00011384,0.00008019,-0.00008624,-0.00000180,-0.00003737,0.00017197,-
 0.00013586,-0.00052225,-0.00001351,-0.00003531,-0.00044008,0.00043789,
 0.00088764,-0.00045971,-0.00164303,-0.00057699,0.00089468,-0.00026757,
 0.00047831,-0.00111740,0.00038876,-0.00046722,-0.00022519,-0.00016966,
 0.00002694,0.00006759,0.00002041,-0.00005793,-0.00003400,-0.00004463,0
 .00005413,-0.00004661,0.00001338,0.00000329,0.00002228,-0.00001878,0.0
 0003641,-0.00020425,0.00020255,0.00124680,0.00031447,0.00047409,-0.000
 26857,0.00034886,-0.00042177,-0.00025690,-0.00036616,0.00003526,0.0001
 1994,-0.00022049,0.00070479,-0.00002609,-0.00084691,0.00036177,-0.0001
 5324,0.00108818,-0.00075518,-0.01237929,-0.00231294,-0.00208510,-0.034
 84029,-0.01394193,-0.01419127,0.00001482,-0.00001430,-0.00000295,0.000
 02536,-0.00005288,0.00002047,0.00001141,-0.00001105,0.00002111,-0.0000
 6379,0.00001411,-0.00001394,-0.00012166,0.00005077,-0.00006199,0.00005
 778,0.00012550,0.00009034,-0.00035241,0.00013463,0.00007640,-0.0000152
 6,-0.00025044,-0.00004736,0.00000674,0.00000608,0.00001179,0.00000545,
 -0.00000487,0.00000564,0.00000034,0.00001748,0.00000183,0.00000325,-0.
 00000801,-0.00001019,0.00003300,0.00009573,0.00008730,-0.00002117,-0.0
 0001065,0.00000977,-0.00004764,-0.00010487,0.00007140,0.00001963,-0.00
 001148,-0.00003097,-0.00000768,-0.00001771,0.00004586,-0.00000682,-0.0
 0000496,0.00000191,0.00000306,0.00000837,0.00000446,0.00000689,-0.0000
 0920,-0.00000074,-0.00006654,-0.00004652,0.00001530,-0.00006696,0.0000
 1365,0.00000716,-0.00006572,0.00001257,-0.00003936,0.00001302,-0.00000
 034,-0.00005976,-0.00026841,-0.00062150,-0.00037911,0.04671061,0.01605
 242,0.00024533,0.00011882,0.00040701,0.00008694,-0.00013439,-0.0004903
 5,-0.00019575,-0.00007351,0.00035026,0.00054982,-0.00020472,-0.0004273
 9,0.00027291,-0.00238292,-0.00681281,-0.00172568,-0.00013498,0.0007876
 5,0.00031323,0.00001750,-0.00012589,0.00004562,0.00004861,0.00020688,0
 .00025183,-0.00000582,-0.00007882,-0.00024124,-0.00008461,-0.00018634,
 -0.00008026,0.00014601,0.00055479,-0.00051200,0.00004455,-0.00053184,-
 0.00097010,-0.00015722,-0.00049049,-0.00079079,0.00026525,0.00163685,0
 .00050114,0.00239681,-0.00089284,0.00038620,-0.00139562,0.00099258,0.0
 0018193,0.00029434,-0.00033567,-0.00001099,0.00009540,-0.00009058,0.00
 011787,0.00002737,0.00002119,-0.00024224,-0.00003162,0.00025642,0.0000
 0500,-0.00003070,-0.00019909,-0.00071255,-0.00022959,-0.00026335,-0.00
 044436,-0.00031290,0.00009901,0.00008426,0.00000900,0.00000461,-0.0001
 0983,0.00008984,-0.00014820,0.00021992,0.00021600,-0.00023216,0.000270
 66,0.00003554,-0.00040843,0.00152737,-0.00253551,0.00091369,-0.0495358
 2,-0.00605364,-0.01062767,-0.01091792,-0.01014162,-0.04722153,-0.00002
 121,0.00000493,-0.00004207,-0.00001793,-0.00002165,0.00001295,-0.00008
 493,0.00006544,-0.00007405,0.00007695,0.00003215,-0.00003516,0.0000381
 7,-0.00024882,0.00013519,0.00005732,0.00017000,0.00012983,-0.00005272,
 0.00033728,0.00019385,-0.00007144,-0.00001330,-0.00042543,0.00002865,0
 .00000663,0.00003496,0.00001953,0.00000828,0.00001631,-0.00000534,-0.0
 0000136,0.00003095,0.00006632,-0.00001672,-0.00004448,0.00042119,0.000
 36081,-0.00026257,-0.00006639,0.00000366,0.00001722,0.00004220,-0.0000
 1284,0.00005596,0.00000053,0.00000483,-0.00002450,-0.00003365,-0.00003
 578,0.00003458,-0.00002904,-0.00001352,0.00003681,0.00001213,0.0000099
 8,-0.00000558,-0.00000227,0.00001245,0.00001357,-0.00006503,0.00005039
 ,0.00002214,-0.00004845,0.00002108,0.00000337,-0.00002122,0.00004893,-
 0.00000242,-0.00001133,0.00008936,-0.00000979,0.00003937,-0.00004130,0
 .00011265,0.06115810,0.01928342,0.06340822\\0.00000145,0.00000130,0.00
 000498,-0.00000301,-0.00000146,-0.00000303,0.00000080,-0.00000536,0.00
 000070,-0.00000650,0.00000704,0.00000180,0.00000568,-0.00000041,-0.000
 00087,-0.00000297,-0.00000096,-0.00000027,0.00000509,0.00000145,0.0000
 0125,-0.00000068,-0.00000076,-0.00000258,-0.00000183,-0.00000056,-0.00
 000033,0.00000183,0.00000117,0.00000071,-0.00000186,-0.00000190,0.0000
 0047,-0.00000595,0.00000131,-0.00000198,0.00001058,-0.00000007,0.00000
 545,-0.00000985,-0.00000037,-0.00000377,0.00000219,0.00000622,-0.00000
 309,0.00000189,-0.00000272,-0.00000016,-0.00000422,-0.00000597,0.00000
 187,0.00000682,0.00000727,0.00000084,0.00000024,-0.00000619,0.00000290
 ,0.00000068,0.00000888,-0.00000532,-0.00000226,-0.00000240,0.00000413,
 0.00000366,0.00000001,-0.00000047,-0.00000247,0.00000004,0.00000102,0.
 00000004,-0.00000103,0.00000047,0.00000086,-0.00000130,0.00000025,-0.0
 0000001,-0.00000052,0.00000056,0.00000137,0.00000162,-0.00000167,0.000
 00034,0.00000254,0.00000087,-0.00000225,-0.00000037,0.00000010,0.00000
 313,0.,-0.00000061,-0.00000080,0.00000023,-0.00000032,0.00000069,0.000
 00062,-0.00000117,-0.00000006,-0.00000069,-0.00000010,0.00000035,-0.00
 000011,-0.00000050,0.00000036,0.00000232,-0.00000080,0.00000089,-0.000
 00111,-0.00000110,0.00000114,-0.00000140,0.00000065,-0.00000052,0.0000
 0091,-0.00000056,-0.00000089,0.00000060,0.00000032,0.00000015,0.000000
 75,-0.00000127,0.00000080,-0.00000089,-0.00000065,0.00000136,-0.000000
 50,-0.00000048,0.00000315,-0.00000071,0.00000206,-0.00000091,-0.000001
 60,-0.00000039,-0.00000346,-0.00000121,0.00000040,0.00000010,-0.000000
 58,-0.00000058,-0.00000033,0.00000017,0.00000107,-0.00000075,0.0000014
 4,-0.00000219,-0.00000164,-0.00000161,-0.00000004,0.00000311,0.0000003
 1,0.00000018,0.,0.00000011,0.00000065,0.00000089,0.00000042,-0.0000003
 7,-0.00000023,-0.00000077,0.00000088,-0.00000113,-0.00000106,-0.000000
 62,-0.00000136,-0.00000119,-0.00000001,-0.00000368,-0.00000097,0.00000
 069\\\@
 The archive entry for this job was punched.


 LEARN FROM YESTERDAY,
 LIVE FOR TODAY,
 LOOK TO TOMORROW,
 REST THIS AFTERNOON.

           -- SNOOPY
 Job cpu time:       0 days  5 hours 53 minutes 23.5 seconds.
 Elapsed time:       0 days  0 hours 19 minutes 22.8 seconds.
 File lengths (MBytes):  RWF=   1475 Int=      0 D2E=      0 Chk=     21 Scr=      1
 Normal termination of Gaussian 16 at Sat Feb 24 16:44:02 2024.
