 Entering Gaussian System, Link 0=g16
 Initial command:
 /public/apps/g16-C01//g16/l1.exe "/public/home/ljq/tmp/Gau-53648.inp" -scrdir="/public/home/ljq/tmp/"
 Entering Link 1 = /public/apps/g16-C01//g16/l1.exe PID=     53649.
  
 Copyright (c) 1988-2019, Gaussian, Inc.  All Rights Reserved.
  
 This is part of the Gaussian(R) 16 program.  It is based on
 the Gaussian(R) 09 system (copyright 2009, Gaussian, Inc.),
 the Gaussian(R) 03 system (copyright 2003, Gaussian, Inc.),
 the Gaussian(R) 98 system (copyright 1998, Gaussian, Inc.),
 the Gaussian(R) 94 system (copyright 1995, Gaussian, Inc.),
 the Gaussian 92(TM) system (copyright 1992, Gaussian, Inc.),
 the Gaussian 90(TM) system (copyright 1990, Gaussian, Inc.),
 the Gaussian 88(TM) system (copyright 1988, Gaussian, Inc.),
 the Gaussian 86(TM) system (copyright 1986, Carnegie Mellon
 University), and the Gaussian 82(TM) system (copyright 1983,
 Carnegie Mellon University). Gaussian is a federally registered
 trademark of Gaussian, Inc.
  
 This software contains proprietary and confidential information,
 including trade secrets, belonging to Gaussian, Inc.
  
 This software is provided under written license and may be
 used, copied, transmitted, or stored only in accord with that
 written license.
  
 The following legend is applicable only to US Government
 contracts under FAR:
  
                    RESTRICTED RIGHTS LEGEND
  
 Use, reproduction and disclosure by the US Government is
 subject to restrictions as set forth in subparagraphs (a)
 and (c) of the Commercial Computer Software - Restricted
 Rights clause in FAR 52.227-19.
  
 Gaussian, Inc.
 340 Quinnipiac St., Bldg. 40, Wallingford CT 06492
  
  
 ---------------------------------------------------------------
 Warning -- This program may not be used in any manner that
 competes with the business of Gaussian, Inc. or will provide
 assistance to any competitor of Gaussian, Inc.  The licensee
 of this program is prohibited from giving any competitor of
 Gaussian, Inc. access to this program.  By using this program,
 the user acknowledges that Gaussian, Inc. is engaged in the
 business of creating and licensing software in the field of
 computational chemistry and represents and warrants to the
 licensee that it is not a competitor of Gaussian, Inc. and that
 it will not use this program in any manner prohibited above.
 ---------------------------------------------------------------
  

 Cite this work as:
 Gaussian 16, Revision C.01,
 M. J. Frisch, G. W. Trucks, H. B. Schlegel, G. E. Scuseria, 
 M. A. Robb, J. R. Cheeseman, G. Scalmani, V. Barone, 
 G. A. Petersson, H. Nakatsuji, X. Li, M. Caricato, A. V. Marenich, 
 J. Bloino, B. G. Janesko, R. Gomperts, B. Mennucci, H. P. Hratchian, 
 J. V. Ortiz, A. F. Izmaylov, J. L. Sonnenberg, D. Williams-Young, 
 F. Ding, F. Lipparini, F. Egidi, J. Goings, B. Peng, A. Petrone, 
 T. Henderson, D. Ranasinghe, V. G. Zakrzewski, J. Gao, N. Rega, 
 G. Zheng, W. Liang, M. Hada, M. Ehara, K. Toyota, R. Fukuda, 
 J. Hasegawa, M. Ishida, T. Nakajima, Y. Honda, O. Kitao, H. Nakai, 
 T. Vreven, K. Throssell, J. A. Montgomery, Jr., J. E. Peralta, 
 F. Ogliaro, M. J. Bearpark, J. J. Heyd, E. N. Brothers, K. N. Kudin, 
 V. N. Staroverov, T. A. Keith, R. Kobayashi, J. Normand, 
 K. Raghavachari, A. P. Rendell, J. C. Burant, S. S. Iyengar, 
 J. Tomasi, M. Cossi, J. M. Millam, M. Klene, C. Adamo, R. Cammi, 
 J. W. Ochterski, R. L. Martin, K. Morokuma, O. Farkas, 
 J. B. Foresman, and D. J. Fox, Gaussian, Inc., Wallingford CT, 2019.
 
 ******************************************
 Gaussian 16:  ES64L-G16RevC.01  3-Jul-2019
                24-Feb-2024 
 ******************************************
 %nproc=40
 Will use up to   40 processors via shared memory.
 %mem=56GB
 ------------------------------------------
 #p opt freq b3lyp/def2svpp em=gd3bj nosymm
 ------------------------------------------
 1/18=20,19=15,26=3,38=1/1,3;
 2/9=110,12=2,15=1,17=6,18=5,40=1/2;
 3/5=43,7=202,11=2,25=1,30=1,71=1,74=-5,124=41/1,2,3;
 4//1;
 5/5=2,38=5/2;
 6/7=2,8=2,9=2,10=2,28=1/1;
 7/30=1/1,2,3,16;
 1/18=20,19=15,26=3/3(2);
 2/9=110,15=1/2;
 99//99;
 2/9=110,15=1/2;
 3/5=43,7=202,11=2,25=1,30=1,71=1,74=-5,124=41/1,2,3;
 4/5=5,16=3,69=1/1;
 5/5=2,38=5/2;
 7/30=1/1,2,3,16;
 1/18=20,19=15,26=3/3(-5);
 2/9=110,15=1/2;
 6/7=2,8=2,9=2,10=2,19=2,28=1/1;
 99/9=1/99;
 Leave Link    1 at Sat Feb 24 22:55:00 2024, MaxMem=  7516192768 cpu:               1.2 elap:               0.0
 (Enter /public/apps/g16-C01//g16/l101.exe)
 ----------------------
 $$$$Singlemol####0????
 ----------------------
 Symbolic Z-matrix:
 Charge =  0 Multiplicity = 1
 C                     7.51097  -2.41262  -0.76418 
 C                     6.52289  -1.38382  -0.27976 
 O                     6.80576  -0.36916   0.29484 
 O                     5.2768   -1.76687  -0.60609 
 C                     4.1546   -1.01845  -0.27479 
 C                     3.08648  -1.10482  -1.18865 
 C                     1.91991  -0.44108  -0.94669 
 C                     1.76153   0.34647   0.21587 
 C                     0.56127   1.05244   0.48708 
 C                    -0.55951   1.05084  -0.48947 
 C                    -0.43876   1.76757  -1.66689 
 O                     0.68226   2.45889  -1.98844 
 C                    -1.50692   1.81723  -2.58409 
 C                    -2.67307   1.15994  -2.32527 
 C                    -2.83387   0.40852  -1.14194 
 C                    -4.03116  -0.28398  -0.8712 
 C                    -4.1571   -1.0092    0.28301 
 O                    -5.27938  -1.75453   0.6202 
 C                    -6.52534  -1.38513   0.27817 
 C                    -7.51059  -2.40917   0.77823 
 O                    -6.81059  -0.38426  -0.319 
 C                    -3.08926  -1.0919    1.19778 
 C                    -1.92148  -0.4316    0.95263 
 C                    -1.76121   0.34884  -0.21448 
 C                     0.44221   1.77618   1.66036 
 O                    -0.67749   2.4714    1.97815 
 C                     1.51069   1.82919   2.577 
 C                     2.67553   1.16825   2.32168 
 C                     2.83457   0.40964   1.14272 
 C                     4.03041  -0.28657   0.87537 
 H                     7.44698  -2.49347  -1.84672 
 H                     7.26602  -3.38184  -0.3368 
 H                     8.51434  -2.11762  -0.47406 
 H                     3.21496  -1.70894  -2.07285 
 H                     1.09971  -0.51906  -1.64488 
 H                     1.35333   2.33633  -1.30243 
 H                    -1.36651   2.39367  -3.48442 
 H                    -3.49233   1.20612  -3.02633 
 H                    -4.83791  -0.22588  -1.5835 
 H                    -7.24449  -3.39024   0.39284 
 H                    -8.51125  -2.13783   0.45726 
 H                    -7.46907  -2.44868   1.86425 
 H                    -3.21925  -1.69077   2.08533 
 H                    -1.10173  -0.50699   1.65162 
 H                    -1.34865   2.34656   1.29263 
 H                     1.37164   2.41122   3.47394 
 H                     3.49517   1.21712   3.02212 
 H                     4.83774  -0.22612   1.58689 
 
 ITRead=  0  0  0  0  0  0  0  0  0  0  0  0  0  0  0  0  0  0  0  0
 ITRead=  0  0  0  0  0  0  0  0  0  0  0  0  0  0  0  0  0  0  0  0
 ITRead=  0  0  0  0  0  0  0  0
 MicOpt= -1 -1 -1 -1 -1 -1 -1 -1 -1 -1 -1 -1 -1 -1 -1 -1 -1 -1 -1 -1
 MicOpt= -1 -1 -1 -1 -1 -1 -1 -1 -1 -1 -1 -1 -1 -1 -1 -1 -1 -1 -1 -1
 MicOpt= -1 -1 -1 -1 -1 -1 -1 -1
 NAtoms=     48 NQM=       48 NQMF=       0 NMMI=      0 NMMIF=      0
                NMic=       0 NMicF=      0.
                    Isotopes and Nuclear Properties:
 (Nuclear quadrupole moments (NQMom) in fm**2, nuclear magnetic moments (NMagM)
  in nuclear magnetons)

  Atom         1           2           3           4           5           6           7           8           9          10
 IAtWgt=          12          12          16          16          12          12          12          12          12          12
 AtmWgt=  12.0000000  12.0000000  15.9949146  15.9949146  12.0000000  12.0000000  12.0000000  12.0000000  12.0000000  12.0000000
 NucSpn=           0           0           0           0           0           0           0           0           0           0
 AtZEff=  -0.0000000  -0.0000000  -0.0000000  -0.0000000  -0.0000000  -0.0000000  -0.0000000  -0.0000000  -0.0000000  -0.0000000
 NQMom=    0.0000000   0.0000000   0.0000000   0.0000000   0.0000000   0.0000000   0.0000000   0.0000000   0.0000000   0.0000000
 NMagM=    0.0000000   0.0000000   0.0000000   0.0000000   0.0000000   0.0000000   0.0000000   0.0000000   0.0000000   0.0000000
 AtZNuc=   6.0000000   6.0000000   8.0000000   8.0000000   6.0000000   6.0000000   6.0000000   6.0000000   6.0000000   6.0000000

  Atom        11          12          13          14          15          16          17          18          19          20
 IAtWgt=          12          16          12          12          12          12          12          16          12          12
 AtmWgt=  12.0000000  15.9949146  12.0000000  12.0000000  12.0000000  12.0000000  12.0000000  15.9949146  12.0000000  12.0000000
 NucSpn=           0           0           0           0           0           0           0           0           0           0
 AtZEff=  -0.0000000  -0.0000000  -0.0000000  -0.0000000  -0.0000000  -0.0000000  -0.0000000  -0.0000000  -0.0000000  -0.0000000
 NQMom=    0.0000000   0.0000000   0.0000000   0.0000000   0.0000000   0.0000000   0.0000000   0.0000000   0.0000000   0.0000000
 NMagM=    0.0000000   0.0000000   0.0000000   0.0000000   0.0000000   0.0000000   0.0000000   0.0000000   0.0000000   0.0000000
 AtZNuc=   6.0000000   8.0000000   6.0000000   6.0000000   6.0000000   6.0000000   6.0000000   8.0000000   6.0000000   6.0000000

  Atom        21          22          23          24          25          26          27          28          29          30
 IAtWgt=          16          12          12          12          12          16          12          12          12          12
 AtmWgt=  15.9949146  12.0000000  12.0000000  12.0000000  12.0000000  15.9949146  12.0000000  12.0000000  12.0000000  12.0000000
 NucSpn=           0           0           0           0           0           0           0           0           0           0
 AtZEff=  -0.0000000  -0.0000000  -0.0000000  -0.0000000  -0.0000000  -0.0000000  -0.0000000  -0.0000000  -0.0000000  -0.0000000
 NQMom=    0.0000000   0.0000000   0.0000000   0.0000000   0.0000000   0.0000000   0.0000000   0.0000000   0.0000000   0.0000000
 NMagM=    0.0000000   0.0000000   0.0000000   0.0000000   0.0000000   0.0000000   0.0000000   0.0000000   0.0000000   0.0000000
 AtZNuc=   8.0000000   6.0000000   6.0000000   6.0000000   6.0000000   8.0000000   6.0000000   6.0000000   6.0000000   6.0000000

  Atom        31          32          33          34          35          36          37          38          39          40
 IAtWgt=           1           1           1           1           1           1           1           1           1           1
 AtmWgt=   1.0078250   1.0078250   1.0078250   1.0078250   1.0078250   1.0078250   1.0078250   1.0078250   1.0078250   1.0078250
 NucSpn=           1           1           1           1           1           1           1           1           1           1
 AtZEff=  -0.0000000  -0.0000000  -0.0000000  -0.0000000  -0.0000000  -0.0000000  -0.0000000  -0.0000000  -0.0000000  -0.0000000
 NQMom=    0.0000000   0.0000000   0.0000000   0.0000000   0.0000000   0.0000000   0.0000000   0.0000000   0.0000000   0.0000000
 NMagM=    2.7928460   2.7928460   2.7928460   2.7928460   2.7928460   2.7928460   2.7928460   2.7928460   2.7928460   2.7928460
 AtZNuc=   1.0000000   1.0000000   1.0000000   1.0000000   1.0000000   1.0000000   1.0000000   1.0000000   1.0000000   1.0000000

  Atom        41          42          43          44          45          46          47          48
 IAtWgt=           1           1           1           1           1           1           1           1
 AtmWgt=   1.0078250   1.0078250   1.0078250   1.0078250   1.0078250   1.0078250   1.0078250   1.0078250
 NucSpn=           1           1           1           1           1           1           1           1
 AtZEff=  -0.0000000  -0.0000000  -0.0000000  -0.0000000  -0.0000000  -0.0000000  -0.0000000  -0.0000000
 NQMom=    0.0000000   0.0000000   0.0000000   0.0000000   0.0000000   0.0000000   0.0000000   0.0000000
 NMagM=    2.7928460   2.7928460   2.7928460   2.7928460   2.7928460   2.7928460   2.7928460   2.7928460
 AtZNuc=   1.0000000   1.0000000   1.0000000   1.0000000   1.0000000   1.0000000   1.0000000   1.0000000
 Leave Link  101 at Sat Feb 24 22:55:00 2024, MaxMem=  7516192768 cpu:               9.9 elap:               0.3
 (Enter /public/apps/g16-C01//g16/l103.exe)

 GradGradGradGradGradGradGradGradGradGradGradGradGradGradGradGradGradGrad
 Berny optimization.
 Initialization pass.
                           ----------------------------
                           !    Initial Parameters    !
                           ! (Angstroms and Degrees)  !
 --------------------------                            --------------------------
 ! Name  Definition              Value          Derivative Info.                !
 --------------------------------------------------------------------------------
 ! R1    R(1,2)                  1.5065         estimate D2E/DX2                !
 ! R2    R(1,31)                 1.0874         estimate D2E/DX2                !
 ! R3    R(1,32)                 1.0872         estimate D2E/DX2                !
 ! R4    R(1,33)                 1.0853         estimate D2E/DX2                !
 ! R5    R(2,3)                  1.1999         estimate D2E/DX2                !
 ! R6    R(2,4)                  1.3439         estimate D2E/DX2                !
 ! R7    R(4,5)                  1.389          estimate D2E/DX2                !
 ! R8    R(5,6)                  1.4084         estimate D2E/DX2                !
 ! R9    R(5,30)                 1.3689         estimate D2E/DX2                !
 ! R10   R(6,7)                  1.3638         estimate D2E/DX2                !
 ! R11   R(6,34)                 1.0786         estimate D2E/DX2                !
 ! R12   R(7,8)                  1.4131         estimate D2E/DX2                !
 ! R13   R(7,35)                 1.0799         estimate D2E/DX2                !
 ! R14   R(8,9)                  1.4187         estimate D2E/DX2                !
 ! R15   R(8,29)                 1.4193         estimate D2E/DX2                !
 ! R16   R(9,10)                 1.4865         estimate D2E/DX2                !
 ! R17   R(9,25)                 1.3837         estimate D2E/DX2                !
 ! R18   R(10,11)                1.3837         estimate D2E/DX2                !
 ! R19   R(10,24)                1.4186         estimate D2E/DX2                !
 ! R20   R(11,12)                1.3557         estimate D2E/DX2                !
 ! R21   R(11,13)                1.4088         estimate D2E/DX2                !
 ! R22   R(12,36)                0.9675         estimate D2E/DX2                !
 ! R23   R(13,14)                1.3634         estimate D2E/DX2                !
 ! R24   R(13,37)                1.0782         estimate D2E/DX2                !
 ! R25   R(14,15)                1.4109         estimate D2E/DX2                !
 ! R26   R(14,38)                1.0793         estimate D2E/DX2                !
 ! R27   R(15,16)                1.4094         estimate D2E/DX2                !
 ! R28   R(15,24)                1.4193         estimate D2E/DX2                !
 ! R29   R(16,17)                1.3689         estimate D2E/DX2                !
 ! R30   R(16,39)                1.0778         estimate D2E/DX2                !
 ! R31   R(17,18)                1.3888         estimate D2E/DX2                !
 ! R32   R(17,22)                1.4085         estimate D2E/DX2                !
 ! R33   R(18,19)                1.3438         estimate D2E/DX2                !
 ! R34   R(19,20)                1.5065         estimate D2E/DX2                !
 ! R35   R(19,21)                1.1999         estimate D2E/DX2                !
 ! R36   R(20,40)                1.0871         estimate D2E/DX2                !
 ! R37   R(20,41)                1.0853         estimate D2E/DX2                !
 ! R38   R(20,42)                1.0875         estimate D2E/DX2                !
 ! R39   R(22,23)                1.3637         estimate D2E/DX2                !
 ! R40   R(22,43)                1.0786         estimate D2E/DX2                !
 ! R41   R(23,24)                1.4131         estimate D2E/DX2                !
 ! R42   R(23,44)                1.0799         estimate D2E/DX2                !
 ! R43   R(25,26)                1.3557         estimate D2E/DX2                !
 ! R44   R(25,27)                1.4088         estimate D2E/DX2                !
 ! R45   R(26,45)                0.9675         estimate D2E/DX2                !
 ! R46   R(27,28)                1.3634         estimate D2E/DX2                !
 ! R47   R(27,46)                1.0782         estimate D2E/DX2                !
 ! R48   R(28,29)                1.4109         estimate D2E/DX2                !
 ! R49   R(28,47)                1.0793         estimate D2E/DX2                !
 ! R50   R(29,30)                1.4093         estimate D2E/DX2                !
 ! R51   R(30,48)                1.0778         estimate D2E/DX2                !
 ! A1    A(2,1,31)             109.4082         estimate D2E/DX2                !
 ! A2    A(2,1,32)             109.5506         estimate D2E/DX2                !
 ! A3    A(2,1,33)             109.5591         estimate D2E/DX2                !
 ! A4    A(31,1,32)            108.167          estimate D2E/DX2                !
 ! A5    A(31,1,33)            109.9206         estimate D2E/DX2                !
 ! A6    A(32,1,33)            110.2127         estimate D2E/DX2                !
 ! A7    A(1,2,3)              125.2314         estimate D2E/DX2                !
 ! A8    A(1,2,4)              109.5985         estimate D2E/DX2                !
 ! A9    A(3,2,4)              125.1641         estimate D2E/DX2                !
 ! A10   A(2,4,5)              122.5237         estimate D2E/DX2                !
 ! A11   A(4,5,6)              115.1464         estimate D2E/DX2                !
 ! A12   A(4,5,30)             124.1793         estimate D2E/DX2                !
 ! A13   A(6,5,30)             120.6088         estimate D2E/DX2                !
 ! A14   A(5,6,7)              120.2494         estimate D2E/DX2                !
 ! A15   A(5,6,34)             118.4221         estimate D2E/DX2                !
 ! A16   A(7,6,34)             121.3277         estimate D2E/DX2                !
 ! A17   A(6,7,8)              120.8678         estimate D2E/DX2                !
 ! A18   A(6,7,35)             119.9874         estimate D2E/DX2                !
 ! A19   A(8,7,35)             119.1435         estimate D2E/DX2                !
 ! A20   A(7,8,9)              121.9681         estimate D2E/DX2                !
 ! A21   A(7,8,29)             118.5102         estimate D2E/DX2                !
 ! A22   A(9,8,29)             119.5148         estimate D2E/DX2                !
 ! A23   A(8,9,10)             120.7812         estimate D2E/DX2                !
 ! A24   A(8,9,25)             119.6832         estimate D2E/DX2                !
 ! A25   A(10,9,25)            119.5195         estimate D2E/DX2                !
 ! A26   A(9,10,11)            119.5148         estimate D2E/DX2                !
 ! A27   A(9,10,24)            120.7868         estimate D2E/DX2                !
 ! A28   A(11,10,24)           119.6827         estimate D2E/DX2                !
 ! A29   A(10,11,12)           122.5554         estimate D2E/DX2                !
 ! A30   A(10,11,13)           120.4039         estimate D2E/DX2                !
 ! A31   A(12,11,13)           117.0363         estimate D2E/DX2                !
 ! A32   A(11,12,36)           109.924          estimate D2E/DX2                !
 ! A33   A(11,13,14)           120.5255         estimate D2E/DX2                !
 ! A34   A(11,13,37)           117.6289         estimate D2E/DX2                !
 ! A35   A(14,13,37)           121.8447         estimate D2E/DX2                !
 ! A36   A(13,14,15)           120.8923         estimate D2E/DX2                !
 ! A37   A(13,14,38)           120.3528         estimate D2E/DX2                !
 ! A38   A(15,14,38)           118.7549         estimate D2E/DX2                !
 ! A39   A(14,15,16)           121.3056         estimate D2E/DX2                !
 ! A40   A(14,15,24)           118.968          estimate D2E/DX2                !
 ! A41   A(16,15,24)           119.7256         estimate D2E/DX2                !
 ! A42   A(15,16,17)           120.028          estimate D2E/DX2                !
 ! A43   A(15,16,39)           118.845          estimate D2E/DX2                !
 ! A44   A(17,16,39)           121.1263         estimate D2E/DX2                !
 ! A45   A(16,17,18)           124.2892         estimate D2E/DX2                !
 ! A46   A(16,17,22)           120.5931         estimate D2E/DX2                !
 ! A47   A(18,17,22)           115.0525         estimate D2E/DX2                !
 ! A48   A(17,18,19)           122.6786         estimate D2E/DX2                !
 ! A49   A(18,19,20)           109.5751         estimate D2E/DX2                !
 ! A50   A(18,19,21)           125.197          estimate D2E/DX2                !
 ! A51   A(20,19,21)           125.2215         estimate D2E/DX2                !
 ! A52   A(19,20,40)           109.6145         estimate D2E/DX2                !
 ! A53   A(19,20,41)           109.5653         estimate D2E/DX2                !
 ! A54   A(19,20,42)           109.3412         estimate D2E/DX2                !
 ! A55   A(40,20,41)           110.271          estimate D2E/DX2                !
 ! A56   A(40,20,42)           108.1728         estimate D2E/DX2                !
 ! A57   A(41,20,42)           109.8528         estimate D2E/DX2                !
 ! A58   A(17,22,23)           120.266          estimate D2E/DX2                !
 ! A59   A(17,22,43)           118.403          estimate D2E/DX2                !
 ! A60   A(23,22,43)           121.3302         estimate D2E/DX2                !
 ! A61   A(22,23,24)           120.8632         estimate D2E/DX2                !
 ! A62   A(22,23,44)           119.9897         estimate D2E/DX2                !
 ! A63   A(24,23,44)           119.1457         estimate D2E/DX2                !
 ! A64   A(10,24,15)           119.5197         estimate D2E/DX2                !
 ! A65   A(10,24,23)           121.9696         estimate D2E/DX2                !
 ! A66   A(15,24,23)           118.5037         estimate D2E/DX2                !
 ! A67   A(9,25,26)            122.551          estimate D2E/DX2                !
 ! A68   A(9,25,27)            120.4069         estimate D2E/DX2                !
 ! A69   A(26,25,27)           117.0376         estimate D2E/DX2                !
 ! A70   A(25,26,45)           109.9189         estimate D2E/DX2                !
 ! A71   A(25,27,28)           120.5234         estimate D2E/DX2                !
 ! A72   A(25,27,46)           117.6298         estimate D2E/DX2                !
 ! A73   A(28,27,46)           121.8459         estimate D2E/DX2                !
 ! A74   A(27,28,29)           120.8921         estimate D2E/DX2                !
 ! A75   A(27,28,47)           120.3545         estimate D2E/DX2                !
 ! A76   A(29,28,47)           118.7534         estimate D2E/DX2                !
 ! A77   A(8,29,28)            118.9715         estimate D2E/DX2                !
 ! A78   A(8,29,30)            119.712          estimate D2E/DX2                !
 ! A79   A(28,29,30)           121.3159         estimate D2E/DX2                !
 ! A80   A(5,30,29)            120.031          estimate D2E/DX2                !
 ! A81   A(5,30,48)            121.1104         estimate D2E/DX2                !
 ! A82   A(29,30,48)           118.8579         estimate D2E/DX2                !
 ! D1    D(31,1,2,3)          -118.0071         estimate D2E/DX2                !
 ! D2    D(31,1,2,4)            61.1341         estimate D2E/DX2                !
 ! D3    D(32,1,2,3)           123.5744         estimate D2E/DX2                !
 ! D4    D(32,1,2,4)           -57.2844         estimate D2E/DX2                !
 ! D5    D(33,1,2,3)             2.5594         estimate D2E/DX2                !
 ! D6    D(33,1,2,4)          -178.2994         estimate D2E/DX2                !
 ! D7    D(1,2,4,5)            179.3445         estimate D2E/DX2                !
 ! D8    D(3,2,4,5)             -1.5136         estimate D2E/DX2                !
 ! D9    D(2,4,5,6)            148.3614         estimate D2E/DX2                !
 ! D10   D(2,4,5,30)           -34.575          estimate D2E/DX2                !
 ! D11   D(4,5,6,7)            178.1926         estimate D2E/DX2                !
 ! D12   D(4,5,6,34)            -1.4804         estimate D2E/DX2                !
 ! D13   D(30,5,6,7)             1.015          estimate D2E/DX2                !
 ! D14   D(30,5,6,34)         -178.658          estimate D2E/DX2                !
 ! D15   D(4,5,30,29)         -178.0832         estimate D2E/DX2                !
 ! D16   D(4,5,30,48)            2.2298         estimate D2E/DX2                !
 ! D17   D(6,5,30,29)           -1.1718         estimate D2E/DX2                !
 ! D18   D(6,5,30,48)          179.1412         estimate D2E/DX2                !
 ! D19   D(5,6,7,8)              0.2569         estimate D2E/DX2                !
 ! D20   D(5,6,7,35)          -179.3232         estimate D2E/DX2                !
 ! D21   D(34,6,7,8)           179.9203         estimate D2E/DX2                !
 ! D22   D(34,6,7,35)            0.3402         estimate D2E/DX2                !
 ! D23   D(6,7,8,9)            179.6469         estimate D2E/DX2                !
 ! D24   D(6,7,8,29)            -1.3137         estimate D2E/DX2                !
 ! D25   D(35,7,8,9)            -0.7696         estimate D2E/DX2                !
 ! D26   D(35,7,8,29)          178.2699         estimate D2E/DX2                !
 ! D27   D(7,8,9,10)            -3.4651         estimate D2E/DX2                !
 ! D28   D(7,8,9,25)           178.0            estimate D2E/DX2                !
 ! D29   D(29,8,9,10)          177.5048         estimate D2E/DX2                !
 ! D30   D(29,8,9,25)           -1.0301         estimate D2E/DX2                !
 ! D31   D(7,8,29,28)         -178.5568         estimate D2E/DX2                !
 ! D32   D(7,8,29,30)            1.1412         estimate D2E/DX2                !
 ! D33   D(9,8,29,28)            0.5068         estimate D2E/DX2                !
 ! D34   D(9,8,29,30)         -179.7952         estimate D2E/DX2                !
 ! D35   D(8,9,10,11)          -72.0136         estimate D2E/DX2                !
 ! D36   D(8,9,10,24)          109.4319         estimate D2E/DX2                !
 ! D37   D(25,9,10,11)         106.5237         estimate D2E/DX2                !
 ! D38   D(25,9,10,24)         -72.0308         estimate D2E/DX2                !
 ! D39   D(8,9,25,26)         -179.9879         estimate D2E/DX2                !
 ! D40   D(8,9,25,27)            0.8023         estimate D2E/DX2                !
 ! D41   D(10,9,25,26)           1.4586         estimate D2E/DX2                !
 ! D42   D(10,9,25,27)        -177.7512         estimate D2E/DX2                !
 ! D43   D(9,10,11,12)           1.4331         estimate D2E/DX2                !
 ! D44   D(9,10,11,13)        -177.7757         estimate D2E/DX2                !
 ! D45   D(24,10,11,12)       -179.9962         estimate D2E/DX2                !
 ! D46   D(24,10,11,13)          0.795          estimate D2E/DX2                !
 ! D47   D(9,10,24,15)         177.5326         estimate D2E/DX2                !
 ! D48   D(9,10,24,23)          -3.4424         estimate D2E/DX2                !
 ! D49   D(11,10,24,15)         -1.0195         estimate D2E/DX2                !
 ! D50   D(11,10,24,23)        178.0055         estimate D2E/DX2                !
 ! D51   D(10,11,12,36)          2.1784         estimate D2E/DX2                !
 ! D52   D(13,11,12,36)       -178.5877         estimate D2E/DX2                !
 ! D53   D(10,11,13,14)         -0.0385         estimate D2E/DX2                !
 ! D54   D(10,11,13,37)        179.6412         estimate D2E/DX2                !
 ! D55   D(12,11,13,14)       -179.2898         estimate D2E/DX2                !
 ! D56   D(12,11,13,37)          0.3899         estimate D2E/DX2                !
 ! D57   D(11,13,14,15)         -0.4931         estimate D2E/DX2                !
 ! D58   D(11,13,14,38)        179.5264         estimate D2E/DX2                !
 ! D59   D(37,13,14,15)        179.841          estimate D2E/DX2                !
 ! D60   D(37,13,14,38)         -0.1396         estimate D2E/DX2                !
 ! D61   D(13,14,15,16)       -179.4301         estimate D2E/DX2                !
 ! D62   D(13,14,15,24)          0.2543         estimate D2E/DX2                !
 ! D63   D(38,14,15,16)          0.5508         estimate D2E/DX2                !
 ! D64   D(38,14,15,24)       -179.7648         estimate D2E/DX2                !
 ! D65   D(14,15,16,17)        179.7593         estimate D2E/DX2                !
 ! D66   D(14,15,16,39)         -0.5446         estimate D2E/DX2                !
 ! D67   D(24,15,16,17)          0.0773         estimate D2E/DX2                !
 ! D68   D(24,15,16,39)        179.7735         estimate D2E/DX2                !
 ! D69   D(14,15,24,10)          0.5001         estimate D2E/DX2                !
 ! D70   D(14,15,24,23)       -178.5586         estimate D2E/DX2                !
 ! D71   D(16,15,24,10)       -179.8105         estimate D2E/DX2                !
 ! D72   D(16,15,24,23)          1.1308         estimate D2E/DX2                !
 ! D73   D(15,16,17,18)       -178.0706         estimate D2E/DX2                !
 ! D74   D(15,16,17,22)         -1.1545         estimate D2E/DX2                !
 ! D75   D(39,16,17,18)          2.2403         estimate D2E/DX2                !
 ! D76   D(39,16,17,22)        179.1564         estimate D2E/DX2                !
 ! D77   D(16,17,18,19)        -33.6199         estimate D2E/DX2                !
 ! D78   D(22,17,18,19)        149.3104         estimate D2E/DX2                !
 ! D79   D(16,17,22,23)          1.0042         estimate D2E/DX2                !
 ! D80   D(16,17,22,43)       -178.665          estimate D2E/DX2                !
 ! D81   D(18,17,22,23)        178.1918         estimate D2E/DX2                !
 ! D82   D(18,17,22,43)         -1.4773         estimate D2E/DX2                !
 ! D83   D(17,18,19,20)        179.4042         estimate D2E/DX2                !
 ! D84   D(17,18,19,21)         -1.478          estimate D2E/DX2                !
 ! D85   D(18,19,20,40)        -55.9244         estimate D2E/DX2                !
 ! D86   D(18,19,20,41)       -177.0553         estimate D2E/DX2                !
 ! D87   D(18,19,20,42)         62.4992         estimate D2E/DX2                !
 ! D88   D(21,19,20,40)        124.9581         estimate D2E/DX2                !
 ! D89   D(21,19,20,41)          3.8272         estimate D2E/DX2                !
 ! D90   D(21,19,20,42)       -116.6183         estimate D2E/DX2                !
 ! D91   D(17,22,23,24)          0.2503         estimate D2E/DX2                !
 ! D92   D(17,22,23,44)       -179.3192         estimate D2E/DX2                !
 ! D93   D(43,22,23,24)        179.9096         estimate D2E/DX2                !
 ! D94   D(43,22,23,44)          0.3401         estimate D2E/DX2                !
 ! D95   D(22,23,24,10)        179.6688         estimate D2E/DX2                !
 ! D96   D(22,23,24,15)         -1.2967         estimate D2E/DX2                !
 ! D97   D(44,23,24,10)         -0.758          estimate D2E/DX2                !
 ! D98   D(44,23,24,15)        178.2764         estimate D2E/DX2                !
 ! D99   D(9,25,26,45)           2.1358         estimate D2E/DX2                !
 ! D100  D(27,25,26,45)       -178.6294         estimate D2E/DX2                !
 ! D101  D(9,25,27,28)          -0.0385         estimate D2E/DX2                !
 ! D102  D(9,25,27,46)         179.6322         estimate D2E/DX2                !
 ! D103  D(26,25,27,28)       -179.2907         estimate D2E/DX2                !
 ! D104  D(26,25,27,46)          0.38           estimate D2E/DX2                !
 ! D105  D(25,27,28,29)         -0.4971         estimate D2E/DX2                !
 ! D106  D(25,27,28,47)        179.5134         estimate D2E/DX2                !
 ! D107  D(46,27,28,29)        179.8463         estimate D2E/DX2                !
 ! D108  D(46,27,28,47)         -0.1431         estimate D2E/DX2                !
 ! D109  D(27,28,29,8)           0.2549         estimate D2E/DX2                !
 ! D110  D(27,28,29,30)       -179.4381         estimate D2E/DX2                !
 ! D111  D(47,28,29,8)        -179.7555         estimate D2E/DX2                !
 ! D112  D(47,28,29,30)          0.5515         estimate D2E/DX2                !
 ! D113  D(8,29,30,5)            0.0836         estimate D2E/DX2                !
 ! D114  D(8,29,30,48)         179.7776         estimate D2E/DX2                !
 ! D115  D(28,29,30,5)         179.7743         estimate D2E/DX2                !
 ! D116  D(28,29,30,48)         -0.5317         estimate D2E/DX2                !
 --------------------------------------------------------------------------------
 Trust Radius=3.00D-01 FncErr=1.00D-07 GrdErr=1.00D-06 EigMax=2.50D+02 EigMin=1.00D-04
 Number of steps in this run=    259 maximum allowed number of steps=    288.
 GradGradGradGradGradGradGradGradGradGradGradGradGradGradGradGradGradGrad

 Leave Link  103 at Sat Feb 24 22:55:00 2024, MaxMem=  7516192768 cpu:               0.5 elap:               0.0
 (Enter /public/apps/g16-C01//g16/l202.exe)
                          Input orientation:                          
 ---------------------------------------------------------------------
 Center     Atomic      Atomic             Coordinates (Angstroms)
 Number     Number       Type             X           Y           Z
 ---------------------------------------------------------------------
      1          6           0        7.510965   -2.412622   -0.764183
      2          6           0        6.522893   -1.383816   -0.279762
      3          8           0        6.805758   -0.369155    0.294836
      4          8           0        5.276800   -1.766873   -0.606090
      5          6           0        4.154595   -1.018450   -0.274785
      6          6           0        3.086478   -1.104816   -1.188646
      7          6           0        1.919910   -0.441077   -0.946694
      8          6           0        1.761531    0.346466    0.215869
      9          6           0        0.561273    1.052436    0.487084
     10          6           0       -0.559510    1.050843   -0.489473
     11          6           0       -0.438758    1.767569   -1.666889
     12          8           0        0.682261    2.458892   -1.988438
     13          6           0       -1.506919    1.817227   -2.584092
     14          6           0       -2.673070    1.159937   -2.325273
     15          6           0       -2.833870    0.408523   -1.141941
     16          6           0       -4.031159   -0.283979   -0.871198
     17          6           0       -4.157100   -1.009198    0.283009
     18          8           0       -5.279376   -1.754530    0.620202
     19          6           0       -6.525337   -1.385126    0.278174
     20          6           0       -7.510593   -2.409173    0.778228
     21          8           0       -6.810591   -0.384255   -0.318997
     22          6           0       -3.089260   -1.091901    1.197775
     23          6           0       -1.921484   -0.431600    0.952630
     24          6           0       -1.761208    0.348835   -0.214477
     25          6           0        0.442205    1.776177    1.660360
     26          8           0       -0.677488    2.471399    1.978146
     27          6           0        1.510687    1.829188    2.577004
     28          6           0        2.675534    1.168249    2.321680
     29          6           0        2.834570    0.409635    1.142716
     30          6           0        4.030410   -0.286568    0.875372
     31          1           0        7.446977   -2.493471   -1.846718
     32          1           0        7.266019   -3.381842   -0.336804
     33          1           0        8.514335   -2.117625   -0.474058
     34          1           0        3.214955   -1.708941   -2.072854
     35          1           0        1.099708   -0.519059   -1.644878
     36          1           0        1.353326    2.336331   -1.302425
     37          1           0       -1.366512    2.393670   -3.484418
     38          1           0       -3.492327    1.206120   -3.026328
     39          1           0       -4.837910   -0.225880   -1.583504
     40          1           0       -7.244488   -3.390242    0.392840
     41          1           0       -8.511248   -2.137834    0.457264
     42          1           0       -7.469065   -2.448676    1.864253
     43          1           0       -3.219251   -1.690766    2.085331
     44          1           0       -1.101731   -0.506993    1.651623
     45          1           0       -1.348647    2.346560    1.292634
     46          1           0        1.371637    2.411219    3.473938
     47          1           0        3.495167    1.217117    3.022118
     48          1           0        4.837741   -0.226116    1.586894
 ---------------------------------------------------------------------
                    Distance matrix (angstroms):
                    1          2          3          4          5
     1  C    0.000000
     2  C    1.506450   0.000000
     3  O    2.407197   1.199880   0.000000
     4  O    2.330982   1.343864   2.258981   0.000000
     5  C    3.667212   2.396321   2.788318   1.388972   0.000000
     6  C    4.633207   3.565510   4.071236   2.361186   1.408359
     7  C    5.931290   4.745630   5.041635   3.625253   2.403880
     8  C    6.452059   5.090196   5.095348   4.183173   2.798302
     9  C    7.865781   6.485699   6.407142   5.601761   4.216749
    10  C    8.786559   7.492128   7.541797   6.481947   5.152752
    11  C    9.027013   7.766591   7.803651   6.803321   5.549662
    12  O    8.477125   7.197149   7.120983   6.393572   5.204384
    13  C   10.125509   8.946200   9.064717   7.923201   6.739934
    14  C   10.904804   9.758101   9.952451   8.644203   7.454320
    15  C   10.729267   9.565817   9.777093   8.414419   7.185183
    16  C   11.737257  10.627674  10.899801   9.429070   8.240250
    17  C   11.798727  10.701369  10.981532   9.505947   8.330396
    18  O   12.881864  11.842336  12.168631  10.627173   9.504874
    19  C   14.112407  13.060153  13.369763  11.841372  10.700522
    20  C   15.100538  14.110614  14.469044  12.878133  11.794895
    21  O   14.471331  13.370956  13.630186  12.169596  10.983600
    22  C   10.860863   9.729430   9.962381   8.584898   7.392379
    23  C    9.789943   8.586793   8.752219   7.485176   6.226530
    24  C    9.690254   8.463609   8.612074   7.359561   6.072053
    25  C    8.566902   7.122106   6.852876   6.408066   5.033544
    26  O    9.920927   8.473861   8.179318   7.752082   6.372109
    27  C    8.072163   6.603538   6.170801   6.103061   4.819958
    28  C    6.762143   5.299312   4.850820   4.894217   3.702824
    29  C    5.785332   4.340926   4.134701   3.709447   2.406492
    30  C    4.395738   2.958168   2.836618   2.437113   1.368917
    31  H    1.087434   2.130872   3.083850   2.603223   3.935281
    32  H    1.087216   2.132510   3.112409   2.576360   3.907739
    33  H    1.085333   2.131213   2.562729   3.259155   4.500581
    34  H    4.545711   3.776684   4.504980   2.530999   2.143071
    35  H    6.742805   5.658823   6.028596   4.481542   3.385097
    36  H    7.794792   6.450562   6.292846   5.719687   4.489734
    37  H   10.455129   9.315682   9.418172   8.350358   7.240644
    38  H   11.801908  10.703085  10.934449   9.570466   8.425860
    39  H   12.567730  11.493842  11.795071  10.278003   9.121736
    40  H   14.832998  13.929067  14.371708  12.665538  11.662342
    41  H   16.071053  15.071070  15.419639  13.833965  12.736267
    42  H   15.208921  14.195267  14.510618  13.000943  11.905062
    43  H   11.125572  10.029818  10.269047   8.912487   7.771471
    44  H    9.145823   7.914162   8.024229   6.882603   5.621530
    45  H   10.265137   8.851513   8.652458   8.026334   6.638205
    46  H    8.883831   7.418086   6.882357   7.025196   5.793135
    47  H    6.605885   5.180192   4.573220   5.024172   4.037595
    48  H    4.177858   2.768467   2.358594   2.715858   2.135493
                    6          7          8          9         10
     6  C    0.000000
     7  C    1.363808   0.000000
     8  C    2.415443   1.413103   0.000000
     9  C    3.720009   2.476327   1.418651   0.000000
    10  C    4.292894   2.929573   2.526041   1.486547   0.000000
    11  C    4.572374   3.310606   3.225769   2.480136   1.383686
    12  O    4.372636   3.320666   3.238230   2.849731   2.402393
    13  C    5.620045   4.418616   4.548152   3.780800   2.423295
    14  C    6.292330   5.055610   5.175406   4.287410   2.801642
    15  C    6.110883   4.833049   4.792203   3.820385   2.451735
    16  C    7.171841   5.953621   5.927431   4.972059   3.738958
    17  C    7.392181   6.226153   6.072275   5.153157   4.217007
    18  O    8.583797   7.483986   7.358807   6.481509   5.601663
    19  C    9.727133   8.585670   8.466078   7.497026   6.489555
    20  C   10.856696   9.786886   9.689276   8.787635   7.867422
    21  O    9.961299   8.753221   8.619821   7.553690   6.415963
    22  C    6.620794   5.487632   5.153951   4.292977   3.719918
    23  C    5.487984   4.285304   3.835727   2.929706   2.476342
    24  C    5.153850   3.835457   3.548928   2.526096   1.418632
    25  C    4.838299   3.727809   2.423066   1.383674   2.480186
    26  O    6.081556   4.876852   3.683717   2.402343   2.849744
    27  C    5.027088   4.211652   2.799347   2.423323   3.780849
    28  C    4.202153   3.720641   2.438272   2.801652   4.287409
    29  C    2.791463   2.434327   1.419313   2.451719   3.820336
    30  C    2.412614   2.792491   2.446117   3.738798   4.971804
    31  H    4.623351   5.964129   6.681602   8.089067   8.860480
    32  H    4.835188   6.131961   6.671215   8.080547   8.995049
    33  H    5.567589   6.820604   7.221365   8.615351   9.611144
    34  H    1.078563   2.133742   3.402263   4.606573   4.936607
    35  H    2.120970   1.079941   2.156275   2.702734   2.559796
    36  H    3.854641   2.856844   2.536023   2.340529   2.443831
    37  H    6.110572   5.027564   5.260021   4.613902   3.379960
    38  H    7.210976   6.027474   6.233287   5.366503   3.880871
    39  H    7.982754   6.791168   6.864251   5.922213   4.596915
    40  H   10.698277   9.719985   9.752060   8.981992   8.074072
    41  H   11.759396  10.661104  10.571661   9.617138   8.619403
    42  H   11.070033  10.004236   9.784370   8.867960   8.094974
    43  H    7.129129   6.096382   5.696788   4.936792   4.606545
    44  H    5.095647   3.985713   3.314823   2.559991   2.702804
    45  H    6.143214   4.844479   3.851364   2.443658   2.340411
    46  H    6.086286   5.289441   3.876885   3.379982   4.613955
    47  H    4.825861   4.580667   3.411533   3.880883   5.366500
    48  H    3.397449   3.870273   3.416230   4.597005   5.922182
                   11         12         13         14         15
    11  C    0.000000
    12  O    1.355730   0.000000
    13  C    1.408792   2.357763   0.000000
    14  C    2.407247   3.613722   1.363424   0.000000
    15  C    2.803415   4.157373   2.413513   1.410941   0.000000
    16  C    4.212757   5.566677   3.704168   2.458380   1.409383
    17  C    5.033747   6.372326   4.820001   3.702786   2.406523
    18  O    6.408397   7.752357   6.103800   4.895178   3.710047
    19  C    7.125251   8.477233   6.605464   5.300495   4.342906
    20  C    8.569400   9.923475   8.075380   6.765493   5.787763
    21  O    6.859112   8.186168   6.173015   4.850645   4.137637
    22  C    4.838185   6.081485   5.026863   4.201887   2.791195
    23  C    3.727828   4.876916   4.211590   3.720554   2.434231
    24  C    2.423052   3.683724   2.799270   2.438204   1.419280
    25  C    3.441912   3.719873   4.670775   5.096073   4.522835
    26  O    3.720033   4.193192   4.682938   4.921554   4.317451
    27  C    4.670627   4.682529   5.978545   6.479509   5.892709
    28  C    5.095751   4.920977   6.479250   7.085323   6.551899
    29  C    4.522449   4.316945   5.892278   6.551641   6.111536
    30  C    5.536789   5.191248   6.859727   7.567903   7.188257
    31  H    8.965133   8.384949   9.964843  10.769947  10.705797
    32  H    9.362112   8.954772  10.442464  11.107081  10.817711
    33  H    9.832368   9.196697  10.970909  11.803705  11.645138
    34  H    5.059698   4.877755   5.915346   6.554618   6.475997
    35  H    2.756090   3.026630   3.624205   4.185190   4.072639
    36  H    1.915173   0.967452   3.176970   4.317637   4.612462
    37  H    2.134512   2.537653   1.078234   2.138413   3.403108
    38  H    3.389334   4.480384   2.123881   1.079256   2.149568
    39  H    4.830459   6.151769   4.033728   2.675302   2.147934
    40  H    8.784273  10.134900   8.300576   6.999295   6.019943
    41  H    9.215709  10.565602   8.599592   7.259623   6.424485
    42  H    8.925856  10.265065   8.575132   7.319548   6.219793
    43  H    5.811229   7.002646   6.086182   5.279986   3.869214
    44  H    4.077461   5.022862   4.848449   4.589495   3.412107
    45  H    3.149906   3.860394   3.915897   4.031305   3.448047
    46  H    5.488162   5.505912   6.733397   7.180265   6.557699
    47  H    6.145368   5.878785   7.537280   8.163639   7.619050
    48  H    6.511784   6.104120   7.863020   8.581286   8.167186
                   16         17         18         19         20
    16  C    0.000000
    17  C    1.368940   0.000000
    18  O    2.438204   1.388784   0.000000
    19  C    2.958801   2.397893   1.343823   0.000000
    20  C    4.398126   3.667572   2.330635   1.506471   0.000000
    21  O    2.835529   2.791770   2.259285   1.199886   2.407114
    22  C    2.412584   1.408517   2.359931   3.569072   4.632430
    23  C    2.792646   2.404161   3.624375   4.749691   5.931218
    24  C    2.446306   2.798579   4.183102   5.093746   6.453487
    25  C    5.537510   5.550587   6.803257   7.775019   9.030078
    26  O    5.192107   5.205357   6.393736   7.208330   8.482400
    27  C    6.860585   6.741117   7.923198   8.955117  10.128316
    28  C    7.568564   7.455357   8.643972   9.764818  10.905841
    29  C    7.188545   7.185794   8.413843   9.569559  10.728510
    30  C    8.248600   8.240656   9.428263  10.629547  11.734975
    31  H   11.729497  11.890896  12.984290  14.176359  15.186387
    32  H   11.726405  11.683375  12.686644  13.948712  14.850510
    33  H   12.685007  12.742332  13.841810  15.076277  16.076428
    34  H    7.482023   7.770902   8.911133  10.025242  11.120089
    35  H    5.194193   5.620588   6.881111   7.911353   9.142279
    36  H    6.003721   6.638596   8.026480   8.855556  10.267326
    37  H    4.593372   5.793134   7.026092   7.419560   8.887473
    38  H    2.674943   4.037483   5.025552   5.180100   6.609951
    39  H    1.077777   2.135640   2.718084   2.767148   4.181839
    40  H    4.644582   3.900436   2.566888   2.133264   1.087121
    41  H    5.027205   4.501421   3.258599   2.131311   1.085336
    42  H    4.897734   3.942276   2.612325   2.130119   1.087536
    43  H    3.373323   2.143003   2.528791   3.780137   4.543153
    44  H    3.872455   3.385350   4.480279   5.663301   6.742004
    45  H    4.335640   4.490864   5.720291   6.461635   7.800717
    46  H    7.438717   7.242114   8.350644   9.326700  10.459304
    47  H    8.605625   8.427122   9.570397  10.710341  11.803041
    48  H    9.203421   9.122527  10.277480  11.496764  12.565868
                   21         22         23         24         25
    21  O    0.000000
    22  C    4.080400   0.000000
    23  C    5.051994   1.363743   0.000000
    24  C    5.103392   2.415346   1.413119   0.000000
    25  C    7.822300   4.572866   3.310919   3.226042   0.000000
    26  O    7.144689   4.372954   3.320634   3.238414   1.355741
    27  C    9.084592   5.620903   4.419225   4.548528   1.408794
    28  C    9.968451   6.293194   5.056322   5.175733   2.407214
    29  C    9.787543   6.111416   4.833618   4.792374   2.803356
    30  C   10.907033   7.172322   5.954162   5.927423   4.212640
    31  H   14.493480  11.056474   9.992784   9.774128   8.921677
    32  H   14.392248  10.715902   9.735337   9.768508   8.783978
    33  H   15.423423  11.768201  10.666979  10.570600   9.212856
    34  H   10.263644   7.128876   6.096569   5.696508   5.811289
    35  H    8.021781   5.094730   3.985260   3.314231   4.077379
    36  H    8.661308   6.143317   4.844698   3.851505   3.149922
    37  H    6.882932   6.086049   5.289380   3.876809   5.488305
    38  H    4.568349   4.825599   4.580587   3.411483   6.145775
    39  H    2.348517   3.397541   3.870379   3.416230   6.512334
    40  H    3.119445   4.816245   6.115660   6.664525   9.347927
    41  H    2.563173   5.571381   6.825072   7.224804   9.845367
    42  H    3.076037   4.633327   5.972881   6.687811   8.971017
    43  H    4.515029   1.078560   2.133708   3.402202   5.060292
    44  H    6.040653   2.120935   1.079940   2.156312   2.756208
    45  H    6.315658   3.855094   2.856907   2.536236   1.915127
    46  H    9.441922   6.111659   5.028246   5.260471   2.134523
    47  H   10.951534   7.212106   6.028363   6.233694   3.389323
    48  H   11.804282   7.983630   6.792027   6.864520   4.830664
                   26         27         28         29         30
    26  O    0.000000
    27  C    2.357790   0.000000
    28  C    3.613720   1.363415   0.000000
    29  C    4.157327   2.413499   1.410937   0.000000
    30  C    5.566578   3.704184   2.458452   1.409328   0.000000
    31  H   10.260919   8.572878   7.317814   6.216031   4.894193
    32  H   10.135025   8.292705   6.988807   6.016811   4.638885
    33  H   10.562294   8.598686   7.259801   6.423452   5.027854
    34  H    7.002639   6.086384   5.280258   3.869489   3.373448
    35  H    5.022705   4.848449   4.589534   3.412169   3.872302
    36  H    3.860647   3.915600   4.030730   3.447456   4.334649
    37  H    5.506396   6.733331   7.179872   6.557122   7.437621
    38  H    5.879542   7.537618   8.163647   7.618723   8.604821
    39  H    6.104898   7.863702   8.581719   8.167197   9.203089
    40  H    8.944133  10.424304  11.086347  10.797629  11.704228
    41  H    9.215525  10.984978  11.813142  11.648478  12.684447
    42  H    8.387230   9.972165  10.779809  10.717064  11.742680
    43  H    4.878080   5.916429   6.555785   6.476801   7.482871
    44  H    3.026123   3.624748   4.186065   4.073531   5.195192
    45  H    0.967453   3.176959   4.317567   4.612316   6.003476
    46  H    2.537701   1.078233   2.138415   3.403103   4.593438
    47  H    4.480419   2.123892   1.079259   2.149551   2.675084
    48  H    6.152025   4.034090   2.675687   2.148061   1.077823
                   31         32         33         34         35
    31  H    0.000000
    32  H    1.761190   0.000000
    33  H    1.778963   1.781959   0.000000
    34  H    4.310062   4.714190   5.550369   0.000000
    35  H    6.650328   6.923148   7.674824   2.464397   0.000000
    36  H    7.794602   8.281900   8.473722   4.519231   2.887014
    37  H   10.209985  10.852862  11.271432   6.309815   4.236760
    38  H   11.608050  12.001039  12.716969   7.375251   5.096217
    39  H   12.495187  12.570579  13.531150   8.202900   5.945168
    40  H   14.888216  14.528842  15.833874  10.876873   9.056577
    41  H   16.127608  15.846143  17.051048  12.003720   9.970452
    42  H   15.370804  14.927764  16.156929  11.410359   9.458398
    43  H   11.396217  10.893455  12.017060   7.660929   5.825870
    44  H    9.448010   9.068508   9.979047   5.826679   3.964013
    45  H   10.518766  10.472924  10.969438   6.971374   4.778618
    46  H    9.448551   9.100827   9.333554   7.151255   5.904469
    47  H    7.286345   6.830235   6.966764   5.882098   5.525702
    48  H    4.872238   4.422189   4.619813   4.269187   4.950056
                   36         37         38         39         40
    36  H    0.000000
    37  H    3.487392   0.000000
    38  H    5.265888   2.477743   0.000000
    39  H    6.706365   4.746169   2.437818   0.000000
    40  H   10.468523   9.112484   6.848063   4.439678   0.000000
    41  H   10.973809   9.333737   6.964697   4.616678   1.782514
    42  H   10.524197   9.449749   7.286272   4.873482   1.761260
    43  H    6.971575   7.151039   5.881800   4.269227   4.685646
    44  H    4.778932   5.904479   5.525661   4.950162   6.901530
    45  H    3.746344   4.777318   4.954735   5.202362   8.275353
    46  H    4.776985   7.477733   8.207549   8.431517  10.834562
    47  H    4.953968   8.207022   9.241693   9.629858  11.978358
    48  H    5.201485   8.430554   9.629286  10.181829  12.546622
                   41         42         43         44         45
    41  H    0.000000
    42  H    1.778310   0.000000
    43  H    5.554791   4.322525   0.000000
    44  H    7.680305   6.660202   2.464409   0.000000
    45  H    8.491789   7.796188   4.519682   2.886625   0.000000
    46  H   11.290067  10.216050   6.311162   4.237256   3.487436
    47  H   12.727457  11.618652   7.376772   5.097282   5.265861
    48  H   13.532414  12.508964   8.204192   5.946462   6.706463
                   46         47         48
    46  H    0.000000
    47  H    2.477781   0.000000
    48  H    4.746614   2.438297   0.000000
 Symmetry turned off by external request.
 Stoichiometry    C24H18O6
 Framework group  C1[X(C24H18O6)]
 Deg. of freedom   138
 Full point group                 C1      NOp   1
 Rotational constants (GHZ):           0.3278244           0.0668613           0.0656333
 Leave Link  202 at Sat Feb 24 22:55:00 2024, MaxMem=  7516192768 cpu:               0.5 elap:               0.0
 (Enter /public/apps/g16-C01//g16/l301.exe)
 Standard basis: def2SVPP (5D, 7F)
 Ernie: Thresh=  0.10000D-02 Tol=  0.10000D-05 Strict=F.
   456 basis functions,   822 primitive gaussians,   486 cartesian basis functions
   105 alpha electrons      105 beta electrons
       nuclear repulsion energy      2717.2873823609 Hartrees.
 IExCor=  402 DFT=T Ex+Corr=B3LYP ExCW=0 ScaHFX=  0.200000
 ScaDFX=  0.800000  0.720000  1.000000  0.810000 ScalE2=  1.000000  1.000000
 IRadAn=      5 IRanWt=     -1 IRanGd=            0 ICorTp=0 IEmpDi=141
 NAtoms=   48 NActive=   48 NUniq=   48 SFac= 1.00D+00 NAtFMM=   60 NAOKFM=F Big=F
 Integral buffers will be    131072 words long.
 Raffenetti 2 integral format.
 Two-electron integral symmetry is turned off.
 R6Disp:  Grimme-D3(BJ) Dispersion energy=       -0.1160742004 Hartrees.
 Nuclear repulsion after empirical dispersion term =     2717.1713081605 Hartrees.
 Leave Link  301 at Sat Feb 24 22:55:00 2024, MaxMem=  7516192768 cpu:               1.3 elap:               0.0
 (Enter /public/apps/g16-C01//g16/l302.exe)
 NPDir=0 NMtPBC=     1 NCelOv=     1 NCel=       1 NClECP=     1 NCelD=      1
         NCelK=      1 NCelE2=     1 NClLst=     1 CellRange=     0.0.
 One-electron integrals computed using PRISM.
   1 Symmetry operations used in ECPInt.
 ECPInt:  NShTT=   23436 NPrTT=   93972 LenC2=   19164 LenP2D=   49473.
 LDataN:  DoStor=T MaxTD1= 4 Len=   56
 NBasis=   456 RedAO= T EigKep=  1.76D-04  NBF=   456
 NBsUse=   456 1.00D-06 EigRej= -1.00D+00 NBFU=   456
 Precomputing XC quadrature grid using
 IXCGrd= 4 IRadAn=           5 IRanWt=          -1 IRanGd=           0 AccXCQ= 0.00D+00.
 Generated NRdTot=       0 NPtTot=           0 NUsed=           0 NTot=          32
 NSgBfM=   467   467   467   467   467 MxSgAt=    48 MxSgA2=    48.
 Leave Link  302 at Sat Feb 24 22:55:01 2024, MaxMem=  7516192768 cpu:              16.9 elap:               0.4
 (Enter /public/apps/g16-C01//g16/l303.exe)
 DipDrv:  MaxL=1.
 Leave Link  303 at Sat Feb 24 22:55:01 2024, MaxMem=  7516192768 cpu:               1.7 elap:               0.1
 (Enter /public/apps/g16-C01//g16/l401.exe)
 ExpMin= 1.22D-01 ExpMax= 2.27D+03 ExpMxC= 3.41D+02 IAcc=3 IRadAn=         5 AccDes= 0.00D+00
 Harris functional with IExCor=  402 and IRadAn=       5 diagonalized for initial guess.
 HarFok:  IExCor=  402 AccDes= 0.00D+00 IRadAn=         5 IDoV= 1 UseB2=F ITyADJ=14
 ICtDFT=  3500011 ScaDFX=  1.000000  1.000000  1.000000  1.000000
 FoFCou: FMM=F IPFlag=           0 FMFlag=      100000 FMFlg1=           0
         NFxFlg=           0 DoJE=T BraDBF=F KetDBF=T FulRan=T
         wScrn=  0.000000 ICntrl=       500 IOpCl=  0 I1Cent=   200000004 NGrid=           0
         NMat0=    1 NMatS0=      1 NMatT0=    0 NMatD0=    1 NMtDS0=    0 NMtDT0=    0
 Symmetry not used in FoFCou.
 Harris En= -1375.85648836743    
 JPrj=0 DoOrth=F DoCkMO=F.
 Leave Link  401 at Sat Feb 24 22:55:02 2024, MaxMem=  7516192768 cpu:              30.9 elap:               0.8
 (Enter /public/apps/g16-C01//g16/l502.exe)
 Two-electron integral symmetry not used.
 Closed shell SCF:
 Using DIIS extrapolation, IDIIS=  1040.
 NGot=  7516192768 LenX=  7515695748 LenY=  7515459066
 Requested convergence on RMS density matrix=1.00D-08 within 128 cycles.
 Requested convergence on MAX density matrix=1.00D-06.
 Requested convergence on             energy=1.00D-06.
 No special actions if energy rises.
 Fock matrices will be formed incrementally for  20 cycles.
 Integral accuracy reduced to 1.0D-05 until final iterations.

 Cycle   1  Pass 0  IDiag  1:
 FoFJK:  IHMeth= 1 ICntrl=       0 DoSepK=F KAlg= 0 I1Cent=           0 FoldK=F
 IRaf= 720000000 NMat=       1 IRICut=       1 DoRegI=T DoRafI=F ISym2E= 0 IDoP0=0 IntGTp=1.
 FoFCou: FMM=F IPFlag=           0 FMFlag=      100000 FMFlg1=           0
         NFxFlg=           0 DoJE=F BraDBF=F KetDBF=F FulRan=T
         wScrn=  0.000000 ICntrl=         0 IOpCl=  0 I1Cent=           0 NGrid=           0
         NMat0=    1 NMatS0=      1 NMatT0=    0 NMatD0=    1 NMtDS0=    0 NMtDT0=    0
 Symmetry not used in FoFCou.
 E= -1375.19870505921    
 DIIS: error= 2.76D-02 at cycle   1 NSaved=   1.
 NSaved= 1 IEnMin= 1 EnMin= -1375.19870505921     IErMin= 1 ErrMin= 2.76D-02
 ErrMax= 2.76D-02  0.00D+00 EMaxC= 1.00D-01 BMatC= 6.63D-01 BMatP= 6.63D-01
 IDIUse=3 WtCom= 7.24D-01 WtEn= 2.76D-01
 Coeff-Com:  0.100D+01
 Coeff-En:   0.100D+01
 Coeff:      0.100D+01
 Gap=     0.180 Goal=   None    Shift=    0.000
 GapD=    0.180 DampG=1.000 DampE=0.500 DampFc=0.5000 IDamp=-1.
 Damping current iteration by 5.00D-01
 RMSDP=5.75D-03 MaxDP=1.88D-01              OVMax= 2.25D-01

 Cycle   2  Pass 0  IDiag  1:
 RMSU=  2.69D-03    CP:  9.50D-01
 E= -1375.42740212274     Delta-E=       -0.228697063532 Rises=F Damp=T
 DIIS: error= 1.21D-02 at cycle   2 NSaved=   2.
 NSaved= 2 IEnMin= 2 EnMin= -1375.42740212274     IErMin= 2 ErrMin= 1.21D-02
 ErrMax= 1.21D-02  0.00D+00 EMaxC= 1.00D-01 BMatC= 8.42D-02 BMatP= 6.63D-01
 IDIUse=3 WtCom= 8.79D-01 WtEn= 1.21D-01
 Coeff-Com:  0.172D+00 0.828D+00
 Coeff-En:   0.250D+00 0.750D+00
 Coeff:      0.182D+00 0.818D+00
 Gap=     0.164 Goal=   None    Shift=    0.000
 RMSDP=2.21D-03 MaxDP=7.94D-02 DE=-2.29D-01 OVMax= 1.75D-01

 Cycle   3  Pass 0  IDiag  1:
 RMSU=  1.99D-03    CP:  9.03D-01  1.08D+00
 E= -1375.74186011214     Delta-E=       -0.314457989400 Rises=F Damp=F
 DIIS: error= 1.65D-02 at cycle   3 NSaved=   3.
 NSaved= 3 IEnMin= 3 EnMin= -1375.74186011214     IErMin= 2 ErrMin= 1.21D-02
 ErrMax= 1.65D-02  0.00D+00 EMaxC= 1.00D-01 BMatC= 1.23D-01 BMatP= 8.42D-02
 IDIUse=2 WtCom= 0.00D+00 WtEn= 1.00D+00
 Coeff-En:   0.000D+00 0.000D+00 0.100D+01
 Coeff:      0.000D+00 0.000D+00 0.100D+01
 Gap=     0.162 Goal=   None    Shift=    0.000
 RMSDP=2.39D-03 MaxDP=1.38D-01 DE=-3.14D-01 OVMax= 2.30D-01

 Cycle   4  Pass 0  IDiag  1:
 RMSU=  1.57D-03    CP:  9.14D-01  1.30D+00  1.53D-01
 E= -1375.28022547643     Delta-E=        0.461634635712 Rises=F Damp=F
 DIIS: error= 3.93D-02 at cycle   4 NSaved=   4.
 NSaved= 4 IEnMin= 3 EnMin= -1375.74186011214     IErMin= 2 ErrMin= 1.21D-02
 ErrMax= 3.93D-02  0.00D+00 EMaxC= 1.00D-01 BMatC= 7.02D-01 BMatP= 8.42D-02
 IDIUse=2 WtCom= 0.00D+00 WtEn= 1.00D+00
 Coeff-En:   0.000D+00 0.000D+00 0.790D+00 0.210D+00
 Coeff:      0.000D+00 0.000D+00 0.790D+00 0.210D+00
 Gap=     0.201 Goal=   None    Shift=    0.000
 RMSDP=1.27D-03 MaxDP=7.21D-02 DE= 4.62D-01 OVMax= 1.15D-01

 Cycle   5  Pass 0  IDiag  1:
 RMSU=  2.25D-04    CP:  9.10D-01  1.12D+00  6.03D-01  5.48D-01
 E= -1375.80775766394     Delta-E=       -0.527532187511 Rises=F Damp=F
 DIIS: error= 1.08D-02 at cycle   5 NSaved=   5.
 NSaved= 5 IEnMin= 5 EnMin= -1375.80775766394     IErMin= 5 ErrMin= 1.08D-02
 ErrMax= 1.08D-02  0.00D+00 EMaxC= 1.00D-01 BMatC= 4.77D-02 BMatP= 8.42D-02
 IDIUse=3 WtCom= 8.92D-01 WtEn= 1.08D-01
 Coeff-Com: -0.517D-02 0.507D-01 0.310D+00-0.750D-01 0.719D+00
 Coeff-En:   0.000D+00 0.000D+00 0.319D+00 0.000D+00 0.681D+00
 Coeff:     -0.461D-02 0.453D-01 0.311D+00-0.669D-01 0.715D+00
 Gap=     0.156 Goal=   None    Shift=    0.000
 RMSDP=4.75D-04 MaxDP=2.39D-02 DE=-5.28D-01 OVMax= 3.70D-02

 Cycle   6  Pass 0  IDiag  1:
 RMSU=  1.00D-04    CP:  9.07D-01  1.09D+00  7.67D-01  3.49D-01  7.62D-01
 E= -1375.84693404422     Delta-E=       -0.039176380281 Rises=F Damp=F
 DIIS: error= 8.04D-04 at cycle   6 NSaved=   6.
 NSaved= 6 IEnMin= 6 EnMin= -1375.84693404422     IErMin= 6 ErrMin= 8.04D-04
 ErrMax= 8.04D-04  0.00D+00 EMaxC= 1.00D-01 BMatC= 4.10D-04 BMatP= 4.77D-02
 IDIUse=3 WtCom= 9.92D-01 WtEn= 8.04D-03
 Coeff-Com: -0.725D-02 0.249D-01 0.146D+00-0.618D-01 0.448D+00 0.449D+00
 Coeff-En:   0.000D+00 0.000D+00 0.000D+00 0.000D+00 0.000D+00 0.100D+01
 Coeff:     -0.719D-02 0.247D-01 0.145D+00-0.613D-01 0.445D+00 0.454D+00
 Gap=     0.156 Goal=   None    Shift=    0.000
 RMSDP=5.48D-05 MaxDP=2.54D-03 DE=-3.92D-02 OVMax= 3.79D-03

 Cycle   7  Pass 0  IDiag  1:
 RMSU=  2.63D-05    CP:  9.07D-01  1.10D+00  7.57D-01  3.53D-01  8.58D-01
                    CP:  6.74D-01
 E= -1375.84728758318     Delta-E=       -0.000353538961 Rises=F Damp=F
 DIIS: error= 1.68D-04 at cycle   7 NSaved=   7.
 NSaved= 7 IEnMin= 7 EnMin= -1375.84728758318     IErMin= 7 ErrMin= 1.68D-04
 ErrMax= 1.68D-04  0.00D+00 EMaxC= 1.00D-01 BMatC= 1.51D-05 BMatP= 4.10D-04
 IDIUse=3 WtCom= 9.98D-01 WtEn= 1.68D-03
 Coeff-Com: -0.256D-02 0.709D-02 0.446D-01-0.224D-01 0.146D+00 0.205D+00
 Coeff-Com:  0.622D+00
 Coeff-En:   0.000D+00 0.000D+00 0.000D+00 0.000D+00 0.000D+00 0.000D+00
 Coeff-En:   0.100D+01
 Coeff:     -0.256D-02 0.708D-02 0.445D-01-0.224D-01 0.146D+00 0.205D+00
 Coeff:      0.623D+00
 Gap=     0.156 Goal=   None    Shift=    0.000
 RMSDP=1.51D-05 MaxDP=4.69D-04 DE=-3.54D-04 OVMax= 1.31D-03

 Cycle   8  Pass 0  IDiag  1:
 RMSU=  1.09D-05    CP:  9.07D-01  1.10D+00  7.60D-01  3.51D-01  8.46D-01
                    CP:  6.74D-01  6.94D-01
 E= -1375.84730189388     Delta-E=       -0.000014310705 Rises=F Damp=F
 DIIS: error= 5.44D-05 at cycle   8 NSaved=   8.
 NSaved= 8 IEnMin= 8 EnMin= -1375.84730189388     IErMin= 8 ErrMin= 5.44D-05
 ErrMax= 5.44D-05  0.00D+00 EMaxC= 1.00D-01 BMatC= 3.20D-06 BMatP= 1.51D-05
 IDIUse=1 WtCom= 1.00D+00 WtEn= 0.00D+00
 Coeff-Com: -0.513D-03 0.591D-03 0.112D-01-0.576D-02 0.357D-01 0.758D-01
 Coeff-Com:  0.400D+00 0.483D+00
 Coeff:     -0.513D-03 0.591D-03 0.112D-01-0.576D-02 0.357D-01 0.758D-01
 Coeff:      0.400D+00 0.483D+00
 Gap=     0.156 Goal=   None    Shift=    0.000
 RMSDP=6.27D-06 MaxDP=1.85D-04 DE=-1.43D-05 OVMax= 6.89D-04

 Initial convergence to 1.0D-05 achieved.  Increase integral accuracy.
 Cycle   9  Pass 1  IDiag  1:
 E= -1375.84721484229     Delta-E=        0.000087051600 Rises=F Damp=F
 DIIS: error= 2.25D-04 at cycle   1 NSaved=   1.
 NSaved= 1 IEnMin= 1 EnMin= -1375.84721484229     IErMin= 1 ErrMin= 2.25D-04
 ErrMax= 2.25D-04  0.00D+00 EMaxC= 1.00D-01 BMatC= 1.24D-05 BMatP= 1.24D-05
 IDIUse=3 WtCom= 9.98D-01 WtEn= 2.25D-03
 Coeff-Com:  0.100D+01
 Coeff-En:   0.100D+01
 Coeff:      0.100D+01
 Gap=     0.156 Goal=   None    Shift=    0.000
 RMSDP=6.27D-06 MaxDP=1.85D-04 DE= 8.71D-05 OVMax= 6.71D-04

 Cycle  10  Pass 1  IDiag  1:
 RMSU=  2.86D-04    CP:  1.00D+00
 E= -1375.84722627364     Delta-E=       -0.000011431352 Rises=F Damp=F
 DIIS: error= 5.69D-05 at cycle   2 NSaved=   2.
 NSaved= 2 IEnMin= 2 EnMin= -1375.84722627364     IErMin= 2 ErrMin= 5.69D-05
 ErrMax= 5.69D-05  0.00D+00 EMaxC= 1.00D-01 BMatC= 1.30D-06 BMatP= 1.24D-05
 IDIUse=1 WtCom= 1.00D+00 WtEn= 0.00D+00
 Coeff-Com:  0.121D+00 0.879D+00
 Coeff:      0.121D+00 0.879D+00
 Gap=     0.156 Goal=   None    Shift=    0.000
 RMSDP=1.17D-05 MaxDP=5.52D-04 DE=-1.14D-05 OVMax= 1.27D-03

 Cycle  11  Pass 1  IDiag  1:
 RMSU=  1.13D-05    CP:  1.00D+00  1.01D+00
 E= -1375.84722194061     Delta-E=        0.000004333024 Rises=F Damp=F
 DIIS: error= 1.11D-04 at cycle   3 NSaved=   3.
 NSaved= 3 IEnMin= 2 EnMin= -1375.84722627364     IErMin= 2 ErrMin= 5.69D-05
 ErrMax= 1.11D-04  0.00D+00 EMaxC= 1.00D-01 BMatC= 5.08D-06 BMatP= 1.30D-06
 IDIUse=3 WtCom= 4.87D-01 WtEn= 5.13D-01
 Coeff-Com: -0.375D-02 0.667D+00 0.337D+00
 Coeff-En:   0.000D+00 0.734D+00 0.266D+00
 Coeff:     -0.183D-02 0.701D+00 0.300D+00
 Gap=     0.156 Goal=   None    Shift=    0.000
 RMSDP=6.63D-06 MaxDP=3.24D-04 DE= 4.33D-06 OVMax= 7.58D-04

 Cycle  12  Pass 1  IDiag  1:
 RMSU=  8.68D-07    CP:  1.00D+00  1.01D+00  4.21D-01
 E= -1375.84722765865     Delta-E=       -0.000005718033 Rises=F Damp=F
 DIIS: error= 1.34D-05 at cycle   4 NSaved=   4.
 NSaved= 4 IEnMin= 4 EnMin= -1375.84722765865     IErMin= 4 ErrMin= 1.34D-05
 ErrMax= 1.34D-05  0.00D+00 EMaxC= 1.00D-01 BMatC= 9.20D-08 BMatP= 1.30D-06
 IDIUse=1 WtCom= 1.00D+00 WtEn= 0.00D+00
 Coeff-Com: -0.386D-02 0.401D+00 0.149D+00 0.454D+00
 Coeff:     -0.386D-02 0.401D+00 0.149D+00 0.454D+00
 Gap=     0.156 Goal=   None    Shift=    0.000
 RMSDP=9.17D-07 MaxDP=3.10D-05 DE=-5.72D-06 OVMax= 9.33D-05

 Cycle  13  Pass 1  IDiag  1:
 RMSU=  3.25D-07    CP:  1.00D+00  1.01D+00  3.48D-01  7.79D-01
 E= -1375.84722775625     Delta-E=       -0.000000097599 Rises=F Damp=F
 DIIS: error= 6.79D-07 at cycle   5 NSaved=   5.
 NSaved= 5 IEnMin= 5 EnMin= -1375.84722775625     IErMin= 5 ErrMin= 6.79D-07
 ErrMax= 6.79D-07  0.00D+00 EMaxC= 1.00D-01 BMatC= 4.99D-10 BMatP= 9.20D-08
 IDIUse=1 WtCom= 1.00D+00 WtEn= 0.00D+00
 Coeff-Com: -0.212D-02 0.215D+00 0.778D-01 0.261D+00 0.449D+00
 Coeff:     -0.212D-02 0.215D+00 0.778D-01 0.261D+00 0.449D+00
 Gap=     0.156 Goal=   None    Shift=    0.000
 RMSDP=8.92D-08 MaxDP=4.00D-06 DE=-9.76D-08 OVMax= 5.44D-06

 Cycle  14  Pass 1  IDiag  1:
 RMSU=  7.90D-08    CP:  1.00D+00  1.01D+00  3.46D-01  7.90D-01  8.94D-01
 E= -1375.84722775674     Delta-E=       -0.000000000492 Rises=F Damp=F
 DIIS: error= 2.49D-07 at cycle   6 NSaved=   6.
 NSaved= 6 IEnMin= 6 EnMin= -1375.84722775674     IErMin= 6 ErrMin= 2.49D-07
 ErrMax= 2.49D-07  0.00D+00 EMaxC= 1.00D-01 BMatC= 4.30D-11 BMatP= 4.99D-10
 IDIUse=1 WtCom= 1.00D+00 WtEn= 0.00D+00
 Coeff-Com: -0.574D-03 0.565D-01 0.195D-01 0.745D-01 0.243D+00 0.607D+00
 Coeff:     -0.574D-03 0.565D-01 0.195D-01 0.745D-01 0.243D+00 0.607D+00
 Gap=     0.156 Goal=   None    Shift=    0.000
 RMSDP=2.25D-08 MaxDP=9.50D-07 DE=-4.92D-10 OVMax= 1.44D-06

 Cycle  15  Pass 1  IDiag  1:
 RMSU=  1.49D-08    CP:  1.00D+00  1.01D+00  3.46D-01  7.92D-01  9.29D-01
                    CP:  8.62D-01
 E= -1375.84722775678     Delta-E=       -0.000000000045 Rises=F Damp=F
 DIIS: error= 1.95D-07 at cycle   7 NSaved=   7.
 NSaved= 7 IEnMin= 7 EnMin= -1375.84722775678     IErMin= 7 ErrMin= 1.95D-07
 ErrMax= 1.95D-07  0.00D+00 EMaxC= 1.00D-01 BMatC= 1.09D-11 BMatP= 4.30D-11
 IDIUse=1 WtCom= 1.00D+00 WtEn= 0.00D+00
 Coeff-Com: -0.320D-04 0.232D-02 0.142D-03 0.700D-02 0.883D-01 0.387D+00
 Coeff-Com:  0.515D+00
 Coeff:     -0.320D-04 0.232D-02 0.142D-03 0.700D-02 0.883D-01 0.387D+00
 Coeff:      0.515D+00
 Gap=     0.156 Goal=   None    Shift=    0.000
 RMSDP=8.44D-09 MaxDP=4.87D-07 DE=-4.46D-11 OVMax= 6.08D-07

 SCF Done:  E(RB3LYP) =  -1375.84722776     A.U. after   15 cycles
            NFock= 15  Conv=0.84D-08     -V/T= 2.0088
 KE= 1.363883205590D+03 PE=-8.638369014821D+03 EE= 3.181467273313D+03
 Leave Link  502 at Sat Feb 24 22:55:25 2024, MaxMem=  7516192768 cpu:             945.4 elap:              23.8
 (Enter /public/apps/g16-C01//g16/l601.exe)
 Copying SCF densities to generalized density rwf, IOpCl= 0 IROHF=0.

 **********************************************************************

            Population analysis using the SCF Density.

 **********************************************************************

 Alpha  occ. eigenvalues --  -19.19601 -19.19586 -19.16685 -19.16676 -19.12931
 Alpha  occ. eigenvalues --  -19.12918 -10.32519 -10.32507 -10.25912 -10.25910
 Alpha  occ. eigenvalues --  -10.25668 -10.25657 -10.20671 -10.20666 -10.20210
 Alpha  occ. eigenvalues --  -10.20205 -10.20132 -10.20113 -10.19811 -10.19806
 Alpha  occ. eigenvalues --  -10.19654 -10.19652 -10.19423 -10.19421 -10.19330
 Alpha  occ. eigenvalues --  -10.19329 -10.19325 -10.19322 -10.19232 -10.19218
 Alpha  occ. eigenvalues --   -1.11562  -1.11554  -1.06225  -1.05946  -1.02502
 Alpha  occ. eigenvalues --   -1.02485  -0.89088  -0.88162  -0.83666  -0.83029
 Alpha  occ. eigenvalues --   -0.80305  -0.78021  -0.77344  -0.76411  -0.74878
 Alpha  occ. eigenvalues --   -0.73887  -0.72621  -0.71294  -0.67221  -0.66726
 Alpha  occ. eigenvalues --   -0.64329  -0.63618  -0.62549  -0.60329  -0.59494
 Alpha  occ. eigenvalues --   -0.58946  -0.55331  -0.54277  -0.53369  -0.52769
 Alpha  occ. eigenvalues --   -0.51960  -0.51190  -0.49950  -0.49878  -0.49294
 Alpha  occ. eigenvalues --   -0.49268  -0.48170  -0.47877  -0.46299  -0.46253
 Alpha  occ. eigenvalues --   -0.45901  -0.44539  -0.44075  -0.43896  -0.43627
 Alpha  occ. eigenvalues --   -0.42851  -0.42768  -0.42229  -0.41902  -0.41772
 Alpha  occ. eigenvalues --   -0.41459  -0.41023  -0.40969  -0.40649  -0.39602
 Alpha  occ. eigenvalues --   -0.38811  -0.38520  -0.37961  -0.37684  -0.37321
 Alpha  occ. eigenvalues --   -0.36633  -0.35834  -0.34882  -0.34441  -0.33655
 Alpha  occ. eigenvalues --   -0.31716  -0.31482  -0.29689  -0.28640  -0.28351
 Alpha  occ. eigenvalues --   -0.28104  -0.24932  -0.24782  -0.22349  -0.21404
 Alpha virt. eigenvalues --   -0.05761  -0.04851  -0.02528  -0.02090   0.00265
 Alpha virt. eigenvalues --    0.00817   0.01447   0.02210   0.06319   0.06603
 Alpha virt. eigenvalues --    0.06623   0.07138   0.07339   0.07862   0.08600
 Alpha virt. eigenvalues --    0.08775   0.09454   0.09649   0.11276   0.11621
 Alpha virt. eigenvalues --    0.12365   0.12509   0.13228   0.13251   0.14391
 Alpha virt. eigenvalues --    0.14493   0.15617   0.15780   0.16898   0.16958
 Alpha virt. eigenvalues --    0.17889   0.18199   0.19294   0.22550   0.22681
 Alpha virt. eigenvalues --    0.22831   0.23773   0.23932   0.26158   0.26329
 Alpha virt. eigenvalues --    0.26407   0.26986   0.27369   0.28631   0.28865
 Alpha virt. eigenvalues --    0.29483   0.29966   0.31488   0.31549   0.32006
 Alpha virt. eigenvalues --    0.32588   0.32807   0.33398   0.34257   0.34574
 Alpha virt. eigenvalues --    0.35244   0.36387   0.36711   0.38200   0.38418
 Alpha virt. eigenvalues --    0.40099   0.40341   0.41794   0.42031   0.42443
 Alpha virt. eigenvalues --    0.43603   0.43871   0.44122   0.44287   0.45013
 Alpha virt. eigenvalues --    0.45158   0.45908   0.46014   0.46134   0.46876
 Alpha virt. eigenvalues --    0.47336   0.47659   0.47922   0.48358   0.48686
 Alpha virt. eigenvalues --    0.49071   0.49704   0.50135   0.50222   0.50430
 Alpha virt. eigenvalues --    0.50969   0.51804   0.52211   0.53159   0.54032
 Alpha virt. eigenvalues --    0.54649   0.55133   0.55321   0.55673   0.55862
 Alpha virt. eigenvalues --    0.56895   0.57575   0.59114   0.59660   0.59767
 Alpha virt. eigenvalues --    0.60180   0.60211   0.61236   0.62034   0.62365
 Alpha virt. eigenvalues --    0.63053   0.64844   0.65387   0.65844   0.66700
 Alpha virt. eigenvalues --    0.66795   0.66938   0.67635   0.67939   0.68083
 Alpha virt. eigenvalues --    0.68381   0.68475   0.68574   0.68945   0.68999
 Alpha virt. eigenvalues --    0.70140   0.70783   0.70850   0.72374   0.72598
 Alpha virt. eigenvalues --    0.73222   0.73285   0.73707   0.74521   0.74869
 Alpha virt. eigenvalues --    0.74918   0.76127   0.76866   0.77057   0.77399
 Alpha virt. eigenvalues --    0.78357   0.78511   0.79521   0.79541   0.80422
 Alpha virt. eigenvalues --    0.80837   0.81682   0.83252   0.83561   0.83770
 Alpha virt. eigenvalues --    0.84185   0.84723   0.85181   0.86295   0.90610
 Alpha virt. eigenvalues --    0.91262   0.92510   0.92708   0.93706   0.93788
 Alpha virt. eigenvalues --    0.94631   0.96113   0.97804   0.99475   0.99877
 Alpha virt. eigenvalues --    1.00919   1.02777   1.03137   1.03748   1.05848
 Alpha virt. eigenvalues --    1.06166   1.06244   1.08752   1.09471   1.11642
 Alpha virt. eigenvalues --    1.11962   1.13711   1.14507   1.15570   1.16637
 Alpha virt. eigenvalues --    1.19061   1.20915   1.21855   1.22821   1.23025
 Alpha virt. eigenvalues --    1.23737   1.26111   1.26313   1.26536   1.26590
 Alpha virt. eigenvalues --    1.28946   1.30499   1.30528   1.31444   1.32984
 Alpha virt. eigenvalues --    1.34987   1.36700   1.38344   1.39190   1.39685
 Alpha virt. eigenvalues --    1.40383   1.42042   1.42199   1.42486   1.44182
 Alpha virt. eigenvalues --    1.44503   1.45089   1.46280   1.46619   1.47009
 Alpha virt. eigenvalues --    1.47514   1.47563   1.48740   1.48760   1.49521
 Alpha virt. eigenvalues --    1.50542   1.52039   1.52390   1.55755   1.57332
 Alpha virt. eigenvalues --    1.58878   1.63451   1.65305   1.66200   1.66717
 Alpha virt. eigenvalues --    1.68327   1.68622   1.70495   1.72191   1.72717
 Alpha virt. eigenvalues --    1.73066   1.73626   1.74731   1.76576   1.77287
 Alpha virt. eigenvalues --    1.77890   1.79784   1.80538   1.80640   1.81201
 Alpha virt. eigenvalues --    1.83642   1.84092   1.84343   1.84746   1.84796
 Alpha virt. eigenvalues --    1.87592   1.88216   1.88338   1.89004   1.93482
 Alpha virt. eigenvalues --    1.94888   1.95609   1.96930   1.97958   1.98964
 Alpha virt. eigenvalues --    1.99597   2.00566   2.02393   2.03708   2.04328
 Alpha virt. eigenvalues --    2.06217   2.06549   2.07309   2.07941   2.08412
 Alpha virt. eigenvalues --    2.09368   2.10746   2.11049   2.11650   2.12713
 Alpha virt. eigenvalues --    2.13393   2.16647   2.16951   2.17111   2.17777
 Alpha virt. eigenvalues --    2.17886   2.20038   2.22073   2.22948   2.24198
 Alpha virt. eigenvalues --    2.24289   2.24826   2.25737   2.27636   2.31735
 Alpha virt. eigenvalues --    2.31949   2.33234   2.35050   2.35220   2.38680
 Alpha virt. eigenvalues --    2.39729   2.40350   2.40926   2.40956   2.43446
 Alpha virt. eigenvalues --    2.43763   2.45014   2.45728   2.50761   2.52324
 Alpha virt. eigenvalues --    2.53028   2.54710   2.56043   2.57913   2.59502
 Alpha virt. eigenvalues --    2.60248   2.61115   2.62067   2.62991   2.63289
 Alpha virt. eigenvalues --    2.63821   2.64629   2.65424   2.67531   2.67708
 Alpha virt. eigenvalues --    2.68445   2.68911   2.70474   2.70537   2.71253
 Alpha virt. eigenvalues --    2.75346   2.76266   2.79775   2.80714   2.86069
 Alpha virt. eigenvalues --    2.86446   2.88884   2.89927   2.92002   2.92519
 Alpha virt. eigenvalues --    2.93774   2.93903   2.96070   2.96952   3.01718
 Alpha virt. eigenvalues --    3.01910   3.03677   3.03800   3.17563   3.18433
 Alpha virt. eigenvalues --    3.18719   3.19095   3.23358   3.23935   3.31081
 Alpha virt. eigenvalues --    3.31933   3.33676   3.35702   3.51431   3.52530
 Alpha virt. eigenvalues --    3.56044   3.60219   3.61312   3.61604   3.69687
 Alpha virt. eigenvalues --    3.69890
          Condensed to atoms (all electrons):
               1          2          3          4          5          6
     1  C    4.999970   0.383125  -0.084748  -0.120557   0.003791  -0.001232
     2  C    0.383125   4.486422   0.702983   0.316039  -0.032471   0.000863
     3  O   -0.084748   0.702983   7.646261  -0.076345  -0.017204  -0.000266
     4  O   -0.120557   0.316039  -0.076345   7.943152   0.323462  -0.067006
     5  C    0.003791  -0.032471  -0.017204   0.323462   5.146618   0.092254
     6  C   -0.001232   0.000863  -0.000266  -0.067006   0.092254   5.433314
     7  C    0.000003   0.000065   0.000004   0.005303   0.218524   0.115678
     8  C    0.000005   0.000019   0.000037  -0.000061  -0.208143   0.192507
     9  C    0.000000   0.000002   0.000000   0.000005  -0.003205   0.026273
    10  C   -0.000000  -0.000000  -0.000000  -0.000000  -0.000055  -0.000055
    11  C    0.000000   0.000000   0.000000   0.000000  -0.000062   0.000742
    12  O   -0.000000  -0.000000   0.000000   0.000000   0.000049  -0.000672
    13  C   -0.000000   0.000000  -0.000000   0.000000  -0.000000  -0.000019
    14  C    0.000000  -0.000000  -0.000000  -0.000000  -0.000000   0.000004
    15  C   -0.000000   0.000000   0.000000   0.000000   0.000000  -0.000007
    16  C   -0.000000   0.000000   0.000000   0.000000   0.000000  -0.000000
    17  C    0.000000  -0.000000  -0.000000   0.000000  -0.000000   0.000000
    18  O    0.000000   0.000000   0.000000   0.000000   0.000000  -0.000000
    19  C    0.000000  -0.000000   0.000000   0.000000  -0.000000   0.000000
    20  C    0.000000   0.000000   0.000000   0.000000   0.000000  -0.000000
    21  O    0.000000   0.000000   0.000000   0.000000  -0.000000   0.000000
    22  C   -0.000000   0.000000   0.000000  -0.000000   0.000000  -0.000002
    23  C    0.000000  -0.000000  -0.000000  -0.000000  -0.000000  -0.000028
    24  C    0.000000  -0.000000  -0.000000   0.000000  -0.000019   0.000287
    25  C   -0.000000  -0.000000   0.000000   0.000000   0.000415  -0.001163
    26  O    0.000000   0.000000   0.000000   0.000000  -0.000000   0.000001
    27  C    0.000000   0.000000  -0.000000   0.000000  -0.001740   0.000762
    28  C   -0.000003  -0.000090  -0.000115  -0.000102   0.022654  -0.004744
    29  C    0.000007   0.001018   0.000067   0.004834   0.217520  -0.187657
    30  C    0.002186  -0.008071   0.010622  -0.077283   0.078467   0.128459
    31  H    0.343013   0.001663   0.001526   0.005601  -0.000461   0.000147
    32  H    0.343613  -0.001486   0.001727   0.006415   0.000349   0.000021
    33  H    0.344483  -0.002122   0.008835   0.005450  -0.000058   0.000020
    34  H   -0.000117  -0.000564   0.000041   0.001930  -0.085861   0.434680
    35  H   -0.000000   0.000001  -0.000000  -0.000087   0.016750  -0.096008
    36  H   -0.000000   0.000000  -0.000000   0.000000   0.000032  -0.000369
    37  H    0.000000   0.000000   0.000000   0.000000   0.000000  -0.000002
    38  H   -0.000000  -0.000000   0.000000  -0.000000  -0.000000  -0.000000
    39  H   -0.000000   0.000000  -0.000000  -0.000000  -0.000000   0.000000
    40  H    0.000000   0.000000   0.000000   0.000000   0.000000  -0.000000
    41  H    0.000000   0.000000   0.000000   0.000000   0.000000   0.000000
[...]
 0027042,-0.00016931,-0.00038941,-0.00053654,0.00042628,0.00093850,0.00
 033039,0.00009239,-0.00078245,-0.00008253,-0.00036254,0.00006413,0.000
 04085,-0.00001935,0.00028476,-0.00003708,0.00020014,-0.00049108,0.0001
 0679,0.00013223,-0.00026194,-0.00090615,0.00051082,-0.00044860,-0.0004
 1603,-0.00041049,0.01729693,0.00262853,0.01917902,-0.03640030,-0.03025
 677,-0.06452256,0.00416363,-0.00035896,-0.00247583,0.00045728,0.001535
 51,0.00045426,0.00001676,-0.00027529,-0.00025496,-0.00024110,0.0000922
 1,0.00006191,0.00000351,0.00000086,0.00000126,0.00000214,-0.00000213,0
 .00000022,-0.00000007,0.00000035,-0.00000139,0.00000870,0.00001479,-0.
 00000956,0.00000107,-0.00005383,-0.00004384,0.00001462,0.00024833,0.00
 041036,-0.00000778,0.00000473,0.00007869,0.00002520,-0.00000170,0.0000
 7918,-0.00003333,0.00002120,0.00002343,0.00000487,-0.00000165,-0.00000
 370,0.00002186,0.00001317,-0.00000113,0.00000035,0.00000978,-0.0000049
 9,0.00005318,0.00000376,-0.00004354,0.00025629,-0.00047038,0.00013248,
 0.01394453,0.03063391,0.00002695,-0.00002339,-0.00001758,-0.00044565,0
 .00002456,-0.00026815,0.00011802,0.00004611,0.00015072,0.00064461,-0.0
 0026231,0.00001042,-0.00028405,-0.00004135,-0.00027605,0.00036223,-0.0
 0014848,0.00012780,0.00019303,0.00019158,0.00028937,-0.00056241,-0.000
 00449,-0.00050679,0.00513137,-0.00270709,-0.00226532,0.00148725,0.0020
 9953,0.00432144,0.00116173,0.00277433,-0.00316124,-0.00223572,-0.00092
 828,0.00025856,0.00035025,0.00036639,-0.00042633,0.00029852,-0.0003366
 4,0.00032826,-0.00004844,-0.00021187,0.00031103,-0.00038831,-0.0000603
 7,-0.00003196,-0.00044979,-0.00008428,-0.00007278,0.00073720,0.0003248
 1,-0.00006404,-0.00052540,-0.00008071,-0.00017837,0.00003786,0.0000364
 4,-0.00002623,0.00018663,0.00000636,0.00008659,0.00061409,0.00029106,-
 0.00050187,0.00013618,-0.00080350,0.00029226,-0.00329680,-0.00279145,0
 .00001103,0.00127205,0.00567287,0.01036074,-0.21960051,-0.04818746,-0.
 25784681,0.00334302,-0.00219324,0.00109065,-0.00075205,-0.00002995,0.0
 0094759,0.00045365,-0.00036927,-0.00054332,-0.00041774,0.00022548,0.00
 004488,0.00000826,-0.00000309,-0.00000082,0.00000785,-0.00000373,0.000
 00095,0.00000988,-0.00000602,-0.00000230,0.00002148,-0.00002354,-0.000
 01123,0.00001103,-0.00011061,-0.00012337,0.00045066,-0.00040865,0.0005
 5903,0.00001470,-0.00004890,0.00003286,0.00001946,0.00004858,0.0000227
 0,-0.00001204,-0.00000562,0.00000228,0.00000902,0.00000424,0.00000158,
 0.00001262,0.00000732,-0.00000372,0.00001309,0.00000744,-0.00000460,0.
 00006039,0.00008057,-0.00002208,-0.00023081,0.00042036,-0.00022777,0.2
 1162810,0.04700911,0.24731305,-0.00001768,0.00000751,-0.00000154,0.000
 21570,-0.00001883,0.00011230,-0.00008916,-0.00001074,-0.00006849,-0.00
 025603,0.00014671,0.00010132,-0.00012906,-0.00002016,0.00028466,-0.000
 30339,0.00010087,-0.00014009,0.00022717,-0.00033378,-0.00009947,-0.000
 91542,0.00032410,0.00015953,-0.00314895,0.00143512,-0.00265748,0.00034
 628,-0.00064262,-0.00098898,-0.00032636,-0.00011619,-0.00000744,0.0001
 4049,0.00001534,-0.00002677,0.00000635,0.00008583,0.00003477,-0.000052
 13,-0.00003185,-0.00001049,-0.00006265,0.00005843,-0.00004862,0.000001
 63,0.00000067,0.00001254,0.00000493,0.00000699,-0.00002630,-0.00003044
 ,-0.00001520,0.00001030,0.00001670,0.00000209,0.00000073,-0.00000126,-
 0.00000160,0.00000076,-0.00000724,-0.00000078,0.00000113,0.00001156,0.
 00000157,0.00003862,-0.00004525,-0.00004127,0.00003204,0.00011264,0.00
 014413,-0.00009610,0.00698730,-0.01307397,-0.02091041,0.00135340,-0.00
 088202,0.00157404,-0.05874921,0.02287251,0.02312233,0.00208845,0.01448
 882,0.02349905,-0.00327885,0.00423370,-0.00146145,0.00056540,0.0003503
 0,0.00080334,0.00000044,0.00000170,0.00000021,-0.00000064,-0.00000085,
 0.00000085,-0.00000659,0.00000451,0.00000150,0.00000189,-0.00000906,0.
 00001377,-0.00000263,0.00003537,0.00002516,-0.00003844,0.00000785,0.00
 001463,-0.00001678,0.00000218,-0.00001800,-0.00000045,-0.00000895,-0.0
 0000260,-0.00000086,0.00000039,0.00000099,-0.00000098,-0.00000046,-0.0
 0000041,-0.00000040,-0.00000057,0.00000064,-0.00000152,-0.00000077,0.0
 0000054,-0.00000814,-0.00000936,0.00000172,0.00003001,-0.00002308,-0.0
 0000828,0.00002112,-0.00010125,0.00026993,0.05483484,0.00001164,-0.000
 00379,-0.00000134,-0.00013810,0.00001981,-0.00008504,0.00004677,-0.000
 00332,0.00005519,0.00014984,-0.00013393,-0.00002611,-0.00007467,-0.000
 39950,0.00023107,0.00010515,0.00009169,0.00001146,-0.00020373,-0.00025
 127,0.00016596,-0.00009961,-0.00011848,0.00050063,0.00094396,0.0028897
 9,-0.00101446,-0.00011824,-0.00003111,0.00005742,0.00002011,0.00009428
 ,0.00002907,-0.00006555,-0.00007175,0.00002528,-0.00001564,-0.00002199
 ,-0.00000234,-0.00000212,-0.00001343,0.00000979,-0.00001601,-0.0000117
 1,-0.00003202,0.00000040,-0.00000527,0.00002226,-0.00000260,0.00001626
 ,-0.00003389,-0.00003211,-0.00001936,0.00001249,0.00001989,0.00000992,
 -0.00000307,-0.00000167,-0.00000255,0.00000255,-0.00000668,-0.00000559
 ,0.00000394,0.00003524,0.00001526,0.00001723,-0.00009090,-0.00001768,0
 .00001824,0.00014370,0.00003905,-0.00010797,0.00236396,0.00289700,-0.0
 0157526,-0.00097107,-0.00148456,0.00138739,0.02224816,-0.12536188,-0.1
 3551166,0.00006740,-0.00345686,-0.01247440,0.00461641,0.00508650,-0.00
 247036,-0.00015656,0.00000923,-0.00058528,0.00000044,-0.00000073,0.000
 00065,0.00000070,-0.00000010,-0.00000180,0.00000475,-0.00000119,-0.000
 00177,-0.00000869,-0.00002521,0.00000485,0.00001443,0.00002446,-0.0000
 3299,-0.00001369,0.00000455,0.00004906,-0.00000228,-0.00000167,-0.0000
 0264,-0.00000271,0.00000155,0.00000285,-0.00000042,0.00000221,0.000002
 88,-0.00000095,-0.00000109,-0.00000128,-0.00000038,-0.00000043,0.00000
 072,-0.00000204,0.00000060,-0.00000008,-0.00001073,-0.00001196,-0.0000
 0183,0.00003253,-0.00000340,-0.00001688,-0.00016562,-0.00027631,0.0001
 8803,-0.02687500,0.12347815,0.00000696,-0.00000527,-0.00000189,-0.0001
 0212,0.00000246,-0.00005622,0.00003345,0.00001385,0.00002989,0.0001267
 7,-0.00003763,-0.00002531,0.00019257,0.00027579,0.00004494,-0.00011799
 ,-0.00001067,0.00002347,0.00012511,0.00011803,-0.00016449,-0.00041118,
 0.00071347,0.00052156,-0.00401442,-0.00048576,-0.00005918,0.00046987,-
 0.00038270,-0.00046356,-0.00033389,-0.00016935,-0.00001737,0.00014851,
 0.00011186,-0.00006896,0.00005673,0.00007688,0.00001603,-0.00005358,-0
 .00003005,0.00000530,-0.00005746,0.00003264,-0.00004558,-0.00001504,-0
 .00000310,0.00000421,0.00003332,0.00002302,-0.00002509,-0.00007866,-0.
 00002918,-0.00000359,0.00006371,0.00000719,0.00002629,-0.00000498,-0.0
 0000376,0.00000231,-0.00002453,0.00000144,-0.00001417,0.00000238,0.000
 00030,0.00001704,0.00000091,-0.00005269,0.00002933,0.00000599,0.000169
 28,-0.00005687,0.00553277,-0.01314768,-0.01339686,0.00139741,0.0014609
 0,0.00086043,0.02162970,-0.13475627,-0.25218578,-0.00084994,-0.0020633
 7,-0.00020712,-0.00078759,-0.00267521,0.00334610,-0.00007317,-0.000229
 02,-0.00015454,0.00000054,-0.00000143,-0.00000070,0.00000114,-0.000000
 08,-0.00000028,0.00000244,-0.00000220,-0.00000005,0.00000903,0.0000054
 2,-0.00001468,-0.00002228,-0.00001473,0.00001332,-0.00003397,-0.000078
 53,0.00003304,-0.00001799,0.00000254,-0.00001799,-0.00000274,-0.000009
 12,-0.00000550,0.00000069,-0.00000070,-0.00000024,-0.00000055,-0.00000
 001,0.00000017,-0.00000172,-0.00000102,0.00000008,-0.00000044,-0.00000
 096,0.00000064,-0.00000381,-0.00000477,0.00000305,0.00002007,0.0000016
 8,-0.00002287,0.00008281,0.00024096,0.00003240,-0.02410917,0.14876822,
 0.26254830,0.00000940,-0.00001260,-0.00000920,-0.00013693,0.00003948,-
 0.00004476,0.00009475,-0.00004124,0.00002841,0.00020608,-0.00002655,-0
 .00004033,-0.00011433,-0.00018663,-0.00023446,0.00029454,-0.00009065,0
 .00012275,0.00002080,0.00017182,0.00031058,0.00131326,0.00152676,0.000
 03825,0.00000065,-0.00005393,0.00060666,-0.00008661,-0.00026849,0.0001
 1045,-0.00002503,-0.00001754,0.00003752,0.00003239,0.00002711,-0.00002
 156,0.00001098,0.00000226,0.00002274,-0.00002044,-0.00001546,-0.000000
 16,-0.00000505,0.00000163,-0.00001009,-0.00001520,-0.00000816,0.000009
 48,0.00004004,0.00003527,-0.00002812,-0.00009339,-0.00003793,-0.000002
 78,0.00007645,0.00001751,0.00002559,-0.00000650,-0.00000530,0.00000422
 ,-0.00002780,-0.00000423,-0.00001290,0.00001553,0.00000564,-0.00000577
 ,-0.00001995,-0.00003378,0.00000446,0.00001777,0.00005395,-0.00006871,
 -0.00082698,0.00492652,0.00128259,-0.00111597,-0.00009234,-0.00105953,
 -0.01557050,-0.00209444,-0.01884552,-0.21770062,-0.00474560,-0.1403110
 3,0.00482874,0.00129384,0.00274970,0.00029500,-0.00024416,0.00196861,0
 .00000120,-0.00000260,-0.00000085,0.00000210,-0.00000267,-0.00000495,0
 .00000481,-0.00000168,-0.00000062,0.00000600,0.00000633,-0.00001750,0.
 00003753,0.00007178,0.00001510,-0.00001025,-0.00002509,0.00001963,-0.0
 0000045,0.00000269,-0.00000275,-0.00000369,-0.00000087,-0.00000151,0.0
 0000213,0.00000157,0.00000043,-0.00000071,-0.00000068,-0.00000050,-0.0
 0000201,-0.00000108,0.00000025,-0.00000098,0.00000021,0.00000006,-0.00
 000562,-0.00000369,0.00000253,0.00001076,0.00003133,-0.00002228,-0.000
 27180,0.00011068,0.00016273,0.00048409,-0.00180224,0.00121167,0.228179
 74,0.00000028,0.00000900,0.00002612,-0.00001978,-0.00006722,-0.0001601
 4,-0.00007467,0.00005891,0.00012479,0.00007016,0.00015524,-0.00002343,
 0.00008427,-0.00009069,0.00028804,-0.00017242,-0.00000824,0.00001709,-
 0.00074230,0.00007560,-0.00042211,0.00232559,0.00139599,-0.00391826,0.
 00009179,-0.00079941,0.00020535,-0.00027755,-0.00049491,0.00036120,0.0
 0012281,0.00008184,0.00002101,-0.00003812,-0.00001332,0.00001464,-0.00
 000538,-0.00001009,0.00003213,-0.00000058,-0.00001423,0.00000179,-0.00
 002306,-0.00001066,-0.00000062,-0.00000034,0.00000401,-0.00000080,-0.0
 0001260,-0.00000489,-0.00000191,0.00001845,0.00000389,0.00000601,-0.00
 001880,0.00000001,-0.00001166,0.00000127,0.00000078,-0.00000018,0.0000
 0673,-0.00000232,0.00000735,0.00000455,-0.00000326,0.00000143,-0.00001
 846,-0.00000803,-0.00000958,-0.00005440,0.00005291,-0.00005726,0.00431
 765,0.00450295,-0.00429062,0.00062707,0.00013792,0.00056641,0.01259674
 ,0.00537999,0.00991325,-0.00476391,-0.04626044,-0.01598844,-0.01250323
 ,0.00334615,-0.01080328,-0.00191105,-0.00149785,0.00107405,-0.00000408
 ,0.00000360,0.00000689,-0.00000292,0.00000174,-0.00000143,0.00000134,0
 .00000005,-0.00000191,0.00004390,0.00002554,0.00000017,0.00010695,-0.0
 0003307,-0.00025879,0.00005207,-0.00000243,-0.00004843,0.00000894,0.00
 000159,0.00000908,0.00000086,0.00000025,0.00000066,-0.00000247,-0.0000
 0036,0.00000132,-0.00000027,-0.00000040,-0.00000043,0.00000053,0.00000
 015,0.00000031,-0.00000064,0.00000043,-0.00000018,-0.00000357,-0.00000
 046,0.00000034,0.00000628,-0.00000969,-0.00001220,0.00008207,-0.000293
 28,0.00004584,-0.00214913,-0.00309606,0.00225268,0.00161681,0.03752654
 ,0.00001381,0.00001726,0.00003114,-0.00017319,-0.00012108,-0.00030442,
 -0.00001767,0.00015245,0.00019914,0.00015990,-0.00010210,0.00013534,0.
 00017688,0.00008824,0.00007549,0.00000855,0.00008113,0.00004348,-0.001
 28776,0.00029925,-0.00046388,0.00143664,-0.00448912,-0.00196872,0.0008
 3929,0.00006400,-0.00009894,0.00007355,0.00032994,-0.00016880,-0.00002
 381,-0.00005724,-0.00000592,-0.00001185,0.00005405,-0.00000026,-0.0000
 0106,-0.00000489,-0.00000511,-0.00000500,0.00001319,-0.00000232,0.0000
 1235,-0.00000009,-0.00001169,0.00000562,-0.00000259,0.00000095,0.00001
 689,0.00000583,0.00000016,-0.00002661,-0.00000930,-0.00000378,0.000024
 44,0.00000271,0.00001150,-0.00000174,-0.00000132,0.00000099,-0.0000087
 5,0.00000112,-0.00000662,-0.00000485,0.00000122,0.00000389,0.00001275,
 0.00000964,0.00000736,0.00003672,0.00001850,0.00003866,0.00017362,-0.0
 0390324,0.00232949,0.00009452,0.00008099,0.00030792,0.00624704,-0.0009
 3714,0.00802901,-0.14012103,-0.01601506,-0.17024504,-0.02093251,-0.000
 52242,-0.01220042,-0.00089621,0.00231237,0.00033059,-0.00000563,-0.000
 00051,0.00000187,-0.00000347,0.00000756,0.00000256,0.00000511,-0.00000
 441,-0.00000203,0.00004347,-0.00002833,0.00003182,0.00003044,-0.000291
 42,-0.00028368,0.00000922,-0.00007903,0.00002344,-0.00000265,-0.000002
 89,-0.00000553,-0.00000151,-0.00000066,0.,0.00000266,-0.00000047,-0.00
 000164,0.00000006,0.00000013,0.00000021,-0.00000064,-0.00000020,-0.000
 00017,0.00000020,-0.00000021,0.00000011,0.00000091,0.00000058,0.000000
 58,-0.00000010,-0.00000315,0.00000474,0.00019899,0.00005489,-0.0000232
 4,0.00062898,0.00248803,-0.00059764,0.15229189,0.02096724,0.17469114,-
 0.00016623,0.00010597,-0.00055454,0.00302174,0.00214426,0.00537513,-0.
 00788101,0.00141477,-0.00216081,-0.00414526,-0.00138865,-0.00127178,0.
 00927610,0.00083477,0.00324408,0.00126952,0.00235780,0.00030287,0.0000
 6797,0.00020080,0.00072137,-0.00136700,0.00342137,0.00124809,-0.000271
 65,-0.00025475,-0.00085915,-0.00015183,0.00018476,0.00005392,-0.000074
 21,-0.00004350,0.00000630,0.00007210,-0.00000236,0.00001217,0.00001213
 ,-0.00001192,-0.00000628,-0.00000712,0.00000226,-0.00000041,0.00000304
 ,-0.00000859,-0.00000951,0.00000950,0.00000126,-0.00000212,-0.00003343
 ,-0.00001793,0.00000868,0.00006513,0.00002178,0.00001000,-0.00005858,-
 0.00000834,-0.00002772,0.00000451,0.00000331,-0.00000240,0.00002077,-0
 .00000062,0.00001619,0.00000428,-0.00000453,0.00000823,-0.00000622,0.0
 0000579,-0.00000640,-0.00000856,0.00002024,0.00000196,0.00001867,-0.00
 014302,-0.00004911,0.00003455,0.00003983,0.00008731,0.00011974,0.00003
 332,0.00012303,0.00074595,-0.00239153,-0.00081865,-0.01395073,-0.00109
 213,-0.01517737,-0.22127298,-0.01185431,-0.15356702,0.00009189,-0.0001
 1851,-0.00008657,0.00003098,-0.00003443,-0.00004412,-0.00005162,0.0000
 3417,-0.00000234,0.00031042,0.00018835,0.00035808,-0.00014970,-0.00024
 081,0.00009977,-0.00000152,0.00003325,-0.00001220,-0.00000086,0.000000
 42,0.00000068,0.00000213,0.00000249,0.00000264,-0.00000183,-0.00000269
 ,-0.00000020,-0.00000030,-0.00000029,-0.00000054,0.00000164,0.00000039
 ,0.00000035,-0.00000044,0.00000037,-0.00000013,-0.00000330,-0.00000019
 ,-0.00000100,-0.00000324,-0.00000427,0.00000607,0.00000663,-0.00000588
 ,-0.00000410,0.00004013,0.00005454,-0.00003733,0.00007606,0.00061262,0
 .00098151,0.23430207,0.00043178,0.00073264,0.00007508,-0.00138593,-0.0
 0172691,-0.00465695,0.00165649,-0.00049527,0.00276646,0.00070978,-0.00
 322433,0.00445241,-0.01447361,0.00594210,-0.01194740,0.00284422,0.0023
 1935,-0.00471487,0.00010307,-0.00053802,-0.00000796,0.00323831,0.00177
 436,-0.00288773,0.00044386,0.00037856,0.00040714,0.00018324,0.00002494
 ,-0.00013153,0.00000597,0.00006362,-0.00004986,-0.00006229,-0.00007787
 ,0.00002220,0.00001041,-0.00000678,0.00000094,-0.00000508,-0.00000508,
 0.00000195,0.00000396,0.00002057,-0.00001238,-0.00000047,-0.00000716,0
 .00001291,0.00001778,0.00001666,-0.00001241,-0.00004273,-0.00001901,-0
 .00000096,0.00003458,0.00000989,0.00001105,-0.00000315,-0.00000240,0.0
 0000224,-0.00001180,-0.00000306,-0.00000536,0.00000488,0.00000268,-0.0
 0000140,-0.00000853,-0.00001499,0.00000488,0.00004728,-0.00000778,0.00
 003376,-0.00000063,-0.00008146,0.00022204,-0.00002018,-0.00001573,-0.0
 0006483,-0.00020021,0.00007558,-0.00001313,-0.00071736,-0.00198612,0.0
 0239265,0.01145613,0.00443515,0.00903166,-0.00918338,-0.04561182,-0.01
 840052,0.00001896,-0.00003415,0.00000811,-0.00014307,0.00011909,0.0001
 3483,0.00005115,-0.00000469,-0.00002327,-0.00060966,0.00009704,-0.0006
 2155,-0.00024077,-0.00054533,0.00035165,0.00002380,0.00002111,0.000005
 54,-0.00000039,0.00000220,0.00000068,-0.00000157,-0.00000036,0.0000004
 6,0.00000269,0.00000209,-0.00000050,-0.00000034,-0.00000044,-0.0000000
 9,-0.00000094,-0.00000035,0.00000017,-0.00000057,0.00000030,-0.0000001
 7,-0.00000196,-0.00000116,0.00000127,0.00000070,0.00000824,-0.00000527
 ,-0.00000198,0.00000978,0.00000330,0.00004076,0.00015186,-0.00008337,-
 0.00012355,-0.00004376,-0.00047342,0.00591037,0.03824624,0.00000655,-0
 .00013155,0.00062002,-0.00063124,-0.00221929,-0.00369020,-0.00181164,0
 .00266630,0.00182774,0.00237697,0.00285784,0.00103142,-0.02271353,-0.0
 0057024,-0.01077311,0.00110451,-0.00509812,-0.00149592,0.00073590,-0.0
 0005909,-0.00003732,0.00108267,-0.00262589,0.00122107,0.00029057,-0.00
 013020,0.00034966,0.00003535,-0.00013780,-0.00003133,0.00003177,-0.000
 00465,0.00003388,-0.00000186,0.00002816,-0.00001658,-0.00001673,0.0000
 1341,0.00000115,0.00001385,0.00000414,-0.00000044,-0.00000132,-0.00000
 223,0.00001567,-0.00000204,0.00000381,-0.00000450,0.00000648,-0.000000
 89,0.00000308,-0.00000753,-0.00000094,-0.00000391,0.00000875,-0.000000
 31,0.00000635,-0.00000048,-0.00000024,0.00000014,-0.00000319,0.0000012
 6,-0.00000418,-0.00000475,0.00000083,-0.00000468,0.00000902,0.00000315
 ,-0.00000377,-0.00000990,-0.00000382,-0.00000493,0.00022594,0.00013367
 ,0.00018931,-0.00005059,-0.00000884,-0.00004041,-0.00030994,0.00016478
 ,0.00004087,0.00211909,0.00113180,-0.00024354,0.00561869,0.00001238,0.
 00821293,-0.14881725,-0.02052645,-0.18235049,-0.00009543,0.00009501,0.
 00009478,0.00001001,0.00003324,0.00000624,0.00003110,-0.00003828,-0.00
 001090,-0.00100034,-0.00006830,-0.00060247,0.00009885,0.00033373,-0.00
 021309,-0.00001917,-0.00002354,0.00000236,0.00000100,-0.00000289,-0.00
 000022,0.00000044,-0.00000133,-0.00000163,-0.00000021,0.00000049,0.000
 00040,0.00000029,0.00000029,0.00000032,-0.00000026,0.00000005,-0.00000
 022,0.00000042,-0.00000021,0.00000006,0.00000182,0.00000159,0.00000039
 ,-0.00000027,-0.00000015,0.00000057,-0.00000107,0.00000411,0.00000976,
 -0.00006429,-0.00007278,0.00004863,-0.00028043,0.00006645,0.00009826,0
 .16203338,0.02417154,0.18571880\\0.,0.00000083,0.00000267,-0.00000490,
 -0.00000350,-0.00000890,0.00000146,0.00000170,0.00000317,0.00000359,0.
 00000427,0.00000440,0.00000185,-0.00000452,-0.00000258,-0.00000368,0.0
 0000064,-0.00000049,0.00000130,-0.00000226,-0.00000267,0.00000216,0.00
 000252,0.00000300,-0.00000429,-0.00000089,-0.00000377,0.00000443,-0.00
 000067,0.00000352,0.00000042,0.00000131,-0.00000269,-0.00000083,-0.000
 00067,0.00000010,-0.00000034,-0.00000008,0.00000001,-0.00000098,0.0000
 0002,-0.00000048,0.,0.00000016,-0.00000006,-0.00000134,-0.00000059,0.0
 0000070,-0.00000162,-0.00000102,0.00000312,-0.00000218,-0.00000011,-0.
 00000471,0.00000381,-0.00000257,0.00000787,-0.00000046,0.00000229,-0.0
 0000163,-0.00000017,0.00000163,-0.00000286,0.00000216,0.00000131,0.000
 00097,-0.00000070,-0.00000193,0.00000231,-0.00000208,0.00000211,-0.000
 00240,-0.00000046,0.00000145,0.00000300,0.00000087,-0.00000064,-0.0000
 0023,0.00000016,0.00000006,-0.00000011,0.00000115,0.,0.00000033,-0.000
 00062,0.00000060,-0.00000011,0.00000191,0.00000166,-0.00000158,0.00000
 003,-0.00000042,-0.00000034,0.00000054,0.00000050,-0.00000146,-0.00000
 088,0.00000009,-0.00000102,0.00000028,-0.00000031,0.00000035,0.0000005
 0,-0.00000059,0.00000087,-0.00000012,0.00000060,-0.00000071,0.00000009
 ,-0.00000015,0.00000054,0.00000025,-0.00000002,0.00000046,0.00000020,-
 0.00000056,-0.00000019,-0.00000050,0.00000030,0.00000078,0.00000083,0.
 00000008,0.00000112,0.00000022,-0.00000122,0.00000070,-0.00000017,-0.0
 0000014,-0.00000026,-0.00000050,-0.00000062,-0.00000086,0.00000007,0.0
 0000062,0.00000072,-0.00000015,-0.00000007,-0.00000060,-0.00000028,0.0
 0000005,-0.00000051,-0.00000100,-0.00000124,0.00000054\\\@
 The archive entry for this job was punched.


 IF YOU BELIEVE CERTAIN WORDS, YOU BELIEVE THEIR HIDDEN ARGUMENTS.
 WHEN YOU BELIEVE SOMETHING IS RIGHT OR WRONG, TRUE OR FALSE, 
 YOU BELIEVE THE ASSUMPTIONS IN THE WORDS WHICH EXPRESS THE ARGUMENTS.
 SUCH ASSUMPTIONS ARE OFTEN FULL OF HOLES, BUT REMAIN MOST PRECIOUS 
 TO THE CONVINCED.

                 -- THE OPEN-ENDED PROOF FROM THE PANOPLIA PROPHETICA
                    CHILDREN OF DUNE BY FRANK HERBERT
 Job cpu time:       0 days  3 hours 17 minutes 32.9 seconds.
 Elapsed time:       0 days  0 hours  4 minutes 57.9 seconds.
 File lengths (MBytes):  RWF=   1208 Int=      0 D2E=      0 Chk=     19 Scr=      1
 Normal termination of Gaussian 16 at Sat Feb 24 23:12:19 2024.
