 Entering Gaussian System, Link 0=g16
 Initial command:
 /public/software/apps/Gaussian/g16/l1.exe "/public/home/LJQ_HG/tmp/Gau-120288.inp" -scrdir="/public/home/LJQ_HG/tmp/"
 Entering Link 1 = /public/software/apps/Gaussian/g16/l1.exe PID=    120289.
  
 Copyright (c) 1988-2019, Gaussian, Inc.  All Rights Reserved.
  
 This is part of the Gaussian(R) 16 program.  It is based on
 the Gaussian(R) 09 system (copyright 2009, Gaussian, Inc.),
 the Gaussian(R) 03 system (copyright 2003, Gaussian, Inc.),
 the Gaussian(R) 98 system (copyright 1998, Gaussian, Inc.),
 the Gaussian(R) 94 system (copyright 1995, Gaussian, Inc.),
 the Gaussian 92(TM) system (copyright 1992, Gaussian, Inc.),
 the Gaussian 90(TM) system (copyright 1990, Gaussian, Inc.),
 the Gaussian 88(TM) system (copyright 1988, Gaussian, Inc.),
 the Gaussian 86(TM) system (copyright 1986, Carnegie Mellon
 University), and the Gaussian 82(TM) system (copyright 1983,
 Carnegie Mellon University). Gaussian is a federally registered
 trademark of Gaussian, Inc.
  
 This software contains proprietary and confidential information,
 including trade secrets, belonging to Gaussian, Inc.
  
 This software is provided under written license and may be
 used, copied, transmitted, or stored only in accord with that
 written license.
  
 The following legend is applicable only to US Government
 contracts under FAR:
  
                    RESTRICTED RIGHTS LEGEND
  
 Use, reproduction and disclosure by the US Government is
 subject to restrictions as set forth in subparagraphs (a)
 and (c) of the Commercial Computer Software - Restricted
 Rights clause in FAR 52.227-19.
  
 Gaussian, Inc.
 340 Quinnipiac St., Bldg. 40, Wallingford CT 06492
  
  
 ---------------------------------------------------------------
 Warning -- This program may not be used in any manner that
 competes with the business of Gaussian, Inc. or will provide
 assistance to any competitor of Gaussian, Inc.  The licensee
 of this program is prohibited from giving any competitor of
 Gaussian, Inc. access to this program.  By using this program,
 the user acknowledges that Gaussian, Inc. is engaged in the
 business of creating and licensing software in the field of
 computational chemistry and represents and warrants to the
 licensee that it is not a competitor of Gaussian, Inc. and that
 it will not use this program in any manner prohibited above.
 ---------------------------------------------------------------
  

 Cite this work as:
 Gaussian 16, Revision C.01,
 M. J. Frisch, G. W. Trucks, H. B. Schlegel, G. E. Scuseria, 
 M. A. Robb, J. R. Cheeseman, G. Scalmani, V. Barone, 
 G. A. Petersson, H. Nakatsuji, X. Li, M. Caricato, A. V. Marenich, 
 J. Bloino, B. G. Janesko, R. Gomperts, B. Mennucci, H. P. Hratchian, 
 J. V. Ortiz, A. F. Izmaylov, J. L. Sonnenberg, D. Williams-Young, 
 F. Ding, F. Lipparini, F. Egidi, J. Goings, B. Peng, A. Petrone, 
 T. Henderson, D. Ranasinghe, V. G. Zakrzewski, J. Gao, N. Rega, 
 G. Zheng, W. Liang, M. Hada, M. Ehara, K. Toyota, R. Fukuda, 
 J. Hasegawa, M. Ishida, T. Nakajima, Y. Honda, O. Kitao, H. Nakai, 
 T. Vreven, K. Throssell, J. A. Montgomery, Jr., J. E. Peralta, 
 F. Ogliaro, M. J. Bearpark, J. J. Heyd, E. N. Brothers, K. N. Kudin, 
 V. N. Staroverov, T. A. Keith, R. Kobayashi, J. Normand, 
 K. Raghavachari, A. P. Rendell, J. C. Burant, S. S. Iyengar, 
 J. Tomasi, M. Cossi, J. M. Millam, M. Klene, C. Adamo, R. Cammi, 
 J. W. Ochterski, R. L. Martin, K. Morokuma, O. Farkas, 
 J. B. Foresman, and D. J. Fox, Gaussian, Inc., Wallingford CT, 2019.
 
 ******************************************
 Gaussian 16:  ES64L-G16RevC.01  3-Jul-2019
                 1-Mar-2024 
 ******************************************
 %nprocshared=32
 Will use up to   32 processors via shared memory.
 %mem=100GB
 ------------------------------------------
 #p opt freq b3lyp/def2svpp em=gd3bj nosymm
 ------------------------------------------
 1/18=20,19=15,26=3,38=1/1,3;
 2/9=110,12=2,15=1,17=6,18=5,40=1/2;
 3/5=43,7=202,11=2,25=1,30=1,71=1,74=-5,124=41/1,2,3;
 4//1;
 5/5=2,38=5/2;
 6/7=2,8=2,9=2,10=2,28=1/1;
 7/30=1/1,2,3,16;
 1/18=20,19=15,26=3/3(2);
 2/9=110,15=1/2;
 99//99;
 2/9=110,15=1/2;
 3/5=43,7=202,11=2,25=1,30=1,71=1,74=-5,124=41/1,2,3;
 4/5=5,16=3,69=1/1;
 5/5=2,38=5/2;
 7/30=1/1,2,3,16;
 1/18=20,19=15,26=3/3(-5);
 2/9=110,15=1/2;
 6/7=2,8=2,9=2,10=2,19=2,28=1/1;
 99/9=1/99;
 Leave Link    1 at Fri Mar  1 02:18:30 2024, MaxMem= 13421772800 cpu:               1.3 elap:               0.0
 (Enter /public/software/apps/Gaussian/g16/l101.exe)
 ----------------------
 $$$$Singlemol####0????
 ----------------------
 Symbolic Z-matrix:
 Charge =  0 Multiplicity = 1
 O                    -0.87038   3.19266  -1.83886 
 C                     0.27986   2.50983  -1.64677 
 C                     1.25216   2.59635  -2.67797 
 C                     2.44998   1.93481  -2.55397 
 C                     2.74134   1.1462   -1.4048 
 C                     3.97274   0.45805  -1.26498 
 C                     4.2618   -0.31436  -0.14897 
 C                     5.55542  -1.0264   -0.01339 
 C                     6.19443  -1.59355  -1.13201 
 C                     7.41556  -2.25754  -1.01274 
 C                     8.00784  -2.36085   0.24385 
 F                     9.18023  -2.99952   0.36665 
 C                     7.40548  -1.81629   1.37535 
 C                     6.18481  -1.1541    1.23909 
 C                     3.27046  -0.40726   0.87067 
 C                     2.06271   0.24751   0.76689 
 C                     1.75731   1.0527   -0.36607 
 C                     0.51623   1.75666  -0.49715 
 C                    -0.51826   1.73084   0.57546 
 C                    -0.27927   2.42349   1.76198 
 O                     0.87217   3.09418   1.98722 
 C                    -1.24871   2.45547   2.799 
 C                    -2.44749   1.80253   2.64299 
 C                    -2.74445   1.08044   1.45228 
 C                    -3.97568   0.39942   1.28044 
 C                    -4.26541  -0.31866   0.12881 
 C                    -5.55902  -1.02411  -0.0384 
 C                    -5.62989  -2.26267  -0.70329 
 C                    -6.84196  -2.9364   -0.85831 
 C                    -8.00262  -2.36501  -0.34244 
 F                    -9.17123  -3.00574  -0.48826 
 C                    -7.97422  -1.13997   0.32001 
 C                    -6.75464  -0.47833   0.4655 
 C                    -3.27396  -0.36381  -0.89382 
 C                    -2.06629   0.2857   -0.75963 
 C                    -1.76012   1.03536   0.41054 
 H                    -1.45632   3.0514   -1.07053 
 H                     1.01671   3.20306  -3.55534 
 H                     3.20045   2.00798  -3.34685 
 H                     4.71693   0.56966  -2.05867 
 H                     5.71497  -1.53638  -2.11257 
 H                     7.90938  -2.70693  -1.8777 
 H                     7.90105  -1.90859   2.34479 
 H                     5.72453  -0.70571   2.12327 
 H                     3.46112  -1.03907   1.74213 
 H                     1.31513   0.13817   1.55591 
 H                     1.45611   2.99301   1.21106 
 H                    -1.01022   3.01387   3.7071 
 H                    -3.19542   1.83295   3.44105 
 H                    -4.69816   0.42844   2.10106 
 H                    -4.7159   -2.72352  -1.08649 
 H                    -6.89847  -3.90261  -1.36544 
 H                    -8.90527  -0.71432   0.70201 
 H                    -6.73515   0.49601   0.96045 
 H                    -3.48509  -0.91063  -1.8165 
 H                    -1.32731   0.23092  -1.56224 
 
 ITRead=  0  0  0  0  0  0  0  0  0  0  0  0  0  0  0  0  0  0  0  0
 ITRead=  0  0  0  0  0  0  0  0  0  0  0  0  0  0  0  0  0  0  0  0
 ITRead=  0  0  0  0  0  0  0  0  0  0  0  0  0  0  0  0
 MicOpt= -1 -1 -1 -1 -1 -1 -1 -1 -1 -1 -1 -1 -1 -1 -1 -1 -1 -1 -1 -1
 MicOpt= -1 -1 -1 -1 -1 -1 -1 -1 -1 -1 -1 -1 -1 -1 -1 -1 -1 -1 -1 -1
 MicOpt= -1 -1 -1 -1 -1 -1 -1 -1 -1 -1 -1 -1 -1 -1 -1 -1
 NAtoms=     56 NQM=       56 NQMF=       0 NMMI=      0 NMMIF=      0
                NMic=       0 NMicF=      0.
                    Isotopes and Nuclear Properties:
 (Nuclear quadrupole moments (NQMom) in fm**2, nuclear magnetic moments (NMagM)
  in nuclear magnetons)

  Atom         1           2           3           4           5           6           7           8           9          10
 IAtWgt=          16          12          12          12          12          12          12          12          12          12
 AtmWgt=  15.9949146  12.0000000  12.0000000  12.0000000  12.0000000  12.0000000  12.0000000  12.0000000  12.0000000  12.0000000
 NucSpn=           0           0           0           0           0           0           0           0           0           0
 AtZEff=  -0.0000000  -0.0000000  -0.0000000  -0.0000000  -0.0000000  -0.0000000  -0.0000000  -0.0000000  -0.0000000  -0.0000000
 NQMom=    0.0000000   0.0000000   0.0000000   0.0000000   0.0000000   0.0000000   0.0000000   0.0000000   0.0000000   0.0000000
 NMagM=    0.0000000   0.0000000   0.0000000   0.0000000   0.0000000   0.0000000   0.0000000   0.0000000   0.0000000   0.0000000
 AtZNuc=   8.0000000   6.0000000   6.0000000   6.0000000   6.0000000   6.0000000   6.0000000   6.0000000   6.0000000   6.0000000

  Atom        11          12          13          14          15          16          17          18          19          20
 IAtWgt=          12          19          12          12          12          12          12          12          12          12
 AtmWgt=  12.0000000  18.9984032  12.0000000  12.0000000  12.0000000  12.0000000  12.0000000  12.0000000  12.0000000  12.0000000
 NucSpn=           0           1           0           0           0           0           0           0           0           0
 AtZEff=  -0.0000000  -0.0000000  -0.0000000  -0.0000000  -0.0000000  -0.0000000  -0.0000000  -0.0000000  -0.0000000  -0.0000000
 NQMom=    0.0000000   0.0000000   0.0000000   0.0000000   0.0000000   0.0000000   0.0000000   0.0000000   0.0000000   0.0000000
 NMagM=    0.0000000   2.6288670   0.0000000   0.0000000   0.0000000   0.0000000   0.0000000   0.0000000   0.0000000   0.0000000
 AtZNuc=   6.0000000   9.0000000   6.0000000   6.0000000   6.0000000   6.0000000   6.0000000   6.0000000   6.0000000   6.0000000

  Atom        21          22          23          24          25          26          27          28          29          30
 IAtWgt=          16          12          12          12          12          12          12          12          12          12
 AtmWgt=  15.9949146  12.0000000  12.0000000  12.0000000  12.0000000  12.0000000  12.0000000  12.0000000  12.0000000  12.0000000
 NucSpn=           0           0           0           0           0           0           0           0           0           0
 AtZEff=  -0.0000000  -0.0000000  -0.0000000  -0.0000000  -0.0000000  -0.0000000  -0.0000000  -0.0000000  -0.0000000  -0.0000000
 NQMom=    0.0000000   0.0000000   0.0000000   0.0000000   0.0000000   0.0000000   0.0000000   0.0000000   0.0000000   0.0000000
 NMagM=    0.0000000   0.0000000   0.0000000   0.0000000   0.0000000   0.0000000   0.0000000   0.0000000   0.0000000   0.0000000
 AtZNuc=   8.0000000   6.0000000   6.0000000   6.0000000   6.0000000   6.0000000   6.0000000   6.0000000   6.0000000   6.0000000

  Atom        31          32          33          34          35          36          37          38          39          40
 IAtWgt=          19          12          12          12          12          12           1           1           1           1
 AtmWgt=  18.9984032  12.0000000  12.0000000  12.0000000  12.0000000  12.0000000   1.0078250   1.0078250   1.0078250   1.0078250
 NucSpn=           1           0           0           0           0           0           1           1           1           1
 AtZEff=  -0.0000000  -0.0000000  -0.0000000  -0.0000000  -0.0000000  -0.0000000  -0.0000000  -0.0000000  -0.0000000  -0.0000000
 NQMom=    0.0000000   0.0000000   0.0000000   0.0000000   0.0000000   0.0000000   0.0000000   0.0000000   0.0000000   0.0000000
 NMagM=    2.6288670   0.0000000   0.0000000   0.0000000   0.0000000   0.0000000   2.7928460   2.7928460   2.7928460   2.7928460
 AtZNuc=   9.0000000   6.0000000   6.0000000   6.0000000   6.0000000   6.0000000   1.0000000   1.0000000   1.0000000   1.0000000

  Atom        41          42          43          44          45          46          47          48          49          50
 IAtWgt=           1           1           1           1           1           1           1           1           1           1
 AtmWgt=   1.0078250   1.0078250   1.0078250   1.0078250   1.0078250   1.0078250   1.0078250   1.0078250   1.0078250   1.0078250
 NucSpn=           1           1           1           1           1           1           1           1           1           1
 AtZEff=  -0.0000000  -0.0000000  -0.0000000  -0.0000000  -0.0000000  -0.0000000  -0.0000000  -0.0000000  -0.0000000  -0.0000000
 NQMom=    0.0000000   0.0000000   0.0000000   0.0000000   0.0000000   0.0000000   0.0000000   0.0000000   0.0000000   0.0000000
 NMagM=    2.7928460   2.7928460   2.7928460   2.7928460   2.7928460   2.7928460   2.7928460   2.7928460   2.7928460   2.7928460
 AtZNuc=   1.0000000   1.0000000   1.0000000   1.0000000   1.0000000   1.0000000   1.0000000   1.0000000   1.0000000   1.0000000

  Atom        51          52          53          54          55          56
 IAtWgt=           1           1           1           1           1           1
 AtmWgt=   1.0078250   1.0078250   1.0078250   1.0078250   1.0078250   1.0078250
 NucSpn=           1           1           1           1           1           1
 AtZEff=  -0.0000000  -0.0000000  -0.0000000  -0.0000000  -0.0000000  -0.0000000
 NQMom=    0.0000000   0.0000000   0.0000000   0.0000000   0.0000000   0.0000000
 NMagM=    2.7928460   2.7928460   2.7928460   2.7928460   2.7928460   2.7928460
 AtZNuc=   1.0000000   1.0000000   1.0000000   1.0000000   1.0000000   1.0000000
 Leave Link  101 at Fri Mar  1 02:18:30 2024, MaxMem= 13421772800 cpu:               5.8 elap:               0.2
 (Enter /public/software/apps/Gaussian/g16/l103.exe)

 GradGradGradGradGradGradGradGradGradGradGradGradGradGradGradGradGradGrad
 Berny optimization.
 Initialization pass.
                           ----------------------------
                           !    Initial Parameters    !
                           ! (Angstroms and Degrees)  !
 --------------------------                            --------------------------
 ! Name  Definition              Value          Derivative Info.                !
 --------------------------------------------------------------------------------
 ! R1    R(1,2)                  1.3514         estimate D2E/DX2                !
 ! R2    R(1,37)                 0.9765         estimate D2E/DX2                !
 ! R3    R(2,3)                  1.4199         estimate D2E/DX2                !
 ! R4    R(2,18)                 1.3945         estimate D2E/DX2                !
 ! R5    R(3,4)                  1.374          estimate D2E/DX2                !
 ! R6    R(3,38)                 1.0924         estimate D2E/DX2                !
 ! R7    R(4,5)                  1.4239         estimate D2E/DX2                !
 ! R8    R(4,39)                 1.0942         estimate D2E/DX2                !
 ! R9    R(5,6)                  1.4175         estimate D2E/DX2                !
 ! R10   R(5,17)                 1.4339         estimate D2E/DX2                !
 ! R11   R(6,7)                  1.3877         estimate D2E/DX2                !
 ! R12   R(6,40)                 1.0937         estimate D2E/DX2                !
 ! R13   R(7,8)                  1.4829         estimate D2E/DX2                !
 ! R14   R(7,15)                 1.4252         estimate D2E/DX2                !
 ! R15   R(8,9)                  1.4076         estimate D2E/DX2                !
 ! R16   R(8,14)                 1.4075         estimate D2E/DX2                !
 ! R17   R(9,10)                 1.3951         estimate D2E/DX2                !
 ! R18   R(9,41)                 1.093          estimate D2E/DX2                !
 ! R19   R(10,11)                1.393          estimate D2E/DX2                !
 ! R20   R(10,42)                1.0927         estimate D2E/DX2                !
 ! R21   R(11,12)                1.3407         estimate D2E/DX2                !
 ! R22   R(11,13)                1.3927         estimate D2E/DX2                !
 ! R23   R(13,14)                1.3954         estimate D2E/DX2                !
 ! R24   R(13,43)                1.0927         estimate D2E/DX2                !
 ! R25   R(14,44)                1.093          estimate D2E/DX2                !
 ! R26   R(15,16)                1.3777         estimate D2E/DX2                !
 ! R27   R(15,45)                1.0932         estimate D2E/DX2                !
 ! R28   R(16,17)                1.4231         estimate D2E/DX2                !
 ! R29   R(16,46)                1.0924         estimate D2E/DX2                !
 ! R30   R(17,18)                1.4328         estimate D2E/DX2                !
 ! R31   R(18,19)                1.4904         estimate D2E/DX2                !
 ! R32   R(19,20)                1.3945         estimate D2E/DX2                !
 ! R33   R(19,36)                1.4329         estimate D2E/DX2                !
 ! R34   R(20,21)                1.3514         estimate D2E/DX2                !
 ! R35   R(20,22)                1.4199         estimate D2E/DX2                !
 ! R36   R(21,47)                0.9765         estimate D2E/DX2                !
 ! R37   R(22,23)                1.3739         estimate D2E/DX2                !
 ! R38   R(22,48)                1.0924         estimate D2E/DX2                !
 ! R39   R(23,24)                1.4239         estimate D2E/DX2                !
 ! R40   R(23,49)                1.0942         estimate D2E/DX2                !
 ! R41   R(24,25)                1.4175         estimate D2E/DX2                !
 ! R42   R(24,36)                1.4339         estimate D2E/DX2                !
 ! R43   R(25,26)                1.3877         estimate D2E/DX2                !
 ! R44   R(25,50)                1.0937         estimate D2E/DX2                !
 ! R45   R(26,27)                1.4829         estimate D2E/DX2                !
 ! R46   R(26,34)                1.4251         estimate D2E/DX2                !
 ! R47   R(27,28)                1.4075         estimate D2E/DX2                !
 ! R48   R(27,33)                1.4076         estimate D2E/DX2                !
 ! R49   R(28,29)                1.3954         estimate D2E/DX2                !
 ! R50   R(28,51)                1.093          estimate D2E/DX2                !
 ! R51   R(29,30)                1.3927         estimate D2E/DX2                !
 ! R52   R(29,52)                1.0927         estimate D2E/DX2                !
 ! R53   R(30,31)                1.3407         estimate D2E/DX2                !
 ! R54   R(30,32)                1.393          estimate D2E/DX2                !
 ! R55   R(32,33)                1.3951         estimate D2E/DX2                !
 ! R56   R(32,53)                1.0927         estimate D2E/DX2                !
 ! R57   R(33,54)                1.093          estimate D2E/DX2                !
 ! R58   R(34,35)                1.3778         estimate D2E/DX2                !
 ! R59   R(34,55)                1.0931         estimate D2E/DX2                !
 ! R60   R(35,36)                1.423          estimate D2E/DX2                !
 ! R61   R(35,56)                1.0924         estimate D2E/DX2                !
 ! A1    A(2,1,37)             109.0131         estimate D2E/DX2                !
 ! A2    A(1,2,3)              116.6675         estimate D2E/DX2                !
 ! A3    A(1,2,18)             122.3            estimate D2E/DX2                !
 ! A4    A(3,2,18)             121.0322         estimate D2E/DX2                !
 ! A5    A(2,3,4)              120.1375         estimate D2E/DX2                !
 ! A6    A(2,3,38)             118.004          estimate D2E/DX2                !
 ! A7    A(4,3,38)             121.8577         estimate D2E/DX2                !
 ! A8    A(3,4,5)              121.192          estimate D2E/DX2                !
 ! A9    A(3,4,39)             120.023          estimate D2E/DX2                !
 ! A10   A(5,4,39)             118.7849         estimate D2E/DX2                !
 ! A11   A(4,5,6)              121.7515         estimate D2E/DX2                !
 ! A12   A(4,5,17)             118.7081         estimate D2E/DX2                !
 ! A13   A(6,5,17)             119.5405         estimate D2E/DX2                !
 ! A14   A(5,6,7)              122.0387         estimate D2E/DX2                !
 ! A15   A(5,6,40)             118.0312         estimate D2E/DX2                !
 ! A16   A(7,6,40)             119.9125         estimate D2E/DX2                !
 ! A17   A(6,7,8)              121.5026         estimate D2E/DX2                !
 ! A18   A(6,7,15)             117.8258         estimate D2E/DX2                !
 ! A19   A(8,7,15)             120.6715         estimate D2E/DX2                !
 ! A20   A(7,8,9)              121.122          estimate D2E/DX2                !
 ! A21   A(7,8,14)             120.999          estimate D2E/DX2                !
 ! A22   A(9,8,14)             117.8789         estimate D2E/DX2                !
 ! A23   A(8,9,10)             121.4128         estimate D2E/DX2                !
 ! A24   A(8,9,41)             119.5204         estimate D2E/DX2                !
 ! A25   A(10,9,41)            119.049          estimate D2E/DX2                !
 ! A26   A(9,10,11)            118.9851         estimate D2E/DX2                !
 ! A27   A(9,10,42)            121.5771         estimate D2E/DX2                !
 ! A28   A(11,10,42)           119.4335         estimate D2E/DX2                !
 ! A29   A(10,11,12)           119.3248         estimate D2E/DX2                !
 ! A30   A(10,11,13)           121.3313         estimate D2E/DX2                !
 ! A31   A(12,11,13)           119.3438         estimate D2E/DX2                !
 ! A32   A(11,13,14)           118.9839         estimate D2E/DX2                !
 ! A33   A(11,13,43)           119.448          estimate D2E/DX2                !
 ! A34   A(14,13,43)           121.5658         estimate D2E/DX2                !
 ! A35   A(8,14,13)            121.4075         estimate D2E/DX2                !
 ! A36   A(8,14,44)            119.6239         estimate D2E/DX2                !
 ! A37   A(13,14,44)           118.9512         estimate D2E/DX2                !
 ! A38   A(7,15,16)            121.6616         estimate D2E/DX2                !
 ! A39   A(7,15,45)            119.1252         estimate D2E/DX2                !
 ! A40   A(16,15,45)           119.185          estimate D2E/DX2                !
 ! A41   A(15,16,17)           121.1308         estimate D2E/DX2                !
 ! A42   A(15,16,46)           119.8628         estimate D2E/DX2                !
 ! A43   A(17,16,46)           118.9985         estimate D2E/DX2                !
 ! A44   A(5,17,16)            117.7975         estimate D2E/DX2                !
 ! A45   A(5,17,18)            119.7432         estimate D2E/DX2                !
 ! A46   A(16,17,18)           122.4591         estimate D2E/DX2                !
 ! A47   A(2,18,17)            119.1818         estimate D2E/DX2                !
 ! A48   A(2,18,19)            119.011          estimate D2E/DX2                !
 ! A49   A(17,18,19)           121.7932         estimate D2E/DX2                !
 ! A50   A(18,19,20)           118.9974         estimate D2E/DX2                !
 ! A51   A(18,19,36)           121.8131         estimate D2E/DX2                !
 ! A52   A(20,19,36)           119.1791         estimate D2E/DX2                !
 ! A53   A(19,20,21)           122.2978         estimate D2E/DX2                !
 ! A54   A(19,20,22)           121.0354         estimate D2E/DX2                !
 ! A55   A(21,20,22)           116.6667         estimate D2E/DX2                !
 ! A56   A(20,21,47)           109.0016         estimate D2E/DX2                !
 ! A57   A(20,22,23)           120.1363         estimate D2E/DX2                !
 ! A58   A(20,22,48)           118.0064         estimate D2E/DX2                !
 ! A59   A(23,22,48)           121.8565         estimate D2E/DX2                !
 ! A60   A(22,23,24)           121.1933         estimate D2E/DX2                !
 ! A61   A(22,23,49)           120.0248         estimate D2E/DX2                !
 ! A62   A(24,23,49)           118.7818         estimate D2E/DX2                !
 ! A63   A(23,24,25)           121.7477         estimate D2E/DX2                !
 ! A64   A(23,24,36)           118.7054         estimate D2E/DX2                !
 ! A65   A(25,24,36)           119.5438         estimate D2E/DX2                !
 ! A66   A(24,25,26)           122.0422         estimate D2E/DX2                !
 ! A67   A(24,25,50)           118.039          estimate D2E/DX2                !
 ! A68   A(26,25,50)           119.8982         estimate D2E/DX2                !
 ! A69   A(25,26,27)           121.4566         estimate D2E/DX2                !
 ! A70   A(25,26,34)           117.8178         estimate D2E/DX2                !
 ! A71   A(27,26,34)           120.725          estimate D2E/DX2                !
 ! A72   A(26,27,28)           121.0508         estimate D2E/DX2                !
 ! A73   A(26,27,33)           121.0746         estimate D2E/DX2                !
 ! A74   A(28,27,33)           117.8745         estimate D2E/DX2                !
 ! A75   A(27,28,29)           121.4052         estimate D2E/DX2                !
 ! A76   A(27,28,51)           119.6394         estimate D2E/DX2                !
 ! A77   A(29,28,51)           118.9374         estimate D2E/DX2                !
 ! A78   A(28,29,30)           118.9894         estimate D2E/DX2                !
 ! A79   A(28,29,52)           121.5628         estimate D2E/DX2                !
 ! A80   A(30,29,52)           119.4454         estimate D2E/DX2                !
 ! A81   A(29,30,31)           119.3431         estimate D2E/DX2                !
 ! A82   A(29,30,32)           121.3299         estimate D2E/DX2                !
 ! A83   A(31,30,32)           119.3269         estimate D2E/DX2                !
 ! A84   A(30,32,33)           118.9798         estimate D2E/DX2                !
 ! A85   A(30,32,53)           119.4372         estimate D2E/DX2                !
 ! A86   A(33,32,53)           121.5788         estimate D2E/DX2                !
 ! A87   A(27,33,32)           121.4207         estimate D2E/DX2                !
 ! A88   A(27,33,54)           119.5119         estimate D2E/DX2                !
 ! A89   A(32,33,54)           119.0502         estimate D2E/DX2                !
 ! A90   A(26,34,35)           121.6676         estimate D2E/DX2                !
 ! A91   A(26,34,55)           119.1563         estimate D2E/DX2                !
 ! A92   A(35,34,55)           119.1642         estimate D2E/DX2                !
 ! A93   A(34,35,36)           121.132          estimate D2E/DX2                !
 ! A94   A(34,35,56)           119.852          estimate D2E/DX2                !
 ! A95   A(36,35,56)           119.0158         estimate D2E/DX2                !
 ! A96   A(19,36,24)           119.7407         estimate D2E/DX2                !
 ! A97   A(19,36,35)           122.4668         estimate D2E/DX2                !
 ! A98   A(24,36,35)           117.7924         estimate D2E/DX2                !
 ! D1    D(37,1,2,3)           179.6306         estimate D2E/DX2                !
 ! D2    D(37,1,2,18)           -0.5438         estimate D2E/DX2                !
 ! D3    D(1,2,3,4)            179.7197         estimate D2E/DX2                !
 ! D4    D(1,2,3,38)             0.0436         estimate D2E/DX2                !
 ! D5    D(18,2,3,4)            -0.1083         estimate D2E/DX2                !
 ! D6    D(18,2,3,38)         -179.7843         estimate D2E/DX2                !
 ! D7    D(1,2,18,17)          179.6604         estimate D2E/DX2                !
 ! D8    D(1,2,18,19)           -1.6761         estimate D2E/DX2                !
 ! D9    D(3,2,18,17)           -0.5214         estimate D2E/DX2                !
 ! D10   D(3,2,18,19)          178.142          estimate D2E/DX2                !
 ! D11   D(2,3,4,5)              0.4259         estimate D2E/DX2                !
 ! D12   D(2,3,4,39)          -179.6078         estimate D2E/DX2                !
 ! D13   D(38,3,4,5)          -179.9108         estimate D2E/DX2                !
 ! D14   D(38,3,4,39)            0.0554         estimate D2E/DX2                !
 ! D15   D(3,4,5,6)            179.9563         estimate D2E/DX2                !
 ! D16   D(3,4,5,17)            -0.104          estimate D2E/DX2                !
 ! D17   D(39,4,5,6)            -0.0104         estimate D2E/DX2                !
 ! D18   D(39,4,5,17)          179.9293         estimate D2E/DX2                !
 ! D19   D(4,5,6,7)           -179.8624         estimate D2E/DX2                !
 ! D20   D(4,5,6,40)             1.6679         estimate D2E/DX2                !
 ! D21   D(17,5,6,7)             0.1984         estimate D2E/DX2                !
 ! D22   D(17,5,6,40)         -178.2713         estimate D2E/DX2                !
 ! D23   D(4,5,17,16)          179.3191         estimate D2E/DX2                !
 ! D24   D(4,5,17,18)           -0.5274         estimate D2E/DX2                !
 ! D25   D(6,5,17,16)           -0.7398         estimate D2E/DX2                !
 ! D26   D(6,5,17,18)          179.4136         estimate D2E/DX2                !
 ! D27   D(5,6,7,8)           -179.8364         estimate D2E/DX2                !
 ! D28   D(5,6,7,15)             0.305          estimate D2E/DX2                !
 ! D29   D(40,6,7,8)            -1.3949         estimate D2E/DX2                !
 ! D30   D(40,6,7,15)          178.7466         estimate D2E/DX2                !
 ! D31   D(6,7,8,9)            -36.0187         estimate D2E/DX2                !
 ! D32   D(6,7,8,14)           143.8534         estimate D2E/DX2                !
 ! D33   D(15,7,8,9)           143.8359         estimate D2E/DX2                !
 ! D34   D(15,7,8,14)          -36.292          estimate D2E/DX2                !
 ! D35   D(6,7,15,16)           -0.256          estimate D2E/DX2                !
 ! D36   D(6,7,15,45)          177.7995         estimate D2E/DX2                !
 ! D37   D(8,7,15,16)          179.8842         estimate D2E/DX2                !
 ! D38   D(8,7,15,45)           -2.0603         estimate D2E/DX2                !
 ! D39   D(7,8,9,10)           179.5979         estimate D2E/DX2                !
 ! D40   D(7,8,9,41)            -1.9496         estimate D2E/DX2                !
 ! D41   D(14,8,9,10)           -0.2781         estimate D2E/DX2                !
 ! D42   D(14,8,9,41)          178.1745         estimate D2E/DX2                !
 ! D43   D(7,8,14,13)         -179.6632         estimate D2E/DX2                !
 ! D44   D(7,8,14,44)           -1.1978         estimate D2E/DX2                !
 ! D45   D(9,8,14,13)            0.2129         estimate D2E/DX2                !
 ! D46   D(9,8,14,44)          178.6783         estimate D2E/DX2                !
 ! D47   D(8,9,10,11)            0.1715         estimate D2E/DX2                !
 ! D48   D(8,9,10,42)          179.4168         estimate D2E/DX2                !
 ! D49   D(41,9,10,11)        -178.2882         estimate D2E/DX2                !
 ! D50   D(41,9,10,42)           0.9572         estimate D2E/DX2                !
 ! D51   D(9,10,11,12)         179.8859         estimate D2E/DX2                !
 ! D52   D(9,10,11,13)           0.0079         estimate D2E/DX2                !
 ! D53   D(42,10,11,12)          0.6241         estimate D2E/DX2                !
 ! D54   D(42,10,11,13)       -179.2539         estimate D2E/DX2                !
 ! D55   D(10,11,13,14)         -0.071          estimate D2E/DX2                !
 ! D56   D(10,11,13,43)       -179.5285         estimate D2E/DX2                !
 ! D57   D(12,11,13,14)       -179.9489         estimate D2E/DX2                !
 ! D58   D(12,11,13,43)          0.5936         estimate D2E/DX2                !
 ! D59   D(11,13,14,8)          -0.0432         estimate D2E/DX2                !
 ! D60   D(11,13,14,44)       -178.5186         estimate D2E/DX2                !
 ! D61   D(43,13,14,8)         179.4024         estimate D2E/DX2                !
 ! D62   D(43,13,14,44)          0.9269         estimate D2E/DX2                !
 ! D63   D(7,15,16,17)          -0.3073         estimate D2E/DX2                !
 ! D64   D(7,15,16,46)         178.656          estimate D2E/DX2                !
 ! D65   D(45,15,16,17)       -178.3617         estimate D2E/DX2                !
 ! D66   D(45,15,16,46)          0.6016         estimate D2E/DX2                !
 ! D67   D(15,16,17,5)           0.7989         estimate D2E/DX2                !
 ! D68   D(15,16,17,18)       -179.359          estimate D2E/DX2                !
 ! D69   D(46,16,17,5)        -178.1732         estimate D2E/DX2                !
 ! D70   D(46,16,17,18)          1.6689         estimate D2E/DX2                !
 ! D71   D(5,17,18,2)            0.8336         estimate D2E/DX2                !
 ! D72   D(5,17,18,19)        -177.7911         estimate D2E/DX2                !
 ! D73   D(16,17,18,2)        -179.0055         estimate D2E/DX2                !
 ! D74   D(16,17,18,19)          2.3697         estimate D2E/DX2                !
 ! D75   D(2,18,19,20)        -107.2712         estimate D2E/DX2                !
 ! D76   D(2,18,19,36)          71.5413         estimate D2E/DX2                !
 ! D77   D(17,18,19,20)         71.3559         estimate D2E/DX2                !
 ! D78   D(17,18,19,36)       -109.8316         estimate D2E/DX2                !
 ! D79   D(18,19,20,21)         -1.5333         estimate D2E/DX2                !
 ! D80   D(18,19,20,22)        178.4272         estimate D2E/DX2                !
 ! D81   D(36,19,20,21)        179.6225         estimate D2E/DX2                !
 ! D82   D(36,19,20,22)         -0.417          estimate D2E/DX2                !
 ! D83   D(18,19,36,24)       -177.7138         estimate D2E/DX2                !
 ! D84   D(18,19,36,35)          2.4299         estimate D2E/DX2                !
 ! D85   D(20,19,36,24)          1.0966         estimate D2E/DX2                !
 ! D86   D(20,19,36,35)       -178.7597         estimate D2E/DX2                !
 ! D87   D(19,20,21,47)         -0.4585         estimate D2E/DX2                !
 ! D88   D(22,20,21,47)        179.5794         estimate D2E/DX2                !
 ! D89   D(19,20,22,23)         -0.2469         estimate D2E/DX2                !
 ! D90   D(19,20,22,48)       -179.9391         estimate D2E/DX2                !
 ! D91   D(21,20,22,23)        179.7158         estimate D2E/DX2                !
 ! D92   D(21,20,22,48)          0.0235         estimate D2E/DX2                !
 ! D93   D(20,22,23,24)          0.2219         estimate D2E/DX2                !
 ! D94   D(20,22,23,49)       -179.6641         estimate D2E/DX2                !
 ! D95   D(48,22,23,24)        179.902          estimate D2E/DX2                !
 ! D96   D(48,22,23,49)          0.016          estimate D2E/DX2                !
 ! D97   D(22,23,24,25)        179.8127         estimate D2E/DX2                !
 ! D98   D(22,23,24,36)          0.4597         estimate D2E/DX2                !
 ! D99   D(49,23,24,25)         -0.2999         estimate D2E/DX2                !
 ! D100  D(49,23,24,36)       -179.653          estimate D2E/DX2                !
 ! D101  D(23,24,25,26)       -179.2584         estimate D2E/DX2                !
 ! D102  D(23,24,25,50)         -0.9108         estimate D2E/DX2                !
 ! D103  D(36,24,25,26)          0.0894         estimate D2E/DX2                !
 ! D104  D(36,24,25,50)        178.4369         estimate D2E/DX2                !
 ! D105  D(23,24,36,19)         -1.1157         estimate D2E/DX2                !
 ! D106  D(23,24,36,35)        178.7473         estimate D2E/DX2                !
 ! D107  D(25,24,36,19)        179.5167         estimate D2E/DX2                !
 ! D108  D(25,24,36,35)         -0.6204         estimate D2E/DX2                !
 ! D109  D(24,25,26,27)       -179.8739         estimate D2E/DX2                !
 ! D110  D(24,25,26,34)          0.3999         estimate D2E/DX2                !
 ! D111  D(50,25,26,27)          1.8085         estimate D2E/DX2                !
 ! D112  D(50,25,26,34)       -177.9177         estimate D2E/DX2                !
 ! D113  D(25,26,27,28)       -143.6603         estimate D2E/DX2                !
 ! D114  D(25,26,27,33)         36.1791         estimate D2E/DX2                !
 ! D115  D(34,26,27,28)         36.058          estimate D2E/DX2                !
 ! D116  D(34,26,27,33)       -144.1026         estimate D2E/DX2                !
 ! D117  D(25,26,34,35)         -0.355          estimate D2E/DX2                !
 ! D118  D(25,26,34,55)       -179.0849         estimate D2E/DX2                !
 ! D119  D(27,26,34,35)        179.9167         estimate D2E/DX2                !
 ! D120  D(27,26,34,55)          1.1869         estimate D2E/DX2                !
 ! D121  D(26,27,28,29)        179.64           estimate D2E/DX2                !
 ! D122  D(26,27,28,51)          1.1982         estimate D2E/DX2                !
 ! D123  D(33,27,28,29)         -0.2044         estimate D2E/DX2                !
 ! D124  D(33,27,28,51)       -178.6462         estimate D2E/DX2                !
 ! D125  D(26,27,33,32)       -179.572          estimate D2E/DX2                !
 ! D126  D(26,27,33,54)          1.9503         estimate D2E/DX2                !
 ! D127  D(28,27,33,32)          0.2724         estimate D2E/DX2                !
 ! D128  D(28,27,33,54)       -178.2054         estimate D2E/DX2                !
 ! D129  D(27,28,29,30)          0.0407         estimate D2E/DX2                !
 ! D130  D(27,28,29,52)       -179.3948         estimate D2E/DX2                !
 ! D131  D(51,28,29,30)        178.4932         estimate D2E/DX2                !
 ! D132  D(51,28,29,52)         -0.9423         estimate D2E/DX2                !
 ! D133  D(28,29,30,31)        179.9493         estimate D2E/DX2                !
 ! D134  D(28,29,30,32)          0.0642         estimate D2E/DX2                !
 ! D135  D(52,29,30,31)         -0.603          estimate D2E/DX2                !
 ! D136  D(52,29,30,32)        179.5118         estimate D2E/DX2                !
 ! D137  D(29,30,32,33)          0.0017         estimate D2E/DX2                !
 ! D138  D(29,30,32,53)        179.2684         estimate D2E/DX2                !
 ! D139  D(31,30,32,33)       -179.8835         estimate D2E/DX2                !
 ! D140  D(31,30,32,53)         -0.6167         estimate D2E/DX2                !
 ! D141  D(30,32,33,27)         -0.1747         estimate D2E/DX2                !
 ! D142  D(30,32,33,54)        178.3099         estimate D2E/DX2                !
 ! D143  D(53,32,33,27)       -179.4251         estimate D2E/DX2                !
 ! D144  D(53,32,33,54)         -0.9405         estimate D2E/DX2                !
 ! D145  D(26,34,35,36)         -0.1894         estimate D2E/DX2                !
 ! D146  D(26,34,35,56)        179.9753         estimate D2E/DX2                !
 ! D147  D(55,34,35,36)        178.5404         estimate D2E/DX2                !
 ! D148  D(55,34,35,56)         -1.295          estimate D2E/DX2                !
 ! D149  D(34,35,36,19)       -179.468          estimate D2E/DX2                !
 ! D150  D(34,35,36,24)          0.673          estimate D2E/DX2                !
 ! D151  D(56,35,36,19)          0.3687         estimate D2E/DX2                !
 ! D152  D(56,35,36,24)       -179.4903         estimate D2E/DX2                !
 --------------------------------------------------------------------------------
 Trust Radius=3.00D-01 FncErr=1.00D-07 GrdErr=1.00D-06 EigMax=2.50D+02 EigMin=1.00D-04
 Number of steps in this run=    321 maximum allowed number of steps=    336.
 GradGradGradGradGradGradGradGradGradGradGradGradGradGradGradGradGradGrad

 Leave Link  103 at Fri Mar  1 02:18:30 2024, MaxMem= 13421772800 cpu:               0.9 elap:               0.0
 (Enter /public/software/apps/Gaussian/g16/l202.exe)
 Symmetry turned off by external request.
 Stoichiometry    C32H20F2O2
 Framework group  C1[X(C32H20F2O2)]
 Deg. of freedom   162
 Full point group                 C1      NOp   1
                          Input orientation:                          
 ---------------------------------------------------------------------
 Center     Atomic      Atomic             Coordinates (Angstroms)
 Number     Number       Type             X           Y           Z
 ---------------------------------------------------------------------
      1          8           0       -0.870378    3.192659   -1.838858
      2          6           0        0.279856    2.509827   -1.646766
      3          6           0        1.252162    2.596349   -2.677972
      4          6           0        2.449979    1.934810   -2.553965
      5          6           0        2.741341    1.146201   -1.404803
      6          6           0        3.972735    0.458047   -1.264980
      7          6           0        4.261795   -0.314359   -0.148974
      8          6           0        5.555419   -1.026401   -0.013392
      9          6           0        6.194432   -1.593553   -1.132006
     10          6           0        7.415559   -2.257539   -1.012736
     11          6           0        8.007839   -2.360846    0.243845
     12          9           0        9.180235   -2.999524    0.366653
     13          6           0        7.405482   -1.816294    1.375349
     14          6           0        6.184807   -1.154101    1.239085
     15          6           0        3.270457   -0.407263    0.870673
     16          6           0        2.062711    0.247514    0.766894
     17          6           0        1.757311    1.052703   -0.366068
     18          6           0        0.516234    1.756659   -0.497154
     19          6           0       -0.518259    1.730841    0.575457
     20          6           0       -0.279268    2.423494    1.761980
     21          8           0        0.872166    3.094183    1.987216
     22          6           0       -1.248709    2.455466    2.799004
     23          6           0       -2.447489    1.802533    2.642995
     24          6           0       -2.744452    1.080439    1.452276
     25          6           0       -3.975684    0.399415    1.280444
     26          6           0       -4.265408   -0.318661    0.128812
     27          6           0       -5.559022   -1.024110   -0.038404
     28          6           0       -5.629892   -2.262672   -0.703290
     29          6           0       -6.841962   -2.936400   -0.858312
     30          6           0       -8.002615   -2.365011   -0.342435
     31          9           0       -9.171233   -3.005744   -0.488263
     32          6           0       -7.974219   -1.139970    0.320008
     33          6           0       -6.754639   -0.478331    0.465503
     34          6           0       -3.273963   -0.363813   -0.893819
     35          6           0       -2.066287    0.285695   -0.759628
     36          6           0       -1.760121    1.035355    0.410544
     37          1           0       -1.456320    3.051399   -1.070527
     38          1           0        1.016709    3.203064   -3.555342
     39          1           0        3.200454    2.007979   -3.346847
     40          1           0        4.716928    0.569656   -2.058673
     41          1           0        5.714975   -1.536384   -2.112566
     42          1           0        7.909378   -2.706931   -1.877699
     43          1           0        7.901053   -1.908589    2.344794
     44          1           0        5.724528   -0.705711    2.123269
     45          1           0        3.461122   -1.039075    1.742134
     46          1           0        1.315129    0.138165    1.555907
     47          1           0        1.456113    2.993005    1.211061
     48          1           0       -1.010225    3.013869    3.707097
     49          1           0       -3.195418    1.832953    3.441055
     50          1           0       -4.698161    0.428435    2.101058
     51          1           0       -4.715898   -2.723524   -1.086486
     52          1           0       -6.898469   -3.902612   -1.365439
     53          1           0       -8.905275   -0.714321    0.702013
     54          1           0       -6.735150    0.496009    0.960450
     55          1           0       -3.485091   -0.910625   -1.816500
     56          1           0       -1.327307    0.230921   -1.562239
 ---------------------------------------------------------------------
 Rotational constants (GHZ):           0.1936206           0.0390351           0.0364561
 Leave Link  202 at Fri Mar  1 02:18:30 2024, MaxMem= 13421772800 cpu:               1.4 elap:               0.1
 (Enter /public/software/apps/Gaussian/g16/l301.exe)
 Standard basis: def2SVPP (5D, 7F)
 Ernie: Thresh=  0.10000D-02 Tol=  0.10000D-05 Strict=F.
   544 basis functions,   980 primitive gaussians,   580 cartesian basis functions
   123 alpha electrons      123 beta electrons
       nuclear repulsion energy      3324.6194282587 Hartrees.
 IExCor=  402 DFT=T Ex+Corr=B3LYP ExCW=0 ScaHFX=  0.200000
 ScaDFX=  0.800000  0.720000  1.000000  0.810000 ScalE2=  1.000000  1.000000
 IRadAn=      5 IRanWt=     -1 IRanGd=            0 ICorTp=0 IEmpDi=141
 NAtoms=   56 NActive=   56 NUniq=   56 SFac= 1.00D+00 NAtFMM=   60 NAOKFM=F Big=F
 Integral buffers will be    131072 words long.
 Raffenetti 2 integral format.
 Two-electron integral symmetry is turned off.
 R6Disp:  Grimme-D3(BJ) Dispersion energy=       -0.1458548038 Hartrees.
 Nuclear repulsion after empirical dispersion term =     3324.4735734548 Hartrees.
 Leave Link  301 at Fri Mar  1 02:18:30 2024, MaxMem= 13421772800 cpu:               1.6 elap:               0.1
 (Enter /public/software/apps/Gaussian/g16/l302.exe)
 NPDir=0 NMtPBC=     1 NCelOv=     1 NCel=       1 NClECP=     1 NCelD=      1
         NCelK=      1 NCelE2=     1 NClLst=     1 CellRange=     0.0.
 One-electron integrals computed using PRISM.
   1 Symmetry operations used in ECPInt.
 ECPInt:  NShTT=   32896 NPrTT=  131856 LenC2=   24707 LenP2D=   62632.
 LDataN:  DoStor=T MaxTD1= 4 Len=   56
 NBasis=   544 RedAO= T EigKep=  1.93D-04  NBF=   544
 NBsUse=   544 1.00D-06 EigRej= -1.00D+00 NBFU=   544
 Precomputing XC quadrature grid using
 IXCGrd= 4 IRadAn=           5 IRanWt=          -1 IRanGd=           0 AccXCQ= 0.00D+00.
 Generated NRdTot=       0 NPtTot=           0 NUsed=           0 NTot=          32
 NSgBfM=   542   542   542   542   542 MxSgAt=    56 MxSgA2=    56.
 Leave Link  302 at Fri Mar  1 02:18:31 2024, MaxMem= 13421772800 cpu:              16.8 elap:               0.5
 (Enter /public/software/apps/Gaussian/g16/l303.exe)
 DipDrv:  MaxL=1.
 Leave Link  303 at Fri Mar  1 02:18:31 2024, MaxMem= 13421772800 cpu:               3.1 elap:               0.1
 (Enter /public/software/apps/Gaussian/g16/l401.exe)
 ExpMin= 1.22D-01 ExpMax= 2.89D+03 ExpMxC= 4.35D+02 IAcc=3 IRadAn=         5 AccDes= 0.00D+00
 Harris functional with IExCor=  402 and IRadAn=       5 diagonalized for initial guess.
 HarFok:  IExCor=  402 AccDes= 0.00D+00 IRadAn=         5 IDoV= 1 UseB2=F ITyADJ=14
 ICtDFT=  3500011 ScaDFX=  1.000000  1.000000  1.000000  1.000000
 FoFCou: FMM=F IPFlag=           0 FMFlag=      100000 FMFlg1=           0
         NFxFlg=           0 DoJE=T BraDBF=F KetDBF=T FulRan=T
         wScrn=  0.000000 ICntrl=       500 IOpCl=  0 I1Cent=   200000004 NGrid=           0
         NMat0=    1 NMatS0=      1 NMatT0=    0 NMatD0=    1 NMtDS0=    0 NMtDT0=    0
 Symmetry not used in FoFCou.
 Harris En= -1580.47646662264    
 JPrj=0 DoOrth=F DoCkMO=F.
 Leave Link  401 at Fri Mar  1 02:18:32 2024, MaxMem= 13421772800 cpu:              38.4 elap:               1.2
 (Enter /public/software/apps/Gaussian/g16/l502.exe)
 Two-electron integral symmetry not used.
 Closed shell SCF:
 Using DIIS extrapolation, IDIIS=  1040.
 NGot= 13421772800 LenX= 13421075462 LenY= 13420738482
 Requested convergence on RMS density matrix=1.00D-08 within 128 cycles.
 Requested convergence on MAX density matrix=1.00D-06.
 Requested convergence on             energy=1.00D-06.
 No special actions if energy rises.
 Fock matrices will be formed incrementally for  20 cycles.
 Integral accuracy reduced to 1.0D-05 until final iterations.

 Cycle   1  Pass 0  IDiag  1:
 FoFJK:  IHMeth= 1 ICntrl=       0 DoSepK=F KAlg= 0 I1Cent=           0 FoldK=F
 IRaf= 650000000 NMat=       1 IRICut=       1 DoRegI=T DoRafI=F ISym2E= 0 IDoP0=0 IntGTp=1.
 FoFCou: FMM=F IPFlag=           0 FMFlag=      100000 FMFlg1=           0
         NFxFlg=           0 DoJE=F BraDBF=F KetDBF=F FulRan=T
         wScrn=  0.000000 ICntrl=         0 IOpCl=  0 I1Cent=           0 NGrid=           0
         NMat0=    1 NMatS0=      1 NMatT0=    0 NMatD0=    1 NMtDS0=    0 NMtDT0=    0
 Symmetry not used in FoFCou.
 E= -1579.96364362246    
 DIIS: error= 3.12D-02 at cycle   1 NSaved=   1.
 NSaved= 1 IEnMin= 1 EnMin= -1579.96364362246     IErMin= 1 ErrMin= 3.12D-02
 ErrMax= 3.12D-02  0.00D+00 EMaxC= 1.00D-01 BMatC= 5.36D-01 BMatP= 5.36D-01
 IDIUse=3 WtCom= 6.88D-01 WtEn= 3.12D-01
 Coeff-Com:  0.100D+01
 Coeff-En:   0.100D+01
 Coeff:      0.100D+01
 Gap=     0.166 Goal=   None    Shift=    0.000
 GapD=    0.166 DampG=1.000 DampE=0.500 DampFc=0.5000 IDamp=-1.
 Damping current iteration by 5.00D-01
 RMSDP=4.72D-03 MaxDP=1.60D-01              OVMax= 1.75D-01

 Cycle   2  Pass 0  IDiag  1:
 RMSU=  2.14D-03    CP:  9.46D-01
 E= -1580.24416582203     Delta-E=       -0.280522199575 Rises=F Damp=T
 DIIS: error= 4.64D-03 at cycle   2 NSaved=   2.
 NSaved= 2 IEnMin= 2 EnMin= -1580.24416582203     IErMin= 2 ErrMin= 4.64D-03
 ErrMax= 4.64D-03  0.00D+00 EMaxC= 1.00D-01 BMatC= 3.15D-02 BMatP= 5.36D-01
 IDIUse=3 WtCom= 9.54D-01 WtEn= 4.64D-02
 Coeff-Com:  0.224D-01 0.978D+00
 Coeff-En:   0.231D-01 0.977D+00
 Coeff:      0.224D-01 0.978D+00
 Gap=     0.164 Goal=   None    Shift=    0.000
 RMSDP=1.73D-03 MaxDP=1.01D-01 DE=-2.81D-01 OVMax= 1.55D-01

 Cycle   3  Pass 0  IDiag  1:
 RMSU=  1.56D-03    CP:  9.08D-01  1.14D+00
 E= -1580.51438714369     Delta-E=       -0.270221321659 Rises=F Damp=F
 DIIS: error= 6.46D-03 at cycle   3 NSaved=   3.
 NSaved= 3 IEnMin= 3 EnMin= -1580.51438714369     IErMin= 2 ErrMin= 4.64D-03
 ErrMax= 6.46D-03  0.00D+00 EMaxC= 1.00D-01 BMatC= 4.72D-02 BMatP= 3.15D-02
 IDIUse=3 WtCom= 1.11D-01 WtEn= 8.89D-01
 Coeff-Com: -0.361D-01 0.577D+00 0.459D+00
 Coeff-En:   0.000D+00 0.000D+00 0.100D+01
 Coeff:     -0.400D-02 0.639D-01 0.940D+00
 Gap=     0.172 Goal=   None    Shift=    0.000
 RMSDP=1.69D-03 MaxDP=8.51D-02 DE=-2.70D-01 OVMax= 1.48D-01

 Cycle   4  Pass 0  IDiag  1:
 RMSU=  1.16D-03    CP:  9.09D-01  1.37D+00  2.80D-01
 E= -1580.35162392251     Delta-E=        0.162763221187 Rises=F Damp=F
 DIIS: error= 1.32D-02 at cycle   4 NSaved=   4.
 NSaved= 4 IEnMin= 3 EnMin= -1580.51438714369     IErMin= 2 ErrMin= 4.64D-03
 ErrMax= 1.32D-02  0.00D+00 EMaxC= 1.00D-01 BMatC= 1.86D-01 BMatP= 3.15D-02
 IDIUse=2 WtCom= 0.00D+00 WtEn= 1.00D+00
 Coeff-En:   0.000D+00 0.000D+00 0.745D+00 0.255D+00
 Coeff:      0.000D+00 0.000D+00 0.745D+00 0.255D+00
 Gap=     0.157 Goal=   None    Shift=    0.000
 RMSDP=9.00D-04 MaxDP=5.36D-02 DE= 1.63D-01 OVMax= 9.21D-02

 Cycle   5  Pass 0  IDiag  1:
 RMSU=  2.10D-04    CP:  9.07D-01  1.26D+00  6.45D-01  4.72D-01
 E= -1580.55550195657     Delta-E=       -0.203878034061 Rises=F Damp=F
 DIIS: error= 3.75D-03 at cycle   5 NSaved=   5.
 NSaved= 5 IEnMin= 5 EnMin= -1580.55550195657     IErMin= 5 ErrMin= 3.75D-03
 ErrMax= 3.75D-03  0.00D+00 EMaxC= 1.00D-01 BMatC= 1.15D-02 BMatP= 3.15D-02
 IDIUse=3 WtCom= 9.62D-01 WtEn= 3.75D-02
 Coeff-Com:  0.607D-02 0.127D-01 0.387D+00 0.648D-01 0.530D+00
 Coeff-En:   0.000D+00 0.000D+00 0.240D+00 0.000D+00 0.760D+00
 Coeff:      0.584D-02 0.122D-01 0.381D+00 0.624D-01 0.539D+00
 Gap=     0.150 Goal=   None    Shift=    0.000
 RMSDP=2.77D-04 MaxDP=1.33D-02 DE=-2.04D-01 OVMax= 2.52D-02

 Cycle   6  Pass 0  IDiag  1:
 RMSU=  7.39D-05    CP:  9.06D-01  1.22D+00  7.68D-01  3.37D-01  6.84D-01
 E= -1580.56802872155     Delta-E=       -0.012526764981 Rises=F Damp=F
 DIIS: error= 4.03D-04 at cycle   6 NSaved=   6.
 NSaved= 6 IEnMin= 6 EnMin= -1580.56802872155     IErMin= 6 ErrMin= 4.03D-04
 ErrMax= 4.03D-04  0.00D+00 EMaxC= 1.00D-01 BMatC= 1.48D-04 BMatP= 1.15D-02
 IDIUse=3 WtCom= 9.96D-01 WtEn= 4.03D-03
 Coeff-Com:  0.302D-02-0.973D-02 0.117D+00-0.126D-01 0.311D+00 0.591D+00
 Coeff-En:   0.000D+00 0.000D+00 0.000D+00 0.000D+00 0.000D+00 0.100D+01
 Coeff:      0.300D-02-0.969D-02 0.117D+00-0.125D-01 0.310D+00 0.593D+00
 Gap=     0.149 Goal=   None    Shift=    0.000
 RMSDP=3.86D-05 MaxDP=1.44D-03 DE=-1.25D-02 OVMax= 4.45D-03

 Cycle   7  Pass 0  IDiag  1:
 RMSU=  2.65D-05    CP:  9.06D-01  1.22D+00  7.67D-01  3.34D-01  7.68D-01
                    CP:  7.11D-01
 E= -1580.56816584047     Delta-E=       -0.000137118924 Rises=F Damp=F
 DIIS: error= 1.81D-04 at cycle   7 NSaved=   7.
 NSaved= 7 IEnMin= 7 EnMin= -1580.56816584047     IErMin= 7 ErrMin= 1.81D-04
 ErrMax= 1.81D-04  0.00D+00 EMaxC= 1.00D-01 BMatC= 3.00D-05 BMatP= 1.48D-04
 IDIUse=3 WtCom= 9.98D-01 WtEn= 1.81D-03
 Coeff-Com:  0.126D-02-0.545D-02 0.448D-01-0.151D-01 0.161D+00 0.398D+00
 Coeff-Com:  0.416D+00
 Coeff-En:   0.000D+00 0.000D+00 0.000D+00 0.000D+00 0.000D+00 0.138D+00
 Coeff-En:   0.862D+00
 Coeff:      0.126D-02-0.544D-02 0.448D-01-0.151D-01 0.161D+00 0.397D+00
 Coeff:      0.416D+00
 Gap=     0.149 Goal=   None    Shift=    0.000
 RMSDP=1.71D-05 MaxDP=9.08D-04 DE=-1.37D-04 OVMax= 1.68D-03

 Cycle   8  Pass 0  IDiag  1:
 RMSU=  8.39D-06    CP:  9.06D-01  1.22D+00  7.69D-01  3.35D-01  7.47D-01
                    CP:  7.25D-01  4.78D-01
 E= -1580.56820222327     Delta-E=       -0.000036382798 Rises=F Damp=F
 DIIS: error= 3.26D-05 at cycle   8 NSaved=   8.
 NSaved= 8 IEnMin= 8 EnMin= -1580.56820222327     IErMin= 8 ErrMin= 3.26D-05
 ErrMax= 3.26D-05  0.00D+00 EMaxC= 1.00D-01 BMatC= 8.33D-07 BMatP= 3.00D-05
 IDIUse=1 WtCom= 1.00D+00 WtEn= 0.00D+00
 Coeff-Com:  0.443D-03-0.203D-02 0.141D-01-0.723D-02 0.595D-01 0.159D+00
 Coeff-Com:  0.210D+00 0.567D+00
 Coeff:      0.443D-03-0.203D-02 0.141D-01-0.723D-02 0.595D-01 0.159D+00
 Coeff:      0.210D+00 0.567D+00
 Gap=     0.149 Goal=   None    Shift=    0.000
 RMSDP=3.34D-06 MaxDP=1.78D-04 DE=-3.64D-05 OVMax= 2.96D-04

 Initial convergence to 1.0D-05 achieved.  Increase integral accuracy.
 Cycle   9  Pass 1  IDiag  1:
 E= -1580.56804833677     Delta-E=        0.000153886501 Rises=F Damp=F
 DIIS: error= 2.39D-04 at cycle   1 NSaved=   1.
 NSaved= 1 IEnMin= 1 EnMin= -1580.56804833677     IErMin= 1 ErrMin= 2.39D-04
 ErrMax= 2.39D-04  0.00D+00 EMaxC= 1.00D-01 BMatC= 1.96D-05 BMatP= 1.96D-05
 IDIUse=3 WtCom= 9.98D-01 WtEn= 2.39D-03
 Coeff-Com:  0.100D+01
 Coeff-En:   0.100D+01
 Coeff:      0.100D+01
 Gap=     0.149 Goal=   None    Shift=    0.000
 RMSDP=3.34D-06 MaxDP=1.78D-04 DE= 1.54D-04 OVMax= 7.76D-04

 Cycle  10  Pass 1  IDiag  1:
 RMSU=  3.15D-04    CP:  1.00D+00
 E= -1580.56806855924     Delta-E=       -0.000020222469 Rises=F Damp=F
 DIIS: error= 2.31D-05 at cycle   2 NSaved=   2.
 NSaved= 2 IEnMin= 2 EnMin= -1580.56806855924     IErMin= 2 ErrMin= 2.31D-05
 ErrMax= 2.31D-05  0.00D+00 EMaxC= 1.00D-01 BMatC= 5.06D-07 BMatP= 1.96D-05
 IDIUse=1 WtCom= 1.00D+00 WtEn= 0.00D+00
 Coeff-Com:  0.297D-01 0.970D+00
 Coeff:      0.297D-01 0.970D+00
 Gap=     0.149 Goal=   None    Shift=    0.000
 RMSDP=6.00D-06 MaxDP=1.96D-04 DE=-2.02D-05 OVMax= 4.39D-04

 Cycle  11  Pass 1  IDiag  1:
 RMSU=  4.82D-06    CP:  1.00D+00  1.01D+00
 E= -1580.56806719100     Delta-E=        0.000001368237 Rises=F Damp=F
 DIIS: error= 4.00D-05 at cycle   3 NSaved=   3.
 NSaved= 3 IEnMin= 2 EnMin= -1580.56806855924     IErMin= 2 ErrMin= 2.31D-05
 ErrMax= 4.00D-05  0.00D+00 EMaxC= 1.00D-01 BMatC= 1.73D-06 BMatP= 5.06D-07
 IDIUse=1 WtCom= 1.00D+00 WtEn= 0.00D+00
 Coeff-Com: -0.525D-02 0.653D+00 0.352D+00
 Coeff:     -0.525D-02 0.653D+00 0.352D+00
 Gap=     0.149 Goal=   None    Shift=    0.000
 RMSDP=3.27D-06 MaxDP=1.14D-04 DE= 1.37D-06 OVMax= 3.01D-04

 Cycle  12  Pass 1  IDiag  1:
 RMSU=  8.78D-07    CP:  1.00D+00  1.01D+00  3.48D-01
 E= -1580.56806908708     Delta-E=       -0.000001896078 Rises=F Damp=F
 DIIS: error= 6.19D-06 at cycle   4 NSaved=   4.
 NSaved= 4 IEnMin= 4 EnMin= -1580.56806908708     IErMin= 4 ErrMin= 6.19D-06
 ErrMax= 6.19D-06  0.00D+00 EMaxC= 1.00D-01 BMatC= 1.96D-08 BMatP= 5.06D-07
 IDIUse=1 WtCom= 1.00D+00 WtEn= 0.00D+00
 Coeff-Com: -0.378D-02 0.405D+00 0.226D+00 0.374D+00
 Coeff:     -0.378D-02 0.405D+00 0.226D+00 0.374D+00
 Gap=     0.149 Goal=   None    Shift=    0.000
 RMSDP=3.39D-07 MaxDP=1.20D-05 DE=-1.90D-06 OVMax= 3.79D-05

 Cycle  13  Pass 1  IDiag  1:
 RMSU=  2.48D-07    CP:  1.00D+00  1.01D+00  3.73D-01  7.75D-01
 E= -1580.56806910865     Delta-E=       -0.000000021570 Rises=F Damp=F
 DIIS: error= 3.84D-07 at cycle   5 NSaved=   5.
 NSaved= 5 IEnMin= 5 EnMin= -1580.56806910865     IErMin= 5 ErrMin= 3.84D-07
 ErrMax= 3.84D-07  0.00D+00 EMaxC= 1.00D-01 BMatC= 2.22D-10 BMatP= 1.96D-08
 IDIUse=1 WtCom= 1.00D+00 WtEn= 0.00D+00
 Coeff-Com: -0.164D-02 0.173D+00 0.966D-01 0.177D+00 0.555D+00
 Coeff:     -0.164D-02 0.173D+00 0.966D-01 0.177D+00 0.555D+00
 Gap=     0.149 Goal=   None    Shift=    0.000
 RMSDP=5.93D-08 MaxDP=3.76D-06 DE=-2.16D-08 OVMax= 5.02D-06

 Cycle  14  Pass 1  IDiag  1:
 RMSU=  5.48D-08    CP:  1.00D+00  1.01D+00  3.72D-01  7.86D-01  9.24D-01
 E= -1580.56806910880     Delta-E=       -0.000000000149 Rises=F Damp=F
 DIIS: error= 3.15D-07 at cycle   6 NSaved=   6.
 NSaved= 6 IEnMin= 6 EnMin= -1580.56806910880     IErMin= 6 ErrMin= 3.15D-07
 ErrMax= 3.15D-07  0.00D+00 EMaxC= 1.00D-01 BMatC= 6.76D-11 BMatP= 2.22D-10
 IDIUse=1 WtCom= 1.00D+00 WtEn= 0.00D+00
 Coeff-Com: -0.284D-03 0.285D-01 0.160D-01 0.364D-01 0.359D+00 0.560D+00
 Coeff:     -0.284D-03 0.285D-01 0.160D-01 0.364D-01 0.359D+00 0.560D+00
 Gap=     0.149 Goal=   None    Shift=    0.000
 RMSDP=2.85D-08 MaxDP=1.81D-06 DE=-1.49D-10 OVMax= 3.65D-06

 Cycle  15  Pass 1  IDiag  1:
 RMSU=  1.64D-08    CP:  1.00D+00  1.01D+00  3.72D-01  7.88D-01  9.65D-01
                    CP:  6.27D-01
 E= -1580.56806910889     Delta-E=       -0.000000000093 Rises=F Damp=F
 DIIS: error= 1.23D-07 at cycle   7 NSaved=   7.
 NSaved= 7 IEnMin= 7 EnMin= -1580.56806910889     IErMin= 7 ErrMin= 1.23D-07
 ErrMax= 1.23D-07  0.00D+00 EMaxC= 1.00D-01 BMatC= 1.04D-11 BMatP= 6.76D-11
 IDIUse=1 WtCom= 1.00D+00 WtEn= 0.00D+00
 Coeff-Com: -0.381D-04 0.307D-02 0.175D-02 0.783D-02 0.185D+00 0.369D+00
 Coeff-Com:  0.433D+00
 Coeff:     -0.381D-04 0.307D-02 0.175D-02 0.783D-02 0.185D+00 0.369D+00
 Coeff:      0.433D+00
 Gap=     0.149 Goal=   None    Shift=    0.000
 RMSDP=1.02D-08 MaxDP=3.57D-07 DE=-9.28D-11 OVMax= 1.29D-06

 Cycle  16  Pass 1  IDiag  1:
 RMSU=  6.61D-09    CP:  1.00D+00  1.01D+00  3.72D-01  7.89D-01  9.65D-01
                    CP:  7.10D-01  6.23D-01
 E= -1580.56806910890     Delta-E=       -0.000000000007 Rises=F Damp=F
 DIIS: error= 3.42D-08 at cycle   8 NSaved=   8.
 NSaved= 8 IEnMin= 8 EnMin= -1580.56806910890     IErMin= 8 ErrMin= 3.42D-08
 ErrMax= 3.42D-08  0.00D+00 EMaxC= 1.00D-01 BMatC= 1.00D-12 BMatP= 1.04D-11
 IDIUse=1 WtCom= 1.00D+00 WtEn= 0.00D+00
 Coeff-Com:  0.222D-04-0.267D-02-0.150D-02-0.123D-02 0.525D-01 0.136D+00
 Coeff-Com:  0.272D+00 0.545D+00
 Coeff:      0.222D-04-0.267D-02-0.150D-02-0.123D-02 0.525D-01 0.136D+00
 Coeff:      0.272D+00 0.545D+00
 Gap=     0.149 Goal=   None    Shift=    0.000
 RMSDP=3.60D-09 MaxDP=1.35D-07 DE=-7.28D-12 OVMax= 4.38D-07

 SCF Done:  E(RB3LYP) =  -1580.56806911     A.U. after   16 cycles
            NFock= 16  Conv=0.36D-08     -V/T= 2.0098
 KE= 1.565169672420D+03 PE=-1.032583990352D+04 EE= 3.855628588533D+03
 Leave Link  502 at Fri Mar  1 02:19:11 2024, MaxMem= 13421772800 cpu:            1249.4 elap:              39.3
 (Enter /public/software/apps/Gaussian/g16/l601.exe)
 Copying SCF densities to generalized density rwf, IOpCl= 0 IROHF=0.

 **********************************************************************

            Population analysis using the SCF Density.

 **********************************************************************

 Alpha  occ. eigenvalues --  -24.69927 -24.69925 -19.17108 -19.17099 -10.27646
 Alpha  occ. eigenvalues --  -10.27645 -10.26433 -10.26431 -10.21245 -10.21242
 Alpha  occ. eigenvalues --  -10.20763 -10.20763 -10.20667 -10.20650 -10.20643
 Alpha  occ. eigenvalues --  -10.20642 -10.20593 -10.20592 -10.20503 -10.20501
 Alpha  occ. eigenvalues --  -10.20314 -10.20313 -10.20311 -10.20310 -10.20044
 Alpha  occ. eigenvalues --  -10.20043 -10.20037 -10.20035 -10.19921 -10.19917
 Alpha  occ. eigenvalues --  -10.19816 -10.19812 -10.19808 -10.19805 -10.19592
 Alpha  occ. eigenvalues --  -10.19588  -1.20971  -1.20970  -1.06573  -1.06299
 Alpha  occ. eigenvalues --   -0.88642  -0.87964  -0.86686  -0.86351  -0.83016
 Alpha  occ. eigenvalues --   -0.82462  -0.79962  -0.77814  -0.77001  -0.75990
 Alpha  occ. eigenvalues --   -0.75762  -0.75508  -0.74196  -0.72907  -0.71655
 Alpha  occ. eigenvalues --   -0.70805  -0.66031  -0.64729  -0.63530  -0.63432
 Alpha  occ. eigenvalues --   -0.63086  -0.62394  -0.61120  -0.59989  -0.59881
 Alpha  occ. eigenvalues --   -0.58768  -0.56051  -0.55793  -0.55102  -0.54913
 Alpha  occ. eigenvalues --   -0.53309  -0.53024  -0.52232  -0.51250  -0.50069
 Alpha  occ. eigenvalues --   -0.50005  -0.48546  -0.48243  -0.47157  -0.47155
 Alpha  occ. eigenvalues --   -0.46706  -0.46650  -0.45907  -0.45644  -0.45348
 Alpha  occ. eigenvalues --   -0.44471  -0.44138  -0.43823  -0.43641  -0.43189
 Alpha  occ. eigenvalues --   -0.43121  -0.42731  -0.42563  -0.41372  -0.41267
 Alpha  occ. eigenvalues --   -0.40939  -0.40835  -0.40109  -0.39366  -0.39022
 Alpha  occ. eigenvalues --   -0.38775  -0.38363  -0.38081  -0.37115  -0.36860
 Alpha  occ. eigenvalues --   -0.36073  -0.35856  -0.35822  -0.35381  -0.34712
 Alpha  occ. eigenvalues --   -0.33524  -0.32446  -0.32238  -0.30602  -0.29499
 Alpha  occ. eigenvalues --   -0.27166  -0.27164  -0.26136  -0.25884  -0.24746
 Alpha  occ. eigenvalues --   -0.24309  -0.21887  -0.21193
 Alpha virt. eigenvalues --   -0.06264  -0.05568  -0.04065  -0.03465  -0.02483
 Alpha virt. eigenvalues --   -0.02460  -0.00063   0.00752   0.01315   0.01773
 Alpha virt. eigenvalues --    0.05913   0.06041   0.06151   0.06839   0.07213
 Alpha virt. eigenvalues --    0.07713   0.07917   0.08092   0.08499   0.08822
 Alpha virt. eigenvalues --    0.09280   0.09580   0.10779   0.11100   0.12720
 Alpha virt. eigenvalues --    0.12834   0.13577   0.13606   0.14219   0.14383
 Alpha virt. eigenvalues --    0.15291   0.15659   0.15881   0.15915   0.17142
 Alpha virt. eigenvalues --    0.17222   0.17780   0.18075   0.18819   0.22298
 Alpha virt. eigenvalues --    0.23161   0.23185   0.23893   0.23991   0.25258
 Alpha virt. eigenvalues --    0.25953   0.26126   0.26232   0.26755   0.28023
 Alpha virt. eigenvalues --    0.28859   0.29248   0.29424   0.29792   0.29897
 Alpha virt. eigenvalues --    0.30490   0.30820   0.31333   0.31570   0.31888
 Alpha virt. eigenvalues --    0.32200   0.32286   0.32893   0.34063   0.34248
 Alpha virt. eigenvalues --    0.34557   0.34849   0.35271   0.36108   0.36204
 Alpha virt. eigenvalues --    0.37378   0.37562   0.38752   0.39230   0.39912
 Alpha virt. eigenvalues --    0.40020   0.40348   0.40611   0.41128   0.41586
 Alpha virt. eigenvalues --    0.41745   0.43335   0.43880   0.44275   0.44431
 Alpha virt. eigenvalues --    0.44560   0.44786   0.45477   0.45637   0.46054
 Alpha virt. eigenvalues --    0.46599   0.46741   0.46842   0.47193   0.47442
 Alpha virt. eigenvalues --    0.47635   0.47887   0.48293   0.48355   0.48514
 Alpha virt. eigenvalues --    0.48916   0.49721   0.50959   0.51802   0.51930
 Alpha virt. eigenvalues --    0.51970   0.52232   0.52598   0.53283   0.53601
 Alpha virt. eigenvalues --    0.53697   0.54562   0.54973   0.55437   0.55608
 Alpha virt. eigenvalues --    0.56478   0.57212   0.57774   0.58209   0.58530
 Alpha virt. eigenvalues --    0.58670   0.59409   0.60419   0.60618   0.60976
 Alpha virt. eigenvalues --    0.61406   0.61840   0.62756   0.63280   0.64617
 Alpha virt. eigenvalues --    0.65027   0.65102   0.65532   0.65880   0.65995
 Alpha virt. eigenvalues --    0.66037   0.66571   0.66796   0.67048   0.67692
 Alpha virt. eigenvalues --    0.67904   0.68651   0.68687   0.69116   0.69499
 Alpha virt. eigenvalues --    0.70167   0.70478   0.70895   0.71142   0.71315
 Alpha virt. eigenvalues --    0.71401   0.71553   0.71988   0.72266   0.72686
 Alpha virt. eigenvalues --    0.73093   0.73772   0.74170   0.74693   0.75364
 Alpha virt. eigenvalues --    0.76095   0.76517   0.76794   0.77088   0.77561
 Alpha virt. eigenvalues --    0.77849   0.78374   0.79061   0.79348   0.79435
 Alpha virt. eigenvalues --    0.79675   0.79995   0.80041   0.80779   0.81448
 Alpha virt. eigenvalues --    0.82426   0.83417   0.83676   0.84118   0.84462
 Alpha virt. eigenvalues --    0.84660   0.85068   0.85975   0.88314   0.88450
 Alpha virt. eigenvalues --    0.89396   0.91158   0.92543   0.93222   0.93750
 Alpha virt. eigenvalues --    0.95057   0.96403   0.96990   0.97379   0.97797
 Alpha virt. eigenvalues --    0.98339   1.02501   1.03050   1.03766   1.04943
 Alpha virt. eigenvalues --    1.05701   1.07755   1.07902   1.08843   1.10346
 Alpha virt. eigenvalues --    1.11046   1.11501   1.12846   1.13639   1.14777
 Alpha virt. eigenvalues --    1.16037   1.18886   1.20065   1.20297   1.20348
 Alpha virt. eigenvalues --    1.20811   1.23384   1.24347   1.24897   1.25025
 Alpha virt. eigenvalues --    1.25279   1.25781   1.26140   1.26258   1.26594
 Alpha virt. eigenvalues --    1.28535   1.29382   1.30663   1.31231   1.31316
 Alpha virt. eigenvalues --    1.33727   1.35038   1.36605   1.38482   1.38786
 Alpha virt. eigenvalues --    1.40413   1.41758   1.42861   1.43105   1.43627
 Alpha virt. eigenvalues --    1.44861   1.45058   1.45570   1.45893   1.46080
 Alpha virt. eigenvalues --    1.46341   1.46363   1.46944   1.47643   1.47659
 Alpha virt. eigenvalues --    1.47871   1.48438   1.48771   1.49458   1.49712
 Alpha virt. eigenvalues --    1.50375   1.50831   1.52506   1.53350   1.53445
 Alpha virt. eigenvalues --    1.54302   1.56597   1.57667   1.59655   1.62104
 Alpha virt. eigenvalues --    1.64787   1.69502   1.69810   1.70306   1.71262
 Alpha virt. eigenvalues --    1.72179   1.72231   1.72476   1.72531   1.74225
 Alpha virt. eigenvalues --    1.74541   1.75099   1.76005   1.76351   1.76950
 Alpha virt. eigenvalues --    1.77218   1.79516   1.81179   1.81530   1.81813
 Alpha virt. eigenvalues --    1.82881   1.83842   1.84007   1.85226   1.85251
 Alpha virt. eigenvalues --    1.86704   1.87086   1.87994   1.88301   1.91777
 Alpha virt. eigenvalues --    1.91889   1.92313   1.93317   1.93796   1.94175
 Alpha virt. eigenvalues --    1.96778   1.97596   1.98386   1.98474   2.01181
 Alpha virt. eigenvalues --    2.01511   2.02022   2.03149   2.04287   2.04590
 Alpha virt. eigenvalues --    2.04876   2.05209   2.05398   2.05714   2.06793
 Alpha virt. eigenvalues --    2.07326   2.08291   2.10283   2.10427   2.10806
 Alpha virt. eigenvalues --    2.11495   2.11700   2.13923   2.15020   2.15187
 Alpha virt. eigenvalues --    2.15581   2.16845   2.17476   2.18382   2.19710
 Alpha virt. eigenvalues --    2.21462   2.22385   2.23086   2.23526   2.24878
 Alpha virt. eigenvalues --    2.25574   2.25912   2.26712   2.26917   2.28499
 Alpha virt. eigenvalues --    2.28519   2.30527   2.30887   2.32351   2.32804
 Alpha virt. eigenvalues --    2.34247   2.36486   2.37014   2.37731   2.39575
 Alpha virt. eigenvalues --    2.40013   2.42163   2.42176   2.43091   2.44320
 Alpha virt. eigenvalues --    2.45119   2.45509   2.49013   2.51031   2.52448
 Alpha virt. eigenvalues --    2.53384   2.53801   2.55126   2.55997   2.56875
 Alpha virt. eigenvalues --    2.58282   2.58792   2.59561   2.60329   2.61535
 Alpha virt. eigenvalues --    2.61564   2.62510   2.63240   2.64145   2.64937
 Alpha virt. eigenvalues --    2.65317   2.65722   2.66828   2.68233   2.68455
 Alpha virt. eigenvalues --    2.69393   2.69995   2.70395   2.70576   2.71515
 Alpha virt. eigenvalues --    2.76262   2.77655   2.79957   2.80957   2.82040
 Alpha virt. eigenvalues --    2.82672   2.87615   2.89150   2.93193   2.93351
 Alpha virt. eigenvalues --    2.95382   2.96376   3.00098   3.00266   3.07555
 Alpha virt. eigenvalues --    3.07557   3.08584   3.08781   3.10853   3.11752
 Alpha virt. eigenvalues --    3.18295   3.19154   3.28957   3.29557   3.30228
 Alpha virt. eigenvalues --    3.31146   3.31149   3.31901   3.41075   3.41224
 Alpha virt. eigenvalues --    3.51342   3.51347   3.53478   3.58072   3.84419
 Alpha virt. eigenvalues --    3.84422
          Condensed to atoms (all electrons):
 Mulliken charges:
               1
     1  O   -0.356544
     2  C    0.190017
     3  C   -0.121869
     4  C   -0.117237
     5  C    0.160239
     6  C   -0.234489
     7  C    0.162236
     8  C    0.135541
     9  C   -0.120058
    10  C   -0.148574
    11  C    0.352310
    12  F   -0.198231
    13  C   -0.148779
    14  C   -0.121474
    15  C   -0.104939
    16  C   -0.159486
    17  C    0.094893
    18  C   -0.122478
    19  C   -0.123478
    20  C    0.189631
    21  O   -0.356830
    22  C   -0.121851
    23  C   -0.117158
    24  C    0.160467
    25  C   -0.234182
    26  C    0.162218
    27  C    0.135762
    28  C   -0.121158
    29  C   -0.148767
    30  C    0.352325
    31  F   -0.198209
    32  C   -0.148563
    33  C   -0.120280
    34  C   -0.104884
    35  C   -0.159420
    36  C    0.095560
    37  H    0.344307
    38  H    0.054579
    39  H    0.051029
    40  H    0.040428
    41  H    0.059185
    42  H    0.064230
    43  H    0.064604
    44  H    0.060714
    45  H    0.051731
    46  H    0.068395
    47  H    0.344460
    48  H    0.054369
    49  H    0.051060
    50  H    0.040629
    51  H    0.060863
    52  H    0.064601
    53  H    0.064233
    54  H    0.058822
    55  H    0.051463
    56  H    0.068038
 Sum of Mulliken charges =  -0.00000
 Mulliken charges with hydrogens summed into heavy atoms:
               1
     1  O   -0.012237
     2  C    0.190017
     3  C   -0.067290
     4  C   -0.066209
     5  C    0.160239
     6  C   -0.194061
     7  C    0.162236
     8  C    0.135541
     9  C   -0.060873
    10  C   -0.084343
    11  C    0.352310
    12  F   -0.198231
    13  C   -0.084176
    14  C   -0.060760
    15  C   -0.053208
    16  C   -0.091091
    17  C    0.094893
    18  C   -0.122478
    19  C   -0.123478
    20  C    0.189631
    21  O   -0.012371
    22  C   -0.067483
    23  C   -0.066098
    24  C    0.160467
    25  C   -0.193554
    26  C    0.162218
    27  C    0.135762
    28  C   -0.060295
    29  C   -0.084166
    30  C    0.352325
    31  F   -0.198209
    32  C   -0.084330
    33  C   -0.061458
    34  C   -0.053421
    35  C   -0.091381
    36  C    0.095560
 Electronic spatial extent (au):  <R**2>=          27574.0067
 Charge=             -0.0000 electrons
 Dipole moment (field-independent basis, Debye):
    X=             -0.0108    Y=              0.6523    Z=              0.0059  Tot=              0.6524
 Quadrupole moment (field-independent basis, Debye-Ang):
   XX=           -224.1153   YY=           -211.3317   ZZ=           -193.9630
   XY=             -2.3122   XZ=            -10.2845   YZ=              3.6221
 Traceless Quadrupole moment (field-independent basis, Debye-Ang):
   XX=            -14.3120   YY=             -1.5284   ZZ=             15.8403
   XY=             -2.3122   XZ=            -10.2845   YZ=              3.6221
 Octapole moment (field-independent basis, Debye-Ang**2):
  XXX=            -33.6946  YYY=            -45.8902  ZZZ=              1.6485  XYY=            -15.9254
  XXY=            128.1076  XXZ=             24.2017  XZZ=             37.0872  YZZ=            -16.8943
  YYZ=            -15.7355  XYZ=            -26.6264
 Hexadecapole moment (field-independent basis, Debye-Ang**3):
 XXXX=         -32756.2727 YYYY=          -4514.7486 ZZZZ=          -2380.8739 XXXY=           -277.9850
 XXXZ=           -315.5047 YYYX=            150.7464 YYYZ=            -41.8017 ZZZX=            109.8616
 ZZZY=            -90.1408 XXYY=          -6095.2868 XXZZ=          -4970.3230 YYZZ=          -1130.3272
 XXYZ=            107.1163 YYXZ=             31.4017 ZZXY=            -52.7753
 N-N= 3.324473573455D+03 E-N=-1.032583991871D+04  KE= 1.565169672420D+03
 No NMR shielding tensors so no spin-rotation constants.
 Leave Link  601 at Fri Mar  1 02:19:12 2024, MaxMem= 13421772800 cpu:               8.6 elap:               0.3
 (Enter /public/software/apps/Gaussian/g16/l701.exe)
 ... and contract with generalized density number  0.
 Compute integral first derivatives.
 R6Disp: Adding Grimme-D3(BJ) dispersion energy 1st derivatives to the gradient.
   1 Symmetry operations used in ECPInt.
 ECPInt:  NShTT=   32896 NPrTT=  131856 LenC2=   24707 LenP2D=   62632.
 LDataN:  DoStor=T MaxTD1= 5 Len=  102
 Leave Link  701 at Fri Mar  1 02:19:12 2024, MaxMem= 13421772800 cpu:              10.6 elap:               0.4
 (Enter /public/software/apps/Gaussian/g16/l702.exe)
 L702 exits ... SP integral derivatives will be done elsewhere.
 Leave Link  702 at Fri Mar  1 02:19:12 2024, MaxMem= 13421772800 cpu:               0.3 elap:               0.0
 (Enter /public/software/apps/Gaussian/g16/l703.exe)
 Integral derivatives from FoFJK, PRISM(SPDF).
 Compute integral first derivatives, UseDBF=F ICtDFT=           0.
 Calling FoFJK, ICntrl=      2127 FMM=F ISym2X=0 I1Cent= 0 IOpClX= 0 NMat=1 NMatS=1 NMatT=0.
 FoFJK:  IHMeth= 1 ICntrl=    2127 DoSepK=F KAlg= 0 I1Cent=           0 FoldK=F
 IRaf=         0 NMat=       1 IRICut=       1 DoRegI=T DoRafI=F ISym2E= 0 IDoP0=0 IntGTp=1.
 FoFCou: FMM=F IPFlag=           0 FMFlag=      100000 FMFlg1=         800
         NFxFlg=           0 DoJE=F BraDBF=F KetDBF=F FulRan=T
         wScrn=  0.000000 ICntrl=      2127 IOpCl=  0 I1Cent=           0 NGrid=           0
         NMat0=    1 NMatS0=      1 NMatT0=    0 NMatD0=    1 NMtDS0=    0 NMtDT0=    0
 Symmetry not used in FoFCou.
 Leave Link  703 at Fri Mar  1 02:19:22 2024, MaxMem= 13421772800 cpu:             301.5 elap:               9.5
 (Enter /public/software/apps/Gaussian/g16/l716.exe)
 Dipole        =-4.26397814D-03 2.56622347D-01 2.33274293D-03
 -------------------------------------------------------------------
 Center     Atomic                   Forces (Hartrees/Bohr)
 Number     Number              X              Y              Z
 -------------------------------------------------------------------
      1        8           0.000005346   -0.000001235   -0.000001346
      2        6          -0.000005474    0.000002104   -0.000001473
      3        6           0.000001780    0.000000924   -0.000001593
      4        6          -0.000000736    0.000001155    0.000000168
      5        6           0.000001226   -0.000000988    0.000000957
      6        6          -0.000001838    0.000003186   -0.000001712
      7        6          -0.000000778   -0.000001055    0.000001735
      8        6           0.000002110   -0.000000248   -0.000000724
      9        6           0.000000978   -0.000000570   -0.000000062
     10        6          -0.000003893    0.000002541   -0.000001307
     11        6           0.000011367   -0.000005541    0.000001066
     12        9          -0.000006148    0.000003669   -0.000000493
     13        6          -0.000005418    0.000003054    0.000000656
     14        6           0.000001941   -0.000000439    0.000002160
     15        6           0.000000980   -0.000000446    0.000000101
     16        6          -0.000001712    0.000001200    0.000000245
     17        6           0.000003308    0.000000497   -0.000002141
     18        6          -0.000005053   -0.000001123    0.000007571
     19        6           0.000005372   -0.000000426   -0.000006909
     20        6           0.000005487    0.000002153    0.000001948
     21        8          -0.000006111   -0.000001528    0.000002422
     22        6          -0.000002651   -0.000000474    0.000001478
     23        6           0.000001487    0.000000975   -0.000000248
     24        6          -0.000000430   -0.000000977   -0.000000832
     25        6           0.000001212    0.000001461    0.000000920
     26        6           0.000000210   -0.000001137   -0.000001266
     27        6          -0.000000896    0.000000491    0.000000118
     28        6          -0.000001470   -0.000002813   -0.000001108
     29        6           0.000005633    0.000001133   -0.000001516
     30        6          -0.000011077   -0.000005775   -0.000000567
     31        9           0.000006180    0.000002991   -0.000000209
     32        6           0.000003913    0.000002117    0.000000319
     33        6          -0.000001713    0.000000542   -0.000000196
     34        6          -0.000000218    0.000000378   -0.000000215
     35        6           0.000000997    0.000000700    0.000000005
     36        6          -0.000004227   -0.000000308    0.000002108
     37        1          -0.000001584    0.000000015    0.000001883
     38        1          -0.000000279    0.000000080    0.000000637
     39        1           0.000000231   -0.000000017    0.000000124
     40        1           0.000000479   -0.000000156    0.000000672
     41        1          -0.000000529    0.000000612    0.000000259
     42        1           0.000001591   -0.000000463    0.000000512
     43        1           0.000001540   -0.000000640    0.000000128
     44        1          -0.000000939    0.000000222   -0.000000179
     45        1           0.000000320   -0.000000164    0.000000277
     46        1          -0.000000210   -0.000000528   -0.000000330
     47        1           0.000001575   -0.000000198   -0.000002079
     48        1           0.000000210   -0.000000385    0.000000188
     49        1          -0.000000659   -0.000000739    0.000000534
     50        1          -0.000000560   -0.000001084   -0.000000346
     51        1           0.000000682    0.000000497   -0.000000370
     52        1          -0.000001094   -0.000000560   -0.000000359
     53        1          -0.000001431   -0.000001112   -0.000000847
     54        1           0.000000878   -0.000000649   -0.000000506
     55        1          -0.000000058   -0.000000436   -0.000000422
     56        1           0.000000153   -0.000000481    0.000000167
 -------------------------------------------------------------------
 Cartesian Forces:  Max     0.000011367 RMS     0.000002455
 Leave Link  716 at Fri Mar  1 02:19:22 2024, MaxMem= 13421772800 cpu:               1.0 elap:               0.0
 (Enter /public/software/apps/Gaussian/g16/l103.exe)

 GradGradGradGradGradGradGradGradGradGradGradGradGradGradGradGradGradGrad
 Berny optimization.
 FormGI is forming the generalized inverse of G from B-inverse, IUseBI=4.
 GSVD:  received Info=                   1 from GESDD.
 Internal  Forces:  Max     0.000007117 RMS     0.000001031
 Search for a local minimum.
 Step number   1 out of a maximum of  321
[...]
 .00003874,0.00001446,-0.00001464,-0.00001550,0.00000428,-0.00000434,-0
 .00000297,-0.00000483,0.00000748,0.00001238,-0.00000503,-0.00000262,0.
 00000760,0.00000271,-0.00001281,0.00000383,-0.00000486,0.00000216,-0.0
 0000200,0.00000327,-0.00000616,-0.00001270,0.00000922,-0.00000343,0.00
 000318,-0.00000346,0.00000219,0.00000367,-0.00000003,0.00000531,-0.000
 02199,0.00001221,-0.00000200,0.00002665,-0.00001474,0.00000259,0.00000
 251,-0.00000365,-0.00000543,0.00000404,-0.00000098,0.00000007,-0.00000
 691,0.00000526,0.00000267,0.00000828,-0.00001459,0.00001424,-0.0000269
 6,0.00002808,-0.00003094,0.00000574,-0.00000530,0.00004115,0.00004979,
 0.00006149,0.00004719,-0.00009413,-0.00007863,-0.00007810,0.00013003,0
 .00006909,0.00001319,-0.00003634,0.00000856,0.00003773,0.00002687,0.00
 006118,0.00002736,-0.00012211,-0.00038508,-0.00023879,-0.00089121,0.00
 015550,0.00020741,0.00098341,0.00074857,-0.00050067,0.00525578,0.02269
 424,0.01181561,-0.00430521,0.00112255,0.00224566,-0.00085408,-0.000158
 86,-0.00004500,-0.00370565,-0.00148220,0.00100240,-0.00052716,-0.00167
 862,-0.00080285,0.00288837,-0.02547038,-0.01318338,-0.05731335,-0.0053
 4123,0.00123886,-0.00002314,-0.00001713,0.00023322,0.00019575,0.000082
 59,-0.00003896,0.00001119,-0.00008456,-0.00018153,-0.00001511,-0.00004
 186,0.00002417,0.00000090,0.00000142,-0.00000334,0.00000443,-0.0000007
 4,-0.00000169,0.00000353,0.00000079,-0.00000281,-0.00000212,0.00000206
 ,0.00000203,0.00000143,-0.00000065,-0.00000086,0.00000104,-0.00000041,
 0.00000108,-0.00000248,0.00000052,-0.00000294,-0.00000008,-0.00000229,
 0.00000219,-0.00000552,0.00000830,-0.00000770,-0.00002295,-0.00000260,
 0.00001357,0.00001171,0.00000072,0.00000547,-0.00000927,-0.00000818,-0
 .00001470,-0.00126340,0.00008782,-0.00092966,0.00019825,0.00124893,0.0
 0063468,0.00001578,0.00003661,-0.00010208,0.00111151,0.00090377,-0.000
 42451,0.05821377,0.00000014,-0.00000646,0.00000651,-0.00000673,0.00000
 249,-0.00000018,0.00000432,0.00000143,-0.00000181,-0.00000478,0.000002
 87,0.00000044,-0.00000199,-0.00000101,0.00000488,-0.00000177,0.0000018
 6,-0.00000020,0.00000024,-0.00000119,0.00000246,0.00000272,-0.00000193
 ,0.00000124,-0.00000064,0.00000088,-0.00000098,-0.00000080,0.00000032,
 -0.00000085,0.00000426,-0.00000263,-0.00000008,-0.00000530,0.00000312,
 -0.00000014,-0.00000043,0.00000075,0.00000129,-0.00000081,0.00000016,-
 0.00000058,0.00000225,-0.00000050,-0.00000146,-0.00000119,0.00000390,-
 0.00000445,0.00000614,-0.00000798,0.00001051,-0.00000623,-0.00000535,-
 0.00001074,-0.00000658,0.00001515,0.00005377,0.00001690,0.00000120,-0.
 00002212,0.00000481,0.00000511,0.00000817,-0.00000108,-0.00001821,-0.0
 0000683,0.00003624,0.00005002,-0.00003233,-0.00014410,0.00015242,0.000
 41526,-0.00008453,0.00027391,-0.00092489,-0.00054892,-0.00063396,0.001
 75359,-0.00293264,-0.00737515,-0.00588814,0.00222187,0.00170717,-0.002
 41120,0.00000143,0.00038841,0.00074226,-0.00263257,0.00244016,-0.00227
 571,-0.00026142,-0.00082243,-0.00030250,0.00175860,-0.00874572,-0.0071
 6912,-0.00455072,-0.27695801,-0.12098453,-0.00000879,0.00019254,-0.000
 11071,-0.00008819,0.00003822,0.00005686,-0.00004829,-0.00008101,0.0000
 0017,-0.00000278,0.00001228,-0.00000811,-0.00000088,-0.00000112,0.0000
 0108,-0.00000145,-0.00000021,0.00000029,-0.00000120,-0.00000041,0.0000
 0057,0.00000044,-0.00000075,-0.00000024,-0.00000058,0.00000008,0.00000
 019,-0.00000005,-0.00000004,-0.00000022,0.00000040,0.00000002,0.000000
 67,0.00000033,0.00000002,-0.00000078,0.00000103,-0.00000138,0.00000117
 ,0.00000158,0.00000122,0.00000032,0.00000012,-0.00000139,0.00000033,0.
 00000627,0.00001760,0.00001477,-0.00032919,0.00023239,0.00054591,-0.00
 016592,-0.00034896,-0.00034800,0.00001229,-0.00020431,0.00023603,0.000
 37656,-0.00018184,0.00214091,0.00740710,0.28990684,-0.00006262,0.00002
 305,-0.00001190,0.00005161,-0.00002972,0.00001394,-0.00000921,0.000004
 58,0.00000306,0.00000167,-0.00000244,0.00000272,-0.00000389,0.00000138
 ,0.00000103,0.00000246,0.00000022,-0.00000098,-0.00000051,0.00000109,-
 0.00000100,0.00000422,-0.00000288,0.00000030,-0.00000092,0.00000149,-0
 .00000056,-0.00000075,0.00000023,-0.00000151,0.00000479,-0.00000305,0.
 00000083,-0.00000648,0.00000386,-0.00000096,-0.00000044,0.00000154,0.0
 0000109,-0.00000130,0.00000092,0.00000038,0.00000037,-0.00000056,0.000
 00051,-0.00000487,0.00000457,-0.00000113,0.00001035,-0.00000572,0.0000
 0161,0.00000139,0.00000429,-0.00001442,-0.00006404,-0.00010224,-0.0000
 8044,-0.00002215,0.00006818,0.00014203,-0.00003274,-0.00002307,-0.0000
 2225,0.00010087,0.00004118,-0.00006122,-0.00010549,-0.00008531,-0.0000
 4951,0.00039110,0.00022545,-0.00003982,-0.00128882,0.00049191,0.000307
 58,-0.00231671,0.00046234,-0.00299560,0.00014946,-0.00985664,-0.001184
 58,0.00278582,-0.00266938,0.00390340,0.00032108,0.00073278,-0.00044756
 ,0.00021763,-0.00213689,0.00642814,-0.00009000,-0.00020459,-0.00009815
 ,0.00066454,-0.00298209,0.00231098,0.00124286,-0.12004554,-0.09924861,
 0.00089362,0.00027237,-0.00022633,-0.00021956,-0.00035402,-0.00023648,
 0.00000205,0.00018108,0.00028782,0.00003170,-0.00000377,0.00001081,0.0
 0000172,-0.00000018,-0.00000109,-0.00000094,-0.00000008,0.00000019,-0.
 00000053,-0.00000043,0.00000060,0.00000029,-0.00000087,-0.00000045,-0.
 00000052,-0.00000016,0.00000029,-0.00000071,-0.00000012,-0.00000021,0.
 00000051,-0.00000079,0.00000083,-0.00000132,0.00000099,-0.00000106,0.0
 0000179,-0.00000349,0.00000159,0.00000827,-0.00000160,-0.00000121,-0.0
 0000041,-0.00000488,0.00000043,0.00000024,-0.00001032,-0.00001426,-0.0
 0084067,-0.00027538,-0.00005493,-0.00004109,-0.00051576,-0.00015090,-0
 .00011327,0.00022873,-0.00051290,-0.00079298,0.00212731,-0.00324209,-0
 .00087505,0.13441018,0.09526969,-0.00000402,-0.00000795,0.00006938,-0.
 00000256,0.00004910,-0.00001986,0.00000664,0.00000269,0.00001762,-0.00
 001964,0.00000861,0.00001299,-0.00000768,0.00000824,0.00001307,-0.0000
 0313,0.00000706,0.00000643,-0.00000733,0.00000218,0.00000364,0.0000034
 1,-0.00000194,0.00000342,-0.00000193,0.00000259,-0.00000517,-0.0000000
 3,0.00000199,0.00000241,-0.00000573,0.00000140,-0.00000186,0.00000392,
 -0.00000113,0.00000160,0.00000148,0.00000043,0.00000071,-0.00000101,0.
 00000137,-0.00000264,0.00000767,0.00000350,-0.00000103,0.00000523,0.00
 001912,-0.00001398,0.00001737,-0.00006158,0.00002285,0.00011580,-0.000
 04309,-0.00000588,0.00057529,-0.00025518,-0.00094475,-0.00027429,0.000
 03015,-0.00032583,-0.00017782,-0.00010869,-0.00011210,-0.00026897,-0.0
 0010363,0.00017732,0.00018910,0.00043320,0.00006739,-0.00089509,-0.000
 07583,-0.00003634,-0.00225623,-0.00166876,0.00360427,0.00710607,0.0105
 0842,0.01753761,0.00095997,0.00146554,-0.00024590,-0.00022114,-0.00041
 089,0.00026342,-0.00046833,-0.00003749,-0.00016259,0.00005019,-0.00035
 079,-0.00025244,0.00014275,0.00007267,0.00004864,0.00024849,0.00023218
 ,0.00014663,-0.00045749,0.00008056,0.00007513,-0.06503305,-0.03228455,
 -0.04188553,-0.00109880,-0.01467822,-0.02403990,-0.00309929,-0.0049422
 0,0.00184783,0.00001857,0.00006355,-0.00007652,-0.00000852,-0.00001127
 ,0.00000533,-0.00000633,-0.00000342,-0.00000006,-0.00000476,-0.0000013
 6,0.,-0.00000110,-0.00000239,0.00000138,-0.00000176,-0.00000042,-0.000
 00017,-0.00000010,-0.00000062,0.00000028,-0.00000030,-0.00000078,0.000
 00102,-0.00000344,-0.00000194,-0.00000377,0.00000052,-0.00001143,0.000
 00394,0.00004416,-0.00000736,-0.00002883,0.00000592,-0.00000600,-0.000
 00194,0.00000577,-0.00004707,-0.00005317,0.00035544,0.00052653,0.00106
 691,-0.00044620,-0.00088027,0.00051224,0.00002753,-0.00001512,0.000051
 97,0.00000815,0.00000200,0.00000154,0.00005213,-0.00004375,-0.00001550
 ,0.06463016,0.00022031,-0.00001727,0.00007462,-0.00023098,0.00003602,-
 0.00006919,0.00007304,0.00001220,-0.00004525,-0.00005759,0.00004233,-0
 .00000602,0.00000216,-0.00002680,0.00003963,-0.00002452,0.00001346,-0.
 00000813,-0.00000277,-0.00001227,0.00002560,0.00000320,-0.00000339,0.0
 0000252,-0.00000169,0.00000055,-0.00000139,-0.00000096,-0.00000053,-0.
 00000098,0.00000743,-0.00000375,-0.00000028,-0.00000833,0.00000433,-0.
 00000028,-0.00000112,0.00000002,0.00000241,-0.00000063,-0.00000035,-0.
 00000062,0.00002686,-0.00000949,-0.00001051,-0.00000926,0.00001792,-0.
 00002800,0.00003259,-0.00003014,0.00007495,-0.00008013,0.00020591,-0.0
 0007066,0.00009174,-0.00012308,-0.00080077,0.00002747,-0.00040473,0.00
 044450,-0.00011186,-0.00014922,-0.00006669,0.00002290,0.00013632,-0.00
 002835,0.00022100,-0.00049266,0.00014968,0.00026829,-0.00014716,0.0005
 3091,-0.00126611,0.00343628,-0.00134764,-0.00038578,0.00288689,-0.0008
 5222,-0.00016430,-0.00229648,0.00082870,-0.00104067,-0.00042596,0.0008
 8506,0.00031060,-0.00004587,-0.00003608,-0.00018446,0.00020666,0.00013
 310,0.00005052,0.00000470,-0.00003557,-0.00010146,-0.00023940,-0.00019
 730,0.00070241,0.00015079,-0.00007055,-0.03181088,-0.11304008,-0.12400
 996,-0.00266013,-0.00356592,-0.01356752,-0.00510855,0.00528946,-0.0017
 8399,-0.00005572,0.00000454,-0.00007321,-0.00000855,-0.00001221,0.0000
 0494,-0.00000377,-0.00000067,-0.00000014,-0.00000364,-0.00000091,0.000
 00013,0.00000113,-0.00000016,-0.00000102,-0.00000035,0.00000083,0.0000
 0004,0.00000021,0.00000048,-0.00000035,0.00000118,0.00000088,0.0000010
 5,0.00000269,0.00000097,0.00000093,0.00000877,-0.00000490,0.00000820,0
 .00002170,0.00001325,-0.00002776,-0.00000549,0.00000408,-0.00001276,-0
 .00001153,0.00002670,-0.00002522,-0.00003538,0.00010706,-0.00003064,-0
 .00113585,-0.00089092,0.00040091,0.00000093,-0.00001173,0.00002487,0.0
 0002062,0.00001346,-0.00001116,0.00002375,-0.00002882,0.00002438,0.040
 33561,0.11255503,-0.00003797,-0.00002131,0.00002432,0.00002023,0.00003
 472,-0.00000253,-0.00000917,-0.00000284,0.00000531,-0.00000011,-0.0000
 0500,0.00000710,-0.00000691,0.00000992,0.00000555,0.00000347,0.0000014
 3,0.00000287,-0.00000026,0.00000156,-0.00000142,0.00001133,-0.00000763
 ,0.00000322,-0.00000260,0.00000407,-0.00000281,-0.00000288,0.00000128,
 -0.00000359,0.00001441,-0.00000916,0.00000117,-0.00001902,0.00001125,-
 0.00000161,-0.00000131,0.00000378,0.00000400,-0.00000342,0.00000170,-0
 .00000118,0.00000031,0.00000130,0.00000190,0.00000021,0.00001786,-0.00
 000753,0.00002747,-0.00004723,0.00001494,0.00006414,-0.00009059,-0.000
 00691,0.00007692,-0.00010664,-0.00014608,-0.00006049,0.00029249,-0.000
 01494,-0.00017462,-0.00008034,-0.00002975,0.00000134,-0.00005340,0.000
 03699,-0.00015109,0.00022016,-0.00008609,0.00022569,0.00063266,0.00027
 534,0.00453235,-0.00058113,-0.00089072,-0.00641144,-0.01217822,-0.0142
 4566,-0.00177000,0.00057268,-0.00010983,0.00050860,-0.00084346,0.00006
 938,-0.00004572,0.00038634,0.00030159,-0.00001835,0.00011590,-0.000011
 06,-0.00011025,0.00000243,0.00001240,-0.00019902,-0.00004549,0.0000278
 5,0.00032223,-0.00007941,0.00014622,-0.04142594,-0.12466278,-0.2547010
 2,0.00150691,-0.00077789,0.00135277,0.00121478,-0.00229230,0.00275197,
 0.00000991,0.00005227,-0.00003979,-0.00000258,0.00000022,0.00000439,-0
 .00000394,-0.00000022,0.00000137,-0.00000321,-0.00000070,0.00000235,0.
 00000102,-0.00000290,-0.00000079,-0.00000188,-0.00000011,0.00000080,-0
 .00000116,-0.00000030,-0.00000074,0.00000148,-0.00000141,0.00000256,-0
 .00000303,0.00000056,-0.00000452,0.00000335,-0.00001364,0.00000362,0.0
 0003224,-0.00000639,-0.00002135,-0.00001113,-0.00001430,-0.00000356,0.
 00002294,0.00000755,0.00003112,-0.00029291,-0.00068083,-0.00075392,-0.
 00016056,0.00089965,0.00022881,0.00003497,-0.00001595,0.00002391,-0.00
 000259,0.00001985,-0.00002528,-0.00010698,0.00008139,0.00000978,0.0434
 8226,0.13730234,0.26584654,-0.00128140,0.00037550,-0.00030926,0.000306
 86,-0.00219276,0.00030092,0.00003778,0.00012212,0.00009775,0.00001075,
 -0.00006355,0.00000738,-0.00003570,0.00009069,-0.00004318,0.00001353,-
 0.00004343,0.00002358,0.00000505,0.00001933,-0.00004231,-0.00002223,0.
 00001358,-0.00000429,0.00000612,-0.00000728,0.00000553,0.00000613,0.00
 000046,0.00000808,-0.00002866,0.00001625,-0.00000249,0.00003733,-0.000
 02091,0.00000346,0.00000365,-0.00000562,-0.00000717,0.00000798,-0.0000
 0302,-0.00000277,-0.00005207,0.00003019,0.00004160,0.00012766,0.000027
 14,0.00005985,-0.00031646,-0.00010588,-0.00016498,-0.00062371,-0.00045
 609,-0.00060120,-0.00079734,0.00026702,-0.00049087,-0.00000249,0.00029
 142,0.00017938,0.00003262,-0.00007240,0.00004905,0.00014427,0.00010114
 ,-0.00012375,0.00019752,-0.00006001,-0.00034040,0.00088170,-0.00216820
 ,-0.00059950,0.00004941,-0.00008890,-0.00077558,-0.00170985,-0.0052690
 0,-0.00081012,-0.00021077,0.00035690,0.00103916,-0.00004618,0.00011141
 ,-0.00003980,-0.00001646,-0.00002660,-0.00002037,0.00007553,0.00002694
 ,0.00001581,-0.00009374,-0.00005496,-0.00001860,-0.00004270,0.00008517
 ,-0.00000116,-0.00019394,-0.00020645,-0.00011869,-0.01389557,0.0018931
 2,0.02114590,-0.18095831,0.00355411,0.14298509,0.00808136,-0.00005884,
 -0.00496897,0.00013287,0.00023312,0.00021358,0.00002890,0.00003463,-0.
 00002483,0.00001254,0.00000745,-0.00000134,0.00000773,-0.00000046,-0.0
 0000417,-0.00000385,0.00000359,0.00000357,0.00000302,-0.00000108,-0.00
 000100,0.00000211,-0.00000092,0.00000141,-0.00000352,0.00000087,-0.000
 00416,0.00000044,-0.00000989,0.00000199,0.00001349,-0.00000838,0.00001
 839,-0.00000052,-0.00000062,-0.00001736,-0.00000277,-0.00001722,0.0000
 2238,0.00002904,-0.00013709,-0.00006841,-0.00020895,0.00033670,-0.0000
 9058,0.00005625,-0.00001649,0.00001708,-0.00001495,-0.00001115,-0.0000
 0061,-0.00002735,-0.00001671,-0.00000027,0.00001004,0.00001828,0.00002
 309,0.00019434,0.00203537,-0.00107801,0.19007343,0.00067613,-0.0000741
 9,0.00033127,-0.00165132,-0.00060445,-0.00022797,-0.00008275,-0.000090
 34,0.00013963,0.00012007,-0.00000882,0.00004642,0.00010106,0.00001944,
 -0.00020180,-0.00003738,-0.00003399,0.00005843,0.00005450,-0.00001394,
 -0.00003048,-0.00004961,0.00002980,-0.00000216,0.00001314,-0.00001614,
 0.00001403,0.00000931,0.00000054,0.00001124,-0.00003859,0.00002427,-0.
 00000377,0.00005741,-0.00003325,0.00000562,0.00000294,-0.00001254,-0.0
 0001093,0.00001895,-0.00000997,-0.00000444,-0.00006077,-0.00001987,0.0
 0005193,0.00017496,-0.00011107,0.00004222,-0.00032202,0.00032888,0.000
 09646,-0.00040156,-0.00061000,-0.00019270,0.00119535,-0.00143013,0.000
 93476,0.00030071,-0.00008279,0.00033169,-0.00023292,0.00009459,-0.0000
 1081,0.00011712,-0.00007062,0.00001168,0.00072433,0.00015541,-0.000476
 38,-0.00306889,0.00164905,-0.00365326,-0.00017771,-0.00074032,-0.00015
 014,-0.00456146,0.00422959,-0.00317748,-0.00040804,0.00035488,0.000417
 20,0.00000931,-0.00002298,0.00003236,-0.00002052,-0.00001011,-0.000020
 03,0.00000345,0.00002781,0.00000533,-0.00000250,-0.00001434,0.00000481
 ,-0.00006699,0.00000052,-0.00003266,-0.00013351,-0.00018959,0.00004304
 ,-0.01104974,0.00478802,0.01149745,0.00373257,-0.04448447,-0.01805186,
 0.01156105,0.00300381,-0.01154605,0.00004406,-0.00047834,-0.00044955,-
 0.00002307,-0.00000442,0.00000202,0.00003114,-0.00001020,-0.00000197,0
 .00000814,0.00000396,-0.00000667,-0.00000279,0.00000766,0.00000216,0.0
 0000596,-0.00000036,-0.00000178,0.00000463,-0.00000085,0.00000199,-0.0
 0000415,0.00000456,-0.00000608,0.00001030,-0.00000738,0.00001259,0.000
 00467,-0.00000677,0.00003600,0.00000880,-0.00004767,-0.00010254,-0.000
 03527,0.00002479,-0.00000880,-0.00010191,-0.00001276,-0.00028122,0.000
 33622,-0.00063991,0.00033932,-0.00005206,-0.00002295,0.00000843,-0.000
 00796,-0.00000477,0.00000069,-0.00001653,-0.00000259,-0.00001150,0.000
 00584,-0.00002179,0.00000786,0.00220643,-0.00318628,0.00194619,0.00107
 146,0.03838341,-0.00008110,0.00025430,0.00006520,0.00048331,0.00030401
 ,0.00068347,-0.00024501,-0.00002825,0.00014897,0.00018980,-0.00019559,
 -0.00000250,-0.00007194,0.00008616,-0.00017633,0.00003054,-0.00004516,
 0.00004871,0.00001259,0.00002490,-0.00008472,-0.00004000,0.00002508,-0
 .00000608,0.00001128,-0.00000925,0.00000580,0.00000722,0.00000251,0.00
 001179,-0.00004568,0.00002508,-0.00000423,0.00005820,-0.00003211,0.000
 00623,0.00000579,-0.00000730,-0.00001092,0.00001287,-0.00000504,-0.000
 00404,-0.00010445,0.00003953,0.00008101,0.00010436,-0.00006356,0.00002
 878,-0.00056620,0.00038419,0.00009659,0.00038998,0.00034480,0.00017461
 ,0.00077462,0.00153091,-0.00006919,0.00020630,0.00019890,-0.00019816,-
 0.00020441,-0.00012645,0.00017903,-0.00008608,0.00004120,0.00003917,0.
 00118784,0.00029426,-0.00055403,-0.00169956,-0.00432084,-0.00167580,-0
 .00092302,-0.00009614,-0.00001841,-0.00001894,-0.00305335,0.00250008,-
 0.00005667,-0.00005416,0.00024455,0.00002018,0.00005301,-0.00004850,0.
 00001452,-0.00001449,0.00000075,-0.00002691,-0.00003852,-0.00000345,0.
 00003840,0.00002687,-0.00000071,0.00001474,0.00005260,0.00001776,-0.00
 005811,0.00003176,-0.00005663,-0.00382995,-0.00098071,0.00622118,0.142
 53432,-0.01855920,-0.20771343,0.01819770,-0.00042899,-0.01463080,0.000
 11978,-0.00018212,-0.00030105,0.00000253,0.00001242,-0.00001990,0.0000
 2227,0.00001029,0.00000205,0.00000835,0.00000352,-0.00000632,-0.000005
 81,0.00000407,0.00000632,0.00000350,-0.00000204,-0.00000145,0.00000336
 ,-0.00000195,0.00000220,-0.00000610,0.00000018,-0.00000648,0.00000338,
 -0.00001064,0.00000234,0.00001878,-0.00003938,-0.00000611,0.00001372,-
 0.00004154,-0.00013278,-0.00002458,-0.00002895,0.00001101,-0.00004799,
 -0.00023641,-0.00028786,-0.00008248,0.00035300,-0.00019377,0.00004047,
 -0.00000606,0.00000253,0.00000137,0.00000189,0.00000141,-0.00000007,-0
 .00000383,0.00000443,-0.00000571,0.00001566,0.00000250,-0.00081348,0.0
 0226073,-0.00008744,-0.15548785,0.02223021,0.21571260\\-0.00000528,0.0
 0000119,0.00000136,0.00000540,-0.00000200,0.00000137,-0.00000180,-0.00
 000091,0.00000158,0.00000073,-0.00000115,-0.00000017,-0.00000122,0.000
 00101,-0.00000100,0.00000185,-0.00000319,0.00000170,0.00000085,0.00000
 102,-0.00000173,-0.00000212,0.00000025,0.00000070,-0.00000099,0.000000
 57,0.00000006,0.00000389,-0.00000254,0.00000130,-0.00001134,0.00000552
 ,-0.00000108,0.00000614,-0.00000366,0.00000050,0.00000543,-0.00000306,
 -0.00000065,-0.00000196,0.00000044,-0.00000217,-0.00000097,0.00000043,
 -0.00000008,0.00000173,-0.00000121,-0.00000023,-0.00000330,-0.00000048
 ,0.00000210,0.00000499,0.00000111,-0.00000754,-0.00000531,0.00000041,0
 .00000688,-0.00000542,-0.00000206,-0.00000184,0.00000604,0.00000149,-0
 .00000243,0.00000267,0.00000049,-0.00000146,-0.00000147,-0.00000097,0.
 00000025,0.00000042,0.00000100,0.00000087,-0.00000122,-0.00000146,-0.0
 0000091,-0.00000028,0.00000109,0.00000126,0.00000089,-0.00000047,-0.00
 000010,0.00000147,0.00000283,0.00000111,-0.00000564,-0.00000114,0.0000
 0152,0.00001104,0.00000578,0.00000057,-0.00000616,-0.00000298,0.000000
 21,-0.00000391,-0.00000212,-0.00000032,0.00000171,-0.00000054,0.000000
 20,0.00000021,-0.00000040,0.00000019,-0.00000101,-0.00000071,-0.000000
 02,0.00000422,0.00000032,-0.00000207,0.00000158,-0.00000002,-0.0000018
 7,0.00000029,-0.00000010,-0.00000061,-0.00000023,0.00000001,-0.0000001
 2,-0.00000048,0.00000016,-0.00000067,0.00000053,-0.00000061,-0.0000002
 5,-0.00000159,0.00000047,-0.00000051,-0.00000154,0.00000064,-0.0000001
 2,0.00000093,-0.00000022,0.00000019,-0.00000032,0.00000016,-0.00000026
 ,0.00000017,0.00000052,0.00000036,-0.00000157,0.00000019,0.00000206,-0
 .00000022,0.00000037,-0.00000022,0.00000066,0.00000073,-0.00000054,0.0
 0000056,0.00000109,0.00000035,-0.00000067,-0.00000051,0.00000036,0.000
 00110,0.00000055,0.00000035,0.00000144,0.00000111,0.00000084,-0.000000
 88,0.00000064,0.00000050,0.00000006,0.00000043,0.00000041,-0.00000012,
 0.00000048,-0.00000020\\\@
 The archive entry for this job was punched.


 It is also a good rule not to put too much confidence in
 experimental results until they have been confirmed by
 Theory.
                             -- Sir Arthur Eddington
 Job cpu time:       0 days  5 hours  6 minutes 10.6 seconds.
 Elapsed time:       0 days  0 hours  9 minutes 38.1 seconds.
 File lengths (MBytes):  RWF=   2035 Int=      0 D2E=      0 Chk=     26 Scr=      2
 Normal termination of Gaussian 16 at Fri Mar  1 02:29:02 2024.
