 Entering Gaussian System, Link 0=g16
 Initial command:
 /public/apps/g16-C01//g16/l1.exe "/public/home/ljq/tmp/Gau-61439.inp" -scrdir="/public/home/ljq/tmp/"
 Entering Link 1 = /public/apps/g16-C01//g16/l1.exe PID=     61440.
  
 Copyright (c) 1988-2019, Gaussian, Inc.  All Rights Reserved.
  
 This is part of the Gaussian(R) 16 program.  It is based on
 the Gaussian(R) 09 system (copyright 2009, Gaussian, Inc.),
 the Gaussian(R) 03 system (copyright 2003, Gaussian, Inc.),
 the Gaussian(R) 98 system (copyright 1998, Gaussian, Inc.),
 the Gaussian(R) 94 system (copyright 1995, Gaussian, Inc.),
 the Gaussian 92(TM) system (copyright 1992, Gaussian, Inc.),
 the Gaussian 90(TM) system (copyright 1990, Gaussian, Inc.),
 the Gaussian 88(TM) system (copyright 1988, Gaussian, Inc.),
 the Gaussian 86(TM) system (copyright 1986, Carnegie Mellon
 University), and the Gaussian 82(TM) system (copyright 1983,
 Carnegie Mellon University). Gaussian is a federally registered
 trademark of Gaussian, Inc.
  
 This software contains proprietary and confidential information,
 including trade secrets, belonging to Gaussian, Inc.
  
 This software is provided under written license and may be
 used, copied, transmitted, or stored only in accord with that
 written license.
  
 The following legend is applicable only to US Government
 contracts under FAR:
  
                    RESTRICTED RIGHTS LEGEND
  
 Use, reproduction and disclosure by the US Government is
 subject to restrictions as set forth in subparagraphs (a)
 and (c) of the Commercial Computer Software - Restricted
 Rights clause in FAR 52.227-19.
  
 Gaussian, Inc.
 340 Quinnipiac St., Bldg. 40, Wallingford CT 06492
  
  
 ---------------------------------------------------------------
 Warning -- This program may not be used in any manner that
 competes with the business of Gaussian, Inc. or will provide
 assistance to any competitor of Gaussian, Inc.  The licensee
 of this program is prohibited from giving any competitor of
 Gaussian, Inc. access to this program.  By using this program,
 the user acknowledges that Gaussian, Inc. is engaged in the
 business of creating and licensing software in the field of
 computational chemistry and represents and warrants to the
 licensee that it is not a competitor of Gaussian, Inc. and that
 it will not use this program in any manner prohibited above.
 ---------------------------------------------------------------
  

 Cite this work as:
 Gaussian 16, Revision C.01,
 M. J. Frisch, G. W. Trucks, H. B. Schlegel, G. E. Scuseria, 
 M. A. Robb, J. R. Cheeseman, G. Scalmani, V. Barone, 
 G. A. Petersson, H. Nakatsuji, X. Li, M. Caricato, A. V. Marenich, 
 J. Bloino, B. G. Janesko, R. Gomperts, B. Mennucci, H. P. Hratchian, 
 J. V. Ortiz, A. F. Izmaylov, J. L. Sonnenberg, D. Williams-Young, 
 F. Ding, F. Lipparini, F. Egidi, J. Goings, B. Peng, A. Petrone, 
 T. Henderson, D. Ranasinghe, V. G. Zakrzewski, J. Gao, N. Rega, 
 G. Zheng, W. Liang, M. Hada, M. Ehara, K. Toyota, R. Fukuda, 
 J. Hasegawa, M. Ishida, T. Nakajima, Y. Honda, O. Kitao, H. Nakai, 
 T. Vreven, K. Throssell, J. A. Montgomery, Jr., J. E. Peralta, 
 F. Ogliaro, M. J. Bearpark, J. J. Heyd, E. N. Brothers, K. N. Kudin, 
 V. N. Staroverov, T. A. Keith, R. Kobayashi, J. Normand, 
 K. Raghavachari, A. P. Rendell, J. C. Burant, S. S. Iyengar, 
 J. Tomasi, M. Cossi, J. M. Millam, M. Klene, C. Adamo, R. Cammi, 
 J. W. Ochterski, R. L. Martin, K. Morokuma, O. Farkas, 
 J. B. Foresman, and D. J. Fox, Gaussian, Inc., Wallingford CT, 2019.
 
 ******************************************
 Gaussian 16:  ES64L-G16RevC.01  3-Jul-2019
                25-Feb-2024 
 ******************************************
 %nproc=40
 Will use up to   40 processors via shared memory.
 %mem=56GB
 ------------------------------------------
 #p opt freq b3lyp/def2svpp em=gd3bj nosymm
 ------------------------------------------
 1/18=20,19=15,26=3,38=1/1,3;
 2/9=110,12=2,15=1,17=6,18=5,40=1/2;
 3/5=43,7=202,11=2,25=1,30=1,71=1,74=-5,124=41/1,2,3;
 4//1;
 5/5=2,38=5/2;
 6/7=2,8=2,9=2,10=2,28=1/1;
 7/30=1/1,2,3,16;
 1/18=20,19=15,26=3/3(2);
 2/9=110,15=1/2;
 99//99;
 2/9=110,15=1/2;
 3/5=43,7=202,11=2,25=1,30=1,71=1,74=-5,124=41/1,2,3;
 4/5=5,16=3,69=1/1;
 5/5=2,38=5/2;
 7/30=1/1,2,3,16;
 1/18=20,19=15,26=3/3(-5);
 2/9=110,15=1/2;
 6/7=2,8=2,9=2,10=2,19=2,28=1/1;
 99/9=1/99;
 Leave Link    1 at Sun Feb 25 02:49:05 2024, MaxMem=  7516192768 cpu:               1.8 elap:               0.1
 (Enter /public/apps/g16-C01//g16/l101.exe)
 ----------------------
 $$$$Singlemol####0????
 ----------------------
 Symbolic Z-matrix:
 Charge =  0 Multiplicity = 1
 C                     9.92187   1.21511  -0.65241 
 O                     9.13946   0.07843  -0.92326 
 C                     7.7953    0.14777  -0.71317 
 C                     7.11639   1.26464  -0.23944 
 C                     5.74421   1.2161   -0.06617 
 C                     5.02106   0.06345  -0.34377 
 C                     3.55852   0.04142  -0.17313 
 C                     2.80354   1.00047  -0.79937 
 C                     1.40135   0.99721  -0.7218 
 O                     0.74255   1.97336  -1.39881 
 C                     0.74248   0.01397  -0.00766 
 C                    -0.74257  -0.01872  -0.00762 
 C                    -1.40217  -0.99911  -0.72493 
 O                    -0.74409  -1.97393  -1.40458 
 C                    -2.80438  -1.00061  -0.8031 
 C                    -3.55852  -0.04232  -0.17472 
 C                    -5.02107  -0.06188  -0.34573 
 C                    -5.7071    1.05375  -0.82557 
 C                    -7.07119   1.01588  -1.00903 
 C                    -7.7957   -0.14048  -0.71328 
 O                    -9.13997  -0.06809  -0.92167 
 C                    -9.92431  -1.20373  -0.65207 
 C                    -7.11845  -1.25952  -0.24234 
 C                    -5.74604  -1.2138   -0.06998 
 C                    -2.91634   0.94742   0.62 
 C                    -3.63771   1.89511   1.37488 
 C                    -2.99406   2.82925   2.1383 
 C                    -1.59398   2.85164   2.1947 
 C                    -0.8635    1.93243   1.49638 
 C                    -1.49712   0.95776   0.69391 
 C                     1.49777  -0.96391   0.69107 
 C                     0.86487  -1.94218   1.48973 
 C                     1.59608  -2.86254   2.18576 
 C                     2.99619  -2.83768   2.131 
 C                     3.63915  -1.90019   1.3711 
 C                     2.91705  -0.95141   0.61828 
 C                     5.7088   -1.0501   -0.82596 
 C                     7.0727   -1.00942  -1.01029 
 H                     9.62702   2.06502  -1.27659 
 H                     9.86415   1.50173   0.40286 
 H                     10.94574   0.93217  -0.89182 
 H                     7.64145   2.17671  -0.00252 
 H                     5.22736   2.0876    0.30849 
 H                     3.27043   1.76706  -1.398 
 H                    -0.20962   1.87931  -1.25506 
 H                     0.20809  -1.88137  -1.26003 
 H                    -3.27188  -1.765    -1.40406 
 H                    -5.15829   1.95014  -1.07504 
 H                    -7.60706   1.87308  -1.38514 
 H                    -10.94789  -0.91833  -0.88985 
 H                    -9.86603  -1.49242   0.4026 
 H                    -9.6318   -2.05307  -1.27814 
 H                    -7.645    -2.17108  -0.00676 
 H                    -5.23048  -2.08694   0.30263 
 H                    -4.71652   1.86224   1.35563 
 H                    -3.56196   3.54677   2.71183 
 H                    -1.09581   3.58932   2.80627 
 H                     0.21488   1.92927   1.56441 
 H                    -0.21359  -1.94101   1.55659 
 H                     1.09844  -3.60317   2.79421 
 H                     3.56463  -3.556     2.703 
 H                     4.71792  -1.86544   1.35316 
 H                     5.16145  -1.94701  -1.07676 
 H                     7.60983  -1.86496  -1.38839 
 
 ITRead=  0  0  0  0  0  0  0  0  0  0  0  0  0  0  0  0  0  0  0  0
 ITRead=  0  0  0  0  0  0  0  0  0  0  0  0  0  0  0  0  0  0  0  0
 ITRead=  0  0  0  0  0  0  0  0  0  0  0  0  0  0  0  0  0  0  0  0
 ITRead=  0  0  0  0
 MicOpt= -1 -1 -1 -1 -1 -1 -1 -1 -1 -1 -1 -1 -1 -1 -1 -1 -1 -1 -1 -1
 MicOpt= -1 -1 -1 -1 -1 -1 -1 -1 -1 -1 -1 -1 -1 -1 -1 -1 -1 -1 -1 -1
 MicOpt= -1 -1 -1 -1 -1 -1 -1 -1 -1 -1 -1 -1 -1 -1 -1 -1 -1 -1 -1 -1
 MicOpt= -1 -1 -1 -1
 NAtoms=     64 NQM=       64 NQMF=       0 NMMI=      0 NMMIF=      0
                NMic=       0 NMicF=      0.
                    Isotopes and Nuclear Properties:
 (Nuclear quadrupole moments (NQMom) in fm**2, nuclear magnetic moments (NMagM)
  in nuclear magnetons)

  Atom         1           2           3           4           5           6           7           8           9          10
 IAtWgt=          12          16          12          12          12          12          12          12          12          16
 AtmWgt=  12.0000000  15.9949146  12.0000000  12.0000000  12.0000000  12.0000000  12.0000000  12.0000000  12.0000000  15.9949146
 NucSpn=           0           0           0           0           0           0           0           0           0           0
 AtZEff=  -0.0000000  -0.0000000  -0.0000000  -0.0000000  -0.0000000  -0.0000000  -0.0000000  -0.0000000  -0.0000000  -0.0000000
 NQMom=    0.0000000   0.0000000   0.0000000   0.0000000   0.0000000   0.0000000   0.0000000   0.0000000   0.0000000   0.0000000
 NMagM=    0.0000000   0.0000000   0.0000000   0.0000000   0.0000000   0.0000000   0.0000000   0.0000000   0.0000000   0.0000000
 AtZNuc=   6.0000000   8.0000000   6.0000000   6.0000000   6.0000000   6.0000000   6.0000000   6.0000000   6.0000000   8.0000000

  Atom        11          12          13          14          15          16          17          18          19          20
 IAtWgt=          12          12          12          16          12          12          12          12          12          12
 AtmWgt=  12.0000000  12.0000000  12.0000000  15.9949146  12.0000000  12.0000000  12.0000000  12.0000000  12.0000000  12.0000000
 NucSpn=           0           0           0           0           0           0           0           0           0           0
 AtZEff=  -0.0000000  -0.0000000  -0.0000000  -0.0000000  -0.0000000  -0.0000000  -0.0000000  -0.0000000  -0.0000000  -0.0000000
 NQMom=    0.0000000   0.0000000   0.0000000   0.0000000   0.0000000   0.0000000   0.0000000   0.0000000   0.0000000   0.0000000
 NMagM=    0.0000000   0.0000000   0.0000000   0.0000000   0.0000000   0.0000000   0.0000000   0.0000000   0.0000000   0.0000000
 AtZNuc=   6.0000000   6.0000000   6.0000000   8.0000000   6.0000000   6.0000000   6.0000000   6.0000000   6.0000000   6.0000000

  Atom        21          22          23          24          25          26          27          28          29          30
 IAtWgt=          16          12          12          12          12          12          12          12          12          12
 AtmWgt=  15.9949146  12.0000000  12.0000000  12.0000000  12.0000000  12.0000000  12.0000000  12.0000000  12.0000000  12.0000000
 NucSpn=           0           0           0           0           0           0           0           0           0           0
 AtZEff=  -0.0000000  -0.0000000  -0.0000000  -0.0000000  -0.0000000  -0.0000000  -0.0000000  -0.0000000  -0.0000000  -0.0000000
 NQMom=    0.0000000   0.0000000   0.0000000   0.0000000   0.0000000   0.0000000   0.0000000   0.0000000   0.0000000   0.0000000
 NMagM=    0.0000000   0.0000000   0.0000000   0.0000000   0.0000000   0.0000000   0.0000000   0.0000000   0.0000000   0.0000000
 AtZNuc=   8.0000000   6.0000000   6.0000000   6.0000000   6.0000000   6.0000000   6.0000000   6.0000000   6.0000000   6.0000000

  Atom        31          32          33          34          35          36          37          38          39          40
 IAtWgt=          12          12          12          12          12          12          12          12           1           1
 AtmWgt=  12.0000000  12.0000000  12.0000000  12.0000000  12.0000000  12.0000000  12.0000000  12.0000000   1.0078250   1.0078250
 NucSpn=           0           0           0           0           0           0           0           0           1           1
 AtZEff=  -0.0000000  -0.0000000  -0.0000000  -0.0000000  -0.0000000  -0.0000000  -0.0000000  -0.0000000  -0.0000000  -0.0000000
 NQMom=    0.0000000   0.0000000   0.0000000   0.0000000   0.0000000   0.0000000   0.0000000   0.0000000   0.0000000   0.0000000
 NMagM=    0.0000000   0.0000000   0.0000000   0.0000000   0.0000000   0.0000000   0.0000000   0.0000000   2.7928460   2.7928460
 AtZNuc=   6.0000000   6.0000000   6.0000000   6.0000000   6.0000000   6.0000000   6.0000000   6.0000000   1.0000000   1.0000000

  Atom        41          42          43          44          45          46          47          48          49          50
 IAtWgt=           1           1           1           1           1           1           1           1           1           1
 AtmWgt=   1.0078250   1.0078250   1.0078250   1.0078250   1.0078250   1.0078250   1.0078250   1.0078250   1.0078250   1.0078250
 NucSpn=           1           1           1           1           1           1           1           1           1           1
 AtZEff=  -0.0000000  -0.0000000  -0.0000000  -0.0000000  -0.0000000  -0.0000000  -0.0000000  -0.0000000  -0.0000000  -0.0000000
 NQMom=    0.0000000   0.0000000   0.0000000   0.0000000   0.0000000   0.0000000   0.0000000   0.0000000   0.0000000   0.0000000
 NMagM=    2.7928460   2.7928460   2.7928460   2.7928460   2.7928460   2.7928460   2.7928460   2.7928460   2.7928460   2.7928460
 AtZNuc=   1.0000000   1.0000000   1.0000000   1.0000000   1.0000000   1.0000000   1.0000000   1.0000000   1.0000000   1.0000000

  Atom        51          52          53          54          55          56          57          58          59          60
 IAtWgt=           1           1           1           1           1           1           1           1           1           1
 AtmWgt=   1.0078250   1.0078250   1.0078250   1.0078250   1.0078250   1.0078250   1.0078250   1.0078250   1.0078250   1.0078250
 NucSpn=           1           1           1           1           1           1           1           1           1           1
 AtZEff=  -0.0000000  -0.0000000  -0.0000000  -0.0000000  -0.0000000  -0.0000000  -0.0000000  -0.0000000  -0.0000000  -0.0000000
 NQMom=    0.0000000   0.0000000   0.0000000   0.0000000   0.0000000   0.0000000   0.0000000   0.0000000   0.0000000   0.0000000
 NMagM=    2.7928460   2.7928460   2.7928460   2.7928460   2.7928460   2.7928460   2.7928460   2.7928460   2.7928460   2.7928460
 AtZNuc=   1.0000000   1.0000000   1.0000000   1.0000000   1.0000000   1.0000000   1.0000000   1.0000000   1.0000000   1.0000000

  Atom        61          62          63          64
 IAtWgt=           1           1           1           1
 AtmWgt=   1.0078250   1.0078250   1.0078250   1.0078250
 NucSpn=           1           1           1           1
 AtZEff=  -0.0000000  -0.0000000  -0.0000000  -0.0000000
 NQMom=    0.0000000   0.0000000   0.0000000   0.0000000
 NMagM=    2.7928460   2.7928460   2.7928460   2.7928460
 AtZNuc=   1.0000000   1.0000000   1.0000000   1.0000000
 Leave Link  101 at Sun Feb 25 02:49:05 2024, MaxMem=  7516192768 cpu:               8.7 elap:               0.2
 (Enter /public/apps/g16-C01//g16/l103.exe)

 GradGradGradGradGradGradGradGradGradGradGradGradGradGradGradGradGradGrad
 Berny optimization.
 Initialization pass.
                           ----------------------------
                           !    Initial Parameters    !
                           ! (Angstroms and Degrees)  !
 --------------------------                            --------------------------
 ! Name  Definition              Value          Derivative Info.                !
 --------------------------------------------------------------------------------
 ! R1    R(1,2)                  1.4063         estimate D2E/DX2                !
 ! R2    R(1,39)                 1.0949         estimate D2E/DX2                !
 ! R3    R(1,40)                 1.095          estimate D2E/DX2                !
 ! R4    R(1,41)                 1.0889         estimate D2E/DX2                !
 ! R5    R(2,3)                  1.3622         estimate D2E/DX2                !
 ! R6    R(3,4)                  1.3902         estimate D2E/DX2                !
 ! R7    R(3,38)                 1.3963         estimate D2E/DX2                !
 ! R8    R(4,5)                  1.3839         estimate D2E/DX2                !
 ! R9    R(4,42)                 1.0787         estimate D2E/DX2                !
 ! R10   R(5,6)                  1.3887         estimate D2E/DX2                !
 ! R11   R(5,43)                 1.0803         estimate D2E/DX2                !
 ! R12   R(6,7)                  1.4726         estimate D2E/DX2                !
 ! R13   R(6,37)                 1.3948         estimate D2E/DX2                !
 ! R14   R(7,8)                  1.3718         estimate D2E/DX2                !
 ! R15   R(7,36)                 1.4225         estimate D2E/DX2                !
 ! R16   R(8,9)                  1.4043         estimate D2E/DX2                !
 ! R17   R(8,44)                 1.0789         estimate D2E/DX2                !
 ! R18   R(9,10)                 1.3584         estimate D2E/DX2                !
 ! R19   R(9,11)                 1.3823         estimate D2E/DX2                !
 ! R20   R(10,45)                0.9675         estimate D2E/DX2                !
 ! R21   R(11,12)                1.4854         estimate D2E/DX2                !
 ! R22   R(11,31)                1.4195         estimate D2E/DX2                !
 ! R23   R(12,13)                1.3823         estimate D2E/DX2                !
 ! R24   R(12,30)                1.4195         estimate D2E/DX2                !
 ! R25   R(13,14)                1.3584         estimate D2E/DX2                !
 ! R26   R(13,15)                1.4044         estimate D2E/DX2                !
 ! R27   R(14,46)                0.9675         estimate D2E/DX2                !
 ! R28   R(15,16)                1.3718         estimate D2E/DX2                !
 ! R29   R(15,47)                1.0789         estimate D2E/DX2                !
 ! R30   R(16,17)                1.4726         estimate D2E/DX2                !
 ! R31   R(16,25)                1.4225         estimate D2E/DX2                !
 ! R32   R(17,18)                1.3948         estimate D2E/DX2                !
 ! R33   R(17,24)                1.3887         estimate D2E/DX2                !
 ! R34   R(18,19)                1.3769         estimate D2E/DX2                !
 ! R35   R(18,48)                1.0803         estimate D2E/DX2                !
 ! R36   R(19,20)                1.3963         estimate D2E/DX2                !
 ! R37   R(19,49)                1.0786         estimate D2E/DX2                !
 ! R38   R(20,21)                1.3622         estimate D2E/DX2                !
 ! R39   R(20,23)                1.3902         estimate D2E/DX2                !
 ! R40   R(21,22)                1.4063         estimate D2E/DX2                !
 ! R41   R(22,50)                1.0889         estimate D2E/DX2                !
 ! R42   R(22,51)                1.095          estimate D2E/DX2                !
 ! R43   R(22,52)                1.0949         estimate D2E/DX2                !
 ! R44   R(23,24)                1.3839         estimate D2E/DX2                !
 ! R45   R(23,53)                1.0787         estimate D2E/DX2                !
 ! R46   R(24,54)                1.0803         estimate D2E/DX2                !
 ! R47   R(25,26)                1.4101         estimate D2E/DX2                !
 ! R48   R(25,30)                1.4212         estimate D2E/DX2                !
 ! R49   R(26,27)                1.3674         estimate D2E/DX2                !
 ! R50   R(26,55)                1.0795         estimate D2E/DX2                !
 ! R51   R(27,28)                1.4014         estimate D2E/DX2                !
 ! R52   R(27,56)                1.0799         estimate D2E/DX2                !
 ! R53   R(28,29)                1.3661         estimate D2E/DX2                !
 ! R54   R(28,57)                1.08           estimate D2E/DX2                !
 ! R55   R(29,30)                1.4126         estimate D2E/DX2                !
 ! R56   R(29,58)                1.0805         estimate D2E/DX2                !
 ! R57   R(31,32)                1.4126         estimate D2E/DX2                !
 ! R58   R(31,36)                1.4212         estimate D2E/DX2                !
 ! R59   R(32,33)                1.3661         estimate D2E/DX2                !
 ! R60   R(32,59)                1.0805         estimate D2E/DX2                !
 ! R61   R(33,34)                1.4014         estimate D2E/DX2                !
 ! R62   R(33,60)                1.08           estimate D2E/DX2                !
 ! R63   R(34,35)                1.3674         estimate D2E/DX2                !
 ! R64   R(34,61)                1.0799         estimate D2E/DX2                !
 ! R65   R(35,36)                1.4101         estimate D2E/DX2                !
 ! R66   R(35,62)                1.0795         estimate D2E/DX2                !
 ! R67   R(37,38)                1.3769         estimate D2E/DX2                !
 ! R68   R(37,63)                1.0803         estimate D2E/DX2                !
 ! R69   R(38,64)                1.0786         estimate D2E/DX2                !
 ! A1    A(2,1,39)             111.58           estimate D2E/DX2                !
 ! A2    A(2,1,40)             111.5836         estimate D2E/DX2                !
 ! A3    A(2,1,41)             105.7105         estimate D2E/DX2                !
 ! A4    A(39,1,40)            109.3901         estimate D2E/DX2                !
 ! A5    A(39,1,41)            109.2418         estimate D2E/DX2                !
 ! A6    A(40,1,41)            109.236          estimate D2E/DX2                !
 ! A7    A(1,2,3)              118.5641         estimate D2E/DX2                !
 ! A8    A(2,3,4)              125.121          estimate D2E/DX2                !
 ! A9    A(2,3,38)             115.8271         estimate D2E/DX2                !
 ! A10   A(4,3,38)             119.0517         estimate D2E/DX2                !
 ! A11   A(3,4,5)              119.9131         estimate D2E/DX2                !
 ! A12   A(3,4,42)             121.0905         estimate D2E/DX2                !
 ! A13   A(5,4,42)             118.9964         estimate D2E/DX2                !
 ! A14   A(4,5,6)              121.3581         estimate D2E/DX2                !
 ! A15   A(4,5,43)             119.3081         estimate D2E/DX2                !
 ! A16   A(6,5,43)             119.3257         estimate D2E/DX2                !
 ! A17   A(5,6,7)              120.4251         estimate D2E/DX2                !
 ! A18   A(5,6,37)             118.3578         estimate D2E/DX2                !
 ! A19   A(7,6,37)             121.1856         estimate D2E/DX2                !
 ! A20   A(6,7,8)              118.8955         estimate D2E/DX2                !
 ! A21   A(6,7,36)             121.5173         estimate D2E/DX2                !
 ! A22   A(8,7,36)             119.5866         estimate D2E/DX2                !
 ! A23   A(7,8,9)              121.5102         estimate D2E/DX2                !
 ! A24   A(7,8,44)             120.7882         estimate D2E/DX2                !
 ! A25   A(9,8,44)             117.671          estimate D2E/DX2                !
 ! A26   A(8,9,10)             117.0675         estimate D2E/DX2                !
 ! A27   A(8,9,11)             120.404          estimate D2E/DX2                !
 ! A28   A(10,9,11)            122.5106         estimate D2E/DX2                !
 ! A29   A(9,10,45)            109.4743         estimate D2E/DX2                !
 ! A30   A(9,11,12)            119.484          estimate D2E/DX2                !
 ! A31   A(9,11,31)            119.3864         estimate D2E/DX2                !
 ! A32   A(12,11,31)           121.1169         estimate D2E/DX2                !
 ! A33   A(11,12,13)           119.5154         estimate D2E/DX2                !
 ! A34   A(11,12,30)           121.0844         estimate D2E/DX2                !
 ! A35   A(13,12,30)           119.3863         estimate D2E/DX2                !
 ! A36   A(12,13,14)           122.5087         estimate D2E/DX2                !
 ! A37   A(12,13,15)           120.4029         estimate D2E/DX2                !
 ! A38   A(14,13,15)           117.0704         estimate D2E/DX2                !
 ! A39   A(13,14,46)           109.4736         estimate D2E/DX2                !
 ! A40   A(13,15,16)           121.5094         estimate D2E/DX2                !
 ! A41   A(13,15,47)           117.6719         estimate D2E/DX2                !
 ! A42   A(16,15,47)           120.7878         estimate D2E/DX2                !
 ! A43   A(15,16,17)           118.9139         estimate D2E/DX2                !
 ! A44   A(15,16,25)           119.5882         estimate D2E/DX2                !
 ! A45   A(17,16,25)           121.4975         estimate D2E/DX2                !
 ! A46   A(16,17,18)           121.185          estimate D2E/DX2                !
 ! A47   A(16,17,24)           120.4259         estimate D2E/DX2                !
 ! A48   A(18,17,24)           118.359          estimate D2E/DX2                !
 ! A49   A(17,18,19)           120.738          estimate D2E/DX2                !
 ! A50   A(17,18,48)           119.556          estimate D2E/DX2                !
 ! A51   A(19,18,48)           119.6937         estimate D2E/DX2                !
 ! A52   A(18,19,20)           120.5723         estimate D2E/DX2                !
 ! A53   A(18,19,49)           121.1176         estimate D2E/DX2                !
 ! A54   A(20,19,49)           118.3099         estimate D2E/DX2                !
 ! A55   A(19,20,21)           115.8257         estimate D2E/DX2                !
 ! A56   A(19,20,23)           119.0521         estimate D2E/DX2                !
 ! A57   A(21,20,23)           125.122          estimate D2E/DX2                !
 ! A58   A(20,21,22)           118.5649         estimate D2E/DX2                !
 ! A59   A(21,22,50)           105.71           estimate D2E/DX2                !
 ! A60   A(21,22,51)           111.5839         estimate D2E/DX2                !
 ! A61   A(21,22,52)           111.5801         estimate D2E/DX2                !
 ! A62   A(50,22,51)           109.2354         estimate D2E/DX2                !
 ! A63   A(50,22,52)           109.2428         estimate D2E/DX2                !
 ! A64   A(51,22,52)           109.3899         estimate D2E/DX2                !
 ! A65   A(20,23,24)           119.9134         estimate D2E/DX2                !
 ! A66   A(20,23,53)           121.0894         estimate D2E/DX2                !
 ! A67   A(24,23,53)           118.9971         estimate D2E/DX2                !
 ! A68   A(17,24,23)           121.3569         estimate D2E/DX2                !
 ! A69   A(17,24,54)           119.3255         estimate D2E/DX2                !
 ! A70   A(23,24,54)           119.3094         estimate D2E/DX2                !
 ! A71   A(16,25,26)           122.3941         estimate D2E/DX2                !
 ! A72   A(16,25,30)           119.0082         estimate D2E/DX2                !
 ! A73   A(26,25,30)           118.5643         estimate D2E/DX2                !
 ! A74   A(25,26,27)           121.1456         estimate D2E/DX2                !
 ! A75   A(25,26,55)           118.7676         estimate D2E/DX2                !
 ! A76   A(27,26,55)           120.0782         estimate D2E/DX2                !
 ! A77   A(26,27,28)           120.2428         estimate D2E/DX2                !
 ! A78   A(26,27,56)           120.1899         estimate D2E/DX2                !
 ! A79   A(28,27,56)           119.5627         estimate D2E/DX2                !
 ! A80   A(27,28,29)           120.1915         estimate D2E/DX2                !
 ! A81   A(27,28,57)           119.6399         estimate D2E/DX2                !
 ! A82   A(29,28,57)           120.1608         estimate D2E/DX2                !
 ! A83   A(28,29,30)           120.9856         estimate D2E/DX2                !
 ! A84   A(28,29,58)           120.2278         estimate D2E/DX2                !
 ! A85   A(30,29,58)           118.7776         estimate D2E/DX2                !
 ! A86   A(12,30,25)           120.0076         estimate D2E/DX2                !
 ! A87   A(12,30,29)           121.1286         estimate D2E/DX2                !
 ! A88   A(25,30,29)           118.8489         estimate D2E/DX2                !
 ! A89   A(11,31,32)           121.1307         estimate D2E/DX2                !
 ! A90   A(11,31,36)           120.0067         estimate D2E/DX2                !
 ! A91   A(32,31,36)           118.8476         estimate D2E/DX2                !
 ! A92   A(31,32,33)           120.9858         estimate D2E/DX2                !
 ! A93   A(31,32,59)           118.7781         estimate D2E/DX2                !
 ! A94   A(33,32,59)           120.2271         estimate D2E/DX2                !
 ! A95   A(32,33,34)           120.1919         estimate D2E/DX2                !
 ! A96   A(32,33,60)           120.1612         estimate D2E/DX2                !
 ! A97   A(34,33,60)           119.6392         estimate D2E/DX2                !
 ! A98   A(33,34,35)           120.2424         estimate D2E/DX2                !
 ! A99   A(33,34,61)           119.5621         estimate D2E/DX2                !
 ! A100  A(35,34,61)           120.191          estimate D2E/DX2                !
 ! A101  A(34,35,36)           121.1456         estimate D2E/DX2                !
 ! A102  A(34,35,62)           120.08           estimate D2E/DX2                !
 ! A103  A(36,35,62)           118.7657         estimate D2E/DX2                !
 ! A104  A(7,36,31)            119.0099         estimate D2E/DX2                !
 ! A105  A(7,36,35)            122.3923         estimate D2E/DX2                !
 ! A106  A(31,36,35)           118.5644         estimate D2E/DX2                !
 ! A107  A(6,37,38)            120.7381         estimate D2E/DX2                !
 ! A108  A(6,37,63)            119.5568         estimate D2E/DX2                !
 ! A109  A(38,37,63)           119.6927         estimate D2E/DX2                !
 ! A110  A(3,38,37)            120.5733         estimate D2E/DX2                !
 ! A111  A(3,38,64)            118.3106         estimate D2E/DX2                !
 ! A112  A(37,38,64)           121.1159         estimate D2E/DX2                !
 ! D1    D(39,1,2,3)           -61.2239         estimate D2E/DX2                !
 ! D2    D(40,1,2,3)            61.4879         estimate D2E/DX2                !
 ! D3    D(41,1,2,3)          -179.8705         estimate D2E/DX2                !
 ! D4    D(1,2,3,4)             -0.2973         estimate D2E/DX2                !
 ! D5    D(1,2,3,38)           179.524          estimate D2E/DX2                !
 ! D6    D(2,3,4,5)            179.971          estimate D2E/DX2                !
 ! D7    D(2,3,4,42)             0.0087         estimate D2E/DX2                !
 ! D8    D(38,3,4,5)             0.155          estimate D2E/DX2                !
 ! D9    D(38,3,4,42)         -179.8073         estimate D2E/DX2                !
 ! D10   D(2,3,38,37)          179.5795         estimate D2E/DX2                !
 ! D11   D(2,3,38,64)           -0.563          estimate D2E/DX2                !
 ! D12   D(4,3,38,37)           -0.5877         estimate D2E/DX2                !
 ! D13   D(4,3,38,64)          179.2698         estimate D2E/DX2                !
 ! D14   D(3,4,5,6)              0.6526         estimate D2E/DX2                !
 ! D15   D(3,4,5,43)           179.6123         estimate D2E/DX2                !
 ! D16   D(42,4,5,6)          -179.3844         estimate D2E/DX2                !
 ! D17   D(42,4,5,43)           -0.4246         estimate D2E/DX2                !
 ! D18   D(4,5,6,7)           -178.9891         estimate D2E/DX2                !
 ! D19   D(4,5,6,37)            -1.0074         estimate D2E/DX2                !
 ! D20   D(43,5,6,7)             2.0514         estimate D2E/DX2                !
 ! D21   D(43,5,6,37)         -179.967          estimate D2E/DX2                !
 ! D22   D(5,6,7,8)             53.681          estimate D2E/DX2                !
 ! D23   D(5,6,7,36)          -126.5889         estimate D2E/DX2                !
 ! D24   D(37,6,7,8)          -124.2428         estimate D2E/DX2                !
 ! D25   D(37,6,7,36)           55.4873         estimate D2E/DX2                !
 ! D26   D(5,6,37,38)            0.5666         estimate D2E/DX2                !
 ! D27   D(5,6,37,63)         -178.1467         estimate D2E/DX2                !
 ! D28   D(7,6,37,38)          178.5322         estimate D2E/DX2                !
 ! D29   D(7,6,37,63)           -0.1811         estimate D2E/DX2                !
 ! D30   D(6,7,8,9)            177.2005         estimate D2E/DX2                !
 ! D31   D(6,7,8,44)            -0.7412         estimate D2E/DX2                !
 ! D32   D(36,7,8,9)            -2.5349         estimate D2E/DX2                !
 ! D33   D(36,7,8,44)          179.5234         estimate D2E/DX2                !
 ! D34   D(6,7,36,31)         -176.7942         estimate D2E/DX2                !
 ! D35   D(6,7,36,35)            5.3399         estimate D2E/DX2                !
 ! D36   D(8,7,36,31)            2.9341         estimate D2E/DX2                !
 ! D37   D(8,7,36,35)         -174.9318         estimate D2E/DX2                !
 ! D38   D(7,8,9,10)          -178.6894         estimate D2E/DX2                !
 ! D39   D(7,8,9,11)            -0.1909         estimate D2E/DX2                !
 ! D40   D(44,8,9,10)           -0.686          estimate D2E/DX2                !
 ! D41   D(44,8,9,11)          177.8126         estimate D2E/DX2                !
 ! D42   D(8,9,10,45)         -178.7803         estimate D2E/DX2                !
 ! D43   D(11,9,10,45)           2.7553         estimate D2E/DX2                !
 ! D44   D(8,9,11,12)         -176.2702         estimate D2E/DX2                !
 ! D45   D(8,9,11,31)            2.4478         estimate D2E/DX2                !
 ! D46   D(10,9,11,12)           2.1443         estimate D2E/DX2                !
 ! D47   D(10,9,11,31)        -179.1377         estimate D2E/DX2                !
 ! D48   D(9,11,12,13)         106.9902         estimate D2E/DX2                !
 ! D49   D(9,11,12,30)         -71.6472         estimate D2E/DX2                !
 ! D50   D(31,11,12,13)        -71.705          estimate D2E/DX2                !
 ! D51   D(31,11,12,30)        109.6575         estimate D2E/DX2                !
 ! D52   D(9,11,31,32)         176.6037         estimate D2E/DX2                !
 ! D53   D(9,11,31,36)          -1.9713         estimate D2E/DX2                !
 ! D54   D(12,11,31,32)         -4.6998         estimate D2E/DX2                !
 ! D55   D(12,11,31,36)        176.7252         estimate D2E/DX2                !
 ! D56   D(11,12,13,14)          2.2117         estimate D2E/DX2                !
 ! D57   D(11,12,13,15)       -176.1993         estimate D2E/DX2                !
 ! D58   D(30,12,13,14)       -179.1275         estimate D2E/DX2                !
 ! D59   D(30,12,13,15)          2.4614         estimate D2E/DX2                !
 ! D60   D(11,12,30,25)        176.625          estimate D2E/DX2                !
 ! D61   D(11,12,30,29)         -4.7977         estimate D2E/DX2                !
 ! D62   D(13,12,30,25)         -2.0142         estimate D2E/DX2                !
 ! D63   D(13,12,30,29)        176.5632         estimate D2E/DX2                !
 ! D64   D(12,13,14,46)          2.7654         estimate D2E/DX2                !
 ! D65   D(15,13,14,46)       -178.7736         estimate D2E/DX2                !
 ! D66   D(12,13,15,16)         -0.1688         estimate D2E/DX2                !
 ! D67   D(12,13,15,47)        177.8214         estimate D2E/DX2                !
 ! D68   D(14,13,15,16)       -178.664          estimate D2E/DX2                !
 ! D69   D(14,13,15,47)         -0.6738         estimate D2E/DX2                !
 ! D70   D(13,15,16,17)        177.2005         estimate D2E/DX2                !
 ! D71   D(13,15,16,25)         -2.5626         estimate D2E/DX2                !
 ! D72   D(47,15,16,17)         -0.7276         estimate D2E/DX2                !
 ! D73   D(47,15,16,25)        179.5094         estimate D2E/DX2                !
 ! D74   D(15,16,17,18)       -124.2238         estimate D2E/DX2                !
 ! D75   D(15,16,17,24)         53.7473         estimate D2E/DX2                !
 ! D76   D(25,16,17,18)         55.5345         estimate D2E/DX2                !
 ! D77   D(25,16,17,24)       -126.4944         estimate D2E/DX2                !
 ! D78   D(15,16,25,26)       -174.9365         estimate D2E/DX2                !
 ! D79   D(15,16,25,30)          2.9321         estimate D2E/DX2                !
 ! D80   D(17,16,25,26)          5.3067         estimate D2E/DX2                !
 ! D81   D(17,16,25,30)       -176.8247         estimate D2E/DX2                !
 ! D82   D(16,17,18,19)        178.5979         estimate D2E/DX2                !
 ! D83   D(16,17,18,48)         -0.1264         estimate D2E/DX2                !
 ! D84   D(24,17,18,19)          0.5859         estimate D2E/DX2                !
 ! D85   D(24,17,18,48)       -178.1384         estimate D2E/DX2                !
 ! D86   D(16,17,24,23)       -179.0575         estimate D2E/DX2                !
 ! D87   D(16,17,24,54)          1.9922         estimate D2E/DX2                !
 ! D88   D(18,17,24,23)         -1.0299         estimate D2E/DX2                !
 ! D89   D(18,17,24,54)       -179.9802         estimate D2E/DX2                !
 ! D90   D(17,18,19,20)          0.2272         estimate D2E/DX2                !
 ! D91   D(17,18,19,49)       -179.641          estimate D2E/DX2                !
 ! D92   D(48,18,19,20)        178.9498         estimate D2E/DX2                !
 ! D93   D(48,18,19,49)         -0.9184         estimate D2E/DX2                !
 ! D94   D(18,19,20,21)        179.5462         estimate D2E/DX2                !
 ! D95   D(18,19,20,23)         -0.6129         estimate D2E/DX2                !
 ! D96   D(49,19,20,21)         -0.5819         estimate D2E/DX2                !
 ! D97   D(49,19,20,23)        179.2589         estimate D2E/DX2                !
 ! D98   D(19,20,21,22)        179.5252         estimate D2E/DX2                !
 ! D99   D(23,20,21,22)         -0.3047         estimate D2E/DX2                !
 ! D100  D(19,20,23,24)          0.1772         estimate D2E/DX2                !
 ! D101  D(19,20,23,53)       -179.794          estimate D2E/DX2                !
 ! D102  D(21,20,23,24)       -179.998          estimate D2E/DX2                !
 ! D103  D(21,20,23,53)          0.0309         estimate D2E/DX2                !
 ! D104  D(20,21,22,50)       -179.8651         estimate D2E/DX2                !
 ! D105  D(20,21,22,51)         61.4942         estimate D2E/DX2                !
 ! D106  D(20,21,22,52)        -61.2175         estimate D2E/DX2                !
 ! D107  D(20,23,24,17)          0.6543         estimate D2E/DX2                !
 ! D108  D(20,23,24,54)        179.6048         estimate D2E/DX2                !
 ! D109  D(53,23,24,17)       -179.3739         estimate D2E/DX2                !
 ! D110  D(53,23,24,54)         -0.4235         estimate D2E/DX2                !
 ! D111  D(16,25,26,27)        179.4963         estimate D2E/DX2                !
 ! D112  D(16,25,26,55)          0.5651         estimate D2E/DX2                !
 ! D113  D(30,25,26,27)          1.6187         estimate D2E/DX2                !
 ! D114  D(30,25,26,55)       -177.3125         estimate D2E/DX2                !
 ! D115  D(16,25,30,12)         -0.6654         estimate D2E/DX2                !
 ! D116  D(16,25,30,29)       -179.275          estimate D2E/DX2                !
 ! D117  D(26,25,30,12)        177.2855         estimate D2E/DX2                !
 ! D118  D(26,25,30,29)         -1.3242         estimate D2E/DX2                !
 ! D119  D(25,26,27,28)         -0.6759         estimate D2E/DX2                !
 ! D120  D(25,26,27,56)       -179.8902         estimate D2E/DX2                !
 ! D121  D(55,26,27,28)        178.2414         estimate D2E/DX2                !
 ! D122  D(55,26,27,56)         -0.9729         estimate D2E/DX2                !
 ! D123  D(26,27,28,29)         -0.5822         estimate D2E/DX2                !
 ! D124  D(26,27,28,57)       -179.5716         estimate D2E/DX2                !
 ! D125  D(56,27,28,29)        178.637          estimate D2E/DX2                !
 ! D126  D(56,27,28,57)         -0.3524         estimate D2E/DX2                !
 ! D127  D(27,28,29,30)          0.8529         estimate D2E/DX2                !
 ! D128  D(27,28,29,58)       -178.0402         estimate D2E/DX2                !
 ! D129  D(57,28,29,30)        179.837          estimate D2E/DX2                !
 ! D130  D(57,28,29,58)          0.9439         estimate D2E/DX2                !
 ! D131  D(28,29,30,12)       -178.4783         estimate D2E/DX2                !
 ! D132  D(28,29,30,25)          0.1151         estimate D2E/DX2                !
 ! D133  D(58,29,30,12)          0.4305         estimate D2E/DX2                !
 ! D134  D(58,29,30,25)        179.0239         estimate D2E/DX2                !
 ! D135  D(11,31,32,33)       -178.4572         estimate D2E/DX2                !
 ! D136  D(11,31,32,59)          0.4609         estimate D2E/DX2                !
 ! D137  D(36,31,32,33)          0.134          estimate D2E/DX2                !
 ! D138  D(36,31,32,59)        179.052          estimate D2E/DX2                !
 ! D139  D(11,31,36,7)          -0.7025         estimate D2E/DX2                !
 ! D140  D(11,31,36,35)        177.2457         estimate D2E/DX2                !
 ! D141  D(32,31,36,7)        -179.3099         estimate D2E/DX2                !
 ! D142  D(32,31,36,35)         -1.3616         estimate D2E/DX2                !
 ! D143  D(31,32,33,34)          0.864          estimate D2E/DX2                !
 ! D144  D(31,32,33,60)        179.8539         estimate D2E/DX2                !
 ! D145  D(59,32,33,34)       -178.0385         estimate D2E/DX2                !
 ! D146  D(59,32,33,60)          0.9515         estimate D2E/DX2                !
 ! D147  D(32,33,34,35)         -0.6043         estimate D2E/DX2                !
 ! D148  D(32,33,34,61)        178.6174         estimate D2E/DX2                !
 ! D149  D(60,33,34,35)       -179.5995         estimate D2E/DX2                !
 ! D150  D(60,33,34,61)         -0.3779         estimate D2E/DX2                !
 ! D151  D(33,34,35,36)         -0.6735         estimate D2E/DX2                !
 ! D152  D(33,34,35,62)        178.2401         estimate D2E/DX2                !
 ! D153  D(61,34,35,36)       -179.8902         estimate D2E/DX2                !
 ! D154  D(61,34,35,62)         -0.9767         estimate D2E/DX2                !
 ! D155  D(34,35,36,7)         179.521          estimate D2E/DX2                !
 ! D156  D(34,35,36,31)          1.646          estimate D2E/DX2                !
 ! D157  D(62,35,36,7)           0.5935         estimate D2E/DX2                !
 ! D158  D(62,35,36,31)       -177.2815         estimate D2E/DX2                !
 ! D159  D(6,37,38,3)            0.2229         estimate D2E/DX2                !
 ! D160  D(6,37,38,64)        -179.6306         estimate D2E/DX2                !
 ! D161  D(63,37,38,3)         178.9344         estimate D2E/DX2                !
 ! D162  D(63,37,38,64)         -0.9191         estimate D2E/DX2                !
 --------------------------------------------------------------------------------
 Trust Radius=3.00D-01 FncErr=1.00D-07 GrdErr=1.00D-06 EigMax=2.50D+02 EigMin=1.00D-04
 Number of steps in this run=    353 maximum allowed number of steps=    384.
 GradGradGradGradGradGradGradGradGradGradGradGradGradGradGradGradGradGrad

 Leave Link  103 at Sun Feb 25 02:49:05 2024, MaxMem=  7516192768 cpu:               1.1 elap:               0.0
 (Enter /public/apps/g16-C01//g16/l202.exe)
 Symmetry turned off by external request.
 Stoichiometry    C34H26O4
 Framework group  C1[X(C34H26O4)]
 Deg. of freedom   186
 Full point group                 C1      NOp   1
                          Input orientation:                          
 ---------------------------------------------------------------------
 Center     Atomic      Atomic             Coordinates (Angstroms)
 Number     Number       Type             X           Y           Z
 ---------------------------------------------------------------------
      1          6           0        9.921866    1.215108   -0.652405
      2          8           0        9.139461    0.078431   -0.923257
      3          6           0        7.795301    0.147770   -0.713170
      4          6           0        7.116393    1.264637   -0.239441
      5          6           0        5.744207    1.216098   -0.066167
      6          6           0        5.021056    0.063446   -0.343765
      7          6           0        3.558515    0.041416   -0.173133
      8          6           0        2.803543    1.000473   -0.799373
      9          6           0        1.401347    0.997208   -0.721796
     10          8           0        0.742547    1.973356   -1.398812
     11          6           0        0.742484    0.013972   -0.007656
     12          6           0       -0.742570   -0.018719   -0.007623
     13          6           0       -1.402173   -0.999113   -0.724925
     14          8           0       -0.744090   -1.973925   -1.404581
     15          6           0       -2.804376   -1.000611   -0.803100
     16          6           0       -3.558517   -0.042318   -0.174719
     17          6           0       -5.021065   -0.061876   -0.345733
     18          6           0       -5.707100    1.053746   -0.825566
     19          6           0       -7.071192    1.015876   -1.009027
     20          6           0       -7.795704   -0.140481   -0.713280
     21          8           0       -9.139965   -0.068094   -0.921666
     22          6           0       -9.924311   -1.203733   -0.652072
     23          6           0       -7.118450   -1.259521   -0.242336
     24          6           0       -5.746041   -1.213800   -0.069980
     25          6           0       -2.916338    0.947423    0.619998
     26          6           0       -3.637713    1.895105    1.374875
     27          6           0       -2.994061    2.829250    2.138296
     28          6           0       -1.593975    2.851639    2.194704
     29          6           0       -0.863503    1.932429    1.496381
     30          6           0       -1.497124    0.957764    0.693914
     31          6           0        1.497772   -0.963908    0.691072
     32          6           0        0.864871   -1.942177    1.489726
     33          6           0        1.596076   -2.862543    2.185759
     34          6           0        2.996194   -2.837677    2.130997
     35          6           0        3.639150   -1.900190    1.371097
     36          6           0        2.917051   -0.951413    0.618284
     37          6           0        5.708798   -1.050096   -0.825961
     38          6           0        7.072697   -1.009419   -1.010292
     39          1           0        9.627021    2.065022   -1.276593
     40          1           0        9.864146    1.501731    0.402860
     41          1           0       10.945743    0.932168   -0.891815
     42          1           0        7.641449    2.176707   -0.002524
     43          1           0        5.227356    2.087597    0.308492
     44          1           0        3.270435    1.767058   -1.398001
     45          1           0       -0.209616    1.879312   -1.255063
     46          1           0        0.208092   -1.881372   -1.260033
     47          1           0       -3.271877   -1.765000   -1.404061
     48          1           0       -5.158291    1.950141   -1.075042
     49          1           0       -7.607064    1.873080   -1.385144
     50          1           0      -10.947886   -0.918331   -0.889848
     51          1           0       -9.866027   -1.492422    0.402603
     52          1           0       -9.631804   -2.053069   -1.278141
     53          1           0       -7.645000   -2.171076   -0.006760
     54          1           0       -5.230476   -2.086936    0.302632
     55          1           0       -4.716520    1.862235    1.355632
     56          1           0       -3.561963    3.546771    2.711828
     57          1           0       -1.095805    3.589323    2.806273
     58          1           0        0.214876    1.929269    1.564412
     59          1           0       -0.213589   -1.941006    1.556592
     60          1           0        1.098441   -3.603167    2.794206
     61          1           0        3.564625   -3.556004    2.702995
     62          1           0        4.717922   -1.865438    1.353160
     63          1           0        5.161451   -1.947013   -1.076758
     64          1           0        7.609825   -1.864962   -1.388390
 ---------------------------------------------------------------------
 Rotational constants (GHZ):           0.3048703           0.0356389           0.0344693
 Leave Link  202 at Sun Feb 25 02:49:05 2024, MaxMem=  7516192768 cpu:               1.8 elap:               0.1
 (Enter /public/apps/g16-C01//g16/l301.exe)
 Standard basis: def2SVPP (5D, 7F)
 Ernie: Thresh=  0.10000D-02 Tol=  0.10000D-05 Strict=F.
   584 basis functions,  1054 primitive gaussians,   622 cartesian basis functions
   131 alpha electrons      131 beta electrons
       nuclear repulsion energy      3767.0737903762 Hartrees.
 IExCor=  402 DFT=T Ex+Corr=B3LYP ExCW=0 ScaHFX=  0.200000
 ScaDFX=  0.800000  0.720000  1.000000  0.810000 ScalE2=  1.000000  1.000000
 IRadAn=      5 IRanWt=     -1 IRanGd=            0 ICorTp=0 IEmpDi=141
 NAtoms=   64 NActive=   64 NUniq=   64 SFac= 1.00D+00 NAtFMM=   60 NAOKFM=T Big=T
 Integral buffers will be    131072 words long.
 Raffenetti 2 integral format.
 Two-electron integral symmetry is turned off.
 R6Disp:  Grimme-D3(BJ) Dispersion energy=       -0.1646350526 Hartrees.
 Nuclear repulsion after empirical dispersion term =     3766.9091553236 Hartrees.
 Leave Link  301 at Sun Feb 25 02:49:05 2024, MaxMem=  7516192768 cpu:               1.7 elap:               0.1
 (Enter /public/apps/g16-C01//g16/l302.exe)
 NPDir=0 NMtPBC=     1 NCelOv=     1 NCel=       1 NClECP=     1 NCelD=      1
         NCelK=      1 NCelE2=     1 NClLst=     1 CellRange=     0.0.
 One-electron integrals computed using PRISM.
   1 Symmetry operations used in ECPInt.
 ECPInt:  NShTT=   39340 NPrTT=  157652 LenC2=   29265 LenP2D=   73637.
 LDataN:  DoStor=T MaxTD1= 4 Len=   56
 NBasis=   584 RedAO= T EigKep=  1.59D-04  NBF=   584
 NBsUse=   584 1.00D-06 EigRej= -1.00D+00 NBFU=   584
 Precomputing XC quadrature grid using
 IXCGrd= 4 IRadAn=           5 IRanWt=          -1 IRanGd=           0 AccXCQ= 0.00D+00.
 Generated NRdTot=       0 NPtTot=           0 NUsed=           0 NTot=          32
 NSgBfM=   568   568   568   568   568 MxSgAt=    64 MxSgA2=    64.
 Leave Link  302 at Sun Feb 25 02:49:07 2024, MaxMem=  7516192768 cpu:              40.8 elap:               1.0
 (Enter /public/apps/g16-C01//g16/l303.exe)
 DipDrv:  MaxL=1.
 Leave Link  303 at Sun Feb 25 02:49:07 2024, MaxMem=  7516192768 cpu:               2.7 elap:               0.1
 (Enter /public/apps/g16-C01//g16/l401.exe)
 ExpMin= 1.22D-01 ExpMax= 2.27D+03 ExpMxC= 3.41D+02 IAcc=3 IRadAn=         5 AccDes= 0.00D+00
 Harris functional with IExCor=  402 and IRadAn=       5 diagonalized for initial guess.
 HarFok:  IExCor=  402 AccDes= 0.00D+00 IRadAn=         5 IDoV= 1 UseB2=F ITyADJ=14
 ICtDFT=  3500011 ScaDFX=  1.000000  1.000000  1.000000  1.000000
 FoFCou: FMM=F IPFlag=           0 FMFlag=      100000 FMFlg1=        2001
         NFxFlg=           0 DoJE=T BraDBF=F KetDBF=T FulRan=T
         wScrn=  0.000000 ICntrl=       500 IOpCl=  0 I1Cent=   200000004 NGrid=           0
         NMat0=    1 NMatS0=      1 NMatT0=    0 NMatD0=    1 NMtDS0=    0 NMtDT0=    0
 Symmetry not used in FoFCou.
 Harris En= -1611.08301327406    
 JPrj=0 DoOrth=F DoCkMO=F.
 Leave Link  401 at Sun Feb 25 02:49:10 2024, MaxMem=  7516192768 cpu:              94.6 elap:               2.6
 (Enter /public/apps/g16-C01//g16/l502.exe)
 Two-electron integral symmetry not used.
 Closed shell SCF:
 Using DIIS extrapolation, IDIIS=  1040.
 NGot=  7516192768 LenX=  7515387388 LenY=  7514999882
 Requested convergence on RMS density matrix=1.00D-08 within 128 cycles.
 Requested convergence on MAX density matrix=1.00D-06.
 Requested convergence on             energy=1.00D-06.
 No special actions if energy rises.
 Fock matrices will be formed incrementally for  20 cycles.
 Integral accuracy reduced to 1.0D-05 until final iterations.

 Cycle   1  Pass 0  IDiag  1:
 FoFJK:  IHMeth= 1 ICntrl=       0 DoSepK=F KAlg= 0 I1Cent=           0 FoldK=F
 IRaf= 870000000 NMat=       1 IRICut=       1 DoRegI=T DoRafI=F ISym2E= 0 IDoP0=0 IntGTp=1.
 FoFCou: FMM=T IPFlag=           0 FMFlag=      100000 FMFlg1=        2001
         NFxFlg=           0 DoJE=F BraDBF=F KetDBF=F FulRan=T
         wScrn=  0.000000 ICntrl=         0 IOpCl=  0 I1Cent=           0 NGrid=           0
         NMat0=    1 NMatS0=      1 NMatT0=    0 NMatD0=    1 NMtDS0=    0 NMtDT0=    0
 Symmetry not used in FoFCou.
 FMM levels:  10  Number of levels for PrismC:   9
 E= -1610.39971756785    
 DIIS: error= 3.29D-02 at cycle   1 NSaved=   1.
 NSaved= 1 IEnMin= 1 EnMin= -1610.39971756785     IErMin= 1 ErrMin= 3.29D-02
 ErrMax= 3.29D-02  0.00D+00 EMaxC= 1.00D-01 BMatC= 6.28D-01 BMatP= 6.28D-01
 IDIUse=3 WtCom= 6.71D-01 WtEn= 3.29D-01
 Coeff-Com:  0.100D+01
 Coeff-En:   0.100D+01
 Coeff:      0.100D+01
 Gap=     0.165 Goal=   None    Shift=    0.000
 GapD=    0.165 DampG=1.000 DampE=0.500 DampFc=0.5000 IDamp=-1.
 Damping current iteration by 5.00D-01
 RMSDP=4.96D-03 MaxDP=1.71D-01              OVMax= 1.67D-01

 Cycle   2  Pass 0  IDiag  1:
 RMSU=  2.23D-03    CP:  9.40D-01
 E= -1610.73967014931     Delta-E=       -0.339952581460 Rises=F Damp=T
 DIIS: error= 3.90D-03 at cycle   2 NSaved=   2.
 NSaved= 2 IEnMin= 2 EnMin= -1610.73967014931     IErMin= 2 ErrMin= 3.90D-03
 ErrMax= 3.90D-03  0.00D+00 EMaxC= 1.00D-01 BMatC= 3.28D-02 BMatP= 6.28D-01
 IDIUse=3 WtCom= 9.61D-01 WtEn= 3.90D-02
 Coeff-Com:  0.377D-02 0.996D+00
 Coeff-En:   0.000D+00 0.100D+01
 Coeff:      0.363D-02 0.996D+00
 Gap=     0.164 Goal=   None    Shift=    0.000
 RMSDP=1.87D-03 MaxDP=1.22D-01 DE=-3.40D-01 OVMax= 1.39D-01

 Cycle   3  Pass 0  IDiag  1:
 RMSU=  1.65D-03    CP:  8.94D-01  1.14D+00
 E= -1611.06308463639     Delta-E=       -0.323414487080 Rises=F Damp=F
 DIIS: error= 7.39D-03 at cycle   3 NSaved=   3.
 NSaved= 3 IEnMin= 3 EnMin= -1611.06308463639     IErMin= 2 ErrMin= 3.90D-03
 ErrMax= 7.39D-03  0.00D+00 EMaxC= 1.00D-01 BMatC= 4.36D-02 BMatP= 3.28D-02
 IDIUse=3 WtCom= 1.04D-01 WtEn= 8.96D-01
 Coeff-Com: -0.415D-01 0.566D+00 0.476D+00
 Coeff-En:   0.000D+00 0.000D+00 0.100D+01
 Coeff:     -0.433D-02 0.589D-01 0.945D+00
 Gap=     0.171 Goal=   None    Shift=    0.000
 RMSDP=1.66D-03 MaxDP=1.16D-01 DE=-3.23D-01 OVMax= 1.59D-01

 Cycle   4  Pass 0  IDiag  1:
 RMSU=  1.20D-03    CP:  8.97D-01  1.36D+00  3.69D-01
 E= -1610.91712193142     Delta-E=        0.145962704965 Rises=F Damp=F
 DIIS: error= 1.70D-02 at cycle   4 NSaved=   4.
 NSaved= 4 IEnMin= 3 EnMin= -1611.06308463639     IErMin= 2 ErrMin= 3.90D-03
 ErrMax= 1.70D-02  0.00D+00 EMaxC= 1.00D-01 BMatC= 1.73D-01 BMatP= 3.28D-02
 IDIUse=2 WtCom= 0.00D+00 WtEn= 1.00D+00
 Coeff-En:   0.000D+00 0.000D+00 0.746D+00 0.254D+00
 Coeff:      0.000D+00 0.000D+00 0.746D+00 0.254D+00
 Gap=     0.156 Goal=   None    Shift=    0.000
 RMSDP=8.87D-04 MaxDP=7.25D-02 DE= 1.46D-01 OVMax= 9.89D-02

 Cycle   5  Pass 0  IDiag  1:
 RMSU=  2.19D-04    CP:  8.94D-01  1.25D+00  6.80D-01  4.65D-01
 E= -1611.09987646135     Delta-E=       -0.182754529928 Rises=F Damp=F
 DIIS: error= 3.16D-03 at cycle   5 NSaved=   5.
 NSaved= 5 IEnMin= 5 EnMin= -1611.09987646135     IErMin= 5 ErrMin= 3.16D-03
 ErrMax= 3.16D-03  0.00D+00 EMaxC= 1.00D-01 BMatC= 1.05D-02 BMatP= 3.28D-02
 IDIUse=3 WtCom= 9.68D-01 WtEn= 3.16D-02
 Coeff-Com:  0.449D-02 0.192D-01 0.391D+00 0.702D-01 0.515D+00
 Coeff-En:   0.000D+00 0.000D+00 0.238D+00 0.000D+00 0.762D+00
 Coeff:      0.435D-02 0.186D-01 0.386D+00 0.680D-01 0.523D+00
 Gap=     0.151 Goal=   None    Shift=    0.000
 RMSDP=2.85D-04 MaxDP=1.71D-02 DE=-1.83D-01 OVMax= 2.71D-02

 Cycle   6  Pass 0  IDiag  1:
 RMSU=  9.12D-05    CP:  8.93D-01  1.22D+00  7.89D-01  3.24D-01  6.56D-01
 E= -1611.11110543094     Delta-E=       -0.011228969585 Rises=F Damp=F
 DIIS: error= 3.75D-04 at cycle   6 NSaved=   6.
 NSaved= 6 IEnMin= 6 EnMin= -1611.11110543094     IErMin= 6 ErrMin= 3.75D-04
 ErrMax= 3.75D-04  0.00D+00 EMaxC= 1.00D-01 BMatC= 1.80D-04 BMatP= 1.05D-02
 IDIUse=3 WtCom= 9.96D-01 WtEn= 3.75D-03
 Coeff-Com:  0.304D-02-0.903D-02 0.117D+00-0.138D-01 0.319D+00 0.584D+00
 Coeff-En:   0.000D+00 0.000D+00 0.000D+00 0.000D+00 0.000D+00 0.100D+01
 Coeff:      0.303D-02-0.900D-02 0.116D+00-0.138D-01 0.318D+00 0.586D+00
 Gap=     0.150 Goal=   None    Shift=    0.000
 RMSDP=4.63D-05 MaxDP=1.56D-03 DE=-1.12D-02 OVMax= 5.24D-03

 Cycle   7  Pass 0  IDiag  1:
 RMSU=  3.43D-05    CP:  8.93D-01  1.22D+00  7.90D-01  3.23D-01  7.43D-01
                    CP:  7.35D-01
 E= -1611.11133753175     Delta-E=       -0.000232100807 Rises=F Damp=F
 DIIS: error= 8.95D-05 at cycle   7 NSaved=   7.
 NSaved= 7 IEnMin= 7 EnMin= -1611.11133753175     IErMin= 7 ErrMin= 8.95D-05
 ErrMax= 8.95D-05  0.00D+00 EMaxC= 1.00D-01 BMatC= 1.59D-05 BMatP= 1.80D-04
 IDIUse=1 WtCom= 1.00D+00 WtEn= 0.00D+00
 Coeff-Com:  0.134D-02-0.514D-02 0.450D-01-0.136D-01 0.157D+00 0.349D+00
 Coeff-Com:  0.466D+00
 Coeff:      0.134D-02-0.514D-02 0.450D-01-0.136D-01 0.157D+00 0.349D+00
 Coeff:      0.466D+00
 Gap=     0.150 Goal=   None    Shift=    0.000
 RMSDP=1.84D-05 MaxDP=7.28D-04 DE=-2.32D-04 OVMax= 1.11D-03

 Cycle   8  Pass 0  IDiag  1:
 RMSU=  1.73D-05    CP:  8.93D-01  1.21D+00  7.90D-01  3.22D-01  7.24D-01
                    CP:  7.58D-01  1.06D+00
 E= -1611.11136729376     Delta-E=       -0.000029762015 Rises=F Damp=F
 DIIS: error= 3.93D-05 at cycle   8 NSaved=   8.
 NSaved= 8 IEnMin= 8 EnMin= -1611.11136729376     IErMin= 8 ErrMin= 3.93D-05
 ErrMax= 3.93D-05  0.00D+00 EMaxC= 1.00D-01 BMatC= 5.45D-07 BMatP= 1.59D-05
 IDIUse=1 WtCom= 1.00D+00 WtEn= 0.00D+00
 Coeff-Com:  0.384D-03-0.153D-02 0.106D-01-0.533D-02 0.448D-01 0.110D+00
 Coeff-Com:  0.202D+00 0.639D+00
 Coeff:      0.384D-03-0.153D-02 0.106D-01-0.533D-02 0.448D-01 0.110D+00
 Coeff:      0.202D+00 0.639D+00
 Gap=     0.150 Goal=   None    Shift=    0.000
 RMSDP=1.81D-05 MaxDP=6.56D-04 DE=-2.98D-05 OVMax= 1.89D-04

 Cycle   9  Pass 0  IDiag  1:
 RMSU=  1.17D-05    CP:  8.93D-01  1.21D+00  7.89D-01  3.20D-01  7.25D-01
                    CP:  7.82D-01  1.29D+00  1.61D+00
 E= -1611.11137355407     Delta-E=       -0.000006260308 Rises=F Damp=F
 DIIS: error= 2.53D-05 at cycle   9 NSaved=   9.
 NSaved= 9 IEnMin= 9 EnMin= -1611.11137355407     IErMin= 9 ErrMin= 2.53D-05
 ErrMax= 2.53D-05  0.00D+00 EMaxC= 1.00D-01 BMatC= 2.37D-07 BMatP= 5.45D-07
 IDIUse=1 WtCom= 1.00D+00 WtEn= 0.00D+00
 Coeff-Com:  0.149D-03-0.567D-03 0.369D-02-0.257D-02 0.180D-01 0.467D-01
 Coeff-Com:  0.101D+00 0.426D+00 0.407D+00
 Coeff:      0.149D-03-0.567D-03 0.369D-02-0.257D-02 0.180D-01 0.467D-01
 Coeff:      0.101D+00 0.426D+00 0.407D+00
 Gap=     0.150 Goal=   None    Shift=    0.000
 RMSDP=1.57D-05 MaxDP=6.04D-04 DE=-6.26D-06 OVMax= 7.43D-05

 Cycle  10  Pass 0  IDiag  1:
 RMSU=  6.00D-06    CP:  8.93D-01  1.21D+00  7.88D-01  3.19D-01  7.21D-01
                    CP:  7.97D-01  1.46D+00  2.16D+00  1.77D+00
 E= -1611.11137675738     Delta-E=       -0.000003203309 Rises=F Damp=F
 DIIS: error= 3.01D-05 at cycle  10 NSaved=  10.
 NSaved=10 IEnMin=10 EnMin= -1611.11137675738     IErMin= 9 ErrMin= 2.53D-05
 ErrMax= 3.01D-05  0.00D+00 EMaxC= 1.00D-01 BMatC= 2.31D-07 BMatP= 2.37D-07
 IDIUse=1 WtCom= 1.00D+00 WtEn= 0.00D+00
 Coeff-Com:  0.151D-03-0.574D-03 0.357D-02-0.278D-02 0.184D-01 0.485D-01
 Coeff-Com:  0.109D+00 0.493D+00 0.554D+00-0.224D+00
 Coeff:      0.151D-03-0.574D-03 0.357D-02-0.278D-02 0.184D-01 0.485D-01
 Coeff:      0.109D+00 0.493D+00 0.554D+00-0.224D+00
 Gap=     0.150 Goal=   None    Shift=    0.000
 RMSDP=7.28D-06 MaxDP=2.29D-04 DE=-3.20D-06 OVMax= 1.20D-05

 Initial convergence to 1.0D-05 achieved.  Increase integral accuracy.
 Cycle  11  Pass 1  IDiag  1:
 E= -1611.11105350329     Delta-E=        0.000323254087 Rises=F Damp=F
 DIIS: error= 6.23D-04 at cycle   1 NSaved=   1.
 NSaved= 1 IEnMin= 1 EnMin= -1611.11105350329     IErMin= 1 ErrMin= 6.23D-04
 ErrMax= 6.23D-04  0.00D+00 EMaxC= 1.00D-01 BMatC= 6.60D-05 BMatP= 6.60D-05
 IDIUse=3 WtCom= 9.94D-01 WtEn= 6.23D-03
 Coeff-Com:  0.100D+01
 Coeff-En:   0.100D+01
 Coeff:      0.100D+01
 Gap=     0.150 Goal=   None    Shift=    0.000
 RMSDP=7.28D-06 MaxDP=2.29D-04 DE= 3.23D-04 OVMax= 1.14D-03

 Cycle  12  Pass 1  IDiag  1:
 RMSU=  6.54D-04    CP:  9.96D-01
 E= -1611.11112002494     Delta-E=       -0.000066521651 Rises=F Damp=F
 DIIS: error= 5.82D-06 at cycle   2 NSaved=   2.
 NSaved= 2 IEnMin= 2 EnMin= -1611.11112002494     IErMin= 2 ErrMin= 5.82D-06
 ErrMax= 5.82D-06  0.00D+00 EMaxC= 1.00D-01 BMatC= 2.03D-08 BMatP= 6.60D-05
 IDIUse=1 WtCom= 1.00D+00 WtEn= 0.00D+00
 Coeff-Com: -0.902D-02 0.101D+01
 Coeff:     -0.902D-02 0.101D+01
 Gap=     0.150 Goal=   None    Shift=    0.000
 RMSDP=8.26D-06 MaxDP=2.36D-04 DE=-6.65D-05 OVMax= 5.68D-05

 Cycle  13  Pass 1  IDiag  1:
 RMSU=  2.55D-06    CP:  9.96D-01  1.01D+00
 E= -1611.11112001390     Delta-E=        0.000000011039 Rises=F Damp=F
 DIIS: error= 5.45D-06 at cycle   3 NSaved=   3.
 NSaved= 3 IEnMin= 2 EnMin= -1611.11112002494     IErMin= 3 ErrMin= 5.45D-06
 ErrMax= 5.45D-06  0.00D+00 EMaxC= 1.00D-01 BMatC= 3.57D-08 BMatP= 2.03D-08
 IDIUse=1 WtCom= 1.00D+00 WtEn= 0.00D+00
 Coeff-Com: -0.574D-02 0.621D+00 0.385D+00
 Coeff:     -0.574D-02 0.621D+00 0.385D+00
 Gap=     0.150 Goal=   None    Shift=    0.000
 RMSDP=5.70D-07 MaxDP=2.09D-05 DE= 1.10D-08 OVMax= 4.21D-05

 Cycle  14  Pass 1  IDiag  1:
 RMSU=  5.43D-07    CP:  9.96D-01  1.01D+00  9.33D-01
 E= -1611.11112005211     Delta-E=       -0.000000038211 Rises=F Damp=F
 DIIS: error= 1.21D-06 at cycle   4 NSaved=   4.
 NSaved= 4 IEnMin= 4 EnMin= -1611.11112005211     IErMin= 4 ErrMin= 1.21D-06
 ErrMax= 1.21D-06  0.00D+00 EMaxC= 1.00D-01 BMatC= 1.10D-09 BMatP= 2.03D-08
 IDIUse=1 WtCom= 1.00D+00 WtEn= 0.00D+00
 Coeff-Com: -0.174D-02 0.185D+00 0.181D+00 0.636D+00
 Coeff:     -0.174D-02 0.185D+00 0.181D+00 0.636D+00
 Gap=     0.150 Goal=   None    Shift=    0.000
 RMSDP=1.42D-07 MaxDP=8.80D-06 DE=-3.82D-08 OVMax= 9.89D-06

 Cycle  15  Pass 1  IDiag  1:
 RMSU=  1.30D-07    CP:  9.96D-01  1.01D+00  9.50D-01  9.55D-01
 E= -1611.11112005297     Delta-E=       -0.000000000851 Rises=F Damp=F
 DIIS: error= 7.34D-07 at cycle   5 NSaved=   5.
 NSaved= 5 IEnMin= 5 EnMin= -1611.11112005297     IErMin= 5 ErrMin= 7.34D-07
 ErrMax= 7.34D-07  0.00D+00 EMaxC= 1.00D-01 BMatC= 2.72D-10 BMatP= 1.10D-09
 IDIUse=1 WtCom= 1.00D+00 WtEn= 0.00D+00
 Coeff-Com: -0.186D-03 0.181D-01 0.505D-01 0.377D+00 0.554D+00
 Coeff:     -0.186D-03 0.181D-01 0.505D-01 0.377D+00 0.554D+00
 Gap=     0.150 Goal=   None    Shift=    0.000
 RMSDP=6.04D-08 MaxDP=5.13D-06 DE=-8.51D-10 OVMax= 6.13D-06

 Cycle  16  Pass 1  IDiag  1:
 RMSU=  4.08D-08    CP:  9.96D-01  1.01D+00  9.53D-01  9.83D-01  7.06D-01
 E= -1611.11112005319     Delta-E=       -0.000000000228 Rises=F Damp=F
 DIIS: error= 2.36D-07 at cycle   6 NSaved=   6.
 NSaved= 6 IEnMin= 6 EnMin= -1611.11112005319     IErMin= 6 ErrMin= 2.36D-07
 ErrMax= 2.36D-07  0.00D+00 EMaxC= 1.00D-01 BMatC= 5.15D-11 BMatP= 2.72D-10
 IDIUse=1 WtCom= 1.00D+00 WtEn= 0.00D+00
 Coeff-Com:  0.100D-04-0.226D-02 0.203D-01 0.206D+00 0.379D+00 0.397D+00
 Coeff:      0.100D-04-0.226D-02 0.203D-01 0.206D+00 0.379D+00 0.397D+00
 Gap=     0.150 Goal=   None    Shift=    0.000
 RMSDP=2.29D-08 MaxDP=1.29D-06 DE=-2.28D-10 OVMax= 2.89D-06

 Cycle  17  Pass 1  IDiag  1:
 RMSU=  1.26D-08    CP:  9.96D-01  1.01D+00  9.55D-01  9.74D-01  7.09D-01
                    CP:  5.64D-01
 E= -1611.11112005322     Delta-E=       -0.000000000030 Rises=F Damp=F
 DIIS: error= 6.37D-08 at cycle   7 NSaved=   7.
 NSaved= 7 IEnMin= 7 EnMin= -1611.11112005322     IErMin= 7 ErrMin= 6.37D-08
 ErrMax= 6.37D-08  0.00D+00 EMaxC= 1.00D-01 BMatC= 2.55D-12 BMatP= 5.15D-11
 IDIUse=1 WtCom= 1.00D+00 WtEn= 0.00D+00
 Coeff-Com:  0.211D-04-0.287D-02 0.865D-02 0.972D-01 0.192D+00 0.241D+00
 Coeff-Com:  0.464D+00
 Coeff:      0.211D-04-0.287D-02 0.865D-02 0.972D-01 0.192D+00 0.241D+00
 Coeff:      0.464D+00
 Gap=     0.150 Goal=   None    Shift=    0.000
 RMSDP=5.43D-09 MaxDP=1.61D-07 DE=-3.00D-11 OVMax= 5.43D-07

 SCF Done:  E(RB3LYP) =  -1611.11112005     A.U. after   17 cycles
            NFock= 17  Conv=0.54D-08     -V/T= 2.0093
 KE= 1.596342756226D+03 PE=-1.127581806585D+04 EE= 4.301455034250D+03
 Leave Link  502 at Sun Feb 25 02:50:00 2024, MaxMem=  7516192768 cpu:            1967.1 elap:              50.5
 (Enter /public/apps/g16-C01//g16/l601.exe)
 Copying SCF densities to generalized density rwf, IOpCl= 0 IROHF=0.

 **********************************************************************

            Population analysis using the SCF Density.

 **********************************************************************

 Alpha  occ. eigenvalues --  -19.16567 -19.16567 -19.15959 -19.15951 -10.25085
 Alpha  occ. eigenvalues --  -10.25083 -10.24869 -10.24869 -10.23741 -10.23741
 Alpha  occ. eigenvalues --  -10.19996 -10.19995 -10.19837 -10.19834 -10.19241
 Alpha  occ. eigenvalues --  -10.19241 -10.19170 -10.19151 -10.19006 -10.19006
 Alpha  occ. eigenvalues --  -10.18848 -10.18847 -10.18781 -10.18781 -10.18605
 Alpha  occ. eigenvalues --  -10.18605 -10.18389 -10.18388 -10.18294 -10.18292
 Alpha  occ. eigenvalues --  -10.18221 -10.18220 -10.18203 -10.18203 -10.18091
 Alpha  occ. eigenvalues --  -10.18089 -10.18060 -10.18060  -1.06180  -1.06179
 Alpha  occ. eigenvalues --   -1.05415  -1.05139  -0.88473  -0.87802  -0.85860
 Alpha  occ. eigenvalues --   -0.85536  -0.82257  -0.81916  -0.80469  -0.77630
 Alpha  occ. eigenvalues --   -0.75620  -0.75406  -0.74823  -0.74391  -0.73837
 Alpha  occ. eigenvalues --   -0.73730  -0.72421  -0.71552  -0.69917  -0.67941
 Alpha  occ. eigenvalues --   -0.64782  -0.63446  -0.62296  -0.62272  -0.61221
 Alpha  occ. eigenvalues --   -0.61006  -0.60501  -0.59714  -0.58441  -0.57541
 Alpha  occ. eigenvalues --   -0.55384  -0.55135  -0.54217  -0.53980  -0.52847
 Alpha  occ. eigenvalues --   -0.52465  -0.51301  -0.50025  -0.49314  -0.49158
 Alpha  occ. eigenvalues --   -0.47821  -0.47820  -0.47435  -0.46331  -0.46264
 Alpha  occ. eigenvalues --   -0.45888  -0.45513  -0.45347  -0.45204  -0.44230
 Alpha  occ. eigenvalues --   -0.43701  -0.43603  -0.43202  -0.43180  -0.42823
 Alpha  occ. eigenvalues --   -0.42652  -0.42159  -0.41536  -0.41078  -0.40691
 Alpha  occ. eigenvalues --   -0.39271  -0.38839  -0.38800  -0.38701  -0.38345
 Alpha  occ. eigenvalues --   -0.37983  -0.37619  -0.37434  -0.37283  -0.36749
 Alpha  occ. eigenvalues --   -0.36730  -0.35013  -0.34808  -0.34123  -0.33413
 Alpha  occ. eigenvalues --   -0.33396  -0.33034  -0.32990  -0.32500  -0.31044
 Alpha  occ. eigenvalues --   -0.30888  -0.29382  -0.28114  -0.26325  -0.26323
 Alpha  occ. eigenvalues --   -0.24272  -0.24200  -0.22986  -0.22973  -0.21332
 Alpha  occ. eigenvalues --   -0.20154
 Alpha virt. eigenvalues --   -0.05182  -0.04197  -0.01598  -0.01327  -0.00872
 Alpha virt. eigenvalues --   -0.00577  -0.00321  -0.00254   0.02944   0.04078
 Alpha virt. eigenvalues --    0.06051   0.06110   0.06858   0.07567   0.07923
 Alpha virt. eigenvalues --    0.07949   0.08223   0.08839   0.09394   0.09706
 Alpha virt. eigenvalues --    0.10181   0.10377   0.11075   0.11372   0.11410
 Alpha virt. eigenvalues --    0.11586   0.12318   0.12583   0.12860   0.12883
 Alpha virt. eigenvalues --    0.13056   0.13108   0.14201   0.14234   0.14533
 Alpha virt. eigenvalues --    0.14717   0.15601   0.15740   0.16205   0.16290
 Alpha virt. eigenvalues --    0.16925   0.16995   0.18770   0.19670   0.20277
 Alpha virt. eigenvalues --    0.23269   0.23471   0.23723   0.25441   0.25587
 Alpha virt. eigenvalues --    0.26671   0.26690   0.27008   0.27604   0.27653
 Alpha virt. eigenvalues --    0.27838   0.29403   0.29472   0.29867   0.29868
 Alpha virt. eigenvalues --    0.30426   0.30525   0.31207   0.31628   0.31676
 Alpha virt. eigenvalues --    0.31896   0.32818   0.33412   0.34312   0.34436
 Alpha virt. eigenvalues --    0.34985   0.35242   0.35271   0.36437   0.37082
 Alpha virt. eigenvalues --    0.37315   0.37722   0.38011   0.38683   0.38707
 Alpha virt. eigenvalues --    0.39038   0.40482   0.41544   0.41809   0.41818
 Alpha virt. eigenvalues --    0.42051   0.42394   0.43266   0.43766   0.43964
 Alpha virt. eigenvalues --    0.44246   0.44543   0.44813   0.45263   0.45371
 Alpha virt. eigenvalues --    0.45477   0.45605   0.46256   0.46686   0.47027
 Alpha virt. eigenvalues --    0.47469   0.48100   0.48445   0.48524   0.48759
 Alpha virt. eigenvalues --    0.48918   0.49241   0.49348   0.50264   0.50392
 Alpha virt. eigenvalues --    0.50521   0.50734   0.51628   0.52011   0.52091
 Alpha virt. eigenvalues --    0.52522   0.53321   0.53716   0.54272   0.54317
 Alpha virt. eigenvalues --    0.54698   0.55693   0.55811   0.55956   0.56781
 Alpha virt. eigenvalues --    0.56959   0.57916   0.58455   0.58928   0.59068
 Alpha virt. eigenvalues --    0.59456   0.59696   0.60495   0.60886   0.61244
 Alpha virt. eigenvalues --    0.62204   0.62355   0.63125   0.63419   0.63848
 Alpha virt. eigenvalues --    0.64711   0.64720   0.65350   0.65522   0.65866
 Alpha virt. eigenvalues --    0.65995   0.66911   0.67029   0.67338   0.67632
 Alpha virt. eigenvalues --    0.67759   0.68295   0.68396   0.68943   0.69258
 Alpha virt. eigenvalues --    0.69523   0.69607   0.69891   0.70063   0.70192
 Alpha virt. eigenvalues --    0.70341   0.70390   0.70926   0.71308   0.72086
 Alpha virt. eigenvalues --    0.72216   0.72312   0.72527   0.73475   0.73725
 Alpha virt. eigenvalues --    0.74557   0.74609   0.75235   0.75391   0.75884
 Alpha virt. eigenvalues --    0.76186   0.76232   0.76513   0.76984   0.77038
 Alpha virt. eigenvalues --    0.77444   0.78539   0.78770   0.79142   0.79534
 Alpha virt. eigenvalues --    0.80137   0.80813   0.80934   0.81333   0.81956
 Alpha virt. eigenvalues --    0.83000   0.83049   0.83646   0.83800   0.84091
 Alpha virt. eigenvalues --    0.84292   0.85060   0.85829   0.86128   0.86851
 Alpha virt. eigenvalues --    0.87792   0.87892   0.88284   0.88308   0.88615
 Alpha virt. eigenvalues --    0.91245   0.93164   0.94542   0.94754   0.95908
 Alpha virt. eigenvalues --    0.96042   0.97538   0.97697   0.98047   0.98591
 Alpha virt. eigenvalues --    1.00989   1.01227   1.02733   1.04102   1.05699
 Alpha virt. eigenvalues --    1.07061   1.07919   1.08097   1.08369   1.08475
 Alpha virt. eigenvalues --    1.10480   1.10879   1.11216   1.11424   1.12534
 Alpha virt. eigenvalues --    1.12738   1.14979   1.15647   1.16893   1.18305
 Alpha virt. eigenvalues --    1.19459   1.20145   1.21543   1.22791   1.23772
 Alpha virt. eigenvalues --    1.24720   1.26144   1.26549   1.27312   1.27401
 Alpha virt. eigenvalues --    1.27729   1.28611   1.29741   1.30934   1.31040
 Alpha virt. eigenvalues --    1.31767   1.32939   1.36570   1.37848   1.38648
 Alpha virt. eigenvalues --    1.40022   1.40636   1.41994   1.42567   1.43419
 Alpha virt. eigenvalues --    1.43541   1.44205   1.44933   1.45049   1.45633
 Alpha virt. eigenvalues --    1.46943   1.47019   1.47502   1.47746   1.48001
 Alpha virt. eigenvalues --    1.48027   1.48769   1.49141   1.49356   1.49699
 Alpha virt. eigenvalues --    1.50256   1.50391   1.51152   1.51192   1.52181
 Alpha virt. eigenvalues --    1.53143   1.57839   1.58519   1.59433   1.61571
 Alpha virt. eigenvalues --    1.62055   1.65130   1.65495   1.65629   1.65700
 Alpha virt. eigenvalues --    1.67898   1.68130   1.70799   1.72381   1.73458
 Alpha virt. eigenvalues --    1.73766   1.73965   1.75387   1.75902   1.76024
 Alpha virt. eigenvalues --    1.76410   1.76879   1.78436   1.79117   1.79564
 Alpha virt. eigenvalues --    1.80095   1.81042   1.82640   1.83269   1.84970
 Alpha virt. eigenvalues --    1.85755   1.85869   1.85948   1.86164   1.87789
 Alpha virt. eigenvalues --    1.88297   1.88769   1.89024   1.89493   1.89671
 Alpha virt. eigenvalues --    1.90083   1.90537   1.94425   1.96029   1.97623
 Alpha virt. eigenvalues --    1.99080   1.99336   1.99934   2.00916   2.00946
 Alpha virt. eigenvalues --    2.03097   2.03124   2.03798   2.04716   2.05516
 Alpha virt. eigenvalues --    2.06294   2.06447   2.06643   2.07074   2.07861
 Alpha virt. eigenvalues --    2.08355   2.08576   2.08869   2.08975   2.09146
 Alpha virt. eigenvalues --    2.09611   2.10784   2.11643   2.13140   2.13416
 Alpha virt. eigenvalues --    2.13888   2.14240   2.14560   2.14948   2.15280
 Alpha virt. eigenvalues --    2.16819   2.16868   2.18031   2.19987   2.20975
 Alpha virt. eigenvalues --    2.22295   2.23615   2.24471   2.24568   2.25608
 Alpha virt. eigenvalues --    2.26557   2.27482   2.28198   2.28310   2.28812
 Alpha virt. eigenvalues --    2.30568   2.31472   2.31541   2.31997   2.32021
 Alpha virt. eigenvalues --    2.33280   2.35507   2.35749   2.37428   2.37977
 Alpha virt. eigenvalues --    2.41957   2.43084   2.43438   2.44865   2.44892
 Alpha virt. eigenvalues --    2.47460   2.47897   2.49693   2.50042   2.50812
 Alpha virt. eigenvalues --    2.52168   2.52887   2.56303   2.57619   2.58280
 Alpha virt. eigenvalues --    2.59127   2.59377   2.60276   2.60835   2.61549
 Alpha virt. eigenvalues --    2.61689   2.63692   2.64456   2.64892   2.65968
 Alpha virt. eigenvalues --    2.66114   2.68349   2.69494   2.69619   2.69926
 Alpha virt. eigenvalues --    2.71353   2.71466   2.73055   2.73929   2.74056
 Alpha virt. eigenvalues --    2.76504   2.76506   2.76960   2.79778   2.82329
 Alpha virt. eigenvalues --    2.82764   2.82830   2.84397   2.86794   2.87040
 Alpha virt. eigenvalues --    2.90740   2.92349   2.94327   2.94410   2.97381
 Alpha virt. eigenvalues --    2.97791   2.97820   2.99310   3.00946   3.01014
 Alpha virt. eigenvalues --    3.04252   3.04511   3.12528   3.12571   3.20249
 Alpha virt. eigenvalues --    3.21333   3.28258   3.28413   3.34403   3.35888
 Alpha virt. eigenvalues --    3.41521   3.41548   3.43824   3.44337   3.56276
 Alpha virt. eigenvalues --    3.58230   3.59822   3.63196
          Condensed to atoms (all electrons):
 Mulliken charges:
               1
     1  C   -0.063340
     2  O   -0.306819
     3  C    0.316419
     4  C   -0.195816
     5  C   -0.101468
     6  C    0.090603
     7  C    0.142761
     8  C   -0.269885
     9  C    0.224182
    10  O   -0.362750
    11  C   -0.123746
    12  C   -0.123637
    13  C    0.224222
    14  O   -0.362799
    15  C   -0.269843
    16  C    0.142702
    17  C    0.090516
    18  C   -0.099923
    19  C   -0.120974
    20  C    0.316407
    21  O   -0.306821
    22  C   -0.063341
    23  C   -0.195815
    24  C   -0.101384
    25  C    0.099559
    26  C   -0.162570
    27  C   -0.029264
    28  C   -0.017632
    29  C   -0.167597
    30  C    0.082920
    31  C    0.083422
    32  C   -0.167910
    33  C   -0.017581
    34  C   -0.029294
    35  C   -0.162600
    36  C    0.099443
    37  C   -0.099954
    38  C   -0.120969
    39  H    0.097963
    40  H    0.097616
    41  H    0.114505
    42  H    0.036727
    43  H    0.042511
    44  H    0.032668
    45  H    0.340857
    46  H    0.340856
    47  H    0.032648
    48  H    0.051705
    49  H    0.041613
    50  H    0.114506
    51  H    0.097615
    52  H    0.097964
    53  H    0.036728
    54  H    0.042500
    55  H    0.059840
    56  H    0.042618
    57  H    0.045100
    58  H    0.061598
    59  H    0.061559
    60  H    0.045103
    61  H    0.042623
    62  H    0.059809
    63  H    0.051736
    64  H    0.041609
 Sum of Mulliken charges =  -0.00000
 Mulliken charges with hydrogens summed into heavy atoms:
               1
     1  C    0.246745
     2  O   -0.306819
     3  C    0.316419
     4  C   -0.159089
     5  C   -0.058958
     6  C    0.090603
     7  C    0.142761
     8  C   -0.237217
     9  C    0.224182
    10  O   -0.021893
    11  C   -0.123746
    12  C   -0.123637
    13  C    0.224222
    14  O   -0.021944
    15  C   -0.237194
    16  C    0.142702
    17  C    0.090516
    18  C   -0.048218
    19  C   -0.079361
    20  C    0.316407
    21  O   -0.306821
    22  C    0.246744
    23  C   -0.159087
    24  C   -0.058884
    25  C    0.099559
    26  C   -0.102731
    27  C    0.013354
    28  C    0.027468
    29  C   -0.105999
    30  C    0.082920
    31  C    0.083422
    32  C   -0.106351
    33  C    0.027522
    34  C    0.013328
    35  C   -0.102790
    36  C    0.099443
    37  C   -0.048218
    38  C   -0.079360
 Electronic spatial extent (au):  <R**2>=          29868.5178
 Charge=             -0.0000 electrons
 Dipole moment (field-independent basis, Debye):
    X=             -0.0018    Y=              0.0006    Z=              1.2846  Tot=              1.2846
 Quadrupole moment (field-independent basis, Debye-Ang):
   XX=           -165.1668   YY=           -208.6010   ZZ=           -224.0619
   XY=             20.4430   XZ=              0.0093   YZ=              0.0114
 Traceless Quadrupole moment (field-independent basis, Debye-Ang):
   XX=             34.1098   YY=             -9.3244   ZZ=            -24.7854
   XY=             20.4430   XZ=              0.0093   YZ=              0.0114
 Octapole moment (field-independent basis, Debye-Ang**2):
  XXX=             -0.6683  YYY=             -0.0225  ZZZ=            -16.9905  XYY=              0.2817
  XXY=              0.2523  XXZ=              8.1876  XZZ=              0.0094  YZZ=              0.0990
  YYZ=             17.7031  XYZ=             -4.9156
 Hexadecapole moment (field-independent basis, Debye-Ang**3):
 XXXX=         -28731.5108 YYYY=          -3099.3603 ZZZZ=          -1849.7784 XXXY=           2438.4524
 XXXZ=              0.9428 YYYX=            -24.6555 YYYZ=             -0.5400 ZZZX=             -0.2749
 ZZZY=              0.4079 XXYY=          -5874.1894 XXZZ=          -6410.6758 YYZZ=           -744.4339
 XXYZ=              0.3513 YYXZ=             -0.0072 ZZXY=            -64.1349
 N-N= 3.766909155324D+03 E-N=-1.127581806281D+04  KE= 1.596342756226D+03
 No NMR shielding tensors so no spin-rotation constants.
 Leave Link  601 at Sun Feb 25 02:50:02 2024, MaxMem=  7516192768 cpu:              15.1 elap:               0.5
 (Enter /public/apps/g16-C01//g16/l701.exe)
 ... and contract with generalized density number  0.
 Compute integral first derivatives.
 R6Disp: Adding Grimme-D3(BJ) dispersion energy 1st derivatives to the gradient.
   1 Symmetry operations used in ECPInt.
 ECPInt:  NShTT=   39340 NPrTT=  157652 LenC2=   29265 LenP2D=   73637.
 LDataN:  DoStor=T MaxTD1= 5 Len=  102
[...]
 ,0.00001649,-0.00002254,0.00000743,-0.00002090,-0.00000944,-0.00000786
 ,-0.00000258,0.00000065,0.00000349,0.00000635,0.00000046,0.00000498,0.
 00000273,-0.00000185,-0.00001937,0.00000205,-0.00000331,0.00002598,0.0
 0000371,0.00000224,-0.00000705,-0.00000877,0.00000232,0.00000639,-0.00
 000304,0.00000356,0.00000241,-0.00000646,-0.00000107,0.00002781,0.0000
 2262,-0.00000038,-0.00000274,-0.00000386,-0.00000635,0.00001069,-0.000
 00088,0.00000235,-0.00001582,0.00000490,0.00000395,0.00000171,-0.00002
 421,-0.00001314,0.00000546,0.00004459,0.00005128,0.00139010,-0.0009814
 3,0.00472243,0.00013870,-0.00069882,0.00008658,-0.00113086,0.00035055,
 0.00615115,-0.02280636,0.00423692,0.00096699,-0.00448283,-0.05060384,0
 .00961643,0.02121516,0.00405213,-0.00084126,-0.00076715,0.00029118,0.0
 0101787,0.00000900,-0.00003353,-0.00000233,-0.00000291,0.00002445,0.00
 000369,-0.00000442,0.00002199,0.00001242,0.00001981,0.00000254,-0.0000
 0449,0.00001501,0.00000497,0.00000108,0.00001070,0.00001657,-0.0000046
 2,0.00001928,0.00012133,0.00015071,-0.00001855,0.00002101,-0.00000603,
 -0.00002710,-0.00001062,-0.00000925,0.00000583,0.00000124,0.00000390,-
 0.00000175,0.00000124,-0.00000056,0.00000160,-0.00000054,0.00000032,0.
 00000140,0.00000011,0.00000018,-0.00000004,0.00000158,-0.00000094,-0.0
 0000017,0.00000169,-0.00000039,0.00000133,0.00000106,0.00000058,-0.000
 00140,-0.00000125,0.00000055,0.00000223,-0.00000015,-0.00000236,0.0000
 0187,-0.00000191,-0.00000124,0.00000080,-0.00000386,-0.00000441,0.0000
 0040,0.00000801,0.00000565,-0.00003296,-0.00035251,-0.00056622,-0.0010
 0878,0.00007749,0.00008628,0.00029583,-0.00122441,-0.00312608,0.005962
 84,0.04595341,0.00010559,0.00014966,0.00005604,-0.00038137,-0.00010495
 ,0.00000668,0.00033716,-0.00012695,-0.00002875,-0.00025007,-0.00004101
 ,-0.00005707,0.00025130,-0.00009987,0.00013049,-0.00016578,0.00136137,
 -0.00090092,-0.00005384,-0.00150809,-0.00178441,0.00033975,-0.00026804
 ,0.00011892,-0.00028915,-0.00042697,-0.00002606,0.00000797,0.00014368,
 -0.00008561,-0.00077021,0.00000673,0.00031738,-0.00005944,0.00029404,0
 .00000674,0.00004277,0.00002307,0.00006084,-0.00000278,-0.00002928,-0.
 00009215,-0.00000578,0.00000995,-0.00000118,0.00000414,0.00000299,0.00
 000213,0.00000394,-0.00000053,-0.00000086,-0.00000089,-0.00000443,-0.0
 0000084,-0.00000386,-0.00000341,0.00000041,0.00001635,-0.00000088,0.00
 000328,-0.00002159,-0.00000380,-0.00000272,0.00000588,0.00000805,-0.00
 000069,-0.00000474,0.00000242,-0.00000325,-0.00000111,0.00000444,0.000
 00020,-0.00001369,0.00000573,0.00002198,-0.00000796,-0.00000271,-0.000
 00329,-0.00000110,-0.00000002,-0.00000038,0.00000224,0.00000068,-0.000
 00085,0.00000369,0.00000513,-0.00000288,-0.00006632,-0.00003810,-0.000
 04549,-0.00069240,0.00463292,0.00145611,-0.00004352,0.00022181,-0.0008
 2807,0.00127325,0.00600675,0.00321075,0.01812804,0.00084755,0.00412174
 ,0.00385184,0.00951361,-0.04518146,-0.01610025,-0.00132716,0.00477404,
 0.00085765,0.00076214,-0.00144501,0.00042357,-0.00012532,-0.00006820,0
 .00000080,-0.00002453,-0.00001054,0.00000200,-0.00003051,-0.00001880,-
 0.00002505,-0.00000545,0.00000370,-0.00000849,-0.00001298,-0.00002573,
 -0.00002624,-0.00009141,-0.00002286,0.00002945,0.00012853,0.00016942,0
 .00001751,-0.00001316,0.00002002,0.00000561,0.00000710,0.00006297,-0.0
 0000306,-0.00000267,0.00000101,0.00000126,-0.00000108,0.00000163,-0.00
 000118,0.00000064,0.00000025,-0.00000122,-0.00000003,-0.00000004,-0.00
 000002,-0.00000123,0.00000040,0.00000031,-0.00000175,0.00000006,-0.000
 00116,-0.00000064,0.00000034,0.00000126,0.00000153,0.00000024,-0.00000
 308,0.00000236,0.00000252,-0.00000129,0.00000064,0.00000185,0.00000065
 ,-0.00000005,0.00000149,0.00000171,-0.00000618,0.00000037,-0.00004693,
 -0.00053461,-0.00060955,0.00076882,0.00002319,0.00004011,-0.00034367,-
 0.00299814,-0.00263066,-0.00739512,-0.01644668,0.04054626,-0.00018756,
 0.00029360,0.00008234,-0.00092052,-0.00155429,-0.00034640,-0.00396640,
 0.00125884,0.00233054,-0.00056520,0.00051892,0.00014744,-0.00097801,0.
 00241579,0.00188834,0.01042653,0.01327846,0.00405205,0.00085733,0.0004
 9167,-0.00050503,-0.00010593,0.00006929,-0.00013527,0.00008393,0.00016
 234,-0.00002910,0.00004315,-0.00006352,0.00003220,0.00003044,-0.000107
 13,0.00008902,-0.00002129,-0.00001416,-0.00000607,-0.00000697,0.000015
 40,0.00001369,0.00003836,-0.00001266,-0.00000918,0.00000494,-0.0000048
 1,-0.00000389,-0.00000758,-0.00000461,-0.00000622,-0.00000501,0.000000
 21,-0.00000029,0.00000090,0.00000544,0.00000114,0.00000595,0.00000495,
 -0.00000135,-0.00002711,0.00000174,-0.00000486,0.00003531,0.00000658,0
 .00000333,-0.00001024,-0.00001337,0.00000245,0.00000768,-0.00000459,0.
 00000439,0.00000033,-0.00000552,-0.00000113,0.00001478,0.00000006,0.00
 000113,0.00000067,-0.00000350,-0.00000136,0.00000733,-0.00000011,0.000
 00059,-0.00000499,0.00000607,0.00000450,-0.00000106,-0.00001387,-0.000
 01215,0.00000506,0.00003177,0.00001842,-0.00011686,-0.00000575,-0.0002
 2571,-0.00002191,-0.00004112,0.00007842,-0.00007187,-0.00000376,-0.000
 06003,-0.00002237,0.00006156,-0.00004368,0.00011837,-0.00011309,0.0010
 1927,0.00007901,0.00011098,0.00006507,-0.12590829,-0.11650310,-0.02968
 890,-0.01079177,-0.02729311,-0.00748806,0.00000731,-0.00004739,0.00000
 589,-0.00001195,-0.00004762,-0.00003277,-0.00008560,-0.00010278,-0.000
 02812,-0.00002457,-0.00002340,-0.00013765,0.00048566,0.00075536,0.0001
 9054,0.00000371,-0.00000734,0.00000647,-0.00001610,0.00000258,-0.00000
 707,-0.00004505,-0.00000964,-0.00000334,0.00000274,0.00000148,0.000001
 45,-0.00000180,0.00000170,-0.00000156,0.00000133,-0.00000088,0.0000001
 4,0.00000202,-0.00000002,0.00000024,-0.00000008,0.00000214,-0.00000114
 ,-0.00000040,0.00000262,-0.00000028,0.00000148,0.00000131,-0.00000005,
 -0.00000208,-0.00000204,0.00000022,0.00000242,-0.00000174,-0.00000127,
 0.00000246,-0.00000202,-0.00000134,-0.00000069,-0.00000177,-0.00000216
 ,0.00000233,0.00000831,0.00000783,0.00001107,0.00001787,0.00000232,-0.
 00000447,-0.00000106,-0.00001500,0.00001445,0.00004327,-0.00000631,-0.
 00031598,-0.00007244,0.00032240,0.13072379,0.00015871,0.00014122,0.000
 12247,-0.00037015,-0.00005587,-0.00003202,0.00034476,0.00231498,-0.002
 10575,0.00070814,0.00047972,0.00028129,0.00345915,-0.00193615,-0.00330
 284,-0.01347447,-0.01584210,-0.00445699,-0.00177228,0.00012575,0.00143
 335,0.00065932,-0.00009573,0.00020308,-0.00022216,-0.00029363,0.000080
 00,-0.00001068,0.00011624,-0.00005913,0.00002842,0.00017925,-0.0001224
 5,0.00000686,0.00004388,0.00001237,0.00003436,-0.00004130,-0.00002833,
 -0.00004654,0.00003652,0.00002522,-0.00000929,0.00001087,0.00000667,0.
 00000813,-0.00000017,0.00000267,0.00000370,0.00000110,0.00000046,-0.00
 000050,-0.00000512,-0.00000041,-0.00000570,-0.00000428,0.00000163,0.00
 002502,-0.00000167,0.00000408,-0.00003204,-0.00000517,-0.00000270,0.00
 000943,0.00001120,-0.00000267,-0.00000651,0.00000477,-0.00000352,-0.00
 000009,0.00000404,0.00000163,-0.00001298,0.00000173,0.00000153,0.00000
 222,0.00000120,0.00000018,-0.00000616,0.00000315,0.00000157,0.00000336
 ,-0.00000692,-0.00000621,-0.00000333,0.00001583,0.00001158,0.00000206,
 -0.00003278,-0.00002186,0.00036429,-0.00009165,-0.00011118,-0.00003286
 ,-0.00003897,0.00003400,-0.00007134,-0.00004334,-0.00003339,-0.0000645
 7,0.00012800,-0.00001666,0.00017121,0.00032508,0.00060379,0.00000936,0
 .00012928,0.00008905,-0.11590409,-0.25277874,-0.06050867,0.00146871,0.
 00275128,-0.00074314,-0.00002006,-0.00004512,-0.00001353,0.00000938,-0
 .00001542,-0.00001246,-0.00000963,-0.00000244,0.00001405,-0.00003191,-
 0.00011349,0.00023803,-0.00070780,-0.00087894,-0.00025763,-0.00003267,
 0.00001369,-0.00005617,0.00002307,-0.00001578,0.00000096,0.00004412,-0
 .00000036,-0.00000784,-0.00000003,-0.00000129,-0.00000101,0.00000169,-
 0.00000156,0.00000082,-0.00000123,0.00000070,-0.00000045,-0.00000189,0
 .00000004,-0.00000034,0.00000014,-0.00000199,0.00000113,0.00000024,-0.
 00000210,0.00000047,-0.00000096,-0.00000128,-0.00000022,0.00000179,0.0
 0000185,-0.00000057,-0.00000203,0.00000124,0.00000108,-0.00000247,0.00
 000179,0.00000150,-0.00000009,0.00000295,0.00000372,-0.00000260,-0.000
 01043,-0.00000726,-0.00000436,0.00000869,0.00002355,-0.00001975,-0.000
 01313,-0.00000424,0.00000232,-0.00000958,0.00002285,-0.00053532,0.0000
 6432,0.00009322,0.12585761,0.26527489,0.00004920,0.00009815,-0.0002471
 8,0.00006820,0.00016246,0.00024039,0.00202790,-0.00216611,0.00684470,0
 .00029643,0.00026810,-0.00065098,0.00216414,-0.00300971,0.00441989,-0.
 00667680,-0.00853166,0.00165604,-0.00028487,0.00121126,-0.00289091,-0.
 00050293,0.00015152,0.00004226,0.00009871,0.00004504,0.00008841,-0.000
 13763,0.00013467,-0.00011519,0.00005170,0.00002854,-0.00003776,0.00000
 543,0.00001344,-0.00001688,0.00000004,0.00001127,0.00001907,-0.0000015
 6,0.00000439,-0.00004993,0.00000743,0.00000354,0.00000020,0.00000564,0
 .00000758,0.00000675,0.00000407,0.00000080,-0.00000098,-0.00000030,-0.
 00000539,-0.00000108,-0.00000517,-0.00000380,0.00000032,0.00002169,-0.
 00000155,0.00000457,-0.00002793,-0.00000403,-0.00000379,0.00000761,0.0
 0000962,-0.00000068,-0.00000573,0.00000427,-0.00000446,0.00000021,0.00
 000202,0.00000106,-0.00000978,-0.00000699,-0.00000266,-0.00000043,0.00
 000454,0.00000186,-0.00000596,-0.00000105,-0.00000276,0.00000575,-0.00
 000503,-0.00000648,0.00000319,0.00001078,0.00000659,0.00000371,-0.0000
 2112,-0.00002069,0.00002236,0.00020542,0.00014585,-0.00007746,-0.00007
 709,0.00001279,-0.00004939,0.00004137,-0.00006544,0.00000195,0.0002110
 9,-0.00014246,0.00023563,-0.00000936,-0.00009675,0.00072303,-0.0005208
 5,0.00004894,-0.02902949,-0.05999296,-0.05563968,0.00301681,0.00375110
 ,0.00499359,0.00004015,0.00003425,0.00001179,-0.00004006,-0.00004643,0
 .00000549,0.00000233,0.00002918,-0.00002733,-0.00012715,0.00023570,-0.
 00068985,-0.00030439,-0.00049254,0.00013615,-0.00003540,0.00001745,-0.
 00005955,0.00002048,-0.00000138,-0.00000129,0.00000233,-0.00000323,0.0
 0007118,-0.00000273,-0.00000267,0.00000101,0.00000157,-0.00000084,0.00
 000185,-0.00000150,0.00000092,0.00000020,-0.00000169,0.00000006,-0.000
 00013,0.00000006,-0.00000168,0.00000032,0.00000038,-0.00000218,0.00000
 033,-0.00000077,-0.00000092,0.00000058,0.00000155,0.00000217,0.0000005
 4,-0.00000166,0.00000056,0.00000164,-0.00000207,0.00000087,0.00000181,
 0.00000057,0.00000020,0.00000256,-0.00000152,-0.00000813,-0.00000364,-
 0.00000367,-0.00000280,-0.00001737,-0.00003900,-0.00000981,0.00001271,
 0.00001110,-0.00000124,0.00001143,0.00022753,-0.00022442,-0.00129389,0
 .02913482,0.06684771,0.04725197,-0.00007477,-0.00012235,-0.00012898,0.
 00107503,0.00102148,-0.00036016,0.01071159,-0.01305592,-0.00536806,-0.
 00124844,-0.00262425,0.00003844,-0.00061867,-0.00073561,-0.00025179,-0
 .00463471,-0.00204674,0.00123860,0.00016324,0.00119150,0.00037705,-0.0
 0030747,-0.00008561,0.00007595,0.00008427,-0.00003608,-0.00009273,-0.0
 0008248,0.00002497,-0.00002305,-0.00004687,0.00000072,-0.00000698,0.00
 002321,-0.00000035,0.00001101,-0.00002488,0.00003537,0.00002030,-0.000
 00010,-0.00003830,-0.00002731,0.00000724,-0.00000475,-0.00000259,0.000
 00369,0.00000896,0.00000891,0.00000448,-0.00000121,-0.00000017,-0.0000
 0097,-0.00000392,-0.00000128,-0.00000399,-0.00000362,0.00000078,0.0000
 1857,-0.00000121,0.00000366,-0.00002468,-0.00000494,-0.00000262,0.0000
 0695,0.00000982,-0.00000131,-0.00000571,0.00000278,-0.00000359,-0.0000
 0056,0.00000456,0.00000028,-0.00001088,-0.00000248,-0.00000358,-0.0000
 0350,0.00000498,0.00000226,-0.00000668,-0.00000228,-0.00000248,0.00000
 499,-0.00000534,-0.00000377,0.00000562,0.00000927,0.00000917,-0.000012
 71,-0.00002488,-0.00001350,-0.00000922,-0.00003480,0.00000454,0.000003
 26,0.00000608,-0.00000818,0.00001108,-0.00001336,0.00001661,-0.0000072
 5,-0.00003938,0.00000731,-0.00003824,0.00002096,-0.00000385,-0.0000660
 8,-0.00000995,-0.00009489,-0.00976044,0.02535308,0.01110331,-0.1266782
 6,0.11052028,0.05329594,0.00004552,0.00013949,-0.00001083,0.00002512,0
 .00005825,0.00006580,0.00003007,0.00005142,0.00001484,0.00042270,-0.00
 077592,-0.00030728,-0.00003342,0.00011248,-0.00007691,0.00001936,0.000
 03004,0.00002604,0.00000847,0.00000658,0.00000323,0.00000867,0.0000402
 1,0.00002993,-0.00000501,-0.00000095,-0.00000108,0.00000133,-0.0000012
 3,0.00000149,-0.00000102,0.00000068,0.00000011,-0.00000136,-0.00000003
 ,-0.00000010,0.00000002,-0.00000147,0.00000069,0.00000035,-0.00000201,
 0.00000006,-0.00000134,-0.00000083,0.00000026,0.00000153,0.00000154,0.
 00000032,-0.00000191,0.00000160,0.00000118,-0.00000202,0.00000138,0.00
 000095,0.00000079,0.00000061,0.00000112,-0.00000167,-0.00000637,-0.000
 00703,-0.00000648,-0.00000707,0.00000419,-0.00000250,-0.00000321,0.000
 00648,-0.00000337,-0.00001356,0.00001701,0.00001611,0.00005291,-0.0000
 1455,0.00122885,0.00001094,-0.00088663,0.12979555,-0.00038030,-0.00009
 435,0.00026081,0.00124969,0.00179031,0.00164312,0.01697846,-0.01624096
 ,-0.01038216,-0.00405557,-0.00263174,-0.00194339,-0.00106696,0.0001529
 8,0.00040301,-0.00122160,0.00222238,-0.00146614,-0.00026731,0.00022757
 ,-0.00003501,-0.00003738,-0.00000721,-0.00002147,-0.00005319,0.0000105
 3,-0.00004944,0.00002690,-0.00002320,0.00002384,0.00001100,-0.00000701
 ,0.00001011,-0.00000827,-0.00000312,-0.00000132,-0.00000002,-0.0000006
 4,-0.00000064,0.00001021,-0.00000043,0.00000546,0.00000042,-0.00000062
 ,0.00000006,-0.00000407,-0.00000293,-0.00000337,-0.00000213,0.00000005
 ,0.00000025,0.00000010,0.00000257,0.00000060,0.00000286,0.00000245,-0.
 00000048,-0.00001332,0.00000091,-0.00000251,0.00001698,0.00000273,0.00
 000187,-0.00000489,-0.00000595,0.00000092,0.00000361,-0.00000239,0.000
 00216,-0.00000007,-0.00000197,-0.00000060,0.00000604,0.00000099,0.0000
 0132,0.00000098,-0.00000203,-0.00000077,0.00000263,0.00000105,0.000001
 29,-0.00000220,0.00000180,0.00000160,-0.00000306,-0.00000434,-0.000003
 73,0.00000340,0.00001077,0.00000645,-0.00000180,0.00001855,-0.00000804
 ,0.00000378,-0.00000886,0.00000696,-0.00001567,0.00000299,-0.00000363,
 0.00002061,0.00000440,-0.00000387,-0.00001467,-0.00001523,0.00000565,0
 .00005796,0.00000556,-0.00000990,-0.00265356,0.00549475,0.00128755,0.1
 0872573,-0.23214815,-0.08656500,0.00005259,0.00012592,-0.00004612,0.00
 015333,0.00020091,0.00013117,-0.00001198,-0.00001214,-0.00000497,0.000
 79587,-0.00085485,-0.00040137,0.00007574,-0.00009189,0.00020321,-0.000
 01268,0.00000301,0.00001014,-0.00000894,0.00000347,-0.00000113,-0.0000
 0881,-0.00000579,-0.00001085,0.00000122,0.00000101,0.00000031,-0.00000
 089,0.00000069,-0.00000092,0.00000068,-0.00000050,0.,0.00000102,-0.000
 00004,0.00000011,-0.00000004,0.00000103,-0.00000040,-0.00000019,0.0000
 0124,-0.00000022,0.00000049,0.00000063,-0.00000010,-0.00000083,-0.0000
 0100,0.00000007,0.00000110,-0.00000054,-0.00000064,0.00000110,-0.00000
 081,-0.00000076,-0.00000085,0.00000007,-0.00000037,0.00000062,0.000002
 49,0.00000249,0.00000269,0.00000205,-0.00000094,0.00000261,0.00000205,
 -0.00000160,-0.00000109,0.00000090,0.00000231,0.00000062,0.00000297,0.
 00002268,0.00065428,0.00019125,0.00160493,-0.11901299,0.24167564,-0.00
 018325,0.00022779,-0.00050001,-0.00034671,0.00160606,-0.00278321,0.005
 26672,-0.00505202,0.00288230,-0.00028314,-0.00220832,0.00390826,-0.000
 48908,0.00045299,-0.00036742,0.00103671,-0.00127724,0.00656270,0.00025
 976,-0.00029122,0.00041450,0.00012499,0.00002586,-0.00009690,0.0000436
 3,0.00000777,0.00005872,0.00000473,0.00001588,-0.00001852,-0.00001607,
 0.00001692,-0.00001045,0.00000522,-0.00000117,-0.00001127,-0.00000617,
 0.00000193,0.00000590,0.00000518,-0.00000032,-0.00001014,0.00000252,-0
 .00000141,-0.00000146,-0.00000143,0.00000052,-0.00000004,-0.00000021,0
 .00000050,-0.00000035,0.00000004,-0.00000002,0.00000002,0.00000068,0.0
 0000071,-0.00000064,-0.00000383,0.00000013,-0.00000028,0.00000500,0.00
 000142,-0.00000023,-0.00000180,-0.00000223,0.00000111,0.00000112,-0.00
 000051,0.00000006,-0.00000003,-0.00000132,-0.00000025,0.00000133,-0.00
 000039,0.00000026,-0.00000026,0.00000008,-0.00000017,0.00000045,0.0000
 0032,-0.00000052,-0.00000041,0.00000107,-0.00000030,-0.00000044,-0.000
 00041,-0.00000188,0.00000006,0.00000523,0.00000067,0.00000682,-0.00003
 266,-0.00000614,-0.00000832,0.00003296,-0.00002249,0.00004705,0.000000
 15,0.00001465,-0.00005315,-0.00003573,0.00002414,0.00008878,0.00005609
 ,-0.00009781,-0.00008020,-0.00012440,-0.00000509,0.00131889,-0.0032856
 4,0.00161956,0.05241296,-0.08724931,-0.07468223,0.00012623,0.00020731,
 0.00002396,-0.00007543,-0.00013202,-0.00002281,-0.00000859,-0.00001453
 ,0.00000420,0.00021133,-0.00018838,-0.00004631,-0.00008087,0.00017115,
 -0.00061869,0.00002175,0.00000198,-0.00003854,0.00000202,-0.00000335,0
 .00000502,-0.00000338,-0.00000309,0.00000892,-0.00000038,-0.00000026,0
 .00000066,-0.00000014,0.00000045,0.00000020,-0.00000011,0.,0.00000025,
 0.00000026,0.,0.00000012,-0.00000005,0.00000033,-0.00000049,0.00000001
 ,0.00000025,-0.00000004,0.00000027,0.00000027,0.00000028,-0.00000034,-
 0.00000002,0.00000032,0.00000025,-0.00000032,0.00000025,0.00000031,-0.
 00000058,0.00000018,-0.00000028,-0.00000067,0.00000047,-0.00000022,-0.
 00000041,0.00000147,-0.00000085,0.00000179,-0.00000096,-0.00000037,0.0
 0000110,0.00000034,0.00000669,0.00000731,-0.00001866,0.00002619,-0.000
 02370,0.00003182,-0.00069994,0.00175392,-0.00395503,-0.05868254,0.0953
 3141,0.06774799\\-0.00000661,-0.00001029,-0.00000150,-0.00000792,0.000
 00854,0.00000206,0.00001732,0.00000010,-0.00000227,-0.00000321,-0.0000
 0331,-0.00000149,0.00000016,0.00000392,0.00000303,-0.00000151,-0.00000
 163,-0.00000096,0.00000129,0.00000557,-0.00000210,0.00000379,-0.000006
 87,0.00000211,-0.00000124,0.00000519,-0.00000465,-0.00000443,-0.000002
 62,0.00000537,-0.00000951,0.00000571,0.00000201,0.00000947,-0.00000573
 ,0.00000236,0.00000150,-0.00000553,-0.00000494,0.00000438,0.00000282,0
 .00000567,-0.00000388,0.00000695,0.00000216,-0.00000099,-0.00000518,-0
 .00000193,0.00000128,0.00000148,-0.00000102,-0.00000201,0.00000328,-0.
 00000062,0.00000550,0.00000120,0.00000143,-0.00001716,-0.00000021,-0.0
 0000238,0.00000779,-0.00000852,0.00000219,0.00000667,0.00001030,-0.000
 00156,0.00000311,0.00000333,-0.00000152,-0.00000007,-0.00000382,0.0000
 0325,0.00000138,0.00000570,0.00000427,-0.00000280,-0.00000547,-0.00000
 633,0.00000531,0.00000401,0.00000510,-0.00000569,0.00000562,0.00000258
 ,0.00000356,-0.00000535,-0.00000194,-0.00000479,0.00000259,-0.00000380
 ,0.00000477,-0.00000285,-0.00000359,-0.00000348,0.00000548,-0.00000214
 ,0.00000570,-0.00000565,0.00000252,-0.00000537,-0.00000402,0.00000513,
 0.00000282,0.00000546,-0.00000607,-0.00000161,-0.00000588,0.00000415,0
 .00000217,-0.00000320,-0.00000081,-0.00000551,-0.00000120,0.00000139,0
 .00000020,0.00000062,0.00000084,-0.00000060,0.00000109,0.00000004,-0.0
 0000005,0.00000069,0.00000035,0.00000292,0.00000185,0.00000092,0.00000
 076,0.00000004,-0.00000120,-0.00000130,0.00000175,-0.00000008,0.000006
 97,0.00000208,-0.00000381,-0.00000688,-0.00000205,-0.00000374,0.000001
 29,-0.00000177,-0.00000007,-0.00000046,-0.00000024,-0.00000028,-0.0000
 0053,0.00000119,-0.00000019,0.00000005,-0.00000071,0.00000036,0.000000
 58,-0.00000109,0.00000010,-0.00000020,-0.00000063,0.00000090,-0.000002
 93,-0.00000184,0.00000099,-0.00000074,-0.00000005,-0.00000121,-0.00000
 037,-0.00000019,0.00000060,-0.00000115,-0.00000034,-0.00000191,0.00000
 157,-0.00000157,-0.00000044,-0.00000116,0.00000067,0.00000244,0.000001
 04,-0.00000065,0.00000233,-0.00000154,0.00000163,-0.00000035,0.0000011
 4,0.00000033,-0.00000190,0.00000015,0.00000013,0.00000077,0.00000052,0
 .00000030,-0.00000039,0.00000051,-0.00000120,-0.00000020\\\@
 The archive entry for this job was punched.


 CONFIDENCE: THAT QUIET ASSURED FEELING YOU HAVE
 JUST BEFORE YOU FALL FLAT ON YOUR FACE.
 Job cpu time:       0 days  7 hours  6 minutes 46.8 seconds.
 Elapsed time:       0 days  0 hours 10 minutes 49.2 seconds.
 File lengths (MBytes):  RWF=   2410 Int=      0 D2E=      0 Chk=     31 Scr=      1
 Normal termination of Gaussian 16 at Sun Feb 25 03:06:54 2024.
