 Entering Gaussian System, Link 0=g16
 Initial command:
 /public/apps/g16-C01//g16/l1.exe "/public/home/ljq/tmp/Gau-88705.inp" -scrdir="/public/home/ljq/tmp/"
 Entering Link 1 = /public/apps/g16-C01//g16/l1.exe PID=     88706.
  
 Copyright (c) 1988-2019, Gaussian, Inc.  All Rights Reserved.
  
 This is part of the Gaussian(R) 16 program.  It is based on
 the Gaussian(R) 09 system (copyright 2009, Gaussian, Inc.),
 the Gaussian(R) 03 system (copyright 2003, Gaussian, Inc.),
 the Gaussian(R) 98 system (copyright 1998, Gaussian, Inc.),
 the Gaussian(R) 94 system (copyright 1995, Gaussian, Inc.),
 the Gaussian 92(TM) system (copyright 1992, Gaussian, Inc.),
 the Gaussian 90(TM) system (copyright 1990, Gaussian, Inc.),
 the Gaussian 88(TM) system (copyright 1988, Gaussian, Inc.),
 the Gaussian 86(TM) system (copyright 1986, Carnegie Mellon
 University), and the Gaussian 82(TM) system (copyright 1983,
 Carnegie Mellon University). Gaussian is a federally registered
 trademark of Gaussian, Inc.
  
 This software contains proprietary and confidential information,
 including trade secrets, belonging to Gaussian, Inc.
  
 This software is provided under written license and may be
 used, copied, transmitted, or stored only in accord with that
 written license.
  
 The following legend is applicable only to US Government
 contracts under FAR:
  
                    RESTRICTED RIGHTS LEGEND
  
 Use, reproduction and disclosure by the US Government is
 subject to restrictions as set forth in subparagraphs (a)
 and (c) of the Commercial Computer Software - Restricted
 Rights clause in FAR 52.227-19.
  
 Gaussian, Inc.
 340 Quinnipiac St., Bldg. 40, Wallingford CT 06492
  
  
 ---------------------------------------------------------------
 Warning -- This program may not be used in any manner that
 competes with the business of Gaussian, Inc. or will provide
 assistance to any competitor of Gaussian, Inc.  The licensee
 of this program is prohibited from giving any competitor of
 Gaussian, Inc. access to this program.  By using this program,
 the user acknowledges that Gaussian, Inc. is engaged in the
 business of creating and licensing software in the field of
 computational chemistry and represents and warrants to the
 licensee that it is not a competitor of Gaussian, Inc. and that
 it will not use this program in any manner prohibited above.
 ---------------------------------------------------------------
  

 Cite this work as:
 Gaussian 16, Revision C.01,
 M. J. Frisch, G. W. Trucks, H. B. Schlegel, G. E. Scuseria, 
 M. A. Robb, J. R. Cheeseman, G. Scalmani, V. Barone, 
 G. A. Petersson, H. Nakatsuji, X. Li, M. Caricato, A. V. Marenich, 
 J. Bloino, B. G. Janesko, R. Gomperts, B. Mennucci, H. P. Hratchian, 
 J. V. Ortiz, A. F. Izmaylov, J. L. Sonnenberg, D. Williams-Young, 
 F. Ding, F. Lipparini, F. Egidi, J. Goings, B. Peng, A. Petrone, 
 T. Henderson, D. Ranasinghe, V. G. Zakrzewski, J. Gao, N. Rega, 
 G. Zheng, W. Liang, M. Hada, M. Ehara, K. Toyota, R. Fukuda, 
 J. Hasegawa, M. Ishida, T. Nakajima, Y. Honda, O. Kitao, H. Nakai, 
 T. Vreven, K. Throssell, J. A. Montgomery, Jr., J. E. Peralta, 
 F. Ogliaro, M. J. Bearpark, J. J. Heyd, E. N. Brothers, K. N. Kudin, 
 V. N. Staroverov, T. A. Keith, R. Kobayashi, J. Normand, 
 K. Raghavachari, A. P. Rendell, J. C. Burant, S. S. Iyengar, 
 J. Tomasi, M. Cossi, J. M. Millam, M. Klene, C. Adamo, R. Cammi, 
 J. W. Ochterski, R. L. Martin, K. Morokuma, O. Farkas, 
 J. B. Foresman, and D. J. Fox, Gaussian, Inc., Wallingford CT, 2019.
 
 ******************************************
 Gaussian 16:  ES64L-G16RevC.01  3-Jul-2019
                25-Feb-2024 
 ******************************************
 %nproc=40
 Will use up to   40 processors via shared memory.
 %mem=56GB
 ------------------------------------------
 #p opt freq b3lyp/def2svpp em=gd3bj nosymm
 ------------------------------------------
 1/18=20,19=15,26=3,38=1/1,3;
 2/9=110,12=2,15=1,17=6,18=5,40=1/2;
 3/5=43,7=202,11=2,25=1,30=1,71=1,74=-5,124=41/1,2,3;
 4//1;
 5/5=2,38=5/2;
 6/7=2,8=2,9=2,10=2,28=1/1;
 7/30=1/1,2,3,16;
 1/18=20,19=15,26=3/3(2);
 2/9=110,15=1/2;
 99//99;
 2/9=110,15=1/2;
 3/5=43,7=202,11=2,25=1,30=1,71=1,74=-5,124=41/1,2,3;
 4/5=5,16=3,69=1/1;
 5/5=2,38=5/2;
 7/30=1/1,2,3,16;
 1/18=20,19=15,26=3/3(-5);
 2/9=110,15=1/2;
 6/7=2,8=2,9=2,10=2,19=2,28=1/1;
 99/9=1/99;
 Leave Link    1 at Sun Feb 25 03:15:47 2024, MaxMem=  7516192768 cpu:               1.0 elap:               0.0
 (Enter /public/apps/g16-C01//g16/l101.exe)
 ----------------------
 $$$$Singlemol####0????
 ----------------------
 Symbolic Z-matrix:
 Charge =  0 Multiplicity = 1
 O                     0.62516   1.71983  -1.4942 
 C                     1.37882   0.87577  -0.74208 
 C                     2.78045   0.90515  -0.80082 
 C                     3.54842   0.03183  -0.06885 
 C                     5.01292   0.0787   -0.22406 
 C                     5.72362  -1.05166  -0.622 
 C                     7.09301  -0.99735  -0.79613 
 C                     7.76481   0.19733  -0.57373 
 C                     9.25633   0.26925  -0.7241 
 F                     9.88874   0.17229   0.46379 
 F                     9.75741  -0.70752  -1.49384 
 F                     9.66504   1.42922  -1.26566 
 C                     7.07003   1.33368  -0.17906 
 C                     5.70045   1.27122  -0.01272 
 C                     2.92288  -0.89603   0.8047 
 C                     3.65609  -1.7582    1.6477 
 C                     3.02081  -2.63185   2.48486 
 C                     1.61961  -2.67812   2.52939 
 C                     0.8786   -1.8411    1.74531 
 C                     1.50284  -0.92758   0.86627 
 C                     0.73643  -0.03892   0.07273 
 C                    -0.7465   -0.07403   0.08858 
 C                    -1.414    -1.06365  -0.6038 
 O                    -0.76708  -2.05367  -1.27378 
 C                    -2.81752  -1.07012  -0.65597 
 C                    -3.55739  -0.09918  -0.03092 
 C                    -5.02224  -0.11862  -0.18486 
 C                    -5.70041   0.99117  -0.68652 
 C                    -7.07021   0.96027  -0.85586 
 C                    -7.77888  -0.18696  -0.51862 
 C                    -9.26445  -0.20622  -0.72576 
 F                    -9.85596   0.93099  -0.31754 
 F                    -9.59437  -0.34487  -2.02684 
 F                    -9.87949  -1.20596  -0.07764 
 C                    -7.11665  -1.30473  -0.03008 
 C                    -5.74491  -1.26594   0.13149 
 C                    -2.90398   0.90552   0.73419 
 C                    -3.61241   1.86799   1.48327 
 C                    -2.95445   2.81615   2.21633 
 C                    -1.55343   2.83824   2.24627 
 C                    -0.83675   1.90339   1.55455 
 C                    -1.48435   0.91472   0.78361 
 H                     1.1952    2.30524  -2.00673 
 H                     3.26165   1.61263  -1.46439 
 H                     5.19518  -1.97411  -0.80994 
 H                     7.63959  -1.87368  -1.10883 
 H                     7.6022    2.25719  -0.00925 
 H                     5.15678   2.14982   0.3003 
 H                     4.73446  -1.70802   1.63649 
 H                     3.59551  -3.28409   3.12507 
 H                     1.13094  -3.37017   3.19857 
 H                    -0.20017  -1.8543    1.7958 
 H                     0.18733  -1.93939  -1.17307 
 H                    -3.2948   -1.84269  -1.23872 
 H                    -5.144     1.8747   -0.9605 
 H                    -7.59489   1.81952  -1.24538 
 H                    -7.67345  -2.19337   0.22481 
 H                    -5.22541  -2.12908   0.51895 
 H                    -4.6918    1.83849   1.48613 
 H                    -3.51137   3.54631   2.78457 
 H                    -1.04509   3.58957   2.83261 
 H                     0.24239   1.90112   1.6003 
 
 ITRead=  0  0  0  0  0  0  0  0  0  0  0  0  0  0  0  0  0  0  0  0
 ITRead=  0  0  0  0  0  0  0  0  0  0  0  0  0  0  0  0  0  0  0  0
 ITRead=  0  0  0  0  0  0  0  0  0  0  0  0  0  0  0  0  0  0  0  0
 ITRead=  0  0
 MicOpt= -1 -1 -1 -1 -1 -1 -1 -1 -1 -1 -1 -1 -1 -1 -1 -1 -1 -1 -1 -1
 MicOpt= -1 -1 -1 -1 -1 -1 -1 -1 -1 -1 -1 -1 -1 -1 -1 -1 -1 -1 -1 -1
 MicOpt= -1 -1 -1 -1 -1 -1 -1 -1 -1 -1 -1 -1 -1 -1 -1 -1 -1 -1 -1 -1
 MicOpt= -1 -1
 NAtoms=     62 NQM=       62 NQMF=       0 NMMI=      0 NMMIF=      0
                NMic=       0 NMicF=      0.
                    Isotopes and Nuclear Properties:
 (Nuclear quadrupole moments (NQMom) in fm**2, nuclear magnetic moments (NMagM)
  in nuclear magnetons)

  Atom         1           2           3           4           5           6           7           8           9          10
 IAtWgt=          16          12          12          12          12          12          12          12          12          19
 AtmWgt=  15.9949146  12.0000000  12.0000000  12.0000000  12.0000000  12.0000000  12.0000000  12.0000000  12.0000000  18.9984032
 NucSpn=           0           0           0           0           0           0           0           0           0           1
 AtZEff=  -0.0000000  -0.0000000  -0.0000000  -0.0000000  -0.0000000  -0.0000000  -0.0000000  -0.0000000  -0.0000000  -0.0000000
 NQMom=    0.0000000   0.0000000   0.0000000   0.0000000   0.0000000   0.0000000   0.0000000   0.0000000   0.0000000   0.0000000
 NMagM=    0.0000000   0.0000000   0.0000000   0.0000000   0.0000000   0.0000000   0.0000000   0.0000000   0.0000000   2.6288670
 AtZNuc=   8.0000000   6.0000000   6.0000000   6.0000000   6.0000000   6.0000000   6.0000000   6.0000000   6.0000000   9.0000000

  Atom        11          12          13          14          15          16          17          18          19          20
 IAtWgt=          19          19          12          12          12          12          12          12          12          12
 AtmWgt=  18.9984032  18.9984032  12.0000000  12.0000000  12.0000000  12.0000000  12.0000000  12.0000000  12.0000000  12.0000000
 NucSpn=           1           1           0           0           0           0           0           0           0           0
 AtZEff=  -0.0000000  -0.0000000  -0.0000000  -0.0000000  -0.0000000  -0.0000000  -0.0000000  -0.0000000  -0.0000000  -0.0000000
 NQMom=    0.0000000   0.0000000   0.0000000   0.0000000   0.0000000   0.0000000   0.0000000   0.0000000   0.0000000   0.0000000
 NMagM=    2.6288670   2.6288670   0.0000000   0.0000000   0.0000000   0.0000000   0.0000000   0.0000000   0.0000000   0.0000000
 AtZNuc=   9.0000000   9.0000000   6.0000000   6.0000000   6.0000000   6.0000000   6.0000000   6.0000000   6.0000000   6.0000000

  Atom        21          22          23          24          25          26          27          28          29          30
 IAtWgt=          12          12          12          16          12          12          12          12          12          12
 AtmWgt=  12.0000000  12.0000000  12.0000000  15.9949146  12.0000000  12.0000000  12.0000000  12.0000000  12.0000000  12.0000000
 NucSpn=           0           0           0           0           0           0           0           0           0           0
 AtZEff=  -0.0000000  -0.0000000  -0.0000000  -0.0000000  -0.0000000  -0.0000000  -0.0000000  -0.0000000  -0.0000000  -0.0000000
 NQMom=    0.0000000   0.0000000   0.0000000   0.0000000   0.0000000   0.0000000   0.0000000   0.0000000   0.0000000   0.0000000
 NMagM=    0.0000000   0.0000000   0.0000000   0.0000000   0.0000000   0.0000000   0.0000000   0.0000000   0.0000000   0.0000000
 AtZNuc=   6.0000000   6.0000000   6.0000000   8.0000000   6.0000000   6.0000000   6.0000000   6.0000000   6.0000000   6.0000000

  Atom        31          32          33          34          35          36          37          38          39          40
 IAtWgt=          12          19          19          19          12          12          12          12          12          12
 AtmWgt=  12.0000000  18.9984032  18.9984032  18.9984032  12.0000000  12.0000000  12.0000000  12.0000000  12.0000000  12.0000000
 NucSpn=           0           1           1           1           0           0           0           0           0           0
 AtZEff=  -0.0000000  -0.0000000  -0.0000000  -0.0000000  -0.0000000  -0.0000000  -0.0000000  -0.0000000  -0.0000000  -0.0000000
 NQMom=    0.0000000   0.0000000   0.0000000   0.0000000   0.0000000   0.0000000   0.0000000   0.0000000   0.0000000   0.0000000
 NMagM=    0.0000000   2.6288670   2.6288670   2.6288670   0.0000000   0.0000000   0.0000000   0.0000000   0.0000000   0.0000000
 AtZNuc=   6.0000000   9.0000000   9.0000000   9.0000000   6.0000000   6.0000000   6.0000000   6.0000000   6.0000000   6.0000000

  Atom        41          42          43          44          45          46          47          48          49          50
 IAtWgt=          12          12           1           1           1           1           1           1           1           1
 AtmWgt=  12.0000000  12.0000000   1.0078250   1.0078250   1.0078250   1.0078250   1.0078250   1.0078250   1.0078250   1.0078250
 NucSpn=           0           0           1           1           1           1           1           1           1           1
 AtZEff=  -0.0000000  -0.0000000  -0.0000000  -0.0000000  -0.0000000  -0.0000000  -0.0000000  -0.0000000  -0.0000000  -0.0000000
 NQMom=    0.0000000   0.0000000   0.0000000   0.0000000   0.0000000   0.0000000   0.0000000   0.0000000   0.0000000   0.0000000
 NMagM=    0.0000000   0.0000000   2.7928460   2.7928460   2.7928460   2.7928460   2.7928460   2.7928460   2.7928460   2.7928460
 AtZNuc=   6.0000000   6.0000000   1.0000000   1.0000000   1.0000000   1.0000000   1.0000000   1.0000000   1.0000000   1.0000000

  Atom        51          52          53          54          55          56          57          58          59          60
 IAtWgt=           1           1           1           1           1           1           1           1           1           1
 AtmWgt=   1.0078250   1.0078250   1.0078250   1.0078250   1.0078250   1.0078250   1.0078250   1.0078250   1.0078250   1.0078250
 NucSpn=           1           1           1           1           1           1           1           1           1           1
 AtZEff=  -0.0000000  -0.0000000  -0.0000000  -0.0000000  -0.0000000  -0.0000000  -0.0000000  -0.0000000  -0.0000000  -0.0000000
 NQMom=    0.0000000   0.0000000   0.0000000   0.0000000   0.0000000   0.0000000   0.0000000   0.0000000   0.0000000   0.0000000
 NMagM=    2.7928460   2.7928460   2.7928460   2.7928460   2.7928460   2.7928460   2.7928460   2.7928460   2.7928460   2.7928460
 AtZNuc=   1.0000000   1.0000000   1.0000000   1.0000000   1.0000000   1.0000000   1.0000000   1.0000000   1.0000000   1.0000000

  Atom        61          62
 IAtWgt=           1           1
 AtmWgt=   1.0078250   1.0078250
 NucSpn=           1           1
 AtZEff=  -0.0000000  -0.0000000
 NQMom=    0.0000000   0.0000000
 NMagM=    2.7928460   2.7928460
 AtZNuc=   1.0000000   1.0000000
 Leave Link  101 at Sun Feb 25 03:15:47 2024, MaxMem=  7516192768 cpu:               7.3 elap:               0.2
 (Enter /public/apps/g16-C01//g16/l103.exe)

 GradGradGradGradGradGradGradGradGradGradGradGradGradGradGradGradGradGrad
 Berny optimization.
 Initialization pass.
                           ----------------------------
                           !    Initial Parameters    !
                           ! (Angstroms and Degrees)  !
 --------------------------                            --------------------------
 ! Name  Definition              Value          Derivative Info.                !
 --------------------------------------------------------------------------------
 ! R1    R(1,2)                  1.3587         estimate D2E/DX2                !
 ! R2    R(1,43)                 0.9645         estimate D2E/DX2                !
 ! R3    R(2,3)                  1.4032         estimate D2E/DX2                !
 ! R4    R(2,21)                 1.3832         estimate D2E/DX2                !
 ! R5    R(3,4)                  1.3741         estimate D2E/DX2                !
 ! R6    R(3,44)                 1.0828         estimate D2E/DX2                !
 ! R7    R(4,5)                  1.4734         estimate D2E/DX2                !
 ! R8    R(4,15)                 1.4196         estimate D2E/DX2                !
 ! R9    R(5,6)                  1.3933         estimate D2E/DX2                !
 ! R10   R(5,14)                 1.3926         estimate D2E/DX2                !
 ! R11   R(6,7)                  1.3815         estimate D2E/DX2                !
 ! R12   R(6,45)                 1.0796         estimate D2E/DX2                !
 ! R13   R(7,8)                  1.3885         estimate D2E/DX2                !
 ! R14   R(7,46)                 1.0791         estimate D2E/DX2                !
 ! R15   R(8,9)                  1.5008         estimate D2E/DX2                !
 ! R16   R(8,13)                 1.3892         estimate D2E/DX2                !
 ! R17   R(9,10)                 1.3492         estimate D2E/DX2                !
 ! R18   R(9,11)                 1.3408         estimate D2E/DX2                !
 ! R19   R(9,12)                 1.3438         estimate D2E/DX2                !
 ! R20   R(13,14)                1.3811         estimate D2E/DX2                !
 ! R21   R(13,47)                1.0793         estimate D2E/DX2                !
 ! R22   R(14,48)                1.0796         estimate D2E/DX2                !
 ! R23   R(15,16)                1.4112         estimate D2E/DX2                !
 ! R24   R(15,20)                1.4217         estimate D2E/DX2                !
 ! R25   R(16,17)                1.3666         estimate D2E/DX2                !
 ! R26   R(16,49)                1.0796         estimate D2E/DX2                !
 ! R27   R(17,18)                1.4027         estimate D2E/DX2                !
 ! R28   R(17,50)                1.0796         estimate D2E/DX2                !
 ! R29   R(18,19)                1.3655         estimate D2E/DX2                !
 ! R30   R(18,51)                1.0796         estimate D2E/DX2                !
 ! R31   R(19,20)                1.4131         estimate D2E/DX2                !
 ! R32   R(19,52)                1.08           estimate D2E/DX2                !
 ! R33   R(20,21)                1.4166         estimate D2E/DX2                !
 ! R34   R(21,22)                1.4834         estimate D2E/DX2                !
 ! R35   R(22,23)                1.38           estimate D2E/DX2                !
 ! R36   R(22,42)                1.416          estimate D2E/DX2                !
 ! R37   R(23,24)                1.3592         estimate D2E/DX2                !
 ! R38   R(23,25)                1.4045         estimate D2E/DX2                !
 ! R39   R(24,53)                0.9665         estimate D2E/DX2                !
 ! R40   R(25,26)                1.3714         estimate D2E/DX2                !
 ! R41   R(25,54)                1.079          estimate D2E/DX2                !
 ! R42   R(26,27)                1.473          estimate D2E/DX2                !
 ! R43   R(26,37)                1.4219         estimate D2E/DX2                !
 ! R44   R(27,28)                1.394          estimate D2E/DX2                !
 ! R45   R(27,36)                1.3924         estimate D2E/DX2                !
 ! R46   R(28,29)                1.3806         estimate D2E/DX2                !
 ! R47   R(28,55)                1.0795         estimate D2E/DX2                !
 ! R48   R(29,30)                1.39           estimate D2E/DX2                !
 ! R49   R(29,56)                1.0795         estimate D2E/DX2                !
 ! R50   R(30,31)                1.5001         estimate D2E/DX2                !
 ! R51   R(30,35)                1.388          estimate D2E/DX2                !
 ! R52   R(31,32)                1.3453         estimate D2E/DX2                !
 ! R53   R(31,33)                1.3494         estimate D2E/DX2                !
 ! R54   R(31,34)                1.3408         estimate D2E/DX2                !
 ! R55   R(35,36)                1.3818         estimate D2E/DX2                !
 ! R56   R(35,57)                1.0792         estimate D2E/DX2                !
 ! R57   R(36,58)                1.0794         estimate D2E/DX2                !
 ! R58   R(37,38)                1.4104         estimate D2E/DX2                !
 ! R59   R(37,42)                1.4205         estimate D2E/DX2                !
 ! R60   R(38,39)                1.3672         estimate D2E/DX2                !
 ! R61   R(38,59)                1.0798         estimate D2E/DX2                !
 ! R62   R(39,40)                1.4015         estimate D2E/DX2                !
 ! R63   R(39,60)                1.0799         estimate D2E/DX2                !
 ! R64   R(40,41)                1.366          estimate D2E/DX2                !
 ! R65   R(40,61)                1.0801         estimate D2E/DX2                !
 ! R66   R(41,42)                1.4111         estimate D2E/DX2                !
 ! R67   R(41,62)                1.0801         estimate D2E/DX2                !
 ! A1    A(2,1,43)             110.082          estimate D2E/DX2                !
 ! A2    A(1,2,3)              121.1913         estimate D2E/DX2                !
 ! A3    A(1,2,21)             118.6378         estimate D2E/DX2                !
 ! A4    A(3,2,21)             120.1606         estimate D2E/DX2                !
 ! A5    A(2,3,4)              121.511          estimate D2E/DX2                !
 ! A6    A(2,3,44)             118.8983         estimate D2E/DX2                !
 ! A7    A(4,3,44)             119.5599         estimate D2E/DX2                !
 ! A8    A(3,4,5)              118.6302         estimate D2E/DX2                !
 ! A9    A(3,4,15)             119.795          estimate D2E/DX2                !
 ! A10   A(5,4,15)             121.5727         estimate D2E/DX2                !
 ! A11   A(4,5,6)              120.7495         estimate D2E/DX2                !
 ! A12   A(4,5,14)             120.1283         estimate D2E/DX2                !
 ! A13   A(6,5,14)             119.0934         estimate D2E/DX2                !
 ! A14   A(5,6,7)              120.6465         estimate D2E/DX2                !
 ! A15   A(5,6,45)             119.5549         estimate D2E/DX2                !
 ! A16   A(7,6,45)             119.7922         estimate D2E/DX2                !
 ! A17   A(6,7,8)              119.5526         estimate D2E/DX2                !
 ! A18   A(6,7,46)             120.4423         estimate D2E/DX2                !
 ! A19   A(8,7,46)             120.0039         estimate D2E/DX2                !
 ! A20   A(7,8,9)              120.3986         estimate D2E/DX2                !
 ! A21   A(7,8,13)             120.4861         estimate D2E/DX2                !
 ! A22   A(9,8,13)             119.0984         estimate D2E/DX2                !
 ! A23   A(8,9,10)             111.9729         estimate D2E/DX2                !
 ! A24   A(8,9,11)             113.2047         estimate D2E/DX2                !
 ! A25   A(8,9,12)             112.5818         estimate D2E/DX2                !
 ! A26   A(10,9,11)            106.1366         estimate D2E/DX2                !
 ! A27   A(10,9,12)            105.9196         estimate D2E/DX2                !
 ! A28   A(11,9,12)            106.4877         estimate D2E/DX2                !
 ! A29   A(8,13,14)            119.552          estimate D2E/DX2                !
 ! A30   A(8,13,47)            119.8692         estimate D2E/DX2                !
 ! A31   A(14,13,47)           120.5783         estimate D2E/DX2                !
 ! A32   A(5,14,13)            120.6658         estimate D2E/DX2                !
 ! A33   A(5,14,48)            119.4896         estimate D2E/DX2                !
 ! A34   A(13,14,48)           119.8366         estimate D2E/DX2                !
 ! A35   A(4,15,16)            122.5437         estimate D2E/DX2                !
 ! A36   A(4,15,20)            118.7688         estimate D2E/DX2                !
 ! A37   A(16,15,20)           118.6531         estimate D2E/DX2                !
 ! A38   A(15,16,17)           120.9949         estimate D2E/DX2                !
 ! A39   A(15,16,49)           118.9705         estimate D2E/DX2                !
 ! A40   A(17,16,49)           120.0263         estimate D2E/DX2                !
 ! A41   A(16,17,18)           120.3246         estimate D2E/DX2                !
 ! A42   A(16,17,50)           120.1334         estimate D2E/DX2                !
 ! A43   A(18,17,50)           119.5385         estimate D2E/DX2                !
 ! A44   A(17,18,19)           120.2425         estimate D2E/DX2                !
 ! A45   A(17,18,51)           119.5374         estimate D2E/DX2                !
 ! A46   A(19,18,51)           120.2141         estimate D2E/DX2                !
 ! A47   A(18,19,20)           120.9136         estimate D2E/DX2                !
 ! A48   A(18,19,52)           120.5116         estimate D2E/DX2                !
 ! A49   A(20,19,52)           118.5687         estimate D2E/DX2                !
 ! A50   A(15,20,19)           118.8496         estimate D2E/DX2                !
 ! A51   A(15,20,21)           120.1452         estimate D2E/DX2                !
 ! A52   A(19,20,21)           120.9968         estimate D2E/DX2                !
 ! A53   A(2,21,20)            119.5739         estimate D2E/DX2                !
 ! A54   A(2,21,22)            119.0922         estimate D2E/DX2                !
 ! A55   A(20,21,22)           121.3324         estimate D2E/DX2                !
 ! A56   A(21,22,23)           119.6804         estimate D2E/DX2                !
 ! A57   A(21,22,42)           120.638          estimate D2E/DX2                !
 ! A58   A(23,22,42)           119.6677         estimate D2E/DX2                !
 ! A59   A(22,23,24)           122.6448         estimate D2E/DX2                !
 ! A60   A(22,23,25)           120.3522         estimate D2E/DX2                !
 ! A61   A(24,23,25)           116.9969         estimate D2E/DX2                !
 ! A62   A(23,24,53)           109.4214         estimate D2E/DX2                !
 ! A63   A(23,25,26)           121.2598         estimate D2E/DX2                !
 ! A64   A(23,25,54)           117.7352         estimate D2E/DX2                !
 ! A65   A(26,25,54)           120.959          estimate D2E/DX2                !
 ! A66   A(25,26,27)           118.6537         estimate D2E/DX2                !
 ! A67   A(25,26,37)           119.84           estimate D2E/DX2                !
 ! A68   A(27,26,37)           121.503          estimate D2E/DX2                !
 ! A69   A(26,27,28)           120.7233         estimate D2E/DX2                !
 ! A70   A(26,27,36)           120.2164         estimate D2E/DX2                !
 ! A71   A(28,27,36)           119.0305         estimate D2E/DX2                !
 ! A72   A(27,28,29)           120.5987         estimate D2E/DX2                !
 ! A73   A(27,28,55)           119.4845         estimate D2E/DX2                !
 ! A74   A(29,28,55)           119.9078         estimate D2E/DX2                !
 ! A75   A(28,29,30)           119.6414         estimate D2E/DX2                !
 ! A76   A(28,29,56)           120.577          estimate D2E/DX2                !
 ! A77   A(30,29,56)           119.7814         estimate D2E/DX2                !
 ! A78   A(29,30,31)           118.8163         estimate D2E/DX2                !
 ! A79   A(29,30,35)           120.4513         estimate D2E/DX2                !
 ! A80   A(31,30,35)           120.7136         estimate D2E/DX2                !
 ! A81   A(30,31,32)           112.5001         estimate D2E/DX2                !
 ! A82   A(30,31,33)           112.1234         estimate D2E/DX2                !
 ! A83   A(30,31,34)           113.3967         estimate D2E/DX2                !
 ! A84   A(32,31,33)           105.7794         estimate D2E/DX2                !
 ! A85   A(32,31,34)           106.3749         estimate D2E/DX2                !
 ! A86   A(33,31,34)           106.0995         estimate D2E/DX2                !
 ! A87   A(30,35,36)           119.4839         estimate D2E/DX2                !
 ! A88   A(30,35,57)           120.0054         estimate D2E/DX2                !
 ! A89   A(36,35,57)           120.5101         estimate D2E/DX2                !
 ! A90   A(27,36,35)           120.7856         estimate D2E/DX2                !
 ! A91   A(27,36,58)           119.3863         estimate D2E/DX2                !
 ! A92   A(35,36,58)           119.8237         estimate D2E/DX2                !
 ! A93   A(26,37,38)           122.4887         estimate D2E/DX2                !
 ! A94   A(26,37,42)           118.852          estimate D2E/DX2                !
 ! A95   A(38,37,42)           118.6246         estimate D2E/DX2                !
 ! A96   A(37,38,39)           121.0823         estimate D2E/DX2                !
 ! A97   A(37,38,59)           119.0026         estimate D2E/DX2                !
 ! A98   A(39,38,59)           119.9068         estimate D2E/DX2                !
 ! A99   A(38,39,40)           120.229          estimate D2E/DX2                !
 ! A100  A(38,39,60)           120.1885         estimate D2E/DX2                !
 ! A101  A(40,39,60)           119.5792         estimate D2E/DX2                !
 ! A102  A(39,40,41)           120.1885         estimate D2E/DX2                !
 ! A103  A(39,40,61)           119.5392         estimate D2E/DX2                !
 ! A104  A(41,40,61)           120.265          estimate D2E/DX2                !
 ! A105  A(40,41,42)           121.0218         estimate D2E/DX2                !
 ! A106  A(40,41,62)           120.2752         estimate D2E/DX2                !
 ! A107  A(42,41,62)           118.6978         estimate D2E/DX2                !
 ! A108  A(22,42,37)           119.9435         estimate D2E/DX2                !
 ! A109  A(22,42,41)           121.2152         estimate D2E/DX2                !
 ! A110  A(37,42,41)           118.8286         estimate D2E/DX2                !
 ! D1    D(43,1,2,3)            -1.5912         estimate D2E/DX2                !
 ! D2    D(43,1,2,21)          179.5782         estimate D2E/DX2                !
 ! D3    D(1,2,3,4)           -178.3199         estimate D2E/DX2                !
 ! D4    D(1,2,3,44)            -0.3467         estimate D2E/DX2                !
 ! D5    D(21,2,3,4)             0.4931         estimate D2E/DX2                !
 ! D6    D(21,2,3,44)          178.4663         estimate D2E/DX2                !
 ! D7    D(1,2,21,20)         -179.9414         estimate D2E/DX2                !
 ! D8    D(1,2,21,22)            0.5011         estimate D2E/DX2                !
 ! D9    D(3,2,21,20)            1.2155         estimate D2E/DX2                !
 ! D10   D(3,2,21,22)         -178.342          estimate D2E/DX2                !
 ! D11   D(2,3,4,5)            177.313          estimate D2E/DX2                !
 ! D12   D(2,3,4,15)            -2.1656         estimate D2E/DX2                !
 ! D13   D(44,3,4,5)            -0.647          estimate D2E/DX2                !
 ! D14   D(44,3,4,15)          179.8744         estimate D2E/DX2                !
 ! D15   D(3,4,5,6)           -122.3444         estimate D2E/DX2                !
 ! D16   D(3,4,5,14)            55.6854         estimate D2E/DX2                !
 ! D17   D(15,4,5,6)            57.1246         estimate D2E/DX2                !
 ! D18   D(15,4,5,14)         -124.8456         estimate D2E/DX2                !
 ! D19   D(3,4,15,16)         -175.7448         estimate D2E/DX2                !
 ! D20   D(3,4,15,20)            2.0901         estimate D2E/DX2                !
 ! D21   D(5,4,15,16)            4.7923         estimate D2E/DX2                !
 ! D22   D(5,4,15,20)         -177.3728         estimate D2E/DX2                !
 ! D23   D(4,5,6,7)            178.5269         estimate D2E/DX2                !
 ! D24   D(4,5,6,45)            -0.5489         estimate D2E/DX2                !
 ! D25   D(14,5,6,7)             0.477          estimate D2E/DX2                !
 ! D26   D(14,5,6,45)         -178.5988         estimate D2E/DX2                !
 ! D27   D(4,5,14,13)         -178.8022         estimate D2E/DX2                !
 ! D28   D(4,5,14,48)            2.2283         estimate D2E/DX2                !
 ! D29   D(6,5,14,13)           -0.7399         estimate D2E/DX2                !
 ! D30   D(6,5,14,48)         -179.7094         estimate D2E/DX2                !
 ! D31   D(5,6,7,8)             -0.103          estimate D2E/DX2                !
 ! D32   D(5,6,7,46)          -179.7167         estimate D2E/DX2                !
 ! D33   D(45,6,7,8)           178.9706         estimate D2E/DX2                !
 ! D34   D(45,6,7,46)           -0.6431         estimate D2E/DX2                !
 ! D35   D(6,7,8,9)            178.4756         estimate D2E/DX2                !
 ! D36   D(6,7,8,13)            -0.0185         estimate D2E/DX2                !
 ! D37   D(46,7,8,9)            -1.9091         estimate D2E/DX2                !
 ! D38   D(46,7,8,13)          179.5969         estimate D2E/DX2                !
 ! D39   D(7,8,9,10)           -98.3837         estimate D2E/DX2                !
 ! D40   D(7,8,9,11)            21.5532         estimate D2E/DX2                !
 ! D41   D(7,8,9,12)           142.3985         estimate D2E/DX2                !
 ! D42   D(13,8,9,10)           80.1311         estimate D2E/DX2                !
 ! D43   D(13,8,9,11)         -159.932          estimate D2E/DX2                !
 ! D44   D(13,8,9,12)          -39.0867         estimate D2E/DX2                !
 ! D45   D(7,8,13,14)           -0.2403         estimate D2E/DX2                !
 ! D46   D(7,8,13,47)         -179.9804         estimate D2E/DX2                !
 ! D47   D(9,8,13,14)         -178.7538         estimate D2E/DX2                !
 ! D48   D(9,8,13,47)            1.5062         estimate D2E/DX2                !
 ! D49   D(8,13,14,5)            0.6239         estimate D2E/DX2                !
 ! D50   D(8,13,14,48)         179.5898         estimate D2E/DX2                !
 ! D51   D(47,13,14,5)        -179.638          estimate D2E/DX2                !
 ! D52   D(47,13,14,48)         -0.6721         estimate D2E/DX2                !
 ! D53   D(4,15,16,17)         179.443          estimate D2E/DX2                !
 ! D54   D(4,15,16,49)           0.489          estimate D2E/DX2                !
 ! D55   D(20,15,16,17)          1.6057         estimate D2E/DX2                !
 ! D56   D(20,15,16,49)       -177.3484         estimate D2E/DX2                !
 ! D57   D(4,15,20,19)        -179.3617         estimate D2E/DX2                !
 ! D58   D(4,15,20,21)          -0.4105         estimate D2E/DX2                !
 ! D59   D(16,15,20,19)         -1.4415         estimate D2E/DX2                !
 ! D60   D(16,15,20,21)        177.5097         estimate D2E/DX2                !
 ! D61   D(15,16,17,18)         -0.5819         estimate D2E/DX2                !
 ! D62   D(15,16,17,50)       -179.9021         estimate D2E/DX2                !
 ! D63   D(49,16,17,18)        178.3612         estimate D2E/DX2                !
 ! D64   D(49,16,17,50)         -0.959          estimate D2E/DX2                !
 ! D65   D(16,17,18,19)         -0.6243         estimate D2E/DX2                !
 ! D66   D(16,17,18,51)       -179.7342         estimate D2E/DX2                !
 ! D67   D(50,17,18,19)        178.6999         estimate D2E/DX2                !
 ! D68   D(50,17,18,51)         -0.41           estimate D2E/DX2                !
 ! D69   D(17,18,19,20)          0.7622         estimate D2E/DX2                !
 ! D70   D(17,18,19,52)       -178.3265         estimate D2E/DX2                !
 ! D71   D(51,18,19,20)        179.866          estimate D2E/DX2                !
 ! D72   D(51,18,19,52)          0.7773         estimate D2E/DX2                !
 ! D73   D(18,19,20,15)          0.2836         estimate D2E/DX2                !
 ! D74   D(18,19,20,21)       -178.6583         estimate D2E/DX2                !
 ! D75   D(52,19,20,15)        179.3896         estimate D2E/DX2                !
 ! D76   D(52,19,20,21)          0.4477         estimate D2E/DX2                !
 ! D77   D(15,20,21,2)          -1.2317         estimate D2E/DX2                !
 ! D78   D(15,20,21,22)        178.3156         estimate D2E/DX2                !
 ! D79   D(19,20,21,2)         177.6965         estimate D2E/DX2                !
 ! D80   D(19,20,21,22)         -2.7561         estimate D2E/DX2                !
 ! D81   D(2,21,22,23)         102.3646         estimate D2E/DX2                !
 ! D82   D(2,21,22,42)         -76.2748         estimate D2E/DX2                !
 ! D83   D(20,21,22,23)        -77.1849         estimate D2E/DX2                !
 ! D84   D(20,21,22,42)        104.1757         estimate D2E/DX2                !
 ! D85   D(21,22,23,24)          2.4021         estimate D2E/DX2                !
 ! D86   D(21,22,23,25)       -176.6817         estimate D2E/DX2                !
 ! D87   D(42,22,23,24)       -178.9452         estimate D2E/DX2                !
 ! D88   D(42,22,23,25)          1.971          estimate D2E/DX2                !
 ! D89   D(21,22,42,37)        176.8756         estimate D2E/DX2                !
 ! D90   D(21,22,42,41)         -4.44           estimate D2E/DX2                !
 ! D91   D(23,22,42,37)         -1.764          estimate D2E/DX2                !
 ! D92   D(23,22,42,41)        176.9204         estimate D2E/DX2                !
 ! D93   D(22,23,24,53)          0.2912         estimate D2E/DX2                !
 ! D94   D(25,23,24,53)        179.404          estimate D2E/DX2                !
 ! D95   D(22,23,25,26)          0.2728         estimate D2E/DX2                !
 ! D96   D(22,23,25,54)        177.8282         estimate D2E/DX2                !
 ! D97   D(24,23,25,26)       -178.8615         estimate D2E/DX2                !
 ! D98   D(24,23,25,54)         -1.3061         estimate D2E/DX2                !
 ! D99   D(23,25,26,27)        176.6485         estimate D2E/DX2                !
 ! D100  D(23,25,26,37)         -2.6995         estimate D2E/DX2                !
 ! D101  D(54,25,26,27)         -0.8283         estimate D2E/DX2                !
 ! D102  D(54,25,26,37)        179.8238         estimate D2E/DX2                !
 ! D103  D(25,26,27,28)       -123.5667         estimate D2E/DX2                !
 ! D104  D(25,26,27,36)         54.4268         estimate D2E/DX2                !
 ! D105  D(37,26,27,28)         55.7699         estimate D2E/DX2                !
 ! D106  D(37,26,27,36)       -126.2366         estimate D2E/DX2                !
 ! D107  D(25,26,37,38)       -174.9963         estimate D2E/DX2                !
 ! D108  D(25,26,37,42)          2.8313         estimate D2E/DX2                !
 ! D109  D(27,26,37,38)          5.6749         estimate D2E/DX2                !
 ! D110  D(27,26,37,42)       -176.4975         estimate D2E/DX2                !
 ! D111  D(26,27,28,29)        178.6444         estimate D2E/DX2                !
 ! D112  D(26,27,28,55)         -0.2597         estimate D2E/DX2                !
 ! D113  D(36,27,28,29)          0.6274         estimate D2E/DX2                !
 ! D114  D(36,27,28,55)       -178.2767         estimate D2E/DX2                !
 ! D115  D(26,27,36,35)       -178.8874         estimate D2E/DX2                !
 ! D116  D(26,27,36,58)          1.8834         estimate D2E/DX2                !
 ! D117  D(28,27,36,35)         -0.8602         estimate D2E/DX2                !
 ! D118  D(28,27,36,58)        179.9106         estimate D2E/DX2                !
 ! D119  D(27,28,29,30)          0.2096         estimate D2E/DX2                !
 ! D120  D(27,28,29,56)       -179.9331         estimate D2E/DX2                !
 ! D121  D(55,28,29,30)        179.109          estimate D2E/DX2                !
 ! D122  D(55,28,29,56)         -1.0337         estimate D2E/DX2                !
 ! D123  D(28,29,30,31)       -179.2652         estimate D2E/DX2                !
 ! D124  D(28,29,30,35)         -0.8337         estimate D2E/DX2                !
 ! D125  D(56,29,30,31)          0.8764         estimate D2E/DX2                !
 ! D126  D(56,29,30,35)        179.3078         estimate D2E/DX2                !
 ! D127  D(29,30,31,32)        -43.789          estimate D2E/DX2                !
 ! D128  D(29,30,31,33)         75.2973         estimate D2E/DX2                !
 ! D129  D(29,30,31,34)       -164.5665         estimate D2E/DX2                !
 ! D130  D(35,30,31,32)        137.7838         estimate D2E/DX2                !
 ! D131  D(35,30,31,33)       -103.13           estimate D2E/DX2                !
 ! D132  D(35,30,31,34)         17.0063         estimate D2E/DX2                !
 ! D133  D(29,30,35,36)          0.6049         estimate D2E/DX2                !
 ! D134  D(29,30,35,57)       -179.6906         estimate D2E/DX2                !
 ! D135  D(31,30,35,36)        179.0064         estimate D2E/DX2                !
 ! D136  D(31,30,35,57)         -1.2891         estimate D2E/DX2                !
 ! D137  D(30,35,36,27)          0.2499         estimate D2E/DX2                !
 ! D138  D(30,35,36,58)        179.4758         estimate D2E/DX2                !
 ! D139  D(57,35,36,27)       -179.4531         estimate D2E/DX2                !
 ! D140  D(57,35,36,58)         -0.2272         estimate D2E/DX2                !
 ! D141  D(26,37,38,39)        179.5538         estimate D2E/DX2                !
 ! D142  D(26,37,38,59)          0.601          estimate D2E/DX2                !
 ! D143  D(42,37,38,39)          1.7214         estimate D2E/DX2                !
 ! D144  D(42,37,38,59)       -177.2313         estimate D2E/DX2                !
 ! D145  D(26,37,42,22)         -0.6183         estimate D2E/DX2                !
 ! D146  D(26,37,42,41)       -179.334          estimate D2E/DX2                !
 ! D147  D(38,37,42,22)        177.2942         estimate D2E/DX2                !
 ! D148  D(38,37,42,41)         -1.4215         estimate D2E/DX2                !
 ! D149  D(37,38,39,40)         -0.6678         estimate D2E/DX2                !
 ! D150  D(37,38,39,60)        179.995          estimate D2E/DX2                !
 ! D151  D(59,38,39,40)        178.2755         estimate D2E/DX2                !
 ! D152  D(59,38,39,60)         -1.0616         estimate D2E/DX2                !
 ! D153  D(38,39,40,41)         -0.7071         estimate D2E/DX2                !
 ! D154  D(38,39,40,61)       -179.7302         estimate D2E/DX2                !
 ! D155  D(60,39,40,41)        178.6341         estimate D2E/DX2                !
 ! D156  D(60,39,40,61)         -0.389          estimate D2E/DX2                !
 ! D157  D(39,40,41,42)          0.9832         estimate D2E/DX2                !
 ! D158  D(39,40,41,62)       -178.174          estimate D2E/DX2                !
 ! D159  D(61,40,41,42)        179.9992         estimate D2E/DX2                !
 ! D160  D(61,40,41,62)          0.842          estimate D2E/DX2                !
 ! D161  D(40,41,42,22)       -178.6022         estimate D2E/DX2                !
 ! D162  D(40,41,42,37)          0.0966         estimate D2E/DX2                !
 ! D163  D(62,41,42,22)          0.568          estimate D2E/DX2                !
 ! D164  D(62,41,42,37)        179.2667         estimate D2E/DX2                !
 --------------------------------------------------------------------------------
 Trust Radius=3.00D-01 FncErr=1.00D-07 GrdErr=1.00D-06 EigMax=2.50D+02 EigMin=1.00D-04
 Number of steps in this run=    351 maximum allowed number of steps=    372.
 GradGradGradGradGradGradGradGradGradGradGradGradGradGradGradGradGradGrad

 Leave Link  103 at Sun Feb 25 03:15:47 2024, MaxMem=  7516192768 cpu:               1.0 elap:               0.0
 (Enter /public/apps/g16-C01//g16/l202.exe)
 Symmetry turned off by external request.
 Stoichiometry    C34H20F6O2
 Framework group  C1[X(C34H20F6O2)]
 Deg. of freedom   180
 Full point group                 C1      NOp   1
                          Input orientation:                          
 ---------------------------------------------------------------------
 Center     Atomic      Atomic             Coordinates (Angstroms)
 Number     Number       Type             X           Y           Z
 ---------------------------------------------------------------------
      1          8           0        0.625161    1.719828   -1.494200
      2          6           0        1.378823    0.875769   -0.742079
      3          6           0        2.780447    0.905145   -0.800821
      4          6           0        3.548424    0.031833   -0.068845
      5          6           0        5.012920    0.078701   -0.224064
      6          6           0        5.723624   -1.051661   -0.622002
      7          6           0        7.093012   -0.997348   -0.796128
      8          6           0        7.764811    0.197327   -0.573734
      9          6           0        9.256333    0.269252   -0.724098
     10          9           0        9.888744    0.172289    0.463791
     11          9           0        9.757411   -0.707516   -1.493843
     12          9           0        9.665043    1.429216   -1.265661
     13          6           0        7.070028    1.333679   -0.179060
     14          6           0        5.700452    1.271221   -0.012715
     15          6           0        2.922880   -0.896030    0.804695
     16          6           0        3.656086   -1.758200    1.647695
     17          6           0        3.020808   -2.631847    2.484861
     18          6           0        1.619610   -2.678123    2.529389
     19          6           0        0.878598   -1.841104    1.745305
     20          6           0        1.502840   -0.927577    0.866274
     21          6           0        0.736425   -0.038918    0.072729
     22          6           0       -0.746500   -0.074028    0.088575
     23          6           0       -1.414001   -1.063648   -0.603796
     24          8           0       -0.767084   -2.053667   -1.273776
     25          6           0       -2.817515   -1.070117   -0.655973
     26          6           0       -3.557391   -0.099178   -0.030915
     27          6           0       -5.022242   -0.118617   -0.184860
     28          6           0       -5.700411    0.991172   -0.686518
     29          6           0       -7.070207    0.960271   -0.855860
     30          6           0       -7.778875   -0.186959   -0.518615
     31          6           0       -9.264450   -0.206222   -0.725764
     32          9           0       -9.855962    0.930990   -0.317538
     33          9           0       -9.594375   -0.344868   -2.026840
     34          9           0       -9.879491   -1.205956   -0.077641
     35          6           0       -7.116655   -1.304730   -0.030082
     36          6           0       -5.744913   -1.265935    0.131490
     37          6           0       -2.903976    0.905524    0.734192
     38          6           0       -3.612413    1.867990    1.483272
     39          6           0       -2.954452    2.816150    2.216328
     40          6           0       -1.553425    2.838241    2.246272
     41          6           0       -0.836753    1.903392    1.554545
     42          6           0       -1.484350    0.914724    0.783612
     43          1           0        1.195196    2.305241   -2.006730
     44          1           0        3.261646    1.612634   -1.464393
     45          1           0        5.195182   -1.974109   -0.809942
     46          1           0        7.639594   -1.873682   -1.108832
     47          1           0        7.602203    2.257188   -0.009245
     48          1           0        5.156776    2.149825    0.300300
     49          1           0        4.734455   -1.708015    1.636487
     50          1           0        3.595510   -3.284087    3.125067
     51          1           0        1.130938   -3.370174    3.198574
     52          1           0       -0.200173   -1.854297    1.795802
     53          1           0        0.187334   -1.939388   -1.173070
     54          1           0       -3.294798   -1.842692   -1.238717
     55          1           0       -5.144001    1.874703   -0.960501
     56          1           0       -7.594893    1.819516   -1.245380
     57          1           0       -7.673448   -2.193369    0.224808
     58          1           0       -5.225413   -2.129080    0.518952
     59          1           0       -4.691804    1.838486    1.486125
     60          1           0       -3.511367    3.546310    2.784574
     61          1           0       -1.045087    3.589573    2.832609
     62          1           0        0.242391    1.901118    1.600302
 ---------------------------------------------------------------------
 Rotational constants (GHZ):           0.2748462           0.0233667           0.0230571
 Leave Link  202 at Sun Feb 25 03:15:47 2024, MaxMem=  7516192768 cpu:               0.6 elap:               0.0
 (Enter /public/apps/g16-C01//g16/l301.exe)
 Standard basis: def2SVPP (5D, 7F)
 Ernie: Thresh=  0.10000D-02 Tol=  0.10000D-05 Strict=F.
   628 basis functions,  1130 primitive gaussians,   670 cartesian basis functions
   147 alpha electrons      147 beta electrons
       nuclear repulsion energy      4450.2242906319 Hartrees.
 IExCor=  402 DFT=T Ex+Corr=B3LYP ExCW=0 ScaHFX=  0.200000
 ScaDFX=  0.800000  0.720000  1.000000  0.810000 ScalE2=  1.000000  1.000000
 IRadAn=      5 IRanWt=     -1 IRanGd=            0 ICorTp=0 IEmpDi=141
 NAtoms=   62 NActive=   62 NUniq=   62 SFac= 1.00D+00 NAtFMM=   60 NAOKFM=T Big=T
 Integral buffers will be    131072 words long.
 Raffenetti 2 integral format.
 Two-electron integral symmetry is turned off.
 R6Disp:  Grimme-D3(BJ) Dispersion energy=       -0.1633203150 Hartrees.
 Nuclear repulsion after empirical dispersion term =     4450.0609703169 Hartrees.
 Leave Link  301 at Sun Feb 25 03:15:47 2024, MaxMem=  7516192768 cpu:               1.4 elap:               0.1
 (Enter /public/apps/g16-C01//g16/l302.exe)
 NPDir=0 NMtPBC=     1 NCelOv=     1 NCel=       1 NClECP=     1 NCelD=      1
         NCelK=      1 NCelE2=     1 NClLst=     1 CellRange=     0.0.
 One-electron integrals computed using PRISM.
   1 Symmetry operations used in ECPInt.
 ECPInt:  NShTT=   42778 NPrTT=  171426 LenC2=   30021 LenP2D=   75386.
 LDataN:  DoStor=T MaxTD1= 4 Len=   56
 NBasis=   628 RedAO= T EigKep=  1.61D-04  NBF=   628
 NBsUse=   628 1.00D-06 EigRej= -1.00D+00 NBFU=   628
 Precomputing XC quadrature grid using
 IXCGrd= 4 IRadAn=           5 IRanWt=          -1 IRanGd=           0 AccXCQ= 0.00D+00.
 Generated NRdTot=       0 NPtTot=           0 NUsed=           0 NTot=          32
 NSgBfM=   583   582   583   583   583 MxSgAt=    62 MxSgA2=    62.
 Leave Link  302 at Sun Feb 25 03:15:48 2024, MaxMem=  7516192768 cpu:              40.7 elap:               1.0
 (Enter /public/apps/g16-C01//g16/l303.exe)
 DipDrv:  MaxL=1.
 Leave Link  303 at Sun Feb 25 03:15:48 2024, MaxMem=  7516192768 cpu:               4.2 elap:               0.1
 (Enter /public/apps/g16-C01//g16/l401.exe)
 ExpMin= 1.22D-01 ExpMax= 2.89D+03 ExpMxC= 4.35D+02 IAcc=3 IRadAn=         5 AccDes= 0.00D+00
 Harris functional with IExCor=  402 and IRadAn=       5 diagonalized for initial guess.
 HarFok:  IExCor=  402 AccDes= 0.00D+00 IRadAn=         5 IDoV= 1 UseB2=F ITyADJ=14
 ICtDFT=  3500011 ScaDFX=  1.000000  1.000000  1.000000  1.000000
 FoFCou: FMM=F IPFlag=           0 FMFlag=      100000 FMFlg1=        2001
         NFxFlg=           0 DoJE=T BraDBF=F KetDBF=T FulRan=T
         wScrn=  0.000000 ICntrl=       500 IOpCl=  0 I1Cent=   200000004 NGrid=           0
         NMat0=    1 NMatS0=      1 NMatT0=    0 NMatD0=    1 NMtDS0=    0 NMtDT0=    0
 Symmetry not used in FoFCou.
 Harris En= -2055.74207145614    
 JPrj=0 DoOrth=F DoCkMO=F.
 Leave Link  401 at Sun Feb 25 03:15:50 2024, MaxMem=  7516192768 cpu:              62.2 elap:               1.6
 (Enter /public/apps/g16-C01//g16/l502.exe)
 Two-electron integral symmetry not used.
 Closed shell SCF:
 Using DIIS extrapolation, IDIIS=  1040.
 NGot=  7516192768 LenX=  7515261304 LenY=  7514811734
 Requested convergence on RMS density matrix=1.00D-08 within 128 cycles.
 Requested convergence on MAX density matrix=1.00D-06.
 Requested convergence on             energy=1.00D-06.
 No special actions if energy rises.
 Fock matrices will be formed incrementally for  20 cycles.
 Integral accuracy reduced to 1.0D-05 until final iterations.

 Cycle   1  Pass 0  IDiag  1:
 FoFJK:  IHMeth= 1 ICntrl=       0 DoSepK=F KAlg= 0 I1Cent=           0 FoldK=F
 IRaf= 800000000 NMat=       1 IRICut=       1 DoRegI=T DoRafI=F ISym2E= 0 IDoP0=0 IntGTp=1.
 FoFCou: FMM=T IPFlag=           0 FMFlag=      100000 FMFlg1=        2001
         NFxFlg=           0 DoJE=F BraDBF=F KetDBF=F FulRan=T
         wScrn=  0.000000 ICntrl=         0 IOpCl=  0 I1Cent=           0 NGrid=           0
         NMat0=    1 NMatS0=      1 NMatT0=    0 NMatD0=    1 NMtDS0=    0 NMtDT0=    0
 Symmetry not used in FoFCou.
 FMM levels:  10  Number of levels for PrismC:   9
 E= -2055.07354302442    
 DIIS: error= 1.93D-02 at cycle   1 NSaved=   1.
 NSaved= 1 IEnMin= 1 EnMin= -2055.07354302442     IErMin= 1 ErrMin= 1.93D-02
 ErrMax= 1.93D-02  0.00D+00 EMaxC= 1.00D-01 BMatC= 7.22D-01 BMatP= 7.22D-01
 IDIUse=3 WtCom= 8.07D-01 WtEn= 1.93D-01
 Coeff-Com:  0.100D+01
 Coeff-En:   0.100D+01
 Coeff:      0.100D+01
 Gap=     0.156 Goal=   None    Shift=    0.000
 GapD=    0.156 DampG=1.000 DampE=0.500 DampFc=0.5000 IDamp=-1.
 Damping current iteration by 5.00D-01
 RMSDP=4.72D-03 MaxDP=1.77D-01              OVMax= 1.77D-01

 Cycle   2  Pass 0  IDiag  1:
 RMSU=  2.14D-03    CP:  9.44D-01
 E= -2055.40380935025     Delta-E=       -0.330266325826 Rises=F Damp=T
 DIIS: error= 4.19D-03 at cycle   2 NSaved=   2.
 NSaved= 2 IEnMin= 2 EnMin= -2055.40380935025     IErMin= 2 ErrMin= 4.19D-03
 ErrMax= 4.19D-03  0.00D+00 EMaxC= 1.00D-01 BMatC= 4.04D-02 BMatP= 7.22D-01
 IDIUse=3 WtCom= 9.58D-01 WtEn= 4.19D-02
 Coeff-Com:  0.658D-01 0.934D+00
 Coeff-En:   0.858D-01 0.914D+00
 Coeff:      0.666D-01 0.933D+00
 Gap=     0.162 Goal=   None    Shift=    0.000
 RMSDP=1.71D-03 MaxDP=1.08D-01 DE=-3.30D-01 OVMax= 1.27D-01

 Cycle   3  Pass 0  IDiag  1:
 RMSU=  1.48D-03    CP:  9.02D-01  1.20D+00
 E= -2055.78203205177     Delta-E=       -0.378222701520 Rises=F Damp=F
 DIIS: error= 5.44D-03 at cycle   3 NSaved=   3.
 NSaved= 3 IEnMin= 3 EnMin= -2055.78203205177     IErMin= 2 ErrMin= 4.19D-03
 ErrMax= 5.44D-03  0.00D+00 EMaxC= 1.00D-01 BMatC= 3.53D-02 BMatP= 4.04D-02
 IDIUse=3 WtCom= 9.46D-01 WtEn= 5.44D-02
 Coeff-Com: -0.172D-01 0.481D+00 0.536D+00
 Coeff-En:   0.000D+00 0.000D+00 0.100D+01
 Coeff:     -0.163D-01 0.455D+00 0.561D+00
 Gap=     0.144 Goal=   None    Shift=    0.000
 RMSDP=5.68D-04 MaxDP=2.35D-02 DE=-3.78D-01 OVMax= 6.26D-02

 Cycle   4  Pass 0  IDiag  1:
 RMSU=  4.73D-04    CP:  9.04D-01  1.23D+00  7.93D-01
 E= -2055.80857787258     Delta-E=       -0.026545820816 Rises=F Damp=F
 DIIS: error= 2.53D-03 at cycle   4 NSaved=   4.
 NSaved= 4 IEnMin= 4 EnMin= -2055.80857787258     IErMin= 4 ErrMin= 2.53D-03
 ErrMax= 2.53D-03  0.00D+00 EMaxC= 1.00D-01 BMatC= 7.10D-03 BMatP= 3.53D-02
 IDIUse=3 WtCom= 9.75D-01 WtEn= 2.53D-02
 Coeff-Com: -0.176D-01 0.155D+00 0.338D+00 0.525D+00
 Coeff-En:   0.000D+00 0.000D+00 0.198D+00 0.802D+00
 Coeff:     -0.171D-01 0.151D+00 0.334D+00 0.532D+00
 Gap=     0.141 Goal=   None    Shift=    0.000
 RMSDP=2.65D-04 MaxDP=1.36D-02 DE=-2.65D-02 OVMax= 3.07D-02

 Cycle   5  Pass 0  IDiag  1:
 RMSU=  1.67D-04    CP:  9.03D-01  1.23D+00  8.44D-01  5.98D-01
 E= -2055.81522826509     Delta-E=       -0.006650392508 Rises=F Damp=F
 DIIS: error= 1.18D-03 at cycle   5 NSaved=   5.
 NSaved= 5 IEnMin= 5 EnMin= -2055.81522826509     IErMin= 5 ErrMin= 1.18D-03
 ErrMax= 1.18D-03  0.00D+00 EMaxC= 1.00D-01 BMatC= 1.20D-03 BMatP= 7.10D-03
 IDIUse=3 WtCom= 9.88D-01 WtEn= 1.18D-02
 Coeff-Com: -0.972D-02 0.481D-01 0.158D+00 0.351D+00 0.452D+00
 Coeff-En:   0.000D+00 0.000D+00 0.000D+00 0.138D+00 0.862D+00
 Coeff:     -0.961D-02 0.475D-01 0.156D+00 0.349D+00 0.457D+00
 Gap=     0.142 Goal=   None    Shift=    0.000
 RMSDP=1.08D-04 MaxDP=4.72D-03 DE=-6.65D-03 OVMax= 1.55D-02

 Cycle   6  Pass 0  IDiag  1:
 RMSU=  7.85D-05    CP:  9.02D-01  1.24D+00  8.36D-01  6.64D-01  6.28D-01
 E= -2055.81645327585     Delta-E=       -0.001225010755 Rises=F Damp=F
 DIIS: error= 5.04D-04 at cycle   6 NSaved=   6.
 NSaved= 6 IEnMin= 6 EnMin= -2055.81645327585     IErMin= 6 ErrMin= 5.04D-04
 ErrMax= 5.04D-04  0.00D+00 EMaxC= 1.00D-01 BMatC= 1.48D-04 BMatP= 1.20D-03
 IDIUse=3 WtCom= 9.95D-01 WtEn= 5.04D-03
 Coeff-Com: -0.398D-02 0.103D-01 0.528D-01 0.147D+00 0.298D+00 0.496D+00
 Coeff-En:   0.000D+00 0.000D+00 0.000D+00 0.000D+00 0.101D+00 0.899D+00
 Coeff:     -0.396D-02 0.103D-01 0.526D-01 0.146D+00 0.297D+00 0.498D+00
 Gap=     0.141 Goal=   None    Shift=    0.000
 RMSDP=4.08D-05 MaxDP=2.51D-03 DE=-1.23D-03 OVMax= 5.85D-03

 Cycle   7  Pass 0  IDiag  1:
 RMSU=  3.34D-05    CP:  9.02D-01  1.24D+00  8.37D-01  6.62D-01  7.08D-01
                    CP:  7.58D-01
 E= -2055.81663522853     Delta-E=       -0.000181952680 Rises=F Damp=F
 DIIS: error= 1.50D-04 at cycle   7 NSaved=   7.
 NSaved= 7 IEnMin= 7 EnMin= -2055.81663522853     IErMin= 7 ErrMin= 1.50D-04
 ErrMax= 1.50D-04  0.00D+00 EMaxC= 1.00D-01 BMatC= 1.74D-05 BMatP= 1.48D-04
 IDIUse=3 WtCom= 9.99D-01 WtEn= 1.50D-03
 Coeff-Com: -0.170D-02 0.212D-02 0.185D-01 0.592D-01 0.147D+00 0.323D+00
 Coeff-Com:  0.452D+00
 Coeff-En:   0.000D+00 0.000D+00 0.000D+00 0.000D+00 0.000D+00 0.000D+00
 Coeff-En:   0.100D+01
 Coeff:     -0.170D-02 0.212D-02 0.185D-01 0.591D-01 0.146D+00 0.323D+00
 Coeff:      0.453D+00
 Gap=     0.141 Goal=   None    Shift=    0.000
 RMSDP=1.94D-05 MaxDP=8.50D-04 DE=-1.82D-04 OVMax= 1.49D-03

 Cycle   8  Pass 0  IDiag  1:
 RMSU=  1.72D-05    CP:  9.02D-01  1.24D+00  8.40D-01  6.61D-01  6.81D-01
                    CP:  8.21D-01  1.09D+00
 E= -2055.81666883596     Delta-E=       -0.000033607434 Rises=F Damp=F
 DIIS: error= 3.59D-05 at cycle   8 NSaved=   8.
 NSaved= 8 IEnMin= 8 EnMin= -2055.81666883596     IErMin= 8 ErrMin= 3.59D-05
 ErrMax= 3.59D-05  0.00D+00 EMaxC= 1.00D-01 BMatC= 6.78D-07 BMatP= 1.74D-05
 IDIUse=1 WtCom= 1.00D+00 WtEn= 0.00D+00
 Coeff-Com: -0.573D-03 0.963D-04 0.527D-02 0.193D-01 0.540D-01 0.129D+00
 Coeff-Com:  0.223D+00 0.569D+00
 Coeff:     -0.573D-03 0.963D-04 0.527D-02 0.193D-01 0.540D-01 0.129D+00
 Coeff:      0.223D+00 0.569D+00
 Gap=     0.141 Goal=   None    Shift=    0.000
 RMSDP=1.85D-05 MaxDP=7.96D-04 DE=-3.36D-05 OVMax= 2.53D-04

 Cycle   9  Pass 0  IDiag  1:
 RMSU=  1.30D-05    CP:  9.02D-01  1.24D+00  8.41D-01  6.63D-01  6.78D-01
                    CP:  8.42D-01  1.33D+00  1.58D+00
 E= -2055.81666966676     Delta-E=       -0.000000830803 Rises=F Damp=F
 DIIS: error= 3.39D-05 at cycle   9 NSaved=   9.
 NSaved= 9 IEnMin= 9 EnMin= -2055.81666966676     IErMin= 9 ErrMin= 3.39D-05
 ErrMax= 3.39D-05  0.00D+00 EMaxC= 1.00D-01 BMatC= 2.48D-07 BMatP= 6.78D-07
 IDIUse=1 WtCom= 1.00D+00 WtEn= 0.00D+00
 Coeff-Com: -0.245D-03-0.550D-04 0.197D-02 0.771D-02 0.232D-01 0.580D-01
 Coeff-Com:  0.107D+00 0.368D+00 0.435D+00
 Coeff:     -0.245D-03-0.550D-04 0.197D-02 0.771D-02 0.232D-01 0.580D-01
 Coeff:      0.107D+00 0.368D+00 0.435D+00
 Gap=     0.141 Goal=   None    Shift=    0.000
 RMSDP=1.30D-05 MaxDP=4.47D-04 DE=-8.31D-07 OVMax= 8.90D-05

 Cycle  10  Pass 0  IDiag  1:
 RMSU=  7.04D-06    CP:  9.02D-01  1.23D+00  8.41D-01  6.63D-01  6.76D-01
                    CP:  8.52D-01  1.45D+00  1.99D+00  1.55D+00
 E= -2055.81666692363     Delta-E=        0.000002743131 Rises=F Damp=F
 DIIS: error= 3.82D-05 at cycle  10 NSaved=  10.
 NSaved=10 IEnMin= 9 EnMin= -2055.81666966676     IErMin= 9 ErrMin= 3.39D-05
 ErrMax= 3.82D-05  0.00D+00 EMaxC= 1.00D-01 BMatC= 2.23D-07 BMatP= 2.48D-07
 IDIUse=1 WtCom= 1.00D+00 WtEn= 0.00D+00
 Coeff-Com: -0.243D-03-0.468D-04 0.197D-02 0.767D-02 0.230D-01 0.572D-01
 Coeff-Com:  0.105D+00 0.355D+00 0.406D+00 0.450D-01
 Coeff:     -0.243D-03-0.468D-04 0.197D-02 0.767D-02 0.230D-01 0.572D-01
 Coeff:      0.105D+00 0.355D+00 0.406D+00 0.450D-01
 Gap=     0.141 Goal=   None    Shift=    0.000
 RMSDP=1.39D-06 MaxDP=7.70D-05 DE= 2.74D-06 OVMax= 3.88D-06

 Initial convergence to 1.0D-05 achieved.  Increase integral accuracy.
 Cycle  11  Pass 1  IDiag  1:
 E= -2055.81640049893     Delta-E=        0.000266424703 Rises=F Damp=F
 DIIS: error= 5.48D-04 at cycle   1 NSaved=   1.
 NSaved= 1 IEnMin= 1 EnMin= -2055.81640049893     IErMin= 1 ErrMin= 5.48D-04
 ErrMax= 5.48D-04  0.00D+00 EMaxC= 1.00D-01 BMatC= 7.13D-05 BMatP= 7.13D-05
 IDIUse=3 WtCom= 9.95D-01 WtEn= 5.48D-03
 Coeff-Com:  0.100D+01
 Coeff-En:   0.100D+01
 Coeff:      0.100D+01
 Gap=     0.141 Goal=   None    Shift=    0.000
 RMSDP=1.39D-06 MaxDP=7.70D-05 DE= 2.66D-04 OVMax= 9.93D-04

 Cycle  12  Pass 1  IDiag  1:
 RMSU=  5.86D-04    CP:  9.97D-01
 E= -2055.81647205652     Delta-E=       -0.000071557588 Rises=F Damp=F
 DIIS: error= 5.70D-06 at cycle   2 NSaved=   2.
 NSaved= 2 IEnMin= 2 EnMin= -2055.81647205652     IErMin= 2 ErrMin= 5.70D-06
 ErrMax= 5.70D-06  0.00D+00 EMaxC= 1.00D-01 BMatC= 2.11D-08 BMatP= 7.13D-05
 IDIUse=1 WtCom= 1.00D+00 WtEn= 0.00D+00
 Coeff-Com: -0.894D-02 0.101D+01
 Coeff:     -0.894D-02 0.101D+01
 Gap=     0.141 Goal=   None    Shift=    0.000
 RMSDP=7.38D-06 MaxDP=2.42D-04 DE=-7.16D-05 OVMax= 1.09D-04

 Cycle  13  Pass 1  IDiag  1:
 RMSU=  2.45D-06    CP:  9.97D-01  1.01D+00
 E= -2055.81647203007     Delta-E=        0.000000026453 Rises=F Damp=F
 DIIS: error= 6.74D-06 at cycle   3 NSaved=   3.
 NSaved= 3 IEnMin= 2 EnMin= -2055.81647205652     IErMin= 2 ErrMin= 5.70D-06
 ErrMax= 6.74D-06  0.00D+00 EMaxC= 1.00D-01 BMatC= 4.87D-08 BMatP= 2.11D-08
 IDIUse=1 WtCom= 1.00D+00 WtEn= 0.00D+00
 Coeff-Com: -0.600D-02 0.657D+00 0.349D+00
 Coeff:     -0.600D-02 0.657D+00 0.349D+00
 Gap=     0.141 Goal=   None    Shift=    0.000
 RMSDP=5.69D-07 MaxDP=2.60D-05 DE= 2.65D-08 OVMax= 8.39D-05

 Cycle  14  Pass 1  IDiag  1:
 RMSU=  5.49D-07    CP:  9.97D-01  1.01D+00  9.41D-01
 E= -2055.81647208417     Delta-E=       -0.000000054102 Rises=F Damp=F
 DIIS: error= 1.04D-06 at cycle   4 NSaved=   4.
 NSaved= 4 IEnMin= 4 EnMin= -2055.81647208417     IErMin= 4 ErrMin= 1.04D-06
 ErrMax= 1.04D-06  0.00D+00 EMaxC= 1.00D-01 BMatC= 1.23D-09 BMatP= 2.11D-08
 IDIUse=1 WtCom= 1.00D+00 WtEn= 0.00D+00
 Coeff-Com: -0.170D-02 0.183D+00 0.164D+00 0.654D+00
 Coeff:     -0.170D-02 0.183D+00 0.164D+00 0.654D+00
 Gap=     0.141 Goal=   None    Shift=    0.000
 RMSDP=1.45D-07 MaxDP=6.18D-06 DE=-5.41D-08 OVMax= 1.38D-05

 Cycle  15  Pass 1  IDiag  1:
 RMSU=  1.23D-07    CP:  9.97D-01  1.01D+00  9.60D-01  9.02D-01
 E= -2055.81647208520     Delta-E=       -0.000000001036 Rises=F Damp=F
 DIIS: error= 4.53D-07 at cycle   5 NSaved=   5.
 NSaved= 5 IEnMin= 5 EnMin= -2055.81647208520     IErMin= 5 ErrMin= 4.53D-07
 ErrMax= 4.53D-07  0.00D+00 EMaxC= 1.00D-01 BMatC= 3.58D-10 BMatP= 1.23D-09
 IDIUse=1 WtCom= 1.00D+00 WtEn= 0.00D+00
 Coeff-Com: -0.195D-03 0.191D-01 0.506D-01 0.406D+00 0.525D+00
 Coeff:     -0.195D-03 0.191D-01 0.506D-01 0.406D+00 0.525D+00
 Gap=     0.141 Goal=   None    Shift=    0.000
 RMSDP=5.20D-08 MaxDP=2.64D-06 DE=-1.04D-09 OVMax= 5.60D-06

 Cycle  16  Pass 1  IDiag  1:
 RMSU=  3.47D-08    CP:  9.97D-01  1.01D+00  9.65D-01  9.32D-01  7.40D-01
 E= -2055.81647208554     Delta-E=       -0.000000000339 Rises=F Damp=F
 DIIS: error= 1.64D-07 at cycle   6 NSaved=   6.
 NSaved= 6 IEnMin= 6 EnMin= -2055.81647208554     IErMin= 6 ErrMin= 1.64D-07
 ErrMax= 1.64D-07  0.00D+00 EMaxC= 1.00D-01 BMatC= 3.22D-11 BMatP= 3.58D-10
 IDIUse=1 WtCom= 1.00D+00 WtEn= 0.00D+00
 Coeff-Com:  0.170D-05-0.134D-02 0.190D-01 0.199D+00 0.319D+00 0.465D+00
 Coeff:      0.170D-05-0.134D-02 0.190D-01 0.199D+00 0.319D+00 0.465D+00
 Gap=     0.141 Goal=   None    Shift=    0.000
 RMSDP=1.91D-08 MaxDP=9.69D-07 DE=-3.39D-10 OVMax= 2.50D-06

 Cycle  17  Pass 1  IDiag  1:
 RMSU=  1.15D-08    CP:  9.97D-01  1.01D+00  9.65D-01  9.30D-01  7.18D-01
                    CP:  5.71D-01
 E= -2055.81647208565     Delta-E=       -0.000000000103 Rises=F Damp=F
 DIIS: error= 6.09D-08 at cycle   7 NSaved=   7.
 NSaved= 7 IEnMin= 7 EnMin= -2055.81647208565     IErMin= 7 ErrMin= 6.09D-08
 ErrMax= 6.09D-08  0.00D+00 EMaxC= 1.00D-01 BMatC= 3.37D-12 BMatP= 3.22D-11
 IDIUse=1 WtCom= 1.00D+00 WtEn= 0.00D+00
 Coeff-Com:  0.176D-04-0.250D-02 0.802D-02 0.943D-01 0.162D+00 0.302D+00
 Coeff-Com:  0.436D+00
 Coeff:      0.176D-04-0.250D-02 0.802D-02 0.943D-01 0.162D+00 0.302D+00
 Coeff:      0.436D+00
 Gap=     0.141 Goal=   None    Shift=    0.000
 RMSDP=5.78D-09 MaxDP=4.24D-07 DE=-1.03D-10 OVMax= 7.66D-07

 SCF Done:  E(RB3LYP) =  -2055.81647209     A.U. after   17 cycles
            NFock= 17  Conv=0.58D-08     -V/T= 2.0082
 KE= 2.039058405452D+03 PE=-1.370602307879D+04 EE= 5.161087230934D+03
 Leave Link  502 at Sun Feb 25 03:16:31 2024, MaxMem=  7516192768 cpu:            1594.0 elap:              40.5
 (Enter /public/apps/g16-C01//g16/l601.exe)
 Copying SCF densities to generalized density rwf, IOpCl= 0 IROHF=0.

 **********************************************************************

            Population analysis using the SCF Density.

 **********************************************************************

 Alpha  occ. eigenvalues --  -24.72212 -24.71946 -24.71434 -24.71374 -24.71030
 Alpha  occ. eigenvalues --  -24.70577 -19.18066 -19.16367 -10.43602 -10.42728
 Alpha  occ. eigenvalues --  -10.26920 -10.25275 -10.22413 -10.22331 -10.22122
 Alpha  occ. eigenvalues --  -10.21588 -10.21568 -10.21328 -10.21293 -10.21175
 Alpha  occ. eigenvalues --  -10.21142 -10.21069 -10.20990 -10.20887 -10.20640
 Alpha  occ. eigenvalues --  -10.20497 -10.20478 -10.20448 -10.19973 -10.19919
 Alpha  occ. eigenvalues --  -10.19832 -10.19747 -10.19691 -10.19544 -10.19490
 Alpha  occ. eigenvalues --  -10.19461 -10.19366 -10.18847 -10.18577 -10.18507
 Alpha  occ. eigenvalues --  -10.18303 -10.18298  -1.30129  -1.29281  -1.20888
 Alpha  occ. eigenvalues --   -1.20225  -1.20034  -1.19378  -1.07389  -1.05680
 Alpha  occ. eigenvalues --   -0.90286  -0.88990  -0.88470  -0.87192  -0.83959
 Alpha  occ. eigenvalues --   -0.82736  -0.82455  -0.79907  -0.77991  -0.77460
 Alpha  occ. eigenvalues --   -0.76356  -0.76070  -0.75332  -0.74211  -0.73701
 Alpha  occ. eigenvalues --   -0.72288  -0.70517  -0.68653  -0.65937  -0.65130
 Alpha  occ. eigenvalues --   -0.64179  -0.63594  -0.63414  -0.63393  -0.62621
 Alpha  occ. eigenvalues --   -0.61464  -0.60419  -0.59260  -0.59109  -0.58413
 Alpha  occ. eigenvalues --   -0.58369  -0.58301  -0.58135  -0.57458  -0.57289
 Alpha  occ. eigenvalues --   -0.55678  -0.53850  -0.53324  -0.52508  -0.51401
 Alpha  occ. eigenvalues --   -0.50556  -0.49289  -0.48735  -0.48438  -0.47937
 Alpha  occ. eigenvalues --   -0.47091  -0.46942  -0.46724  -0.46482  -0.46230
 Alpha  occ. eigenvalues --   -0.46093  -0.46011  -0.45801  -0.45717  -0.45485
 Alpha  occ. eigenvalues --   -0.44827  -0.44664  -0.44332  -0.44054  -0.43320
 Alpha  occ. eigenvalues --   -0.43117  -0.42616  -0.42482  -0.42247  -0.41873
 Alpha  occ. eigenvalues --   -0.41832  -0.41467  -0.41439  -0.40905  -0.40080
 Alpha  occ. eigenvalues --   -0.39958  -0.39828  -0.39477  -0.38870  -0.38530
 Alpha  occ. eigenvalues --   -0.38176  -0.38056  -0.37874  -0.37673  -0.37054
 Alpha  occ. eigenvalues --   -0.36828  -0.36650  -0.35237  -0.35100  -0.33324
 Alpha  occ. eigenvalues --   -0.33287  -0.31904  -0.30585  -0.28896  -0.28756
 Alpha  occ. eigenvalues --   -0.28202  -0.27631  -0.26985  -0.25831  -0.24195
 Alpha  occ. eigenvalues --   -0.22780  -0.21139
 Alpha virt. eigenvalues --   -0.06990  -0.05396  -0.04224  -0.03672  -0.02973
 Alpha virt. eigenvalues --   -0.02508  -0.02310  -0.00896   0.01095   0.02649
 Alpha virt. eigenvalues --    0.03155   0.05811   0.06575   0.06594   0.07088
 Alpha virt. eigenvalues --    0.07405   0.07935   0.08519   0.08881   0.09395
 Alpha virt. eigenvalues --    0.09854   0.10195   0.10607   0.11035   0.11421
 Alpha virt. eigenvalues --    0.12152   0.12554   0.12672   0.12889   0.13414
 Alpha virt. eigenvalues --    0.13732   0.14019   0.15003   0.15540   0.15961
 Alpha virt. eigenvalues --    0.16872   0.18041   0.18821   0.19547   0.20276
 Alpha virt. eigenvalues --    0.21319   0.21638   0.22198   0.22476   0.22840
 Alpha virt. eigenvalues --    0.23222   0.24153   0.25194   0.25259   0.25959
 Alpha virt. eigenvalues --    0.26249   0.26709   0.26948   0.27383   0.27532
 Alpha virt. eigenvalues --    0.27948   0.28247   0.28486   0.28907   0.29434
 Alpha virt. eigenvalues --    0.29799   0.30094   0.30762   0.30919   0.31880
 Alpha virt. eigenvalues --    0.32160   0.33414   0.33769   0.33843   0.34186
 Alpha virt. eigenvalues --    0.34899   0.35390   0.35596   0.35726   0.35967
 Alpha virt. eigenvalues --    0.36593   0.36977   0.37197   0.37831   0.38297
 Alpha virt. eigenvalues --    0.38791   0.39298   0.39718   0.39915   0.40441
 Alpha virt. eigenvalues --    0.40520   0.41308   0.42036   0.42442   0.42632
 Alpha virt. eigenvalues --    0.43153   0.43676   0.44034   0.44245   0.44576
 Alpha virt. eigenvalues --    0.44800   0.45289   0.45522   0.45895   0.46765
 Alpha virt. eigenvalues --    0.46918   0.47094   0.47498   0.48041   0.48222
 Alpha virt. eigenvalues --    0.48827   0.49105   0.49256   0.50039   0.50125
 Alpha virt. eigenvalues --    0.50441   0.51008   0.51225   0.51411   0.52184
 Alpha virt. eigenvalues --    0.52701   0.53087   0.53499   0.54120   0.54267
 Alpha virt. eigenvalues --    0.54695   0.54913   0.55641   0.56289   0.57061
 Alpha virt. eigenvalues --    0.57258   0.57891   0.58190   0.58730   0.59161
 Alpha virt. eigenvalues --    0.59406   0.59983   0.60510   0.61283   0.61608
 Alpha virt. eigenvalues --    0.62434   0.63285   0.63512   0.64166   0.64670
 Alpha virt. eigenvalues --    0.64939   0.65296   0.65744   0.65892   0.66232
 Alpha virt. eigenvalues --    0.66415   0.66644   0.67252   0.67744   0.68194
 Alpha virt. eigenvalues --    0.68304   0.68673   0.68820   0.69083   0.69352
 Alpha virt. eigenvalues --    0.69755   0.70020   0.70089   0.70471   0.70778
 Alpha virt. eigenvalues --    0.71164   0.71546   0.72180   0.72452   0.72788
 Alpha virt. eigenvalues --    0.73516   0.73719   0.74035   0.74724   0.75180
 Alpha virt. eigenvalues --    0.75296   0.75747   0.75998   0.76515   0.76976
 Alpha virt. eigenvalues --    0.77465   0.77596   0.78353   0.78406   0.79162
 Alpha virt. eigenvalues --    0.79965   0.80987   0.81095   0.81620   0.81985
 Alpha virt. eigenvalues --    0.82609   0.82939   0.83287   0.83741   0.84159
 Alpha virt. eigenvalues --    0.84737   0.85081   0.85401   0.85628   0.86497
 Alpha virt. eigenvalues --    0.87450   0.87836   0.88059   0.89345   0.90714
 Alpha virt. eigenvalues --    0.92553   0.94842   0.95407   0.95602   0.97295
 Alpha virt. eigenvalues --    0.97781   0.98155   0.98348   0.99285   1.01341
 Alpha virt. eigenvalues --    1.02986   1.03547   1.04560   1.07034   1.07669
 Alpha virt. eigenvalues --    1.08355   1.09050   1.09422   1.09914   1.09984
 Alpha virt. eigenvalues --    1.10633   1.11208   1.11364   1.12059   1.12300
 Alpha virt. eigenvalues --    1.13715   1.14269   1.14806   1.16814   1.17178
 Alpha virt. eigenvalues --    1.18043   1.19194   1.20173   1.21232   1.22036
 Alpha virt. eigenvalues --    1.23037   1.23715   1.24559   1.25052   1.25711
 Alpha virt. eigenvalues --    1.25942   1.26968   1.27576   1.29006   1.29541
 Alpha virt. eigenvalues --    1.30482   1.31031   1.31846   1.32834   1.33887
 Alpha virt. eigenvalues --    1.35324   1.35604   1.36110   1.36563   1.37089
 Alpha virt. eigenvalues --    1.38074   1.38097   1.39507   1.40445   1.41779
 Alpha virt. eigenvalues --    1.42894   1.43332   1.43668   1.44625   1.44957
 Alpha virt. eigenvalues --    1.45045   1.45798   1.45911   1.45987   1.46732
 Alpha virt. eigenvalues --    1.46947   1.47175   1.47798   1.47893   1.48271
 Alpha virt. eigenvalues --    1.48430   1.48589   1.48927   1.49393   1.49493
 Alpha virt. eigenvalues --    1.50092   1.50646   1.51829   1.52349   1.53117
 Alpha virt. eigenvalues --    1.56761   1.57682   1.58612   1.60434   1.61262
 Alpha virt. eigenvalues --    1.63767   1.64360   1.66820   1.67464   1.69471
 Alpha virt. eigenvalues --    1.69971   1.70741   1.71283   1.71654   1.72326
 Alpha virt. eigenvalues --    1.73320   1.73824   1.73926   1.74280   1.75100
 Alpha virt. eigenvalues --    1.75310   1.75962   1.76233   1.77684   1.78193
 Alpha virt. eigenvalues --    1.78589   1.79319   1.80361   1.82025   1.82283
 Alpha virt. eigenvalues --    1.83156   1.83774   1.84637   1.84968   1.85721
 Alpha virt. eigenvalues --    1.86885   1.87379   1.87783   1.88076   1.88865
 Alpha virt. eigenvalues --    1.89110   1.89473   1.90427   1.91748   1.92755
 Alpha virt. eigenvalues --    1.93862   1.94764   1.95399   1.96304   1.97022
 Alpha virt. eigenvalues --    1.97792   1.98524   1.98787   1.99848   2.00446
 Alpha virt. eigenvalues --    2.01147   2.02123   2.02713   2.04150   2.05493
 Alpha virt. eigenvalues --    2.06196   2.06887   2.07486   2.07841   2.07870
 Alpha virt. eigenvalues --    2.08504   2.09088   2.10273   2.10734   2.12136
 Alpha virt. eigenvalues --    2.12907   2.13089   2.14147   2.15122   2.15808
 Alpha virt. eigenvalues --    2.15951   2.17115   2.17328   2.18251   2.20322
 Alpha virt. eigenvalues --    2.21465   2.21876   2.22200   2.22894   2.23672
 Alpha virt. eigenvalues --    2.24514   2.25058   2.25826   2.26529   2.27613
 Alpha virt. eigenvalues --    2.28252   2.28849   2.29446   2.29852   2.30390
 Alpha virt. eigenvalues --    2.30495   2.31916   2.32944   2.33050   2.34894
 Alpha virt. eigenvalues --    2.35706   2.36338   2.37372   2.40886   2.43826
 Alpha virt. eigenvalues --    2.45103   2.46179   2.47283   2.48590   2.49121
 Alpha virt. eigenvalues --    2.49541   2.50404   2.50639   2.52777   2.54031
 Alpha virt. eigenvalues --    2.55154   2.56633   2.58129   2.59173   2.59878
 Alpha virt. eigenvalues --    2.60352   2.61996   2.62376   2.63916   2.64130
 Alpha virt. eigenvalues --    2.64717   2.66015   2.67684   2.68616   2.68731
 Alpha virt. eigenvalues --    2.69595   2.70225   2.70429   2.72413   2.73175
 Alpha virt. eigenvalues --    2.73509   2.74214   2.74616   2.75352   2.75982
 Alpha virt. eigenvalues --    2.76336   2.78749   2.82757   2.84153   2.86564
 Alpha virt. eigenvalues --    2.87779   2.90725   2.92916   2.93145   2.93700
 Alpha virt. eigenvalues --    2.96854   2.98289   3.00206   3.00593   3.01147
 Alpha virt. eigenvalues --    3.02144   3.03613   3.04366   3.04420   3.04767
 Alpha virt. eigenvalues --    3.05177   3.05745   3.05779   3.06521   3.06563
 Alpha virt. eigenvalues --    3.07469   3.09013   3.11585   3.11727   3.12513
 Alpha virt. eigenvalues --    3.16698   3.17335   3.19845   3.21494   3.23012
 Alpha virt. eigenvalues --    3.23950   3.29624   3.32443   3.37095   3.38677
 Alpha virt. eigenvalues --    3.42779   3.43675   3.44989   3.46007   3.52360
 Alpha virt. eigenvalues --    3.53019   3.55863   3.56878   3.57615   3.61691
 Alpha virt. eigenvalues --    3.65195   3.65891   3.83488   3.84170   3.86640
 Alpha virt. eigenvalues --    3.87585
          Condensed to atoms (all electrons):
 Mulliken charges:
               1
     1  O   -0.343997
     2  C    0.259999
     3  C   -0.293573
     4  C    0.123808
     5  C    0.087470
     6  C   -0.096237
     7  C   -0.093198
     8  C   -0.012182
     9  C    0.536891
    10  F   -0.176283
    11  F   -0.167437
    12  F   -0.174151
    13  C   -0.085351
    14  C   -0.098305
    15  C    0.105425
    16  C   -0.163254
    17  C   -0.026020
    18  C   -0.017431
    19  C   -0.152042
    20  C    0.097282
    21  C   -0.201516
    22  C   -0.004286
    23  C    0.200953
    24  O   -0.364271
    25  C   -0.261677
    26  C    0.136624
    27  C    0.091869
    28  C   -0.096903
    29  C   -0.093706
    30  C   -0.011427
    31  C    0.534956
    32  F   -0.177450
    33  F   -0.178446
    34  F   -0.168052
    35  C   -0.087463
    36  C   -0.096851
    37  C    0.099533
    38  C   -0.167836
    39  C   -0.029162
    40  C   -0.026261
    41  C   -0.153588
    42  C    0.133728
    43  H    0.326576
    44  H    0.017962
    45  H    0.061428
    46  H    0.064624
    47  H    0.065103
    48  H    0.050645
    49  H    0.059851
    50  H    0.048900
    51  H    0.051632
    52  H    0.068738
    53  H    0.334238
    54  H    0.033721
    55  H    0.061740
    56  H    0.062449
    57  H    0.060308
    58  H    0.050874
    59  H    0.056809
    60  H    0.042665
    61  H    0.042314
    62  H    0.049242
 Sum of Mulliken charges =  -0.00000
 Mulliken charges with hydrogens summed into heavy atoms:
               1
     1  O   -0.017421
     2  C    0.259999
     3  C   -0.275611
     4  C    0.123808
     5  C    0.087470
     6  C   -0.034809
     7  C   -0.028573
     8  C   -0.012182
     9  C    0.536891
    10  F   -0.176283
    11  F   -0.167437
    12  F   -0.174151
    13  C   -0.020247
    14  C   -0.047661
    15  C    0.105425
    16  C   -0.103402
    17  C    0.022879
    18  C    0.034201
    19  C   -0.083304
    20  C    0.097282
    21  C   -0.201516
    22  C   -0.004286
    23  C    0.200953
    24  O   -0.030033
    25  C   -0.227956
    26  C    0.136624
    27  C    0.091869
    28  C   -0.035162
    29  C   -0.031256
    30  C   -0.011427
    31  C    0.534956
    32  F   -0.177450
    33  F   -0.178446
    34  F   -0.168052
    35  C   -0.027156
    36  C   -0.045977
    37  C    0.099533
    38  C   -0.111027
    39  C    0.013503
    40  C    0.016053
    41  C   -0.104346
    42  C    0.133728
 Electronic spatial extent (au):  <R**2>=          41108.5005
 Charge=             -0.0000 electrons
 Dipole moment (field-independent basis, Debye):
    X=              3.0998    Y=              1.0095    Z=              0.4272  Tot=              3.2879
 Quadrupole moment (field-independent basis, Debye-Ang):
   XX=           -303.6655   YY=           -219.7729   ZZ=           -234.8015
   XY=             -1.4066   XZ=             -5.6323   YZ=             -6.2877
 Traceless Quadrupole moment (field-independent basis, Debye-Ang):
   XX=            -50.9189   YY=             32.9737   ZZ=             17.9452
   XY=             -1.4066   XZ=             -5.6323   YZ=             -6.2877
 Octapole moment (field-independent basis, Debye-Ang**2):
  XXX=             44.8755  YYY=             18.4096  ZZZ=            -64.4743  XYY=             18.1645
  XXY=            -10.5844  XXZ=             56.9827  XZZ=             13.9149  YZZ=              7.7196
  YYZ=             -5.6083  XYZ=              5.1997
 Hexadecapole moment (field-independent basis, Debye-Ang**3):
 XXXX=         -54820.6001 YYYY=          -2896.1940 ZZZZ=          -2154.1843 XXXY=           -130.0734
 XXXZ=           -192.5390 YYYX=            186.2430 YYYZ=             -2.0861 ZZZX=            -48.7422
 ZZZY=            -19.6490 XXYY=          -7560.3421 XXZZ=          -8040.8472 YYZZ=           -732.1316
 XXYZ=            -23.3155 YYXZ=            -15.0072 ZZXY=             -7.5678
 N-N= 4.450060970317D+03 E-N=-1.370602310469D+04  KE= 2.039058405452D+03
 No NMR shielding tensors so no spin-rotation constants.
 Leave Link  601 at Sun Feb 25 03:16:31 2024, MaxMem=  7516192768 cpu:               7.6 elap:               0.2
 (Enter /public/apps/g16-C01//g16/l701.exe)
 ... and contract with generalized density number  0.
 Compute integral first derivatives.
[...]
 230,0.00001146,0.00001500,-0.00001818,-0.00000937,0.00000289,0.0000024
 7,0.00000647,-0.00000697,0.00000971,-0.00001754,-0.00000166,0.00000160
 ,0.00000959,0.00000128,-0.00000094,-0.00000235,-0.00000156,0.00000178,
 0.00001111,0.00000155,-0.00000278,-0.00003743,0.00000072,-0.00000131,0
 .00001342,-0.00000248,0.00000657,0.00000982,-0.00000321,-0.00000322,0.
 00000983,0.00000431,-0.00000049,-0.00000173,0.00000032,-0.00000055,0.0
 0000869,-0.00000068,0.00000015,0.00001339,-0.00000017,-0.00000335,-0.0
 0000040,-0.00000396,0.00000367,0.00000895,-0.00000053,0.00000091,-0.00
 000646,0.00000997,-0.00000484,-0.00000281,-0.00001687,0.00001673,0.000
 01067,0.00004123,-0.00002641,-0.00002445,-0.00002616,0.00001612,0.0000
 0023,-0.00003948,0.00049451,-0.00034041,0.00001633,-0.00005885,0.00010
 838,-0.00005130,-0.00007670,-0.00006972,-0.00055157,0.00006968,0.00093
 951,0.00008365,-0.00035343,0.00018081,0.00010625,-0.00010171,0.0000041
 7,0.00000403,0.00008058,-0.00005118,0.00000023,0.00001362,-0.00003790,
 0.00003673,-0.00001234,0.00009342,-0.00001961,-0.00003876,-0.00003202,
 0.00002515,0.00001031,-0.00002299,0.00000166,0.00000367,-0.00002702,-0
 .00000888,0.00001644,0.00003212,-0.00002121,0.00003244,-0.00006030,-0.
 00001061,-0.00001609,-0.00321946,0.00122850,-0.00533333,0.01339067,-0.
 01025398,-0.01110174,0.09697404,-0.17358795,-0.10830195,-0.00240148,0.
 00404668,0.00097184,-0.00050495,0.00286696,-0.00191550,-0.00053209,-0.
 00019226,0.00027463,-0.00000015,-0.00000034,0.00000787,0.00000238,0.00
 000127,-0.00000139,-0.00000194,0.00000188,0.00000056,0.00000081,-0.000
 00050,-0.00000063,0.00000066,0.00000083,-0.00000037,-0.00000214,-0.000
 00161,-0.00000113,0.00000278,-0.00000170,0.00000072,0.00000335,-0.0000
 0306,0.00000076,-0.00000072,-0.00000514,0.00000161,-0.00000059,0.00000
 820,-0.00001434,-0.00002034,0.00000252,-0.00000456,0.00006258,-0.00010
 756,0.00000617,0.00004234,-0.00000970,-0.00000047,-0.00001270,0.000000
 61,-0.00000676,-0.00000714,-0.00000360,-0.00000177,0.00001125,0.000000
 14,-0.00001493,-0.00000180,-0.00115132,0.00299599,-0.10482221,0.178160
 97,-0.00003182,0.00006417,-0.00004202,0.00001826,-0.00005370,0.0000707
 9,-0.00000487,0.00000665,-0.00000265,0.00000013,-0.00000694,0.00000436
 ,-0.00001380,0.00000076,0.00000045,0.00000664,0.00000115,-0.00000154,-
 0.00000221,-0.00000055,0.00000094,0.00000889,0.00000177,-0.00000282,-0
 .00002849,-0.00000480,0.00000627,0.00000890,-0.00000023,0.00000151,0.0
 0000771,-0.00000192,-0.00000409,0.00000846,0.00000646,-0.00000210,-0.0
 0000173,0.00000041,-0.00000105,0.00000736,-0.00000131,-0.00000148,0.00
 000647,0.00000047,0.00000075,0.00000439,-0.00000178,0.00000029,0.00000
 095,0.00000294,-0.00000312,-0.00000029,0.00000144,-0.00000501,-0.00001
 009,-0.00000306,0.00000404,0.00001512,0.00001237,-0.00001769,-0.000020
 93,-0.00002181,-0.00003237,0.00005885,0.00029155,-0.00043850,0.0000062
 0,0.00004105,0.00008637,0.00002379,-0.00005612,0.00001459,-0.00026147,
 0.00012834,-0.00049083,0.00068140,-0.00056222,0.00001361,0.00010532,-0
 .00012233,0.00019888,-0.00012670,-0.00005413,-0.00010302,0.00009954,0.
 00002484,-0.00000251,-0.00007746,-0.00005741,0.00003588,0.00011695,-0.
 00004851,0.00001680,-0.00003966,0.00004375,0.00000108,-0.00003274,0.00
 000371,-0.00001792,-0.00002234,0.00000238,-0.00000271,-0.00003559,0.00
 002497,-0.00002826,-0.00002202,0.00004050,-0.00001170,-0.00236673,-0.0
 0498762,0.00451894,0.01005822,-0.01096875,-0.00519109,0.07825736,-0.10
 817795,-0.12194764,-0.00217219,0.00051870,0.00328355,-0.00013435,-0.00
 193662,0.00372631,-0.00036657,0.00048219,-0.00017575,0.00001381,-0.000
 02041,0.00000733,0.00000571,0.00000260,-0.00000310,-0.00000140,0.00000
 166,0.00000166,0.00000055,-0.00000052,0.00000012,0.00000113,0.00000021
 ,0.00000057,-0.00000178,-0.00000222,0.00000092,0.00000205,-0.00000077,
 0.00000190,0.00000177,-0.00000049,0.00000160,-0.00000095,0.00000139,0.
 00000058,0.00000111,0.00000892,-0.00000230,-0.00000848,0.00000374,0.00
 000755,0.00004024,-0.00001607,-0.00008256,0.00000527,-0.00002615,0.000
 01267,-0.00001527,-0.00000417,-0.00001676,-0.00000421,-0.00000156,-0.0
 0000401,0.00000472,0.00001455,0.00000168,-0.00014710,0.00308444,-0.002
 72984,-0.08378158,0.12067639,0.12082782,0.00000247,-0.00002057,-0.0000
 0670,-0.00000179,0.00001118,-0.00000473,-0.00000422,-0.00001357,-0.000
 00307,-0.00000952,0.00000444,-0.00000090,-0.00000416,-0.00000123,-0.00
 000008,0.00000313,0.00000048,-0.00000080,-0.00000058,-0.00000145,0.000
 00019,0.00000742,0.00000080,-0.00000215,-0.00003093,-0.00000002,0.0000
 0375,0.00001030,-0.00000158,0.00000331,0.00000894,-0.00000331,-0.00000
 451,0.00000846,0.00000380,-0.00000152,-0.00000142,-0.00000336,-0.00000
 137,-0.00000163,0.00000833,0.00000147,-0.00000198,-0.00000278,-0.00000
 101,-0.00000367,0.00000007,-0.00000302,-0.00000061,-0.00000117,-0.0000
 0108,0.00000294,0.00000253,-0.00000270,0.00000279,-0.00000171,0.000003
 01,-0.00000887,0.00000913,0.00000532,0.00002440,-0.00002556,-0.0000267
 6,0.00060599,0.00013750,0.00009687,0.00003813,0.00027931,0.00019683,0.
 00006091,0.00001254,0.00000488,-0.00020207,0.00004515,0.00002687,0.000
 08570,-0.00021558,-0.00016746,-0.00000806,0.00000579,-0.00000419,-0.00
 002951,-0.00001930,-0.00005152,0.00006581,-0.00000196,-0.00001780,-0.0
 0002680,-0.00003084,0.00002097,0.00011276,0.00000205,0.00002340,-0.000
 03336,0.00001479,-0.00000227,-0.00003226,-0.00000570,-0.00002400,-0.00
 003239,-0.00001298,0.00000458,-0.00003029,0.00000647,-0.00000615,0.000
 03472,0.00003801,-0.00002060,-0.00036942,0.00076422,0.00060491,-0.0056
 3861,0.00093323,0.00093523,-0.00900590,-0.02325374,-0.01768118,-0.1210
 7450,-0.09233432,-0.06968766,0.01163947,0.01286086,0.00980348,-0.00154
 320,0.00252604,0.00188034,0.00000344,0.00000244,0.00001668,-0.00000215
 ,0.00000265,0.00000386,-0.00000069,0.00000024,0.00000062,0.00000036,-0
 .00000062,-0.00000019,-0.00000090,0.00000058,0.00000071,-0.00000252,-0
 .00000276,0.00000215,0.00000054,0.00000075,0.00000063,0.00000135,-0.00
 000087,0.00000091,-0.00000099,-0.00000078,0.00000108,-0.00000220,0.000
 00165,-0.00000494,0.00000154,-0.00000295,-0.00000251,0.00000599,-0.000
 00907,-0.00000419,-0.00000276,-0.00001787,0.00004089,-0.00000091,0.000
 00185,0.00000135,-0.00000142,-0.00000172,0.00000006,0.00000107,-0.0000
 0068,0.00000501,-0.00050352,-0.00103337,-0.00075843,0.00138015,0.00045
 818,0.00025680,0.12356140,0.00002455,0.00003295,-0.00001856,-0.0000092
 3,-0.00001197,0.00006772,0.00001200,0.00001495,-0.00000308,0.00001403,
 -0.00000349,0.00000368,-0.00002236,-0.00000153,0.00000222,0.00000994,0
 .00000092,0.00000004,-0.00000211,-0.00000009,0.00000251,0.00000849,0.0
 0000136,-0.00000144,-0.00001757,-0.00000479,-0.00001220,0.00000774,-0.
 00000096,0.00000766,0.00000236,0.00000195,0.00000373,0.00000485,0.0000
 0441,0.00000183,-0.00000148,0.00000438,0.00000131,0.00001745,-0.000012
 24,-0.00000086,0.00001531,0.00000385,0.00000966,0.00000482,0.00000406,
 0.00000404,0.00000961,-0.00000257,0.00001027,-0.00000343,0.00000812,0.
 00000567,-0.00001651,-0.00000427,0.00002916,0.00000137,0.00004089,-0.0
 0008014,-0.00009827,0.00009679,-0.00011345,-0.00088157,-0.00023627,-0.
 00026776,0.00001556,-0.00034001,0.00028588,0.00010892,-0.00025495,-0.0
 0014622,0.00023346,-0.00002112,-0.00011423,-0.00004277,-0.00005243,0.0
 0050099,0.00006022,0.00000845,0.00001540,-0.00004815,0.00000510,-0.000
 02391,0.00001792,0.00000428,-0.00000284,-0.00003737,-0.00000951,0.0000
 0702,0.00010411,0.00001055,0.00001106,-0.00002958,0.00001077,-0.000001
 17,-0.00003017,-0.00000643,-0.00001916,-0.00003065,-0.00001565,0.00000
 817,-0.00000169,-0.00000290,-0.00000331,-0.00002583,0.00000048,-0.0000
 0190,0.00044749,-0.00009259,0.00038674,-0.00007973,0.00298069,-0.00189
 058,0.00164395,0.00291955,-0.00044097,-0.09186555,-0.18800364,-0.11318
 270,-0.01194991,-0.01050659,-0.01113039,0.00329459,0.00170748,-0.00527
 253,0.00000494,-0.00001930,-0.00001354,0.00001143,-0.00000102,-0.00000
 730,-0.00000208,0.00000301,-0.00000018,0.00000054,0.00000007,-0.000000
 86,0.00000307,0.00000060,-0.00000211,-0.00000162,0.00000110,-0.0000052
 2,0.00000505,-0.00000398,0.00000012,0.00000404,-0.00000575,-0.00000079
 ,-0.00000124,-0.00001031,-0.00000201,0.00000079,0.00000554,-0.00002202
 ,-0.00006216,0.00001088,-0.00000991,0.00000157,0.00000783,-0.00003655,
 -0.00000062,-0.00001326,0.00001198,-0.00000205,0.00000151,-0.00000169,
 -0.00000401,-0.00000231,-0.00000010,0.00000377,0.00000427,-0.00000080,
 0.00012632,0.00006306,-0.00006501,-0.00032509,-0.00075714,0.00177068,0
 .09928409,0.19351008,-0.00009156,0.00020349,-0.00004310,0.00011579,-0.
 00019279,0.00005923,-0.00008271,0.00003512,0.00000694,0.00003034,-0.00
 004424,0.00004455,-0.00003059,0.00000188,0.00000104,0.00001250,0.00000
 208,-0.00000221,-0.00000429,0.00000008,0.00000270,0.00001098,0.0000031
 3,-0.00000305,-0.00002141,-0.00001359,0.00000407,0.00000641,0.00000180
 ,0.00000065,0.00000409,0.00000178,-0.00000069,0.00000752,0.00001049,-0
 .00000185,-0.00000298,0.00000548,-0.00000119,0.00002114,-0.00001367,-0
 .00000686,0.00002842,0.00002047,-0.00002447,0.00001196,-0.00001960,0.0
 0001306,0.00001857,0.00001407,-0.00001314,-0.00002356,0.00000920,-0.00
 001052,-0.00001919,-0.00002276,0.00001957,0.00003928,0.00006610,-0.000
 03857,-0.00003772,-0.00010324,0.00021313,-0.00071853,-0.00039193,-0.00
 020357,0.00018313,0.00029997,-0.00046146,0.00006028,-0.00017671,-0.000
 13899,0.00003737,-0.00005007,0.00009560,-0.00003392,0.00041405,-0.0004
 1791,0.00002707,-0.00003311,-0.00004010,0.00000469,-0.00003174,0.00001
 072,0.00000341,0.00000032,0.00000842,-0.00002410,0.00000604,-0.0000031
 9,0.00006749,-0.00000400,0.00002044,-0.00002100,0.00001224,-0.00000336
 ,-0.00002130,-0.00000332,-0.00001836,-0.00001582,-0.00000361,-0.000001
 15,0.00001248,-0.00000430,0.00000468,-0.00003394,0.00001717,-0.0000088
 9,0.00044831,0.00040597,-0.00027420,0.00013253,-0.00189139,0.00398754,
 0.00149680,-0.00019895,0.00326104,-0.06951115,-0.11337591,-0.12397783,
 -0.00907503,-0.01115699,-0.00420845,0.00228144,-0.00522768,0.00477841,
 0.00002741,-0.00006921,-0.00002803,0.00001025,0.00000050,-0.00001558,-
 0.00000224,0.00000360,0.00000219,0.00000077,-0.00000015,0.00000013,0.0
 0000449,-0.00000049,0.00000012,-0.00000138,-0.00000235,0.00000080,0.00
 000305,-0.00000386,0.00000143,0.00000249,-0.00000132,0.00000087,-0.000
 00106,0.00000300,0.00000066,-0.00000050,0.00001748,-0.00000733,-0.0000
 4453,-0.00000285,0.00000952,-0.00000563,-0.00003567,0.00003560,0.00001
 573,0.00000419,0.00001124,-0.00000575,0.00000083,0.00000028,-0.0000029
 4,-0.00000124,-0.00000061,0.00000584,0.00000148,-0.00000346,0.00009423
 ,-0.00007290,0.00008286,-0.00033540,0.00179518,-0.00166982,0.07483742,
 0.12672980,0.12177053,-0.00026621,0.00054655,-0.00024931,-0.00002715,0
 .00052880,0.00166494,0.00022422,-0.00011202,-0.00009670,-0.00009745,0.
 00006409,-0.00012326,0.00004155,0.00000991,0.00000200,-0.00001789,-0.0
 0000268,0.00000160,0.00000265,0.00000166,-0.00000285,-0.00001467,0.000
 00041,0.00000573,0.00004430,-0.00000287,-0.00000618,-0.00001499,0.0000
 0271,-0.00000473,-0.00001231,0.00000570,0.00000677,-0.00001133,-0.0000
 0465,0.00000174,0.00000659,-0.00000478,-0.00000014,-0.00001998,0.00000
 386,0.00000246,-0.00002104,-0.00009217,0.00001122,0.00001056,0.0000168
 7,0.,-0.00001374,-0.00001515,0.00000651,0.00004231,-0.00000327,0.00000
 105,-0.00001986,-0.00008991,-0.00003435,0.00026769,0.00015144,0.000453
 13,-0.00015524,0.00091311,0.00058454,-0.00062349,0.00104187,0.00090355
 ,-0.00027470,0.00000469,-0.00001855,0.00024475,-0.00011363,-0.00007814
 ,0.00016195,-0.00007016,-0.00002968,-0.00059595,0.00043979,0.00025416,
 0.00006633,-0.00017341,-0.00007459,-0.00002142,-0.00001476,0.00000496,
 0.00000466,0.00000141,0.00000179,-0.00004249,0.00000109,0.00000058,0.0
 0013276,0.00001363,0.00002755,-0.00003765,0.00001323,-0.00000459,-0.00
 004080,-0.00000982,-0.00003216,-0.00003709,-0.00001702,0.00000542,0.00
 000417,-0.00001380,0.00001693,-0.00007747,0.00002663,-0.00002603,0.000
 72159,-0.00197818,-0.00157223,0.00085575,-0.00007703,-0.00009736,0.000
 63388,0.00263170,0.00189770,-0.01203546,-0.00241879,-0.00192897,-0.337
 34382,-0.00753396,-0.00882762,-0.01116938,0.00046992,0.00026402,0.0000
 0119,-0.00003615,-0.00007906,0.00001734,-0.00001081,-0.00002031,0.0000
 0269,-0.00000280,-0.00000155,-0.00000190,0.00000066,0.00000007,-0.0000
 0045,-0.00000073,-0.00000069,0.00000225,-0.00000114,0.00000186,-0.0000
 0110,-0.00000028,0.00000173,-0.00000131,0.00000032,-0.00000253,-0.0000
 0229,0.00000313,-0.00000224,-0.00001893,-0.00000812,-0.00003036,-0.000
 09010,-0.00005412,-0.00003892,0.00000570,-0.00002017,-0.00001335,0.000
 01126,-0.00000777,0.00000647,-0.00000586,0.00000259,0.00000101,-0.0000
 0912,-0.00000224,-0.00000010,0.00000820,0.00000210,-0.00000594,-0.0000
 9982,-0.00000588,0.00001524,-0.00058437,-0.00016682,-0.00010128,0.0009
 4363,0.00008844,0.00010455,0.35934883,0.00034490,-0.00082026,0.0004657
 2,0.00018455,0.00061977,-0.00130340,0.00015950,0.00002357,0.00005837,-
 0.00004399,0.00008063,-0.00016116,0.00010397,0.00000347,0.00000305,-0.
 00005265,-0.00001711,0.00000758,0.00001409,0.00000469,-0.00000953,-0.0
 0004791,-0.00000960,0.00001293,0.00012696,0.00001900,-0.00001138,-0.00
 004261,0.00000272,-0.00001425,-0.00003130,0.00000683,0.00001207,-0.000
 03612,-0.00002773,0.00000532,0.00000842,-0.00001263,0.00000543,-0.0000
 6377,0.00003747,0.00001015,-0.00005134,-0.00011196,0.00013416,0.000018
 15,0.00005216,-0.00005704,-0.00008088,-0.00003840,0.00002895,0.0001434
 8,-0.00002773,0.00006325,-0.00006969,0.00015385,-0.00002341,0.00038826
 ,-0.00055067,0.00013498,-0.00000442,-0.00044073,-0.00040412,-0.0004715
 1,-0.00051429,0.00149618,-0.00011203,0.00010258,0.00037009,0.00018557,
 0.00001107,-0.00016090,-0.00007121,-0.00001900,0.00009033,-0.00115107,
 0.00024890,0.00011229,0.00005708,-0.00015643,-0.00029795,-0.00006186,-
 0.00002923,0.00003581,0.00001696,0.00001260,0.00001141,-0.00005041,-0.
 00000887,-0.00000164,0.00010069,0.00000915,0.00001289,-0.00002732,0.00
 001174,-0.00000207,-0.00003038,-0.00000680,-0.00002090,-0.00002738,-0.
 00001454,0.00000599,0.00000626,0.00000279,0.00002940,-0.00006974,0.000
 01106,-0.00001379,-0.00094276,-0.00110898,-0.00451275,-0.00001987,-0.0
 0095960,-0.00030494,0.00152458,0.00027845,-0.00578465,0.02240698,0.004
 81391,0.00040701,-0.00670903,-0.05075733,-0.01026175,-0.02210783,0.003
 64926,-0.00005383,0.00000563,0.00016984,0.00011355,-0.00002859,-0.0000
 1542,0.00003563,0.00000870,-0.00001127,-0.00000726,-0.00000501,0.00000
 142,0.00000064,-0.00001033,-0.00000105,0.00000075,0.00000567,0.0000089
 8,-0.00000019,-0.00001153,0.00000679,-0.00000633,-0.00000756,0.0000067
 2,-0.00000801,0.00000053,0.00000288,-0.00001539,-0.00001795,-0.0000249
 4,-0.00004279,-0.00007600,-0.00006214,-0.00003360,0.00002250,0.0000005
 7,-0.00002872,0.00001717,0.00000753,0.00000345,-0.00000617,0.00000121,
 -0.00000363,-0.00000772,-0.00000146,0.00000173,0.00000724,-0.00000596,
 -0.00001140,-0.00000635,-0.00033620,0.00053867,0.00101548,0.00019279,-
 0.00012502,-0.00039778,-0.00107284,0.00306268,0.00607876,0.04660878,-0
 .00014647,0.00045034,-0.00010309,0.00084184,-0.00115259,-0.00068333,0.
 00019044,0.00006512,-0.00002858,-0.00003624,0.00012435,-0.00007065,0.0
 0008167,0.00002690,-0.00001670,-0.00004670,-0.00001384,0.00000438,0.00
 000677,0.00000700,-0.00000696,-0.00004114,-0.00000465,0.00001112,0.000
 11181,0.00000324,0.00000786,-0.00004035,0.00000649,-0.00002110,-0.0000
 2770,0.00000780,0.00000745,-0.00002943,-0.00001594,0.00000068,0.000008
 94,-0.00000451,-0.00000044,-0.00004424,0.00001291,0.00000105,-0.000220
 18,-0.00008806,0.00005729,0.00006490,0.00003470,-0.00004805,-0.0000980
 9,0.00001968,-0.00001915,0.00011250,-0.00002717,-0.00001226,-0.0000840
 6,0.00017997,-0.00014764,0.00028643,-0.00023246,0.00033544,0.00018803,
 -0.00061515,-0.00059713,-0.00024974,0.00140517,-0.00162275,0.00009850,
 0.00047311,-0.00005413,0.00013506,-0.00017203,0.00011096,-0.00014357,0
 .00010773,-0.00005323,-0.00085635,0.00017395,0.00003686,0.00002124,-0.
 00033409,0.00005702,0.00004737,0.00004271,-0.00001359,-0.00002605,-0.0
 0001293,0.00000443,-0.00000708,0.00001927,-0.00000291,0.00004627,-0.00
 000016,0.00001208,-0.00001436,0.00000635,-0.00000176,-0.00001522,-0.00
 000361,-0.00001393,-0.00001227,-0.00000262,-0.00000031,0.00000337,-0.0
 0003037,0.00002299,-0.00010294,0.00002936,-0.00001039,-0.00019924,-0.0
 0472947,0.00152118,0.00002054,0.00000929,-0.00057972,0.00101353,-0.005
 80728,0.00359183,0.01709462,-0.00010975,0.00447980,-0.00842819,-0.0095
 6527,-0.04419773,-0.01708077,-0.00015187,0.00341679,-0.00002290,0.0000
 1156,-0.00009926,0.00001632,-0.00001699,-0.00000033,0.00000676,-0.0000
 0709,-0.00000146,-0.00000490,0.00000122,0.00000193,-0.00000601,-0.0000
 0258,0.00000287,0.00000872,0.00000357,0.00001233,-0.00000978,0.0000051
 7,0.00000056,-0.00000053,0.00001100,-0.00000161,0.00000375,0.00001658,
 -0.00000602,0.00002249,0.00004790,-0.00000397,-0.00007225,-0.00005717,
 -0.00004040,0.00001687,-0.00003100,0.00001513,-0.00000174,-0.00002352,
 -0.00001879,-0.00000376,0.00000106,0.00000112,-0.00000894,-0.00000278,
 -0.00000511,0.00000364,0.00000250,-0.00000141,-0.00003167,0.00057101,-
 0.00063304,0.00069602,-0.00009153,0.00018442,-0.00029008,0.00301813,-0
 .00282007,0.00725451,0.01641136,0.03803943\\-0.00000004,-0.00000823,0.
 00001856,-0.00001861,0.00001001,-0.00001457,-0.00000149,0.00000062,0.0
 0000971,0.00000125,-0.00000114,-0.00000428,-0.00000791,0.00000351,0.00
 000497,0.00000552,-0.00000180,0.00000180,-0.00000615,0.00000584,0.0000
 0228,0.00001278,-0.00000052,0.00000165,0.00000015,0.00000265,-0.000013
 47,0.00000078,-0.00000395,0.00000742,-0.00000337,-0.00000016,0.0000034
 5,-0.00000193,0.00000153,0.00000134,-0.00001449,-0.00000310,-0.0000003
 0,0.00001155,-0.00000270,-0.00000735,0.00001133,-0.00000417,-0.0000008
 5,-0.00000909,0.00000504,-0.00000330,-0.00000315,0.00000216,-0.0000053
 3,-0.00000101,0.00000331,-0.00000360,0.00000214,-0.00000499,0.00000405
 ,0.00000242,0.00000935,-0.00000593,0.00000431,-0.00001486,0.00001543,-
 0.00000423,-0.00000355,-0.00001348,-0.00000078,0.00001716,0.00001287,-
 0.00000961,-0.00001294,-0.00000784,0.00000281,-0.00000271,-0.00000311,
 0.00000495,0.00000559,0.00000285,-0.00000353,-0.00000586,0.00000334,-0
 .00000479,0.00000095,-0.00000027,0.00000975,-0.00000365,0.00000427,-0.
 00000516,0.00000226,-0.00000191,0.00000470,-0.00000289,0.00001164,-0.0
 0000341,-0.00000244,-0.00000129,-0.00000609,-0.00000130,-0.00000339,-0
 .00000033,0.00000601,-0.00000815,0.00000948,0.00000400,-0.00000158,-0.
 00000501,0.00000309,-0.00000248,0.00000132,-0.00000719,-0.00000642,0.0
 0000470,0.00000629,0.00000530,-0.00000906,-0.00000977,-0.00000618,0.00
 000831,-0.00000684,-0.00000498,-0.00000683,0.00000100,0.00000166,0.000
 00030,0.00000585,0.00000621,0.00000788,0.00000367,-0.00000950,0.000005
 02,0.00000357,-0.00000508,-0.00000320,-0.00000516,-0.00000280,0.000004
 08,-0.00000613,-0.00000334,0.00000554,0.00000613,0.00000161,-0.0000042
 3,0.00000613,0.00000485,0.00000677,-0.00000208,0.00000208,0.00000502,-
 0.00000430,0.00000577,-0.00000255,-0.00000738,0.00000401,-0.00000727,0
 .00000223,-0.00000322,0.00001315,0.00000433,0.00000134,-0.00000468,-0.
 00000333,-0.00000414,0.00000576,0.00000664,0.00000038,-0.00000444,0.00
 000573,-0.00000274,-0.00000507,-0.00000499,0.00000125,0.00000570,-0.00
 000521,0.00000375,-0.00000876,-0.00000172,-0.00000298,-0.00000193,0.00
 000607,0.00000589,0.00000187,0.00000536,0.00000685,0.00000886,-0.00000
 106,-0.00000272\\\@
 The archive entry for this job was punched.


 IF AT FIRST YOU DON'T SUCCEED, TRY, TRY AGAIN.
 THEN GIVE UP;
 THERE'S NO USE BEING A DAMN FOOL ABOUT IT.

                                 -- W. C. FIELDS
 Job cpu time:       0 days  7 hours  6 minutes 58.6 seconds.
 Elapsed time:       0 days  0 hours 10 minutes 44.5 seconds.
 File lengths (MBytes):  RWF=   2774 Int=      0 D2E=      0 Chk=     35 Scr=      1
 Normal termination of Gaussian 16 at Sun Feb 25 03:42:42 2024.
