 Entering Gaussian System, Link 0=g16
 Initial command:
 /public/apps/g16-C01//g16/l1.exe "/public/home/ljq/tmp/Gau-112844.inp" -scrdir="/public/home/ljq/tmp/"
 Entering Link 1 = /public/apps/g16-C01//g16/l1.exe PID=    112845.
  
 Copyright (c) 1988-2019, Gaussian, Inc.  All Rights Reserved.
  
 This is part of the Gaussian(R) 16 program.  It is based on
 the Gaussian(R) 09 system (copyright 2009, Gaussian, Inc.),
 the Gaussian(R) 03 system (copyright 2003, Gaussian, Inc.),
 the Gaussian(R) 98 system (copyright 1998, Gaussian, Inc.),
 the Gaussian(R) 94 system (copyright 1995, Gaussian, Inc.),
 the Gaussian 92(TM) system (copyright 1992, Gaussian, Inc.),
 the Gaussian 90(TM) system (copyright 1990, Gaussian, Inc.),
 the Gaussian 88(TM) system (copyright 1988, Gaussian, Inc.),
 the Gaussian 86(TM) system (copyright 1986, Carnegie Mellon
 University), and the Gaussian 82(TM) system (copyright 1983,
 Carnegie Mellon University). Gaussian is a federally registered
 trademark of Gaussian, Inc.
  
 This software contains proprietary and confidential information,
 including trade secrets, belonging to Gaussian, Inc.
  
 This software is provided under written license and may be
 used, copied, transmitted, or stored only in accord with that
 written license.
  
 The following legend is applicable only to US Government
 contracts under FAR:
  
                    RESTRICTED RIGHTS LEGEND
  
 Use, reproduction and disclosure by the US Government is
 subject to restrictions as set forth in subparagraphs (a)
 and (c) of the Commercial Computer Software - Restricted
 Rights clause in FAR 52.227-19.
  
 Gaussian, Inc.
 340 Quinnipiac St., Bldg. 40, Wallingford CT 06492
  
  
 ---------------------------------------------------------------
 Warning -- This program may not be used in any manner that
 competes with the business of Gaussian, Inc. or will provide
 assistance to any competitor of Gaussian, Inc.  The licensee
 of this program is prohibited from giving any competitor of
 Gaussian, Inc. access to this program.  By using this program,
 the user acknowledges that Gaussian, Inc. is engaged in the
 business of creating and licensing software in the field of
 computational chemistry and represents and warrants to the
 licensee that it is not a competitor of Gaussian, Inc. and that
 it will not use this program in any manner prohibited above.
 ---------------------------------------------------------------
  

 Cite this work as:
 Gaussian 16, Revision C.01,
 M. J. Frisch, G. W. Trucks, H. B. Schlegel, G. E. Scuseria, 
 M. A. Robb, J. R. Cheeseman, G. Scalmani, V. Barone, 
 G. A. Petersson, H. Nakatsuji, X. Li, M. Caricato, A. V. Marenich, 
 J. Bloino, B. G. Janesko, R. Gomperts, B. Mennucci, H. P. Hratchian, 
 J. V. Ortiz, A. F. Izmaylov, J. L. Sonnenberg, D. Williams-Young, 
 F. Ding, F. Lipparini, F. Egidi, J. Goings, B. Peng, A. Petrone, 
 T. Henderson, D. Ranasinghe, V. G. Zakrzewski, J. Gao, N. Rega, 
 G. Zheng, W. Liang, M. Hada, M. Ehara, K. Toyota, R. Fukuda, 
 J. Hasegawa, M. Ishida, T. Nakajima, Y. Honda, O. Kitao, H. Nakai, 
 T. Vreven, K. Throssell, J. A. Montgomery, Jr., J. E. Peralta, 
 F. Ogliaro, M. J. Bearpark, J. J. Heyd, E. N. Brothers, K. N. Kudin, 
 V. N. Staroverov, T. A. Keith, R. Kobayashi, J. Normand, 
 K. Raghavachari, A. P. Rendell, J. C. Burant, S. S. Iyengar, 
 J. Tomasi, M. Cossi, J. M. Millam, M. Klene, C. Adamo, R. Cammi, 
 J. W. Ochterski, R. L. Martin, K. Morokuma, O. Farkas, 
 J. B. Foresman, and D. J. Fox, Gaussian, Inc., Wallingford CT, 2019.
 
 ******************************************
 Gaussian 16:  ES64L-G16RevC.01  3-Jul-2019
                25-Feb-2024 
 ******************************************
 %nproc=40
 Will use up to   40 processors via shared memory.
 %mem=56GB
 ------------------------------------------
 #p opt freq b3lyp/def2svpp em=gd3bj nosymm
 ------------------------------------------
 1/18=20,19=15,26=3,38=1/1,3;
 2/9=110,12=2,15=1,17=6,18=5,40=1/2;
 3/5=43,7=202,11=2,25=1,30=1,71=1,74=-5,124=41/1,2,3;
 4//1;
 5/5=2,38=5/2;
 6/7=2,8=2,9=2,10=2,28=1/1;
 7/30=1/1,2,3,16;
 1/18=20,19=15,26=3/3(2);
 2/9=110,15=1/2;
 99//99;
 2/9=110,15=1/2;
 3/5=43,7=202,11=2,25=1,30=1,71=1,74=-5,124=41/1,2,3;
 4/5=5,16=3,69=1/1;
 5/5=2,38=5/2;
 7/30=1/1,2,3,16;
 1/18=20,19=15,26=3/3(-5);
 2/9=110,15=1/2;
 6/7=2,8=2,9=2,10=2,19=2,28=1/1;
 99/9=1/99;
 Leave Link    1 at Sun Feb 25 03:46:40 2024, MaxMem=  7516192768 cpu:               2.8 elap:               0.1
 (Enter /public/apps/g16-C01//g16/l101.exe)
 ----------------------
 $$$$Singlemol####0????
 ----------------------
 Symbolic Z-matrix:
 Charge =  0 Multiplicity = 1
 C                     4.86804  -4.90735   3.06204 
 O                     3.96357  -3.93644   2.56087 
 C                     4.48317  -3.04394   1.70217 
 O                     5.64298  -3.05477   1.36591 
 C                     3.48336  -2.06253   1.22412 
 C                     2.13545  -2.10816   1.64755 
 C                     1.2361   -1.193     1.18824 
 C                     1.62315  -0.17818   0.27995 
 C                     0.71041   0.77456  -0.21216 
 C                    -0.71011   0.775     0.2112 
 C                    -1.12445   1.7723    1.08536 
 O                    -0.21588   2.6412    1.53938 
 C                    -2.49127   1.82816   1.48825 
 C                    -2.92583   2.89589   2.40405 
 O                    -2.18301   3.74503   2.86819 
 O                    -4.22718   2.85705   2.69069 
 C                    -4.70369   3.86844   3.56612 
 C                    -3.38775   0.89274   1.01629 
 C                    -2.98471  -0.12165   0.13648 
 C                    -3.89244  -1.08136  -0.35099 
 C                    -3.48501  -2.06037  -1.22475 
 C                    -4.48534  -3.04159  -1.70212 
 O                    -5.64503  -3.05191  -1.36541 
 O                    -3.96633  -3.93468  -2.56057 
 C                    -4.87123  -4.90571  -3.06075 
 C                    -2.13728  -2.10657  -1.64869 
 C                    -1.23735  -1.19184  -1.18963 
 C                    -1.62359  -0.17697  -0.28105 
 C                     1.12563   1.7721   -1.08564 
 O                     0.21783   2.64206  -1.53913 
 C                     2.49255   1.82712  -1.48833 
 C                     2.92814   2.89517  -2.40326 
 O                     2.18626   3.74589  -2.86605 
 O                     4.22919   2.85458  -2.69088 
 C                     4.70678   3.86629  -3.56534 
 C                     3.38826   0.89082  -1.01669 
 C                     2.9844   -0.12358  -0.13726 
 C                     3.89151  -1.08378   0.35041 
 H                     5.28882  -5.49349   2.24218 
 H                     4.2934   -5.54271   3.73113 
 H                     5.68564  -4.42279   3.60004 
 H                     1.83474  -2.87836   2.33985 
 H                     0.20787  -1.22848   1.51505 
 H                    -0.66641   3.28892   2.12692 
 H                    -5.76897   3.68889   3.68351 
 H                    -4.19457   3.8072    4.53026 
 H                    -4.52507   4.8567    3.13743 
 H                    -4.41951   0.94335   1.32749 
 H                    -4.9259   -1.05099  -0.03832 
 H                    -5.28883  -5.49381  -2.24067 
 H                    -5.69102  -4.42111  -3.59536 
 H                    -4.29789  -5.53925  -3.73268 
 H                    -1.83714  -2.87694  -2.34105 
 H                    -0.20923  -1.22782  -1.51676 
 H                     0.66903   3.29018  -2.1257 
 H                     4.53325   4.85414  -3.13363 
 H                     5.771     3.68307  -3.68644 
 H                     4.19447   3.8094   -4.52805 
 H                     4.42011   0.94079  -1.32771 
 H                     4.92509  -1.05389   0.03807 
 
 ITRead=  0  0  0  0  0  0  0  0  0  0  0  0  0  0  0  0  0  0  0  0
 ITRead=  0  0  0  0  0  0  0  0  0  0  0  0  0  0  0  0  0  0  0  0
 ITRead=  0  0  0  0  0  0  0  0  0  0  0  0  0  0  0  0  0  0  0  0
 MicOpt= -1 -1 -1 -1 -1 -1 -1 -1 -1 -1 -1 -1 -1 -1 -1 -1 -1 -1 -1 -1
 MicOpt= -1 -1 -1 -1 -1 -1 -1 -1 -1 -1 -1 -1 -1 -1 -1 -1 -1 -1 -1 -1
 MicOpt= -1 -1 -1 -1 -1 -1 -1 -1 -1 -1 -1 -1 -1 -1 -1 -1 -1 -1 -1 -1
 NAtoms=     60 NQM=       60 NQMF=       0 NMMI=      0 NMMIF=      0
                NMic=       0 NMicF=      0.
                    Isotopes and Nuclear Properties:
 (Nuclear quadrupole moments (NQMom) in fm**2, nuclear magnetic moments (NMagM)
  in nuclear magnetons)

  Atom         1           2           3           4           5           6           7           8           9          10
 IAtWgt=          12          16          12          16          12          12          12          12          12          12
 AtmWgt=  12.0000000  15.9949146  12.0000000  15.9949146  12.0000000  12.0000000  12.0000000  12.0000000  12.0000000  12.0000000
 NucSpn=           0           0           0           0           0           0           0           0           0           0
 AtZEff=  -0.0000000  -0.0000000  -0.0000000  -0.0000000  -0.0000000  -0.0000000  -0.0000000  -0.0000000  -0.0000000  -0.0000000
 NQMom=    0.0000000   0.0000000   0.0000000   0.0000000   0.0000000   0.0000000   0.0000000   0.0000000   0.0000000   0.0000000
 NMagM=    0.0000000   0.0000000   0.0000000   0.0000000   0.0000000   0.0000000   0.0000000   0.0000000   0.0000000   0.0000000
 AtZNuc=   6.0000000   8.0000000   6.0000000   8.0000000   6.0000000   6.0000000   6.0000000   6.0000000   6.0000000   6.0000000

  Atom        11          12          13          14          15          16          17          18          19          20
 IAtWgt=          12          16          12          12          16          16          12          12          12          12
 AtmWgt=  12.0000000  15.9949146  12.0000000  12.0000000  15.9949146  15.9949146  12.0000000  12.0000000  12.0000000  12.0000000
 NucSpn=           0           0           0           0           0           0           0           0           0           0
 AtZEff=  -0.0000000  -0.0000000  -0.0000000  -0.0000000  -0.0000000  -0.0000000  -0.0000000  -0.0000000  -0.0000000  -0.0000000
 NQMom=    0.0000000   0.0000000   0.0000000   0.0000000   0.0000000   0.0000000   0.0000000   0.0000000   0.0000000   0.0000000
 NMagM=    0.0000000   0.0000000   0.0000000   0.0000000   0.0000000   0.0000000   0.0000000   0.0000000   0.0000000   0.0000000
 AtZNuc=   6.0000000   8.0000000   6.0000000   6.0000000   8.0000000   8.0000000   6.0000000   6.0000000   6.0000000   6.0000000

  Atom        21          22          23          24          25          26          27          28          29          30
 IAtWgt=          12          12          16          16          12          12          12          12          12          16
 AtmWgt=  12.0000000  12.0000000  15.9949146  15.9949146  12.0000000  12.0000000  12.0000000  12.0000000  12.0000000  15.9949146
 NucSpn=           0           0           0           0           0           0           0           0           0           0
 AtZEff=  -0.0000000  -0.0000000  -0.0000000  -0.0000000  -0.0000000  -0.0000000  -0.0000000  -0.0000000  -0.0000000  -0.0000000
 NQMom=    0.0000000   0.0000000   0.0000000   0.0000000   0.0000000   0.0000000   0.0000000   0.0000000   0.0000000   0.0000000
 NMagM=    0.0000000   0.0000000   0.0000000   0.0000000   0.0000000   0.0000000   0.0000000   0.0000000   0.0000000   0.0000000
 AtZNuc=   6.0000000   6.0000000   8.0000000   8.0000000   6.0000000   6.0000000   6.0000000   6.0000000   6.0000000   8.0000000

  Atom        31          32          33          34          35          36          37          38          39          40
 IAtWgt=          12          12          16          16          12          12          12          12           1           1
 AtmWgt=  12.0000000  12.0000000  15.9949146  15.9949146  12.0000000  12.0000000  12.0000000  12.0000000   1.0078250   1.0078250
 NucSpn=           0           0           0           0           0           0           0           0           1           1
 AtZEff=  -0.0000000  -0.0000000  -0.0000000  -0.0000000  -0.0000000  -0.0000000  -0.0000000  -0.0000000  -0.0000000  -0.0000000
 NQMom=    0.0000000   0.0000000   0.0000000   0.0000000   0.0000000   0.0000000   0.0000000   0.0000000   0.0000000   0.0000000
 NMagM=    0.0000000   0.0000000   0.0000000   0.0000000   0.0000000   0.0000000   0.0000000   0.0000000   2.7928460   2.7928460
 AtZNuc=   6.0000000   6.0000000   8.0000000   8.0000000   6.0000000   6.0000000   6.0000000   6.0000000   1.0000000   1.0000000

  Atom        41          42          43          44          45          46          47          48          49          50
 IAtWgt=           1           1           1           1           1           1           1           1           1           1
 AtmWgt=   1.0078250   1.0078250   1.0078250   1.0078250   1.0078250   1.0078250   1.0078250   1.0078250   1.0078250   1.0078250
 NucSpn=           1           1           1           1           1           1           1           1           1           1
 AtZEff=  -0.0000000  -0.0000000  -0.0000000  -0.0000000  -0.0000000  -0.0000000  -0.0000000  -0.0000000  -0.0000000  -0.0000000
 NQMom=    0.0000000   0.0000000   0.0000000   0.0000000   0.0000000   0.0000000   0.0000000   0.0000000   0.0000000   0.0000000
 NMagM=    2.7928460   2.7928460   2.7928460   2.7928460   2.7928460   2.7928460   2.7928460   2.7928460   2.7928460   2.7928460
 AtZNuc=   1.0000000   1.0000000   1.0000000   1.0000000   1.0000000   1.0000000   1.0000000   1.0000000   1.0000000   1.0000000

  Atom        51          52          53          54          55          56          57          58          59          60
 IAtWgt=           1           1           1           1           1           1           1           1           1           1
 AtmWgt=   1.0078250   1.0078250   1.0078250   1.0078250   1.0078250   1.0078250   1.0078250   1.0078250   1.0078250   1.0078250
 NucSpn=           1           1           1           1           1           1           1           1           1           1
 AtZEff=  -0.0000000  -0.0000000  -0.0000000  -0.0000000  -0.0000000  -0.0000000  -0.0000000  -0.0000000  -0.0000000  -0.0000000
 NQMom=    0.0000000   0.0000000   0.0000000   0.0000000   0.0000000   0.0000000   0.0000000   0.0000000   0.0000000   0.0000000
 NMagM=    2.7928460   2.7928460   2.7928460   2.7928460   2.7928460   2.7928460   2.7928460   2.7928460   2.7928460   2.7928460
 AtZNuc=   1.0000000   1.0000000   1.0000000   1.0000000   1.0000000   1.0000000   1.0000000   1.0000000   1.0000000   1.0000000
 Leave Link  101 at Sun Feb 25 03:46:40 2024, MaxMem=  7516192768 cpu:               6.3 elap:               0.2
 (Enter /public/apps/g16-C01//g16/l103.exe)

 GradGradGradGradGradGradGradGradGradGradGradGradGradGradGradGradGradGrad
 Berny optimization.
 Initialization pass.
                           ----------------------------
                           !    Initial Parameters    !
                           ! (Angstroms and Degrees)  !
 --------------------------                            --------------------------
 ! Name  Definition              Value          Derivative Info.                !
 --------------------------------------------------------------------------------
 ! R1    R(1,2)                  1.4184         estimate D2E/DX2                !
 ! R2    R(1,39)                 1.0921         estimate D2E/DX2                !
 ! R3    R(1,40)                 1.087          estimate D2E/DX2                !
 ! R4    R(1,41)                 1.0921         estimate D2E/DX2                !
 ! R5    R(2,3)                  1.3431         estimate D2E/DX2                !
 ! R6    R(3,4)                  1.2076         estimate D2E/DX2                !
 ! R7    R(3,5)                  1.4803         estimate D2E/DX2                !
 ! R8    R(5,6)                  1.4136         estimate D2E/DX2                !
 ! R9    R(5,38)                 1.374          estimate D2E/DX2                !
 ! R10   R(6,7)                  1.3628         estimate D2E/DX2                !
 ! R11   R(6,42)                 1.0784         estimate D2E/DX2                !
 ! R12   R(7,8)                  1.4159         estimate D2E/DX2                !
 ! R13   R(7,43)                 1.0795         estimate D2E/DX2                !
 ! R14   R(8,9)                  1.4082         estimate D2E/DX2                !
 ! R15   R(8,37)                 1.4248         estimate D2E/DX2                !
 ! R16   R(9,10)                 1.4823         estimate D2E/DX2                !
 ! R17   R(9,29)                 1.3894         estimate D2E/DX2                !
 ! R18   R(10,11)                1.3894         estimate D2E/DX2                !
 ! R19   R(10,28)                1.4082         estimate D2E/DX2                !
 ! R20   R(11,12)                1.3366         estimate D2E/DX2                !
 ! R21   R(11,13)                1.4261         estimate D2E/DX2                !
 ! R22   R(12,44)                0.9837         estimate D2E/DX2                !
 ! R23   R(13,14)                1.4723         estimate D2E/DX2                !
 ! R24   R(13,18)                1.3789         estimate D2E/DX2                !
 ! R25   R(14,15)                1.2199         estimate D2E/DX2                !
 ! R26   R(14,16)                1.3331         estimate D2E/DX2                !
 ! R27   R(16,17)                1.42           estimate D2E/DX2                !
 ! R28   R(17,45)                1.0867         estimate D2E/DX2                !
 ! R29   R(17,46)                1.092          estimate D2E/DX2                !
 ! R30   R(17,47)                1.0919         estimate D2E/DX2                !
 ! R31   R(18,19)                1.402          estimate D2E/DX2                !
 ! R32   R(18,48)                1.0789         estimate D2E/DX2                !
 ! R33   R(19,20)                1.4081         estimate D2E/DX2                !
 ! R34   R(19,28)                1.4248         estimate D2E/DX2                !
 ! R35   R(20,21)                1.374          estimate D2E/DX2                !
 ! R36   R(20,49)                1.0802         estimate D2E/DX2                !
 ! R37   R(21,22)                1.4803         estimate D2E/DX2                !
 ! R38   R(21,26)                1.4136         estimate D2E/DX2                !
 ! R39   R(22,23)                1.2076         estimate D2E/DX2                !
 ! R40   R(22,24)                1.3431         estimate D2E/DX2                !
 ! R41   R(24,25)                1.4184         estimate D2E/DX2                !
 ! R42   R(25,50)                1.0921         estimate D2E/DX2                !
 ! R43   R(25,51)                1.0921         estimate D2E/DX2                !
 ! R44   R(25,52)                1.087          estimate D2E/DX2                !
 ! R45   R(26,27)                1.3628         estimate D2E/DX2                !
 ! R46   R(26,53)                1.0784         estimate D2E/DX2                !
 ! R47   R(27,28)                1.4159         estimate D2E/DX2                !
 ! R48   R(27,54)                1.0795         estimate D2E/DX2                !
 ! R49   R(29,30)                1.3366         estimate D2E/DX2                !
 ! R50   R(29,31)                1.4261         estimate D2E/DX2                !
 ! R51   R(30,55)                0.9837         estimate D2E/DX2                !
 ! R52   R(31,32)                1.4723         estimate D2E/DX2                !
 ! R53   R(31,36)                1.3789         estimate D2E/DX2                !
 ! R54   R(32,33)                1.22           estimate D2E/DX2                !
 ! R55   R(32,34)                1.3331         estimate D2E/DX2                !
 ! R56   R(34,35)                1.42           estimate D2E/DX2                !
 ! R57   R(35,56)                1.0919         estimate D2E/DX2                !
 ! R58   R(35,57)                1.0866         estimate D2E/DX2                !
 ! R59   R(35,58)                1.092          estimate D2E/DX2                !
 ! R60   R(36,37)                1.402          estimate D2E/DX2                !
 ! R61   R(36,59)                1.0789         estimate D2E/DX2                !
 ! R62   R(37,38)                1.4081         estimate D2E/DX2                !
 ! R63   R(38,60)                1.0801         estimate D2E/DX2                !
 ! A1    A(2,1,39)             110.3526         estimate D2E/DX2                !
 ! A2    A(2,1,40)             106.2889         estimate D2E/DX2                !
 ! A3    A(2,1,41)             110.3481         estimate D2E/DX2                !
 ! A4    A(39,1,40)            110.6133         estimate D2E/DX2                !
 ! A5    A(39,1,41)            108.6327         estimate D2E/DX2                !
 ! A6    A(40,1,41)            110.6025         estimate D2E/DX2                !
 ! A7    A(1,2,3)              115.7264         estimate D2E/DX2                !
 ! A8    A(2,3,4)              122.9299         estimate D2E/DX2                !
 ! A9    A(2,3,5)              112.6895         estimate D2E/DX2                !
 ! A10   A(4,3,5)              124.3805         estimate D2E/DX2                !
 ! A11   A(3,5,6)              121.7281         estimate D2E/DX2                !
 ! A12   A(3,5,38)             118.4882         estimate D2E/DX2                !
 ! A13   A(6,5,38)             119.7831         estimate D2E/DX2                !
 ! A14   A(5,6,7)              120.439          estimate D2E/DX2                !
 ! A15   A(5,6,42)             118.7675         estimate D2E/DX2                !
 ! A16   A(7,6,42)             120.7935         estimate D2E/DX2                !
 ! A17   A(6,7,8)              121.1387         estimate D2E/DX2                !
 ! A18   A(6,7,43)             120.2958         estimate D2E/DX2                !
 ! A19   A(8,7,43)             118.5654         estimate D2E/DX2                !
 ! A20   A(7,8,9)              122.1356         estimate D2E/DX2                !
 ! A21   A(7,8,37)             118.4568         estimate D2E/DX2                !
 ! A22   A(9,8,37)             119.4066         estimate D2E/DX2                !
 ! A23   A(8,9,10)             121.4366         estimate D2E/DX2                !
 ! A24   A(8,9,29)             120.7799         estimate D2E/DX2                !
 ! A25   A(10,9,29)            117.7587         estimate D2E/DX2                !
 ! A26   A(9,10,11)            117.7557         estimate D2E/DX2                !
 ! A27   A(9,10,28)            121.4411         estimate D2E/DX2                !
 ! A28   A(11,10,28)           120.7793         estimate D2E/DX2                !
 ! A29   A(10,11,12)           118.5295         estimate D2E/DX2                !
 ! A30   A(10,11,13)           119.4515         estimate D2E/DX2                !
 ! A31   A(12,11,13)           122.0109         estimate D2E/DX2                !
 ! A32   A(11,12,44)           108.6381         estimate D2E/DX2                !
 ! A33   A(11,13,14)           119.1465         estimate D2E/DX2                !
 ! A34   A(11,13,18)           119.9912         estimate D2E/DX2                !
 ! A35   A(14,13,18)           120.8617         estimate D2E/DX2                !
 ! A36   A(13,14,15)           124.1753         estimate D2E/DX2                !
 ! A37   A(13,14,16)           113.625          estimate D2E/DX2                !
 ! A38   A(15,14,16)           122.1997         estimate D2E/DX2                !
 ! A39   A(14,16,17)           116.0647         estimate D2E/DX2                !
 ! A40   A(16,17,45)           106.1343         estimate D2E/DX2                !
 ! A41   A(16,17,46)           110.3599         estimate D2E/DX2                !
 ! A42   A(16,17,47)           110.3462         estimate D2E/DX2                !
 ! A43   A(45,17,46)           110.6342         estimate D2E/DX2                !
 ! A44   A(45,17,47)           110.6289         estimate D2E/DX2                !
 ! A45   A(46,17,47)           108.7297         estimate D2E/DX2                !
 ! A46   A(13,18,19)           121.2462         estimate D2E/DX2                !
 ! A47   A(13,18,48)           119.42           estimate D2E/DX2                !
 ! A48   A(19,18,48)           119.3336         estimate D2E/DX2                !
 ! A49   A(18,19,20)           121.6739         estimate D2E/DX2                !
 ! A50   A(18,19,28)           119.1197         estimate D2E/DX2                !
 ! A51   A(20,19,28)           119.2052         estimate D2E/DX2                !
 ! A52   A(19,20,21)           120.9727         estimate D2E/DX2                !
 ! A53   A(19,20,49)           119.8297         estimate D2E/DX2                !
 ! A54   A(21,20,49)           119.1975         estimate D2E/DX2                !
 ! A55   A(20,21,22)           118.4877         estimate D2E/DX2                !
 ! A56   A(20,21,26)           119.7824         estimate D2E/DX2                !
 ! A57   A(22,21,26)           121.7294         estimate D2E/DX2                !
 ! A58   A(21,22,23)           124.3808         estimate D2E/DX2                !
 ! A59   A(21,22,24)           112.6892         estimate D2E/DX2                !
 ! A60   A(23,22,24)           122.9299         estimate D2E/DX2                !
 ! A61   A(22,24,25)           115.7262         estimate D2E/DX2                !
 ! A62   A(24,25,50)           110.3516         estimate D2E/DX2                !
 ! A63   A(24,25,51)           110.3491         estimate D2E/DX2                !
 ! A64   A(24,25,52)           106.2887         estimate D2E/DX2                !
 ! A65   A(50,25,51)           108.6328         estimate D2E/DX2                !
 ! A66   A(50,25,52)           110.6095         estimate D2E/DX2                !
 ! A67   A(51,25,52)           110.6065         estimate D2E/DX2                !
 ! A68   A(21,26,27)           120.439          estimate D2E/DX2                !
 ! A69   A(21,26,53)           118.7667         estimate D2E/DX2                !
 ! A70   A(27,26,53)           120.7943         estimate D2E/DX2                !
 ! A71   A(26,27,28)           121.1393         estimate D2E/DX2                !
 ! A72   A(26,27,54)           120.2954         estimate D2E/DX2                !
 ! A73   A(28,27,54)           118.5652         estimate D2E/DX2                !
 ! A74   A(10,28,19)           119.4069         estimate D2E/DX2                !
 ! A75   A(10,28,27)           122.1359         estimate D2E/DX2                !
 ! A76   A(19,28,27)           118.4563         estimate D2E/DX2                !
 ! A77   A(9,29,30)            118.5296         estimate D2E/DX2                !
 ! A78   A(9,29,31)            119.4508         estimate D2E/DX2                !
 ! A79   A(30,29,31)           122.0115         estimate D2E/DX2                !
 ! A80   A(29,30,55)           108.6391         estimate D2E/DX2                !
 ! A81   A(29,31,32)           119.1478         estimate D2E/DX2                !
 ! A82   A(29,31,36)           119.9907         estimate D2E/DX2                !
 ! A83   A(32,31,36)           120.8609         estimate D2E/DX2                !
 ! A84   A(31,32,33)           124.1738         estimate D2E/DX2                !
 ! A85   A(31,32,34)           113.625          estimate D2E/DX2                !
 ! A86   A(33,32,34)           122.2011         estimate D2E/DX2                !
 ! A87   A(32,34,35)           116.0674         estimate D2E/DX2                !
 ! A88   A(34,35,56)           110.3432         estimate D2E/DX2                !
 ! A89   A(34,35,57)           106.1341         estimate D2E/DX2                !
 ! A90   A(34,35,58)           110.3652         estimate D2E/DX2                !
 ! A91   A(56,35,57)           110.6244         estimate D2E/DX2                !
 ! A92   A(56,35,58)           108.7307         estimate D2E/DX2                !
 ! A93   A(57,35,58)           110.6356         estimate D2E/DX2                !
 ! A94   A(31,36,37)           121.2474         estimate D2E/DX2                !
 ! A95   A(31,36,59)           119.4207         estimate D2E/DX2                !
 ! A96   A(37,36,59)           119.3317         estimate D2E/DX2                !
 ! A97   A(8,37,36)            119.1193         estimate D2E/DX2                !
 ! A98   A(8,37,38)            119.2052         estimate D2E/DX2                !
 ! A99   A(36,37,38)           121.6742         estimate D2E/DX2                !
 ! A100  A(5,38,37)            120.9721         estimate D2E/DX2                !
 ! A101  A(5,38,60)            119.1978         estimate D2E/DX2                !
 ! A102  A(37,38,60)           119.83           estimate D2E/DX2                !
 ! D1    D(39,1,2,3)           -59.9209         estimate D2E/DX2                !
 ! D2    D(40,1,2,3)          -179.8945         estimate D2E/DX2                !
 ! D3    D(41,1,2,3)            60.1473         estimate D2E/DX2                !
 ! D4    D(1,2,3,4)              0.1367         estimate D2E/DX2                !
 ! D5    D(1,2,3,5)           -179.8933         estimate D2E/DX2                !
 ! D6    D(2,3,5,6)             -0.4561         estimate D2E/DX2                !
 ! D7    D(2,3,5,38)           179.2747         estimate D2E/DX2                !
 ! D8    D(4,3,5,6)            179.5134         estimate D2E/DX2                !
 ! D9    D(4,3,5,38)            -0.7559         estimate D2E/DX2                !
 ! D10   D(3,5,6,7)           -179.8484         estimate D2E/DX2                !
 ! D11   D(3,5,6,42)             0.2255         estimate D2E/DX2                !
 ! D12   D(38,5,6,7)             0.4243         estimate D2E/DX2                !
 ! D13   D(38,5,6,42)         -179.5019         estimate D2E/DX2                !
 ! D14   D(3,5,38,37)         -179.9951         estimate D2E/DX2                !
 ! D15   D(3,5,38,60)           -0.1301         estimate D2E/DX2                !
 ! D16   D(6,5,38,37)           -0.2589         estimate D2E/DX2                !
 ! D17   D(6,5,38,60)          179.606          estimate D2E/DX2                !
 ! D18   D(5,6,7,8)              0.0308         estimate D2E/DX2                !
 ! D19   D(5,6,7,43)          -179.8451         estimate D2E/DX2                !
 ! D20   D(42,6,7,8)           179.9554         estimate D2E/DX2                !
 ! D21   D(42,6,7,43)            0.0796         estimate D2E/DX2                !
 ! D22   D(6,7,8,9)            179.7367         estimate D2E/DX2                !
 ! D23   D(6,7,8,37)            -0.6304         estimate D2E/DX2                !
 ! D24   D(43,7,8,9)            -0.3854         estimate D2E/DX2                !
 ! D25   D(43,7,8,37)          179.2475         estimate D2E/DX2                !
 ! D26   D(7,8,9,10)             0.7742         estimate D2E/DX2                !
 ! D27   D(7,8,9,29)           178.926          estimate D2E/DX2                !
 ! D28   D(37,8,9,10)         -178.8553         estimate D2E/DX2                !
 ! D29   D(37,8,9,29)           -0.7035         estimate D2E/DX2                !
 ! D30   D(7,8,37,36)         -178.8104         estimate D2E/DX2                !
 ! D31   D(7,8,37,38)            0.7808         estimate D2E/DX2                !
 ! D32   D(9,8,37,36)            0.8327         estimate D2E/DX2                !
 ! D33   D(9,8,37,38)         -179.576          estimate D2E/DX2                !
 ! D34   D(8,9,10,11)          106.6372         estimate D2E/DX2                !
 ! D35   D(8,9,10,28)          -75.1297         estimate D2E/DX2                !
 ! D36   D(29,9,10,11)         -71.5685         estimate D2E/DX2                !
 ! D37   D(29,9,10,28)         106.6646         estimate D2E/DX2                !
 ! D38   D(8,9,29,30)          179.1063         estimate D2E/DX2                !
 ! D39   D(8,9,29,31)            0.1181         estimate D2E/DX2                !
 ! D40   D(10,9,29,30)          -2.6757         estimate D2E/DX2                !
 ! D41   D(10,9,29,31)         178.3361         estimate D2E/DX2                !
 ! D42   D(9,10,11,12)          -2.6743         estimate D2E/DX2                !
 ! D43   D(9,10,11,13)         178.3427         estimate D2E/DX2                !
 ! D44   D(28,10,11,12)        179.0803         estimate D2E/DX2                !
 ! D45   D(28,10,11,13)          0.0973         estimate D2E/DX2                !
 ! D46   D(9,10,28,19)        -178.8706         estimate D2E/DX2                !
 ! D47   D(9,10,28,27)           0.7702         estimate D2E/DX2                !
 ! D48   D(11,10,28,19)         -0.6905         estimate D2E/DX2                !
 ! D49   D(11,10,28,27)        178.9502         estimate D2E/DX2                !
 ! D50   D(10,11,12,44)        178.8482         estimate D2E/DX2                !
 ! D51   D(13,11,12,44)         -2.1962         estimate D2E/DX2                !
 ! D52   D(10,11,13,14)       -179.3874         estimate D2E/DX2                !
 ! D53   D(10,11,13,18)          0.3516         estimate D2E/DX2                !
 ! D54   D(12,11,13,14)          1.6662         estimate D2E/DX2                !
 ! D55   D(12,11,13,18)       -178.5948         estimate D2E/DX2                !
 ! D56   D(11,13,14,15)         -1.0344         estimate D2E/DX2                !
 ! D57   D(11,13,14,16)        178.9751         estimate D2E/DX2                !
 ! D58   D(18,13,14,15)        179.2289         estimate D2E/DX2                !
 ! D59   D(18,13,14,16)         -0.7616         estimate D2E/DX2                !
 ! D60   D(11,13,18,19)         -0.1943         estimate D2E/DX2                !
 ! D61   D(11,13,18,48)        179.968          estimate D2E/DX2                !
 ! D62   D(14,13,18,19)        179.5402         estimate D2E/DX2                !
 ! D63   D(14,13,18,48)         -0.2976         estimate D2E/DX2                !
 ! D64   D(13,14,16,17)       -179.7257         estimate D2E/DX2                !
 ! D65   D(15,14,16,17)          0.2836         estimate D2E/DX2                !
 ! D66   D(14,16,17,45)        179.7307         estimate D2E/DX2                !
 ! D67   D(14,16,17,46)        -60.3586         estimate D2E/DX2                !
 ! D68   D(14,16,17,47)         59.8339         estimate D2E/DX2                !
 ! D69   D(13,18,19,20)       -179.9988         estimate D2E/DX2                !
 ! D70   D(13,18,19,28)         -0.4012         estimate D2E/DX2                !
 ! D71   D(48,18,19,20)         -0.1608         estimate D2E/DX2                !
 ! D72   D(48,18,19,28)        179.4367         estimate D2E/DX2                !
 ! D73   D(18,19,20,21)        179.254          estimate D2E/DX2                !
 ! D74   D(18,19,20,49)         -0.62           estimate D2E/DX2                !
 ! D75   D(28,19,20,21)         -0.3432         estimate D2E/DX2                !
 ! D76   D(28,19,20,49)        179.7828         estimate D2E/DX2                !
 ! D77   D(18,19,28,10)          0.8382         estimate D2E/DX2                !
 ! D78   D(18,19,28,27)       -178.8158         estimate D2E/DX2                !
 ! D79   D(20,19,28,10)       -179.5542         estimate D2E/DX2                !
 ! D80   D(20,19,28,27)          0.7918         estimate D2E/DX2                !
 ! D81   D(19,20,21,22)        179.9788         estimate D2E/DX2                !
 ! D82   D(19,20,21,26)         -0.2737         estimate D2E/DX2                !
 ! D83   D(49,20,21,22)         -0.1465         estimate D2E/DX2                !
 ! D84   D(49,20,21,26)        179.601          estimate D2E/DX2                !
 ! D85   D(20,21,22,23)         -0.7427         estimate D2E/DX2                !
 ! D86   D(20,21,22,24)        179.2971         estimate D2E/DX2                !
 ! D87   D(26,21,22,23)        179.515          estimate D2E/DX2                !
 ! D88   D(26,21,22,24)         -0.4452         estimate D2E/DX2                !
 ! D89   D(20,21,26,27)          0.4352         estimate D2E/DX2                !
 ! D90   D(20,21,26,53)       -179.4996         estimate D2E/DX2                !
 ! D91   D(22,21,26,27)       -179.8257         estimate D2E/DX2                !
 ! D92   D(22,21,26,53)          0.2395         estimate D2E/DX2                !
 ! D93   D(21,22,24,25)       -179.9126         estimate D2E/DX2                !
 ! D94   D(23,22,24,25)          0.1265         estimate D2E/DX2                !
 ! D95   D(22,24,25,50)        -60.1353         estimate D2E/DX2                !
 ! D96   D(22,24,25,51)         59.933          estimate D2E/DX2                !
 ! D97   D(22,24,25,52)        179.8963         estimate D2E/DX2                !
 ! D98   D(21,26,27,28)          0.0349         estimate D2E/DX2                !
 ! D99   D(21,26,27,54)       -179.8519         estimate D2E/DX2                !
 ! D100  D(53,26,27,28)        179.9684         estimate D2E/DX2                !
 ! D101  D(53,26,27,54)          0.0816         estimate D2E/DX2                !
 ! D102  D(26,27,28,10)        179.7105         estimate D2E/DX2                !
 ! D103  D(26,27,28,19)         -0.6454         estimate D2E/DX2                !
 ! D104  D(54,27,28,10)         -0.4008         estimate D2E/DX2                !
 ! D105  D(54,27,28,19)        179.2433         estimate D2E/DX2                !
 ! D106  D(9,29,30,55)         178.8073         estimate D2E/DX2                !
 ! D107  D(31,29,30,55)         -2.2318         estimate D2E/DX2                !
 ! D108  D(9,29,31,32)        -179.3795         estimate D2E/DX2                !
 ! D109  D(9,29,31,36)           0.3414         estimate D2E/DX2                !
 ! D110  D(30,29,31,32)          1.6688         estimate D2E/DX2                !
 ! D111  D(30,29,31,36)       -178.6103         estimate D2E/DX2                !
 ! D112  D(29,31,32,33)         -0.9771         estimate D2E/DX2                !
 ! D113  D(29,31,32,34)        179.0425         estimate D2E/DX2                !
 ! D114  D(36,31,32,33)        179.3045         estimate D2E/DX2                !
 ! D115  D(36,31,32,34)         -0.6759         estimate D2E/DX2                !
 ! D116  D(29,31,36,37)         -0.2026         estimate D2E/DX2                !
 ! D117  D(29,31,36,59)        179.9686         estimate D2E/DX2                !
 ! D118  D(32,31,36,37)        179.5134         estimate D2E/DX2                !
 ! D119  D(32,31,36,59)         -0.3154         estimate D2E/DX2                !
 ! D120  D(31,32,34,35)       -179.7149         estimate D2E/DX2                !
 ! D121  D(33,32,34,35)          0.3042         estimate D2E/DX2                !
 ! D122  D(32,34,35,56)         60.0329         estimate D2E/DX2                !
 ! D123  D(32,34,35,57)        179.9226         estimate D2E/DX2                !
 ! D124  D(32,34,35,58)        -60.1624         estimate D2E/DX2                !
 ! D125  D(31,36,37,8)          -0.3851         estimate D2E/DX2                !
 ! D126  D(31,36,37,38)       -179.9659         estimate D2E/DX2                !
 ! D127  D(59,36,37,8)         179.4439         estimate D2E/DX2                !
 ! D128  D(59,36,37,38)         -0.1369         estimate D2E/DX2                !
 ! D129  D(8,37,38,5)           -0.3469         estimate D2E/DX2                !
 ! D130  D(8,37,38,60)         179.789          estimate D2E/DX2                !
 ! D131  D(36,37,38,5)         179.2335         estimate D2E/DX2                !
 ! D132  D(36,37,38,60)         -0.6306         estimate D2E/DX2                !
 --------------------------------------------------------------------------------
 Trust Radius=3.00D-01 FncErr=1.00D-07 GrdErr=1.00D-06 EigMax=2.50D+02 EigMin=1.00D-04
 Number of steps in this run=    307 maximum allowed number of steps=    360.
 GradGradGradGradGradGradGradGradGradGradGradGradGradGradGradGradGradGrad

 Leave Link  103 at Sun Feb 25 03:46:40 2024, MaxMem=  7516192768 cpu:               1.4 elap:               0.1
 (Enter /public/apps/g16-C01//g16/l202.exe)
 Symmetry turned off by external request.
 Stoichiometry    C28H22O10
 Framework group  C1[X(C28H22O10)]
 Deg. of freedom   174
 Full point group                 C1      NOp   1
                          Input orientation:                          
 ---------------------------------------------------------------------
 Center     Atomic      Atomic             Coordinates (Angstroms)
 Number     Number       Type             X           Y           Z
 ---------------------------------------------------------------------
      1          6           0        4.868041   -4.907353    3.062037
      2          8           0        3.963572   -3.936444    2.560868
      3          6           0        4.483165   -3.043936    1.702174
      4          8           0        5.642978   -3.054766    1.365906
      5          6           0        3.483356   -2.062530    1.224120
      6          6           0        2.135453   -2.108159    1.647549
      7          6           0        1.236099   -1.192999    1.188235
      8          6           0        1.623154   -0.178184    0.279945
      9          6           0        0.710405    0.774561   -0.212162
     10          6           0       -0.710109    0.774997    0.211204
     11          6           0       -1.124447    1.772304    1.085361
     12          8           0       -0.215881    2.641202    1.539380
     13          6           0       -2.491266    1.828156    1.488245
     14          6           0       -2.925832    2.895887    2.404051
     15          8           0       -2.183006    3.745029    2.868193
     16          8           0       -4.227182    2.857045    2.690688
     17          6           0       -4.703693    3.868436    3.566120
     18          6           0       -3.387751    0.892744    1.016293
     19          6           0       -2.984706   -0.121651    0.136480
     20          6           0       -3.892439   -1.081363   -0.350988
     21          6           0       -3.485005   -2.060373   -1.224754
     22          6           0       -4.485343   -3.041588   -1.702115
     23          8           0       -5.645033   -3.051908   -1.365409
     24          8           0       -3.966331   -3.934681   -2.560571
     25          6           0       -4.871234   -4.905709   -3.060750
     26          6           0       -2.137276   -2.106566   -1.648687
     27          6           0       -1.237348   -1.191840   -1.189634
     28          6           0       -1.623585   -0.176973   -0.281054
     29          6           0        1.125627    1.772099   -1.085642
     30          8           0        0.217826    2.642055   -1.539128
     31          6           0        2.492546    1.827119   -1.488329
     32          6           0        2.928137    2.895168   -2.403263
     33          8           0        2.186258    3.745888   -2.866054
     34          8           0        4.229195    2.854583   -2.690883
     35          6           0        4.706778    3.866291   -3.565341
     36          6           0        3.388261    0.890820   -1.016689
     37          6           0        2.984403   -0.123578   -0.137263
     38          6           0        3.891512   -1.083778    0.350409
     39          1           0        5.288816   -5.493489    2.242179
     40          1           0        4.293395   -5.542710    3.731128
     41          1           0        5.685635   -4.422786    3.600036
     42          1           0        1.834736   -2.878358    2.339846
     43          1           0        0.207869   -1.228479    1.515054
     44          1           0       -0.666406    3.288919    2.126924
     45          1           0       -5.768965    3.688891    3.683514
     46          1           0       -4.194566    3.807199    4.530262
     47          1           0       -4.525071    4.856697    3.137428
     48          1           0       -4.419509    0.943352    1.327486
     49          1           0       -4.925900   -1.050992   -0.038321
     50          1           0       -5.288827   -5.493806   -2.240669
     51          1           0       -5.691019   -4.421112   -3.595364
     52          1           0       -4.297893   -5.539245   -3.732678
     53          1           0       -1.837139   -2.876936   -2.341046
     54          1           0       -0.209228   -1.227821   -1.516756
     55          1           0        0.669025    3.290177   -2.125697
     56          1           0        4.533250    4.854141   -3.133629
     57          1           0        5.771000    3.683065   -3.686444
     58          1           0        4.194469    3.809402   -4.528052
     59          1           0        4.420107    0.940791   -1.327709
     60          1           0        4.925086   -1.053893    0.038070
 ---------------------------------------------------------------------
 Rotational constants (GHZ):           0.0861462           0.0632706           0.0513586
 Leave Link  202 at Sun Feb 25 03:46:40 2024, MaxMem=  7516192768 cpu:               2.0 elap:               0.1
 (Enter /public/apps/g16-C01//g16/l301.exe)
 Standard basis: def2SVPP (5D, 7F)
 Ernie: Thresh=  0.10000D-02 Tol=  0.10000D-05 Strict=F.
   576 basis functions,  1038 primitive gaussians,   614 cartesian basis functions
   135 alpha electrons      135 beta electrons
       nuclear repulsion energy      4063.9403211906 Hartrees.
 IExCor=  402 DFT=T Ex+Corr=B3LYP ExCW=0 ScaHFX=  0.200000
 ScaDFX=  0.800000  0.720000  1.000000  0.810000 ScalE2=  1.000000  1.000000
 IRadAn=      5 IRanWt=     -1 IRanGd=            0 ICorTp=0 IEmpDi=141
 NAtoms=   60 NActive=   60 NUniq=   60 SFac= 1.00D+00 NAtFMM=   60 NAOKFM=T Big=T
 Integral buffers will be    131072 words long.
 Raffenetti 2 integral format.
 Two-electron integral symmetry is turned off.
 R6Disp:  Grimme-D3(BJ) Dispersion energy=       -0.1411169020 Hartrees.
 Nuclear repulsion after empirical dispersion term =     4063.7992042887 Hartrees.
 Leave Link  301 at Sun Feb 25 03:46:40 2024, MaxMem=  7516192768 cpu:               2.9 elap:               0.1
 (Enter /public/apps/g16-C01//g16/l302.exe)
 NPDir=0 NMtPBC=     1 NCelOv=     1 NCel=       1 NClECP=     1 NCelD=      1
         NCelK=      1 NCelE2=     1 NClLst=     1 CellRange=     0.0.
 One-electron integrals computed using PRISM.
   1 Symmetry operations used in ECPInt.
 ECPInt:  NShTT=   37128 NPrTT=  148800 LenC2=   28791 LenP2D=   70877.
 LDataN:  DoStor=T MaxTD1= 4 Len=   56
 NBasis=   576 RedAO= T EigKep=  1.62D-04  NBF=   576
 NBsUse=   576 1.00D-06 EigRej= -1.00D+00 NBFU=   576
 Precomputing XC quadrature grid using
 IXCGrd= 4 IRadAn=           5 IRanWt=          -1 IRanGd=           0 AccXCQ= 0.00D+00.
 Generated NRdTot=       0 NPtTot=           0 NUsed=           0 NTot=          32
 NSgBfM=   595   595   595   595   595 MxSgAt=    60 MxSgA2=    60.
 Leave Link  302 at Sun Feb 25 03:46:41 2024, MaxMem=  7516192768 cpu:              32.5 elap:               0.9
 (Enter /public/apps/g16-C01//g16/l303.exe)
 DipDrv:  MaxL=1.
 Leave Link  303 at Sun Feb 25 03:46:42 2024, MaxMem=  7516192768 cpu:               3.3 elap:               0.2
 (Enter /public/apps/g16-C01//g16/l401.exe)
 ExpMin= 1.22D-01 ExpMax= 2.27D+03 ExpMxC= 3.41D+02 IAcc=3 IRadAn=         5 AccDes= 0.00D+00
 Harris functional with IExCor=  402 and IRadAn=       5 diagonalized for initial guess.
 HarFok:  IExCor=  402 AccDes= 0.00D+00 IRadAn=         5 IDoV= 1 UseB2=F ITyADJ=14
 ICtDFT=  3500011 ScaDFX=  1.000000  1.000000  1.000000  1.000000
 FoFCou: FMM=F IPFlag=           0 FMFlag=      100000 FMFlg1=        2001
         NFxFlg=           0 DoJE=T BraDBF=F KetDBF=T FulRan=T
         wScrn=  0.000000 ICntrl=       500 IOpCl=  0 I1Cent=   200000004 NGrid=           0
         NMat0=    1 NMatS0=      1 NMatT0=    0 NMatD0=    1 NMtDS0=    0 NMtDT0=    0
 Symmetry not used in FoFCou.
 Harris En= -1831.24932679146    
 JPrj=0 DoOrth=F DoCkMO=F.
 Leave Link  401 at Sun Feb 25 03:46:44 2024, MaxMem=  7516192768 cpu:              47.8 elap:               1.3
 (Enter /public/apps/g16-C01//g16/l502.exe)
 Two-electron integral symmetry not used.
 Closed shell SCF:
 Using DIIS extrapolation, IDIIS=  1040.
 NGot=  7516192768 LenX=  7515407740 LenY=  7515030130
 Requested convergence on RMS density matrix=1.00D-08 within 128 cycles.
 Requested convergence on MAX density matrix=1.00D-06.
 Requested convergence on             energy=1.00D-06.
 No special actions if energy rises.
 Fock matrices will be formed incrementally for  20 cycles.
 Integral accuracy reduced to 1.0D-05 until final iterations.

 Cycle   1  Pass 0  IDiag  1:
 FoFJK:  IHMeth= 1 ICntrl=       0 DoSepK=F KAlg= 0 I1Cent=           0 FoldK=F
 IRaf= 860000000 NMat=       1 IRICut=       1 DoRegI=T DoRafI=F ISym2E= 0 IDoP0=0 IntGTp=1.
 FoFCou: FMM=T IPFlag=           0 FMFlag=      100000 FMFlg1=        2001
         NFxFlg=           0 DoJE=F BraDBF=F KetDBF=F FulRan=T
         wScrn=  0.000000 ICntrl=         0 IOpCl=  0 I1Cent=           0 NGrid=           0
         NMat0=    1 NMatS0=      1 NMatT0=    0 NMatD0=    1 NMtDS0=    0 NMtDT0=    0
 Symmetry not used in FoFCou.
 FMM levels:  10  Number of levels for PrismC:   9
 E= -1830.58036175009    
 DIIS: error= 3.02D-02 at cycle   1 NSaved=   1.
 NSaved= 1 IEnMin= 1 EnMin= -1830.58036175009     IErMin= 1 ErrMin= 3.02D-02
 ErrMax= 3.02D-02  0.00D+00 EMaxC= 1.00D-01 BMatC= 7.96D-01 BMatP= 7.96D-01
 IDIUse=3 WtCom= 6.98D-01 WtEn= 3.02D-01
 Coeff-Com:  0.100D+01
 Coeff-En:   0.100D+01
 Coeff:      0.100D+01
 Gap=     0.132 Goal=   None    Shift=    0.000
 GapD=    0.132 DampG=1.000 DampE=0.500 DampFc=0.5000 IDamp=-1.
 Damping current iteration by 5.00D-01
 RMSDP=5.02D-03 MaxDP=1.78D-01              OVMax= 2.18D-01

 Cycle   2  Pass 0  IDiag  1:
 RMSU=  2.42D-03    CP:  9.62D-01
 E= -1830.81016453486     Delta-E=       -0.229802784769 Rises=F Damp=T
 DIIS: error= 1.08D-02 at cycle   2 NSaved=   2.
 NSaved= 2 IEnMin= 2 EnMin= -1830.81016453486     IErMin= 2 ErrMin= 1.08D-02
 ErrMax= 1.08D-02  0.00D+00 EMaxC= 1.00D-01 BMatC= 1.14D-01 BMatP= 7.96D-01
 IDIUse=3 WtCom= 8.92D-01 WtEn= 1.08D-01
 Coeff-Com:  0.198D+00 0.802D+00
 Coeff-En:   0.294D+00 0.706D+00
 Coeff:      0.209D+00 0.791D+00
 Gap=     0.139 Goal=   None    Shift=    0.000
 RMSDP=1.90D-03 MaxDP=7.89D-02 DE=-2.30D-01 OVMax= 1.61D-01

 Cycle   3  Pass 0  IDiag  1:
 RMSU=  1.78D-03    CP:  9.24D-01  1.01D+00
 E= -1831.20875077175     Delta-E=       -0.398586236885 Rises=F Damp=F
 DIIS: error= 1.12D-02 at cycle   3 NSaved=   3.
 NSaved= 3 IEnMin= 3 EnMin= -1831.20875077175     IErMin= 2 ErrMin= 1.08D-02
 ErrMax= 1.12D-02  0.00D+00 EMaxC= 1.00D-01 BMatC= 1.09D-01 BMatP= 1.14D-01
 IDIUse=3 WtCom= 8.88D-01 WtEn= 1.12D-01
 Coeff-Com:  0.480D-01 0.490D+00 0.462D+00
 Coeff-En:   0.000D+00 0.000D+00 0.100D+01
 Coeff:      0.426D-01 0.435D+00 0.523D+00
 Gap=     0.139 Goal=   None    Shift=    0.000
 RMSDP=9.03D-04 MaxDP=3.89D-02 DE=-3.99D-01 OVMax= 7.68D-02

 Cycle   4  Pass 0  IDiag  1:
 RMSU=  6.43D-04    CP:  9.31D-01  1.08D+00  6.65D-01
 E= -1831.28791618993     Delta-E=       -0.079165418186 Rises=F Damp=F
 DIIS: error= 5.75D-03 at cycle   4 NSaved=   4.
 NSaved= 4 IEnMin= 4 EnMin= -1831.28791618993     IErMin= 4 ErrMin= 5.75D-03
 ErrMax= 5.75D-03  0.00D+00 EMaxC= 1.00D-01 BMatC= 2.07D-02 BMatP= 1.09D-01
 IDIUse=3 WtCom= 9.43D-01 WtEn= 5.75D-02
 Coeff-Com:  0.126D-01 0.153D+00 0.325D+00 0.509D+00
 Coeff-En:   0.000D+00 0.000D+00 0.170D+00 0.830D+00
 Coeff:      0.119D-01 0.144D+00 0.316D+00 0.527D+00
 Gap=     0.139 Goal=   None    Shift=    0.000
 RMSDP=3.13D-04 MaxDP=1.32D-02 DE=-7.92D-02 OVMax= 2.91D-02

 Cycle   5  Pass 0  IDiag  1:
 RMSU=  1.79D-04    CP:  9.30D-01  1.06D+00  7.46D-01  6.87D-01
 E= -1831.30313353646     Delta-E=       -0.015217346530 Rises=F Damp=F
 DIIS: error= 1.35D-03 at cycle   5 NSaved=   5.
 NSaved= 5 IEnMin= 5 EnMin= -1831.30313353646     IErMin= 5 ErrMin= 1.35D-03
 ErrMax= 1.35D-03  0.00D+00 EMaxC= 1.00D-01 BMatC= 1.67D-03 BMatP= 2.07D-02
 IDIUse=3 WtCom= 9.87D-01 WtEn= 1.35D-02
 Coeff-Com:  0.229D-02 0.286D-01 0.129D+00 0.321D+00 0.519D+00
 Coeff-En:   0.000D+00 0.000D+00 0.000D+00 0.391D-01 0.961D+00
 Coeff:      0.226D-02 0.282D-01 0.127D+00 0.317D+00 0.525D+00
 Gap=     0.138 Goal=   None    Shift=    0.000
 RMSDP=1.22D-04 MaxDP=4.27D-03 DE=-1.52D-02 OVMax= 1.33D-02

 Cycle   6  Pass 0  IDiag  1:
 RMSU=  9.18D-05    CP:  9.29D-01  1.06D+00  7.47D-01  7.14D-01  5.67D-01
 E= -1831.30451245772     Delta-E=       -0.001378921262 Rises=F Damp=F
 DIIS: error= 4.12D-04 at cycle   6 NSaved=   6.
 NSaved= 6 IEnMin= 6 EnMin= -1831.30451245772     IErMin= 6 ErrMin= 4.12D-04
 ErrMax= 4.12D-04  0.00D+00 EMaxC= 1.00D-01 BMatC= 1.81D-04 BMatP= 1.67D-03
 IDIUse=3 WtCom= 9.96D-01 WtEn= 4.12D-03
 Coeff-Com:  0.177D-03 0.333D-02 0.463D-01 0.140D+00 0.322D+00 0.488D+00
 Coeff-En:   0.000D+00 0.000D+00 0.000D+00 0.000D+00 0.942D-01 0.906D+00
 Coeff:      0.176D-03 0.332D-02 0.461D-01 0.140D+00 0.321D+00 0.489D+00
 Gap=     0.139 Goal=   None    Shift=    0.000
 RMSDP=4.56D-05 MaxDP=1.42D-03 DE=-1.38D-03 OVMax= 6.72D-03

 Cycle   7  Pass 0  IDiag  1:
 RMSU=  3.25D-05    CP:  9.29D-01  1.06D+00  7.48D-01  7.11D-01  6.64D-01
                    CP:  7.09D-01
 E= -1831.30471048103     Delta-E=       -0.000198023304 Rises=F Damp=F
 DIIS: error= 1.64D-04 at cycle   7 NSaved=   7.
 NSaved= 7 IEnMin= 7 EnMin= -1831.30471048103     IErMin= 7 ErrMin= 1.64D-04
 ErrMax= 1.64D-04  0.00D+00 EMaxC= 1.00D-01 BMatC= 2.79D-05 BMatP= 1.81D-04
 IDIUse=3 WtCom= 9.98D-01 WtEn= 1.64D-03
 Coeff-Com: -0.210D-03-0.116D-02 0.151D-01 0.533D-01 0.153D+00 0.329D+00
 Coeff-Com:  0.451D+00
 Coeff-En:   0.000D+00 0.000D+00 0.000D+00 0.000D+00 0.000D+00 0.843D-01
 Coeff-En:   0.916D+00
 Coeff:     -0.210D-03-0.116D-02 0.151D-01 0.532D-01 0.153D+00 0.329D+00
 Coeff:      0.451D+00
 Gap=     0.139 Goal=   None    Shift=    0.000
 RMSDP=1.65D-05 MaxDP=6.43D-04 DE=-1.98D-04 OVMax= 2.21D-03

 Cycle   8  Pass 0  IDiag  1:
 RMSU=  1.32D-05    CP:  9.29D-01  1.06D+00  7.49D-01  7.14D-01  6.40D-01
                    CP:  7.39D-01  7.50D-01
 E= -1831.30475682179     Delta-E=       -0.000046340766 Rises=F Damp=F
 DIIS: error= 4.23D-05 at cycle   8 NSaved=   8.
 NSaved= 8 IEnMin= 8 EnMin= -1831.30475682179     IErMin= 8 ErrMin= 4.23D-05
 ErrMax= 4.23D-05  0.00D+00 EMaxC= 1.00D-01 BMatC= 1.78D-06 BMatP= 2.79D-05
 IDIUse=1 WtCom= 1.00D+00 WtEn= 0.00D+00
 Coeff-Com: -0.118D-03-0.106D-02 0.428D-02 0.169D-01 0.593D-01 0.149D+00
 Coeff-Com:  0.261D+00 0.511D+00
 Coeff:     -0.118D-03-0.106D-02 0.428D-02 0.169D-01 0.593D-01 0.149D+00
 Coeff:      0.261D+00 0.511D+00
 Gap=     0.139 Goal=   None    Shift=    0.000
 RMSDP=8.25D-06 MaxDP=4.51D-04 DE=-4.63D-05 OVMax= 5.31D-04

 Initial convergence to 1.0D-05 achieved.  Increase integral accuracy.
 Cycle   9  Pass 1  IDiag  1:
 E= -1831.30457133459     Delta-E=        0.000185487204 Rises=F Damp=F
 DIIS: error= 5.31D-04 at cycle   1 NSaved=   1.
 NSaved= 1 IEnMin= 1 EnMin= -1831.30457133459     IErMin= 1 ErrMin= 5.31D-04
 ErrMax= 5.31D-04  0.00D+00 EMaxC= 1.00D-01 BMatC= 7.08D-05 BMatP= 7.08D-05
 IDIUse=3 WtCom= 9.95D-01 WtEn= 5.31D-03
 Coeff-Com:  0.100D+01
 Coeff-En:   0.100D+01
 Coeff:      0.100D+01
 Gap=     0.139 Goal=   None    Shift=    0.000
 RMSDP=8.25D-06 MaxDP=4.51D-04 DE= 1.85D-04 OVMax= 1.32D-03

 Cycle  10  Pass 1  IDiag  1:
 RMSU=  5.00D-04    CP:  9.99D-01
 E= -1831.30464532828     Delta-E=       -0.000073993693 Rises=F Damp=F
 DIIS: error= 4.35D-05 at cycle   2 NSaved=   2.
 NSaved= 2 IEnMin= 2 EnMin= -1831.30464532828     IErMin= 2 ErrMin= 4.35D-05
 ErrMax= 4.35D-05  0.00D+00 EMaxC= 1.00D-01 BMatC= 1.15D-06 BMatP= 7.08D-05
 IDIUse=1 WtCom= 1.00D+00 WtEn= 0.00D+00
 Coeff-Com:  0.134D-01 0.987D+00
 Coeff:      0.134D-01 0.987D+00
 Gap=     0.139 Goal=   None    Shift=    0.000
 RMSDP=1.16D-05 MaxDP=3.53D-04 DE=-7.40D-05 OVMax= 1.23D-03

 Cycle  11  Pass 1  IDiag  1:
 RMSU=  9.59D-06    CP:  9.99D-01  1.01D+00
 E= -1831.30463998790     Delta-E=        0.000005340376 Rises=F Damp=F
 DIIS: error= 9.97D-05 at cycle   3 NSaved=   3.
 NSaved= 3 IEnMin= 2 EnMin= -1831.30464532828     IErMin= 2 ErrMin= 4.35D-05
 ErrMax= 9.97D-05  0.00D+00 EMaxC= 1.00D-01 BMatC= 6.21D-06 BMatP= 1.15D-06
 IDIUse=1 WtCom= 1.00D+00 WtEn= 0.00D+00
 Coeff-Com: -0.670D-02 0.704D+00 0.303D+00
 Coeff:     -0.670D-02 0.704D+00 0.303D+00
 Gap=     0.139 Goal=   None    Shift=    0.000
 RMSDP=6.43D-06 MaxDP=2.30D-04 DE= 5.34D-06 OVMax= 8.79D-04

 Cycle  12  Pass 1  IDiag  1:
 RMSU=  1.63D-06    CP:  9.99D-01  1.01D+00  3.52D-01
 E= -1831.30464654192     Delta-E=       -0.000006554013 Rises=F Damp=F
 DIIS: error= 4.00D-06 at cycle   4 NSaved=   4.
 NSaved= 4 IEnMin= 4 EnMin= -1831.30464654192     IErMin= 4 ErrMin= 4.00D-06
 ErrMax= 4.00D-06  0.00D+00 EMaxC= 1.00D-01 BMatC= 1.63D-08 BMatP= 1.15D-06
 IDIUse=1 WtCom= 1.00D+00 WtEn= 0.00D+00
 Coeff-Com: -0.436D-02 0.447D+00 0.194D+00 0.363D+00
 Coeff:     -0.436D-02 0.447D+00 0.194D+00 0.363D+00
 Gap=     0.139 Goal=   None    Shift=    0.000
 RMSDP=3.43D-07 MaxDP=1.12D-05 DE=-6.55D-06 OVMax= 5.13D-05

 Cycle  13  Pass 1  IDiag  1:
 RMSU=  3.35D-07    CP:  9.99D-01  1.01D+00  3.54D-01  9.58D-01
 E= -1831.30464655862     Delta-E=       -0.000000016707 Rises=F Damp=F
 DIIS: error= 8.36D-07 at cycle   5 NSaved=   5.
 NSaved= 5 IEnMin= 5 EnMin= -1831.30464655862     IErMin= 5 ErrMin= 8.36D-07
 ErrMax= 8.36D-07  0.00D+00 EMaxC= 1.00D-01 BMatC= 5.88D-10 BMatP= 1.63D-08
 IDIUse=1 WtCom= 1.00D+00 WtEn= 0.00D+00
 Coeff-Com: -0.107D-02 0.107D+00 0.468D-01 0.177D+00 0.670D+00
 Coeff:     -0.107D-02 0.107D+00 0.468D-01 0.177D+00 0.670D+00
 Gap=     0.139 Goal=   None    Shift=    0.000
 RMSDP=9.89D-08 MaxDP=2.57D-06 DE=-1.67D-08 OVMax= 1.31D-05

 Cycle  14  Pass 1  IDiag  1:
 RMSU=  6.65D-08    CP:  9.99D-01  1.01D+00  3.53D-01  9.83D-01  8.32D-01
 E= -1831.30464655907     Delta-E=       -0.000000000441 Rises=F Damp=F
 DIIS: error= 5.73D-07 at cycle   6 NSaved=   6.
 NSaved= 6 IEnMin= 6 EnMin= -1831.30464655907     IErMin= 6 ErrMin= 5.73D-07
 ErrMax= 5.73D-07  0.00D+00 EMaxC= 1.00D-01 BMatC= 2.49D-10 BMatP= 5.88D-10
 IDIUse=1 WtCom= 1.00D+00 WtEn= 0.00D+00
 Coeff-Com: -0.974D-04 0.831D-02 0.385D-02 0.696D-01 0.464D+00 0.454D+00
 Coeff:     -0.974D-04 0.831D-02 0.385D-02 0.696D-01 0.464D+00 0.454D+00
 Gap=     0.139 Goal=   None    Shift=    0.000
 RMSDP=3.53D-08 MaxDP=1.48D-06 DE=-4.41D-10 OVMax= 3.10D-06

 Cycle  15  Pass 1  IDiag  1:
 RMSU=  1.89D-08    CP:  9.99D-01  1.01D+00  3.54D-01  9.85D-01  8.68D-01
                    CP:  6.25D-01
 E= -1831.30464655927     Delta-E=       -0.000000000205 Rises=F Damp=F
 DIIS: error= 1.32D-07 at cycle   7 NSaved=   7.
 NSaved= 7 IEnMin= 7 EnMin= -1831.30464655927     IErMin= 7 ErrMin= 1.32D-07
 ErrMax= 1.32D-07  0.00D+00 EMaxC= 1.00D-01 BMatC= 9.81D-12 BMatP= 2.49D-10
 IDIUse=1 WtCom= 1.00D+00 WtEn= 0.00D+00
 Coeff-Com:  0.100D-04-0.182D-02-0.666D-03 0.277D-01 0.219D+00 0.253D+00
 Coeff-Com:  0.503D+00
 Coeff:      0.100D-04-0.182D-02-0.666D-03 0.277D-01 0.219D+00 0.253D+00
 Coeff:      0.503D+00
 Gap=     0.139 Goal=   None    Shift=    0.000
 RMSDP=9.49D-09 MaxDP=4.10D-07 DE=-2.05D-10 OVMax= 7.92D-07

 SCF Done:  E(RB3LYP) =  -1831.30464656     A.U. after   15 cycles
            NFock= 15  Conv=0.95D-08     -V/T= 2.0086
 KE= 1.815770337089D+03 PE=-1.240058419459D+04 EE= 4.689710006650D+03
 Leave Link  502 at Sun Feb 25 03:47:16 2024, MaxMem=  7516192768 cpu:            1265.1 elap:              32.2
 (Enter /public/apps/g16-C01//g16/l601.exe)
 Copying SCF densities to generalized density rwf, IOpCl= 0 IROHF=0.

 **********************************************************************

            Population analysis using the SCF Density.

 **********************************************************************

 Alpha  occ. eigenvalues --  -19.19542 -19.19542 -19.17619 -19.17619 -19.15457
 Alpha  occ. eigenvalues --  -19.15457 -19.14541 -19.14540 -19.11477 -19.11477
 Alpha  occ. eigenvalues --  -10.33441 -10.33440 -10.30854 -10.30854 -10.26330
 Alpha  occ. eigenvalues --  -10.26329 -10.24659 -10.24659 -10.23338 -10.23338
 Alpha  occ. eigenvalues --  -10.21036 -10.21035 -10.20722 -10.20718 -10.20717
 Alpha  occ. eigenvalues --  -10.20715 -10.20056 -10.20054 -10.19817 -10.19817
 Alpha  occ. eigenvalues --  -10.19751 -10.19751 -10.19444 -10.19424 -10.19328
 Alpha  occ. eigenvalues --  -10.19328 -10.18730 -10.18727  -1.12197  -1.12193
 Alpha  occ. eigenvalues --   -1.09782  -1.09782  -1.06147  -1.05721  -1.02488
 Alpha  occ. eigenvalues --   -1.02412  -1.00344  -1.00344  -0.89112  -0.88137
 Alpha  occ. eigenvalues --   -0.83875  -0.83612  -0.81308  -0.78088  -0.77140
 Alpha  occ. eigenvalues --   -0.76495  -0.75583  -0.74741  -0.73069  -0.72081
 Alpha  occ. eigenvalues --   -0.72004  -0.71125  -0.65973  -0.65363  -0.64383
 Alpha  occ. eigenvalues --   -0.63862  -0.62540  -0.59406  -0.59271  -0.59083
 Alpha  occ. eigenvalues --   -0.58104  -0.57351  -0.56144  -0.55442  -0.55263
 Alpha  occ. eigenvalues --   -0.53838  -0.53664  -0.53578  -0.50723  -0.50707
 Alpha  occ. eigenvalues --   -0.50423  -0.49860  -0.49145  -0.49040  -0.48847
 Alpha  occ. eigenvalues --   -0.48847  -0.48069  -0.47611  -0.47544  -0.47216
 Alpha  occ. eigenvalues --   -0.45905  -0.45390  -0.45270  -0.44287  -0.43900
 Alpha  occ. eigenvalues --   -0.43715  -0.43714  -0.43670  -0.43111  -0.42842
 Alpha  occ. eigenvalues --   -0.42649  -0.41976  -0.41218  -0.41185  -0.41028
 Alpha  occ. eigenvalues --   -0.40326  -0.40157  -0.38342  -0.38276  -0.38247
 Alpha  occ. eigenvalues --   -0.37760  -0.37450  -0.37434  -0.36961  -0.36893
 Alpha  occ. eigenvalues --   -0.36551  -0.35827  -0.34961  -0.33707  -0.32819
 Alpha  occ. eigenvalues --   -0.32773  -0.32146  -0.31912  -0.30597  -0.30596
 Alpha  occ. eigenvalues --   -0.30058  -0.29855  -0.29333  -0.28978  -0.27670
 Alpha  occ. eigenvalues --   -0.27665  -0.25366  -0.25347  -0.22029  -0.21302
 Alpha virt. eigenvalues --   -0.07417  -0.07382  -0.05027  -0.04878   0.00347
 Alpha virt. eigenvalues --    0.00493   0.01521   0.02457   0.05995   0.06089
 Alpha virt. eigenvalues --    0.06510   0.06514   0.07455   0.07487   0.08751
 Alpha virt. eigenvalues --    0.08817   0.09360   0.09544   0.11105   0.11180
 Alpha virt. eigenvalues --    0.11398   0.11511   0.11881   0.12093   0.12230
 Alpha virt. eigenvalues --    0.12300   0.12481   0.12595   0.12834   0.12955
 Alpha virt. eigenvalues --    0.13386   0.13414   0.14675   0.14743   0.16039
 Alpha virt. eigenvalues --    0.16371   0.16419   0.16457   0.19301   0.19896
 Alpha virt. eigenvalues --    0.20124   0.21494   0.22907   0.24011   0.24251
 Alpha virt. eigenvalues --    0.25163   0.25268   0.25350   0.25747   0.26078
 Alpha virt. eigenvalues --    0.26758   0.26870   0.27837   0.27873   0.28757
 Alpha virt. eigenvalues --    0.29269   0.29322   0.30054   0.30778   0.31027
 Alpha virt. eigenvalues --    0.31922   0.31986   0.32559   0.33598   0.33698
 Alpha virt. eigenvalues --    0.35761   0.36122   0.36744   0.37367   0.37560
 Alpha virt. eigenvalues --    0.37915   0.38399   0.38651   0.39641   0.39742
 Alpha virt. eigenvalues --    0.40579   0.41573   0.41861   0.42480   0.42485
 Alpha virt. eigenvalues --    0.43141   0.43270   0.43844   0.43849   0.44361
 Alpha virt. eigenvalues --    0.44473   0.44799   0.45147   0.45360   0.45547
 Alpha virt. eigenvalues --    0.45922   0.46038   0.46206   0.46822   0.47051
 Alpha virt. eigenvalues --    0.47233   0.47769   0.48775   0.48850   0.49107
 Alpha virt. eigenvalues --    0.50130   0.50239   0.50378   0.51050   0.51184
 Alpha virt. eigenvalues --    0.52345   0.52661   0.53433   0.53780   0.54569
 Alpha virt. eigenvalues --    0.54608   0.55121   0.55848   0.56323   0.56557
 Alpha virt. eigenvalues --    0.57982   0.58339   0.59963   0.60012   0.61285
 Alpha virt. eigenvalues --    0.61755   0.62638   0.63060   0.63732   0.63944
 Alpha virt. eigenvalues --    0.64422   0.64730   0.64861   0.64904   0.65770
 Alpha virt. eigenvalues --    0.65900   0.66016   0.66124   0.66393   0.66423
 Alpha virt. eigenvalues --    0.66847   0.67055   0.67115   0.67467   0.67546
 Alpha virt. eigenvalues --    0.67683   0.67934   0.68521   0.68828   0.69175
 Alpha virt. eigenvalues --    0.69460   0.69576   0.69723   0.70253   0.70822
 Alpha virt. eigenvalues --    0.71525   0.71714   0.71881   0.72572   0.72957
 Alpha virt. eigenvalues --    0.73379   0.73468   0.73897   0.74597   0.75060
 Alpha virt. eigenvalues --    0.75305   0.75842   0.75990   0.76273   0.77303
 Alpha virt. eigenvalues --    0.77858   0.78444   0.78821   0.79306   0.79795
 Alpha virt. eigenvalues --    0.81012   0.81279   0.81760   0.82729   0.83352
 Alpha virt. eigenvalues --    0.84274   0.85106   0.85710   0.86453   0.88284
 Alpha virt. eigenvalues --    0.88409   0.89593   0.91432   0.92386   0.92801
 Alpha virt. eigenvalues --    0.94957   0.95171   0.95261   0.96116   0.97336
 Alpha virt. eigenvalues --    0.99112   0.99146   1.00569   1.01288   1.01738
 Alpha virt. eigenvalues --    1.01747   1.04081   1.04409   1.05949   1.06017
 Alpha virt. eigenvalues --    1.06416   1.06777   1.07409   1.09493   1.10343
 Alpha virt. eigenvalues --    1.10950   1.11254   1.12745   1.12805   1.12955
 Alpha virt. eigenvalues --    1.13207   1.16697   1.16754   1.17578   1.17743
 Alpha virt. eigenvalues --    1.19531   1.20399   1.22012   1.22589   1.24188
 Alpha virt. eigenvalues --    1.25015   1.25180   1.25483   1.26682   1.28166
 Alpha virt. eigenvalues --    1.29169   1.29215   1.29825   1.31264   1.31808
 Alpha virt. eigenvalues --    1.32384   1.32624   1.33280   1.33844   1.34435
 Alpha virt. eigenvalues --    1.34552   1.35033   1.36895   1.36929   1.37508
 Alpha virt. eigenvalues --    1.38114   1.43111   1.43817   1.45035   1.45231
 Alpha virt. eigenvalues --    1.45369   1.46776   1.47174   1.47764   1.47796
 Alpha virt. eigenvalues --    1.48136   1.48442   1.48978   1.49457   1.51760
 Alpha virt. eigenvalues --    1.51824   1.52330   1.53676   1.53729   1.53934
 Alpha virt. eigenvalues --    1.53967   1.58084   1.58177   1.59057   1.59103
 Alpha virt. eigenvalues --    1.60999   1.61684   1.62235   1.62352   1.63713
 Alpha virt. eigenvalues --    1.67315   1.68051   1.68054   1.69903   1.69909
 Alpha virt. eigenvalues --    1.70579   1.70986   1.72468   1.72716   1.73362
 Alpha virt. eigenvalues --    1.73562   1.74054   1.74797   1.74978   1.75662
 Alpha virt. eigenvalues --    1.77965   1.78843   1.80695   1.81084   1.83161
 Alpha virt. eigenvalues --    1.83170   1.84104   1.85413   1.85559   1.87315
 Alpha virt. eigenvalues --    1.88309   1.88673   1.89192   1.89533   1.90031
 Alpha virt. eigenvalues --    1.91154   1.92306   1.93810   1.94568   1.95990
 Alpha virt. eigenvalues --    1.96418   1.97516   1.97564   1.98665   1.99045
 Alpha virt. eigenvalues --    2.01456   2.01557   2.02772   2.02934   2.04699
 Alpha virt. eigenvalues --    2.05060   2.05801   2.07145   2.07472   2.07567
 Alpha virt. eigenvalues --    2.08724   2.08736   2.08958   2.09579   2.09838
 Alpha virt. eigenvalues --    2.10445   2.11303   2.11601   2.11872   2.12079
 Alpha virt. eigenvalues --    2.13098   2.13495   2.15271   2.16528   2.19111
 Alpha virt. eigenvalues --    2.19331   2.20269   2.21347   2.22078   2.23028
 Alpha virt. eigenvalues --    2.24333   2.24995   2.25927   2.26184   2.26323
 Alpha virt. eigenvalues --    2.27373   2.28239   2.29308   2.29359   2.31197
 Alpha virt. eigenvalues --    2.31549   2.33144   2.34033   2.35120   2.36855
 Alpha virt. eigenvalues --    2.37478   2.39348   2.40077   2.45874   2.50868
 Alpha virt. eigenvalues --    2.54078   2.54155   2.55023   2.55060   2.56522
 Alpha virt. eigenvalues --    2.56781   2.58511   2.59841   2.60947   2.61089
 Alpha virt. eigenvalues --    2.61090   2.62024   2.63433   2.63509   2.64327
 Alpha virt. eigenvalues --    2.64347   2.65724   2.66159   2.67806   2.67964
 Alpha virt. eigenvalues --    2.69159   2.70131   2.70709   2.71430   2.72919
 Alpha virt. eigenvalues --    2.73320   2.73847   2.74340   2.75486   2.78222
 Alpha virt. eigenvalues --    2.78676   2.78679   2.79836   2.80875   2.80875
 Alpha virt. eigenvalues --    2.81696   2.82487   2.88808   2.91004   2.91102
 Alpha virt. eigenvalues --    2.92987   2.92990   2.93973   2.94138   2.96129
 Alpha virt. eigenvalues --    2.99092   3.00003   3.00633   3.02572   3.04631
 Alpha virt. eigenvalues --    3.04677   3.05783   3.06006   3.14580   3.15273
 Alpha virt. eigenvalues --    3.16923   3.16944   3.18294   3.18492   3.20830
 Alpha virt. eigenvalues --    3.20831   3.23057   3.24863   3.29009   3.34269
 Alpha virt. eigenvalues --    3.38525   3.38783   3.41392   3.41451   3.44399
 Alpha virt. eigenvalues --    3.44435   3.51606   3.53846   3.64168   3.64268
 Alpha virt. eigenvalues --    3.65936   3.66423   3.67228   3.67398   3.68414
 Alpha virt. eigenvalues --    3.69993
          Condensed to atoms (all electrons):
 Mulliken charges:
               1
     1  C   -0.047802
     2  O   -0.295406
     3  C    0.206922
     4  O   -0.224271
     5  C    0.060643
     6  C   -0.064604
     7  C   -0.123440
     8  C    0.129955
     9  C   -0.062677
    10  C   -0.062660
    11  C    0.136057
    12  O   -0.335677
    13  C    0.018515
    14  C    0.215401
    15  O   -0.277087
    16  O   -0.279544
    17  C   -0.051159
    18  C   -0.224263
    19  C    0.215970
    20  C   -0.216814
    21  C    0.060633
    22  C    0.206929
    23  O   -0.224267
    24  O   -0.295420
    25  C   -0.047798
    26  C   -0.064600
    27  C   -0.123464
    28  C    0.129949
    29  C    0.136043
    30  O   -0.335667
    31  C    0.018513
    32  C    0.215398
    33  O   -0.277097
    34  O   -0.279524
    35  C   -0.051156
    36  C   -0.224279
    37  C    0.215978
    38  C   -0.216817
    39  H    0.105616
    40  H    0.107945
    41  H    0.105907
    42  H    0.054730
    43  H    0.059252
    44  H    0.336747
    45  H    0.116484
    46  H    0.111485
    47  H    0.112246
    48  H    0.053654
    49  H    0.055230
    50  H    0.105553
    51  H    0.105969
    52  H    0.107946
    53  H    0.054732
    54  H    0.059247
    55  H    0.336750
    56  H    0.112192
    57  H    0.116479
    58  H    0.111539
    59  H    0.053656
    60  H    0.055229
 Sum of Mulliken charges =  -0.00000
 Mulliken charges with hydrogens summed into heavy atoms:
               1
     1  C    0.271666
     2  O   -0.295406
     3  C    0.206922
     4  O   -0.224271
     5  C    0.060643
     6  C   -0.009873
     7  C   -0.064188
     8  C    0.129955
     9  C   -0.062677
    10  C   -0.062660
    11  C    0.136057
    12  O    0.001069
    13  C    0.018515
    14  C    0.215401
    15  O   -0.277087
    16  O   -0.279544
    17  C    0.289056
    18  C   -0.170609
    19  C    0.215970
    20  C   -0.161584
    21  C    0.060633
    22  C    0.206929
    23  O   -0.224267
    24  O   -0.295420
    25  C    0.271670
    26  C   -0.009868
    27  C   -0.064216
    28  C    0.129949
    29  C    0.136043
    30  O    0.001083
    31  C    0.018513
    32  C    0.215398
    33  O   -0.277097
    34  O   -0.279524
    35  C    0.289053
    36  C   -0.170623
    37  C    0.215978
    38  C   -0.161588
 Electronic spatial extent (au):  <R**2>=          23169.2394
 Charge=             -0.0000 electrons
 Dipole moment (field-independent basis, Debye):
    X=              0.0003    Y=              0.3745    Z=              0.0003  Tot=              0.3745
 Quadrupole moment (field-independent basis, Debye-Ang):
   XX=           -212.0298   YY=           -192.6570   ZZ=           -194.4794
   XY=              0.0106   XZ=            -16.2780   YZ=              0.0039
 Traceless Quadrupole moment (field-independent basis, Debye-Ang):
   XX=            -12.3077   YY=              7.0651   ZZ=              5.2426
   XY=              0.0106   XZ=            -16.2780   YZ=              0.0039
 Octapole moment (field-independent basis, Debye-Ang**2):
  XXX=              0.2050  YYY=            -60.7065  ZZZ=              0.0164  XYY=             -0.1412
  XXY=            169.3819  XXZ=             -0.0876  XZZ=              0.0142  YZZ=             -8.9671
  YYZ=              0.1012  XYZ=           -144.8644
 Hexadecapole moment (field-independent basis, Debye-Ang**3):
 XXXX=         -15640.3664 YYYY=          -8650.1088 ZZZZ=          -4768.6115 XXXY=              1.1217
 XXXZ=           -590.4212 YYYX=             -0.1155 YYYZ=              0.0954 ZZZX=           -113.6204
 ZZZY=             -0.1658 XXYY=          -3344.6730 XXZZ=          -2649.4517 YYZZ=          -1976.0053
 XXYZ=              0.2441 YYXZ=             92.9790 ZZXY=             -0.0951
 N-N= 4.063799204289D+03 E-N=-1.240058422085D+04  KE= 1.815770337089D+03
 No NMR shielding tensors so no spin-rotation constants.
 Leave Link  601 at Sun Feb 25 03:47:18 2024, MaxMem=  7516192768 cpu:               9.6 elap:               0.3
 (Enter /public/apps/g16-C01//g16/l701.exe)
 ... and contract with generalized density number  0.
 Compute integral first derivatives.
 R6Disp: Adding Grimme-D3(BJ) dispersion energy 1st derivatives to the gradient.
   1 Symmetry operations used in ECPInt.
 ECPInt:  NShTT=   37128 NPrTT=  148800 LenC2=   28791 LenP2D=   70877.
 LDataN:  DoStor=T MaxTD1= 5 Len=  102
 Leave Link  701 at Sun Feb 25 03:47:18 2024, MaxMem=  7516192768 cpu:              11.7 elap:               0.3
 (Enter /public/apps/g16-C01//g16/l702.exe)
 L702 exits ... SP integral derivatives will be done elsewhere.
 Leave Link  702 at Sun Feb 25 03:47:18 2024, MaxMem=  7516192768 cpu:               0.6 elap:               0.0
 (Enter /public/apps/g16-C01//g16/l703.exe)
 Integral derivatives from FoFJK, PRISM(SPDF).
 Compute integral first derivatives, UseDBF=F ICtDFT=           0.
 Calling FoFJK, ICntrl=      2127 FMM=T ISym2X=0 I1Cent= 0 IOpClX= 0 NMat=1 NMatS=1 NMatT=0.
 FoFJK:  IHMeth= 1 ICntrl=    2127 DoSepK=F KAlg= 0 I1Cent=           0 FoldK=F
 IRaf=         0 NMat=       1 IRICut=       1 DoRegI=T DoRafI=F ISym2E= 0 IDoP0=0 IntGTp=1.
 FoFCou: FMM=T IPFlag=           0 FMFlag=      100000 FMFlg1=        2001
         NFxFlg=           0 DoJE=F BraDBF=F KetDBF=F FulRan=T
         wScrn=  0.000000 ICntrl=      2127 IOpCl=  0 I1Cent=           0 NGrid=           0
         NMat0=    1 NMatS0=      1 NMatT0=    0 NMatD0=    1 NMtDS0=    0 NMtDT0=    0
 Symmetry not used in FoFCou.
 FMM levels:  10  Number of levels for PrismC:   9
 Leave Link  703 at Sun Feb 25 03:47:26 2024, MaxMem=  7516192768 cpu:             299.3 elap:               7.6
 (Enter /public/apps/g16-C01//g16/l716.exe)
 Dipole        = 1.33005511D-04 1.47353229D-01 1.35360252D-04
 -------------------------------------------------------------------
 Center     Atomic                   Forces (Hartrees/Bohr)
 Number     Number              X              Y              Z
 -------------------------------------------------------------------
      1        6          -0.001414174    0.003439167   -0.002384465
      2        8          -0.003985152   -0.000235087    0.001395741
      3        6           0.000096944    0.001845940   -0.001640352
      4        8           0.006615042   -0.000979366   -0.001062587
      5        6           0.003945667   -0.004556123    0.002486812
      6        6           0.001170397   -0.001185630    0.000452732
      7        6          -0.003421188    0.001521986   -0.000176211
      8        6          -0.001960848    0.002589962   -0.000856120
      9        6          -0.008589209    0.003617239    0.000571572
     10        6           0.008589260    0.003610455   -0.000573471
     11        6           0.003415871   -0.000161130    0.001979461
     12        8           0.002807539   -0.001465424   -0.002786170
     13        6          -0.003263311    0.005072375    0.004152074
     14        6          -0.002354735   -0.004584550   -0.002393607
     15        8           0.005063823    0.005184632    0.002298398
     16        8          -0.000696261   -0.001466628   -0.001001601
     17        6           0.001978679   -0.001107244   -0.001182726
     18        6           0.000894773   -0.000620137   -0.000811971
     19        6          -0.002291258   -0.001240528   -0.000122387
     20        6          -0.000629557   -0.000466484   -0.000121730
     21        6          -0.003952374   -0.004545832   -0.002488951
     22        6          -0.000085804    0.001834611    0.001644107
     23        8          -0.006612744   -0.000976842    0.001065381
     24        8           0.003975701   -0.000227081   -0.001401113
     25        6           0.001415559    0.003458554    0.002367024
     26        6          -0.001175096   -0.001191672   -0.000447541
     27        6           0.003427037    0.001519947    0.000174246
     28        6           0.001963342    0.002593294    0.000849000
     29        6          -0.003405260   -0.000160061   -0.001966527
     30        8          -0.002819500   -0.001464015    0.002779650
     31        6           0.003263580    0.005073690   -0.004137186
     32        6           0.002316164   -0.004591746    0.002365526
     33        8          -0.005045597    0.005189408   -0.002285144
     34        8           0.000707766   -0.001473039    0.000999710
     35        6          -0.001978745   -0.001107237    0.001173299
     36        6          -0.000885563   -0.000626009    0.000805708
     37        6           0.002286584   -0.001245980    0.000126423
     38        6           0.000627218   -0.000464715    0.000117343
     39        1           0.003322983   -0.004456619   -0.004887646
     40        1          -0.004673274   -0.005088060    0.005383362
     41        1           0.005885815    0.002431310    0.003823736
     42        1          -0.002995391   -0.006278718    0.005822594
     43        1          -0.007900133   -0.000585417    0.002908093
     44        1          -0.003636395    0.002981706    0.003390385
     45        1          -0.008481152   -0.001522991    0.000879131
     46        1           0.002851568    0.000031133    0.006582592
     47        1           0.000747605    0.006755442   -0.002349483
     48        1          -0.008200510    0.000656345    0.002757081
     49        1          -0.008780507   -0.000124226    0.002357896
     50        1          -0.003308184   -0.004471171    0.004901205
     51        1          -0.005893782    0.002424837   -0.003801624
     52        1           0.004665492   -0.005079793   -0.005399961
     53        1           0.002991673   -0.006278268   -0.005825155
     54        1           0.007898044   -0.000587284   -0.002910637
     55        1           0.003644112    0.002982846   -0.003390119
     56        1          -0.000722139    0.006765397    0.002371234
     57        1           0.008480092   -0.001548707   -0.000902404
     58        1          -0.002871008    0.000054783   -0.006568850
     59        1           0.008198651    0.000655915   -0.002752541
     60        1           0.008781871   -0.000127158   -0.002353234
 -------------------------------------------------------------------
 Cartesian Forces:  Max     0.008781871 RMS     0.003580304
 Leave Link  716 at Sun Feb 25 03:47:26 2024, MaxMem=  7516192768 cpu:               0.4 elap:               0.0
 (Enter /public/apps/g16-C01//g16/l103.exe)

 GradGradGradGradGradGradGradGradGradGradGradGradGradGradGradGradGradGrad
 Berny optimization.
 FormGI is forming the generalized inverse of G from B-inverse, IUseBI=4.
 Internal  Forces:  Max     0.013798367 RMS     0.004048588
 Search for a local minimum.
 Step number   1 out of a maximum of  307
 All quantities printed in internal units (Hartrees-Bohrs-Radians)
 RMS Force = .40486D-02 SwitMx=.10000D-02 MixMth= 1
 Mixed Optimization -- RFO/linear search
[...]
 00665930,0.00100557,0.01676944,-0.12122559,-0.01497968,-0.12153945,-0.
 00007514,0.00006817,0.00003635,-0.00001944,0.00003413,0.00001395,-0.00
 000823,0.00000611,0.00000263,-0.00000017,-0.00000005,0.00000036,0.0000
 0019,-0.00000015,-0.00000007,0.00000055,-0.00000003,0.00000055,0.00000
 026,0.00000042,-0.00000026,-0.00000079,-0.00000196,0.00000170,-0.00000
 374,-0.00000604,0.00000132,0.00000032,0.00000019,0.00000015,-0.0000003
 4,-0.00000016,-0.00000005,-0.00000030,0.00000023,-0.00000006,-0.000000
 03,-0.00000033,0.00000019,-0.00000018,-0.00000043,0.,0.00000054,0.0000
 0042,0.00000014,0.00000049,0.00000031,0.00000009,-0.00000017,0.0000006
 2,0.00000047,0.00000052,0.,0.00000030,0.00000067,-0.00000159,0.0000006
 7,-0.00019080,-0.00018986,0.00008614,0.00321000,0.00114119,0.00539898,
 -0.01016456,-0.00458422,-0.02494846,0.11940806,-0.00002517,0.00003288,
 -0.00001883,0.00002525,-0.00007273,0.00005212,-0.00011760,0.00011726,-
 0.00006042,0.00008244,-0.00003971,0.00000554,0.00000863,-0.00008316,0.
 00006570,0.00000129,-0.00001764,0.00001197,0.00002625,-0.00001399,0.00
 001071,-0.00000419,-0.00001573,0.00000182,0.00000924,-0.00002301,0.000
 06225,0.00003589,-0.00002460,-0.00001941,-0.00001736,-0.00000549,-0.00
 000689,-0.00000430,0.00001983,0.00002622,0.00000815,0.00001900,0.00001
 058,0.00003229,-0.00003008,-0.00003510,-0.00001253,0.00001880,0.000020
 45,-0.00003356,0.00001574,0.00002296,0.00000984,-0.00001337,-0.0000143
 0,-0.00001569,-0.00001264,-0.00000560,-0.00001438,0.00000226,0.0000057
 6,-0.00000127,0.00000303,0.00000308,-0.00002223,-0.00001656,-0.0000065
 7,0.00002731,0.00004934,0.00003396,-0.00002150,-0.00001660,-0.00000776
 ,-0.00000476,-0.00003213,-0.00002698,0.00000899,0.00001493,0.00001034,
 0.00001858,0.00001190,0.00000247,-0.00000420,-0.00002137,-0.00001993,0
 .00000603,0.00004000,0.00003172,0.00014552,-0.00007574,-0.00010655,-0.
 00017643,-0.00008846,0.00011977,-0.00033173,-0.00097886,-0.00007093,0.
 00448347,0.00087156,-0.00052675,-0.00144409,0.00024645,0.00035705,0.00
 696297,-0.00344699,0.03150276,-0.01682713,-0.05448397,-0.03128710,-0.0
 0011896,0.00020698,-0.00001033,-0.00005703,-0.00011694,0.00005202,-0.0
 0007181,0.00007469,-0.00004054,0.00000503,-0.00000483,0.00000053,-0.00
 000007,-0.00000391,0.00000323,0.00000553,-0.00000308,0.00000259,-0.000
 00177,-0.00000148,0.00000152,-0.00000522,-0.00000532,0.00000790,0.0000
 0588,-0.00002055,-0.00002034,-0.00000198,0.00000033,0.00000074,0.00000
 016,0.00000142,0.00000211,-0.00000023,0.00000210,0.00000096,-0.0000009
 1,-0.00000149,-0.00000092,-0.00000053,0.00000030,0.00000039,-0.0000020
 1,-0.00000167,-0.00000053,-0.00000270,-0.00000109,-0.00000071,0.000000
 59,-0.00000229,-0.00000144,-0.00000010,-0.00000164,0.00000026,0.000001
 63,0.00000899,0.00001222,0.00026627,0.00010121,-0.00017045,-0.01460532
 ,0.00037087,-0.02389409,0.00339177,0.00138190,0.00587508,0.01843649,0.
 05590688,0.00002399,-0.00003415,0.00001926,-0.00001932,0.00007482,-0.0
 0005446,0.00009128,-0.00011523,0.00006372,-0.00006400,0.00004098,-0.00
 000965,-0.00000422,0.00006729,-0.00005713,-0.00000083,0.00001450,-0.00
 000939,-0.00001773,0.00001007,-0.00001039,-0.00000765,0.00001706,-0.00
 001059,0.00002653,0.00001585,-0.00002486,-0.00003463,0.00002604,0.0000
 2475,0.00000559,-0.00000712,-0.00000799,0.00002266,-0.00000824,-0.0000
 1290,-0.00000348,-0.00001778,-0.00000905,-0.00004258,0.00002482,0.0000
 2838,0.00002196,-0.00001484,-0.00001448,0.00004030,-0.00001549,-0.0000
 2173,-0.00001095,0.00001483,0.00001283,0.00001598,0.00001189,0.0000050
 2,0.00001683,-0.00000169,-0.00000535,0.00000183,-0.00000340,-0.0000031
 4,0.00002345,0.00001656,0.00000708,-0.00003168,-0.00004717,-0.00003383
 ,0.00002506,0.00001531,0.00000826,0.00000671,0.00003003,0.00002664,-0.
 00001011,-0.00001370,-0.00001067,-0.00001856,-0.00001148,-0.00000097,0
 .00000243,0.00002115,0.00002240,-0.00000531,-0.00004022,-0.00003369,-0
 .00037200,0.00028101,-0.00002605,0.00012917,-0.00019073,0.00012063,0.0
 0064990,0.00038423,-0.00032286,-0.00885447,0.00215814,0.00069182,0.001
 53244,-0.00242326,0.00192926,0.00117085,0.00955142,-0.02547641,-0.1132
 4165,-0.02606814,-0.24452188,0.00008139,-0.00022383,0.00007221,0.00010
 975,0.00007742,0.00000613,0.00005420,-0.00006593,0.00003690,-0.0000052
 2,0.00000449,-0.00000023,0.00000057,0.00000398,-0.00000356,-0.00000532
 ,0.00000288,-0.00000210,0.00000207,0.00000163,-0.00000154,0.00000525,0
 .00000627,-0.00000974,-0.00001622,0.00001894,0.00001653,0.00000224,0.,
 -0.00000105,-0.00000005,-0.00000211,-0.00000156,-0.00000047,-0.0000026
 8,-0.00000157,0.00000115,0.00000207,0.00000011,0.00000069,0.00000017,-
 0.00000110,0.00000185,0.00000156,0.00000076,0.00000314,0.00000091,0.00
 000076,-0.00000064,0.00000227,0.00000107,-0.00000104,0.00000184,-0.000
 00083,-0.00000241,-0.00000776,-0.00001299,0.00001149,0.00003476,-0.000
 04672,-0.00622868,-0.00155124,-0.00718297,0.00195002,0.00008597,0.0074
 9230,0.12288692,0.01805545,0.26733439,-0.00001486,0.00001369,-0.000010
 36,0.00002049,-0.00003597,0.00001857,-0.00004580,0.00005535,0.00004823
 ,0.00002876,-0.00002434,-0.00001048,0.00005975,-0.00015010,0.00013035,
 0.00012819,-0.00003539,-0.00005038,-0.00039550,0.00024465,-0.00013700,
 0.00131918,-0.00036872,0.00138767,0.00039284,-0.00024403,-0.00012615,-
 0.00005623,-0.00010760,-0.00013117,0.00000621,-0.00000205,-0.00002505,
 0.00001226,0.00001156,0.00001963,0.00001368,-0.00000186,-0.00000042,0.
 00002174,-0.00001923,-0.00002177,-0.00000520,0.00001145,0.00001142,-0.
 00001881,0.00000912,0.00001223,0.00000615,-0.00000806,-0.00000815,-0.0
 0001527,-0.00000971,-0.00000519,-0.00001060,0.00000430,0.00000515,0.00
 000157,0.00000297,0.00000177,-0.00001630,-0.00001187,-0.00000467,0.000
 01595,0.00003358,0.00002464,-0.00001191,-0.00001047,-0.00000612,-0.000
 00088,-0.00002138,-0.00001895,0.00000472,0.00000871,0.00000664,0.00001
 751,0.00001027,0.00000052,-0.00001041,-0.00001721,-0.00001735,0.000007
 00,0.00003392,0.00004437,0.00105606,0.00369343,-0.00122715,-0.00106529
 ,0.00012870,0.00021126,-0.01512137,-0.00113323,0.00656158,-0.00275830,
 -0.00118300,0.00038398,0.00073790,0.00000327,-0.00002730,0.00115225,-0
 .00205798,0.00147186,0.00063851,0.00004931,-0.00029316,-0.31684458,-0.
 00379875,0.08335544,-0.00446338,0.00131677,0.00177443,0.00068745,0.000
 74097,-0.00186510,0.00000397,-0.00000307,0.00000037,0.00000013,-0.0000
 0197,0.00000124,0.00000269,-0.00000081,0.00000027,0.00001927,0.0000012
 3,0.00001037,0.00000358,-0.00005752,0.00010666,0.00000419,-0.00000938,
 -0.00001340,-0.00000111,0.00000007,0.00000049,-0.00000003,0.00000091,0
 .00000116,-0.00000003,0.00000136,0.00000064,0.00000008,-0.00000128,-0.
 00000053,-0.00000029,0.,0.00000019,-0.00000123,-0.00000097,-0.00000058
 ,-0.00000169,-0.00000084,-0.00000040,0.00000020,-0.00000170,-0.0000010
 4,-0.00000165,-0.00000230,0.00000004,0.00000370,0.00001269,0.00001558,
 -0.00015589,-0.00033282,0.00032057,-0.00004313,-0.00012380,0.00007484,
 -0.00005614,0.00002031,0.00001623,-0.00002772,-0.00005807,0.00007755,0
 .33440651,0.00002722,-0.00004489,0.00001918,0.00003299,0.00012505,-0.0
 0012757,-0.00006154,-0.00004793,0.00028227,0.00005082,0.00007028,-0.00
 013326,0.00027432,0.00020437,-0.00018636,-0.00019066,0.00004201,-0.000
 09312,-0.00104865,0.00014792,0.00006459,0.00064409,-0.00082694,0.00474
 870,0.00012253,-0.00071554,-0.00013386,-0.00015115,-0.00022906,-0.0003
 3992,0.00006710,0.00001271,0.00001481,0.00000485,-0.00002877,-0.000050
 69,-0.00000533,-0.00004578,-0.00002265,-0.00002015,0.00004015,0.000041
 67,0.00000818,-0.00002815,-0.00002448,0.00003077,-0.00001870,-0.000023
 72,-0.00000768,0.00001403,0.00001248,0.00001038,0.00001661,0.00000381,
 0.00000991,-0.00001718,-0.00000514,0.00000249,0.00000205,0.00000285,0.
 00001245,0.00000352,0.00000046,-0.00002393,-0.00002007,-0.00000999,0.0
 0001957,0.00000759,0.00000114,0.00000875,0.00001230,0.00000910,-0.0000
 0779,-0.00000750,-0.00000493,-0.00001236,-0.00000083,-0.00000091,-0.00
 000970,0.00001479,0.00000576,-0.00004167,-0.00000941,0.00001848,0.0018
 6202,-0.00003228,0.00541566,0.00140250,-0.00031330,-0.00009893,0.02006
 943,0.00482040,-0.00608613,0.00177594,-0.00122551,-0.00339375,-0.00093
 386,0.00065079,0.00026146,-0.00091607,-0.00110319,0.00153150,-0.000662
 99,-0.00040918,0.00032194,-0.00556004,-0.05078837,0.01044005,-0.019943
 06,0.00404891,0.00685196,-0.00186639,-0.00060199,-0.00196713,-0.000005
 19,-0.00000035,-0.00000010,0.00000138,0.00000696,-0.00000699,-0.000009
 22,0.00000521,-0.00000122,0.00006173,0.00001793,0.00001532,-0.00004437
 ,-0.00013068,0.00029356,0.00000235,0.00003060,0.00002068,0.00000164,-0
 .00000061,-0.00000110,0.00000033,-0.00000149,-0.00000207,0.00000040,-0
 .00000228,-0.00000099,0.00000128,0.00000219,0.00000026,0.00000033,-0.0
 0000077,-0.00000070,0.00000088,0.00000096,-0.00000003,0.00000169,0.000
 00001,0.00000055,-0.00000056,0.00000062,0.00000010,-0.00000325,-0.0000
 0119,-0.00000051,0.00000469,0.00000011,0.00000737,0.00031430,0.0004805
 4,-0.00044826,0.00002848,0.00008995,-0.00005653,0.00003425,-0.00001393
 ,0.00004945,0.00002749,0.00015096,-0.00019958,0.00387814,0.04589397,-0
 .00002189,0.00002360,-0.00002494,-0.00003737,-0.00010665,0.00008177,0.
 00014288,0.00025108,0.00002592,-0.00006979,-0.00011136,0.00003828,-0.0
 0021665,-0.00005703,0.00017768,0.00007030,-0.00012916,-0.00004398,0.00
 091493,-0.00032293,-0.00018251,0.00062227,0.00509957,0.00095543,-0.000
 47192,-0.00011959,-0.00070238,-0.00006039,-0.00038509,-0.00043685,0.00
 010414,0.00002964,0.00004294,-0.00003663,-0.00000922,-0.00001574,-0.00
 000625,-0.00001050,-0.00001404,0.00002573,0.00000512,-0.00000105,-0.00
 001593,-0.00000279,-0.00000173,-0.00001520,0.00000102,0.00000397,0.000
 00451,-0.00000429,-0.00000301,-0.00000775,0.00000025,-0.00000084,-0.00
 001801,-0.00002665,-0.00000601,-0.00000491,0.00000767,0.00000838,-0.00
 001349,-0.00001302,-0.00000758,0.00001114,0.00002700,0.00002153,-0.000
 00835,-0.00000812,-0.00000597,0.00000037,-0.00001690,-0.00001653,0.000
 00321,0.00000607,0.00000554,0.00000684,0.00000616,-0.00000036,-0.00000
 858,-0.00002040,0.00000573,-0.00007154,0.00004317,0.00007158,0.0003133
 4,0.00492969,0.00315239,-0.00079700,0.00025392,0.00005476,-0.01088550,
 0.00014194,0.00748834,-0.00202227,-0.00253631,-0.00209731,0.00072524,0
 .00000177,0.00043708,0.00052352,0.00184536,-0.00120588,0.00028976,0.00
 012113,-0.00042656,0.08479891,0.00981283,-0.07248207,0.01920382,0.0007
 3950,-0.00088208,0.00025090,-0.00272382,-0.00150358,0.00000752,-0.0000
 0462,0.00000158,-0.00000151,-0.00000605,0.00000436,0.00000179,0.,-0.00
 000258,-0.00003933,0.00003394,0.00004288,0.00007550,0.00029075,-0.0000
 6800,0.00001557,-0.00000446,-0.00000397,-0.00000085,-0.00000031,0.0000
 0019,0.00000019,0.00000092,0.00000011,0.00000056,0.00000082,0.00000062
 ,-0.00000053,-0.00000026,0.00000038,-0.00000166,-0.00000139,-0.0000009
 1,-0.00000087,-0.00000070,-0.00000082,-0.00000158,-0.00000064,-0.00000
 021,0.00000018,-0.00000164,-0.00000063,-0.00000180,-0.00000315,-0.0000
 0017,0.00000347,0.00002671,0.00000305,-0.00019466,-0.00026346,0.000302
 82,-0.00003458,-0.00017286,0.00009415,0.00000434,0.00005277,0.00001506
 ,-0.00000705,-0.00001626,0.00001781,-0.09240477,-0.01714709,0.06710807
 ,-0.00006322,0.00007894,0.00001890,0.00000738,-0.00039459,0.00036075,-
 0.00166513,0.00037403,-0.00120990,0.00017998,0.00141789,-0.00133668,-0
 .00527905,0.00018260,0.00320481,0.00145938,-0.00027630,0.00183081,0.00
 047095,0.00012517,-0.00039749,0.00033864,0.00299075,-0.00103893,-0.000
 52640,-0.00038882,0.00051504,-0.00006542,0.00017302,-0.00007667,-0.000
 08334,-0.00005001,-0.00002371,0.00003075,0.00003148,0.00001158,0.00002
 137,0.00000544,0.00001763,0.00000373,-0.00001763,-0.00001440,0.0000002
 5,0.00001016,0.00000775,-0.00001011,0.00000812,0.00000848,0.00000278,-
 0.00000494,-0.00000430,-0.00001393,-0.00001111,-0.00000811,-0.00001578
 ,0.00000531,0.00001342,0.00000286,-0.00000072,0.00000021,-0.00001497,-
 0.00000747,-0.00000258,0.00000722,0.00002314,0.00001790,-0.00000512,-0
 .00000648,-0.00000483,0.00000207,-0.00001436,-0.00001320,0.00000159,0.
 00000475,0.00000412,0.00001938,0.00000838,-0.00000131,-0.00001509,-0.0
 0001975,-0.00002469,0.00002339,0.00003962,0.00003529,0.00023422,-0.000
 14398,0.00001868,-0.00002925,0.00013956,-0.00010257,0.00003822,0.00019
 611,-0.00015905,-0.00014014,0.00007441,0.00005847,0.00005477,-0.000027
 99,-0.00001593,0.00006250,-0.00004984,0.00000624,0.00002169,0.00002044
 ,-0.00001987,0.00083970,-0.00219414,0.00051226,-0.01345904,-0.00130239
 ,0.00640219,-0.31351646,-0.00353005,0.08396784,0.00001831,-0.00000034,
 -0.00000237,0.00001417,-0.00000867,0.00000676,0.00002246,-0.00001375,0
 .00000078,-0.00021992,0.00013969,0.00003449,-0.00013945,-0.00013176,-0
 .00013715,0.00000035,-0.00000692,-0.00000683,-0.00000058,0.00000022,0.
 00000050,-0.00000018,0.00000053,0.00000069,-0.00000010,0.00000095,0.00
 000043,-0.00000029,-0.00000034,-0.00000166,0.00000019,-0.00000101,0.00
 000087,-0.00000075,-0.00000052,-0.00000052,-0.00000089,-0.00000069,-0.
 00000021,-0.00000007,-0.00000122,-0.00000087,-0.00000288,-0.00000294,-
 0.00000012,0.00000022,0.00000415,0.00001105,-0.00005819,-0.00002133,0.
 00003860,-0.00000148,-0.00000499,0.00000073,0.00000118,0.00000335,-0.0
 0000080,-0.00000197,-0.00000065,0.00000398,0.00037114,0.00072996,-0.00
 064238,0.33107838,0.00018559,-0.00009851,0.00020224,0.00086427,0.00094
 738,-0.00095370,-0.00420268,-0.00217462,-0.00084730,0.00184384,0.00008
 662,-0.00092123,-0.02062137,0.00529347,0.00672750,0.00085170,-0.000542
 55,0.00588199,0.00010220,-0.00062545,0.00002324,0.00232500,-0.00062868
 ,0.00415177,0.00080133,0.00031919,-0.00043807,0.00010896,-0.00013954,0
 .00018144,0.00005085,0.00006865,0.00002906,-0.00005145,-0.00005635,-0.
 00001659,-0.00000799,0.00000467,-0.00001054,0.00001564,0.00001701,0.00
 000554,-0.00001325,-0.00001014,-0.00000533,-0.00000872,-0.00000273,0.0
 0000064,0.00000268,-0.00000119,-0.00000104,0.00001453,-0.00000148,-0.0
 0000021,-0.00000165,0.00001027,-0.00001090,0.00000124,-0.00000383,-0.0
 0000329,-0.00001093,-0.00000564,-0.00000106,0.00000748,0.00002565,0.00
 001814,-0.00000591,-0.00000831,-0.00000456,0.00000046,-0.00001781,-0.0
 0001326,0.00000296,0.00000815,0.00000493,0.00001127,0.00001426,0.00000
 263,-0.00001381,-0.00001100,-0.00000322,0.00002409,-0.00000852,-0.0000
 3114,0.00005085,0.00008731,-0.00018586,-0.00004225,-0.00008560,0.00009
 424,-0.00023174,0.00014705,0.00001242,0.00015935,-0.00001447,0.0001825
 1,-0.00011122,0.00006688,-0.00008524,-0.00004898,0.00006688,-0.0000858
 3,-0.00003753,-0.00004321,0.00005398,0.00035298,-0.00037765,-0.0026365
 1,0.01935748,0.00416806,-0.00542655,-0.00188568,-0.05127283,0.00887583
 ,-0.00004759,-0.00000949,-0.00000468,0.00002234,0.00003247,-0.00002259
 ,-0.00002403,-0.00001301,0.00004290,-0.00114058,0.00022261,0.00040884,
 -0.00012430,-0.00034926,-0.00046681,0.00000766,0.00000368,0.00000245,-
 0.00000061,-0.00000032,-0.00000014,0.00000043,0.00000030,-0.00000017,0
 .00000050,0.00000007,0.00000014,0.,-0.00000077,0.00000140,0.00000102,0
 .00000059,0.00000091,-0.00000141,-0.00000069,0.00000007,-0.00000080,-0
 .00000107,-0.00000036,0.00000008,-0.00000084,-0.00000156,-0.00000069,0
 .,0.00000050,-0.00000219,0.00000256,0.00000895,0.00007059,0.00001984,-
 0.00002627,0.00000302,0.00000794,-0.00000446,0.00000351,-0.00000102,0.
 00000615,-0.00000284,0.00000751,-0.00001082,-0.00045125,-0.00024761,0.
 00047432,0.00184753,0.04512516,-0.00006575,0.00023408,0.00004389,-0.00
 067605,-0.00055718,0.00078107,0.00252732,-0.00222318,-0.00368691,-0.00
 166986,-0.00079427,0.00078186,0.02039494,0.00062624,-0.00059442,0.0008
 9659,0.00619672,0.00153855,-0.00033885,-0.00003857,-0.00040785,-0.0003
 5456,0.00395319,0.00205648,-0.00049474,-0.00006779,0.00029385,-0.00001
 845,0.00016799,0.00002239,-0.00006283,0.00001426,0.00001940,-0.0000006
 3,-0.00002309,-0.00002452,0.00002030,-0.00001004,0.00000771,-0.0000149
 6,0.00002364,0.00001940,-0.00000056,-0.00001346,-0.00001292,0.00001204
 ,-0.00000731,-0.00000970,-0.00000419,0.00000589,0.00000750,-0.00000094
 ,-0.00000455,-0.00000516,-0.00001126,0.00001196,0.00000878,0.00000388,
 -0.00000815,-0.00000592,-0.00000890,0.00000256,0.00000353,-0.00001141,
 -0.00000208,0.00000070,0.00000909,0.00000229,-0.00000078,0.00000685,0.
 00000309,0.00000060,-0.00000462,-0.00000418,-0.00000179,0.00001560,0.0
 0000632,-0.00000402,-0.00002326,-0.00001577,-0.00002130,0.00003581,0.0
 0000207,-0.00000285,-0.00011424,-0.00012009,0.00000067,0.00003780,0.00
 004328,-0.00003191,0.00016498,-0.00010083,0.00012238,-0.00001290,0.000
 20638,0.00009910,0.00005076,-0.00010781,-0.00000259,0.00000299,-0.0000
 8579,0.00001252,0.00002753,0.00003740,-0.00002825,-0.00154414,-0.00192
 970,-0.00144620,-0.01073245,0.00086651,0.00706492,0.08259449,0.0092075
 9,-0.07324018,0.00001695,0.00003715,-0.00001675,-0.00001872,-0.0000127
 4,0.00002953,0.00002790,-0.00001608,-0.00001690,0.00107070,0.00001645,
 -0.00005865,-0.00014472,-0.00047887,-0.00053143,0.00000212,0.00000988,
 0.00001030,0.00000066,-0.00000013,-0.00000022,0.,-0.00000039,-0.000001
 10,0.00000037,-0.00000094,-0.00000043,0.00000019,0.00000070,-0.0000009
 1,0.00000087,-0.00000091,0.00000105,0.00000035,0.00000041,-0.00000057,
 0.00000055,-0.00000013,0.00000041,-0.00000040,-0.00000028,0.00000005,-
 0.00000275,-0.00000309,0.00000057,0.00000085,0.00000078,0.00000598,-0.
 00003562,0.00000085,0.00002271,0.00000231,-0.00001005,0.00000364,-0.00
 000112,0.00000614,0.00000323,-0.00000246,-0.00000354,0.00000437,0.0003
 1070,0.00013260,-0.00002410,-0.09186413,-0.01517543,0.06721122\\-0.000
 00422,0.00000090,-0.00000117,0.00000736,-0.00000772,0.00000335,0.00000
 152,0.00000976,-0.00000595,-0.00000599,-0.00000472,0.00000555,-0.00000
 557,0.00000338,-0.00000270,0.00000437,-0.00000140,0.00000137,-0.000001
 17,0.00000493,-0.00000360,-0.00000105,-0.00000570,0.00000692,0.0000173
 2,-0.00000251,-0.00000504,-0.00001732,-0.00000236,0.00000506,0.0000150
 0,0.00000687,0.00000343,-0.00001328,-0.00000238,-0.00000313,0.00001024
 ,-0.00000554,-0.00001216,-0.00002492,-0.00000607,-0.00000276,0.0000002
 6,0.00000478,0.00000638,0.00002147,0.00000061,0.00000186,-0.00000786,0
 .00000647,0.00000425,-0.00000207,0.00000171,0.00000158,0.00000063,-0.0
 0000160,0.00000123,0.00000203,0.00000150,0.00000188,0.00000560,0.00000
 331,0.00000275,-0.00000221,0.00001164,0.00000368,0.00000606,-0.0000049
 3,-0.00000530,-0.00000649,-0.00001014,-0.00000044,0.00000354,0.0000027
 5,-0.00000108,-0.00000438,-0.00000139,-0.00000136,0.00000118,0.0000049
 9,0.00000362,0.00000104,-0.00000578,-0.00000694,-0.00001501,0.00000692
 ,-0.00000345,0.00001336,-0.00000231,0.00000328,-0.00001030,-0.00000554
 ,0.00001219,0.00002452,-0.00000733,0.00000128,-0.00000026,0.00000475,-
 0.00000648,-0.00002069,0.00000296,0.00000082,0.00000728,0.00000478,-0.
 00000633,0.00000201,0.00000153,-0.00000168,-0.00000060,-0.00000159,-0.
 00000127,-0.00000203,0.00000148,-0.00000185,0.00000023,0.00000064,0.00
 000096,0.00000256,-0.00000127,0.,-0.00000052,-0.00000050,0.00000036,0.
 00000124,0.00000189,-0.00000247,0.00000374,-0.00000038,-0.00000033,0.0
 0000461,-0.00000168,-0.00000228,0.00000138,0.00000157,0.00000057,-0.00
 000051,-0.00000059,-0.00000157,0.00000160,-0.00000205,0.00000065,0.000
 00367,-0.00000168,-0.00000229,0.00000218,0.00000067,-0.00000112,0.0000
 0046,-0.00000039,-0.00000075,0.00000026,-0.00000066,0.00000086,-0.0000
 0262,-0.00000109,-0.00000020,-0.00000123,0.00000189,0.00000248,-0.0000
 0374,-0.00000042,0.00000035,-0.00000464,-0.00000175,0.00000215,-0.0000
 0075,-0.00000176,-0.00000005,-0.00000144,0.00000140,-0.00000078,0.0000
 0002,0.00000011,0.00000221,-0.00000368,-0.00000166,0.00000233,-0.00000
 218,0.00000067,0.00000112\\\@
 The archive entry for this job was punched.


 WOE UNTO THEM THAT CALL EVIL GOOD, AND GOOD EVIL      
 Job cpu time:       0 days  5 hours 55 minutes 40.1 seconds.
 Elapsed time:       0 days  0 hours  8 minutes 59.8 seconds.
 File lengths (MBytes):  RWF=   2271 Int=      0 D2E=      0 Chk=     29 Scr=      1
 Normal termination of Gaussian 16 at Sun Feb 25 04:04:01 2024.
