 Entering Gaussian System, Link 0=g16
 Initial command:
 /public/apps/g16-C01//g16/l1.exe "/public/home/ljq/tmp/Gau-24441.inp" -scrdir="/public/home/ljq/tmp/"
 Entering Link 1 = /public/apps/g16-C01//g16/l1.exe PID=     24442.
  
 Copyright (c) 1988-2019, Gaussian, Inc.  All Rights Reserved.
  
 This is part of the Gaussian(R) 16 program.  It is based on
 the Gaussian(R) 09 system (copyright 2009, Gaussian, Inc.),
 the Gaussian(R) 03 system (copyright 2003, Gaussian, Inc.),
 the Gaussian(R) 98 system (copyright 1998, Gaussian, Inc.),
 the Gaussian(R) 94 system (copyright 1995, Gaussian, Inc.),
 the Gaussian 92(TM) system (copyright 1992, Gaussian, Inc.),
 the Gaussian 90(TM) system (copyright 1990, Gaussian, Inc.),
 the Gaussian 88(TM) system (copyright 1988, Gaussian, Inc.),
 the Gaussian 86(TM) system (copyright 1986, Carnegie Mellon
 University), and the Gaussian 82(TM) system (copyright 1983,
 Carnegie Mellon University). Gaussian is a federally registered
 trademark of Gaussian, Inc.
  
 This software contains proprietary and confidential information,
 including trade secrets, belonging to Gaussian, Inc.
  
 This software is provided under written license and may be
 used, copied, transmitted, or stored only in accord with that
 written license.
  
 The following legend is applicable only to US Government
 contracts under FAR:
  
                    RESTRICTED RIGHTS LEGEND
  
 Use, reproduction and disclosure by the US Government is
 subject to restrictions as set forth in subparagraphs (a)
 and (c) of the Commercial Computer Software - Restricted
 Rights clause in FAR 52.227-19.
  
 Gaussian, Inc.
 340 Quinnipiac St., Bldg. 40, Wallingford CT 06492
  
  
 ---------------------------------------------------------------
 Warning -- This program may not be used in any manner that
 competes with the business of Gaussian, Inc. or will provide
 assistance to any competitor of Gaussian, Inc.  The licensee
 of this program is prohibited from giving any competitor of
 Gaussian, Inc. access to this program.  By using this program,
 the user acknowledges that Gaussian, Inc. is engaged in the
 business of creating and licensing software in the field of
 computational chemistry and represents and warrants to the
 licensee that it is not a competitor of Gaussian, Inc. and that
 it will not use this program in any manner prohibited above.
 ---------------------------------------------------------------
  

 Cite this work as:
 Gaussian 16, Revision C.01,
 M. J. Frisch, G. W. Trucks, H. B. Schlegel, G. E. Scuseria, 
 M. A. Robb, J. R. Cheeseman, G. Scalmani, V. Barone, 
 G. A. Petersson, H. Nakatsuji, X. Li, M. Caricato, A. V. Marenich, 
 J. Bloino, B. G. Janesko, R. Gomperts, B. Mennucci, H. P. Hratchian, 
 J. V. Ortiz, A. F. Izmaylov, J. L. Sonnenberg, D. Williams-Young, 
 F. Ding, F. Lipparini, F. Egidi, J. Goings, B. Peng, A. Petrone, 
 T. Henderson, D. Ranasinghe, V. G. Zakrzewski, J. Gao, N. Rega, 
 G. Zheng, W. Liang, M. Hada, M. Ehara, K. Toyota, R. Fukuda, 
 J. Hasegawa, M. Ishida, T. Nakajima, Y. Honda, O. Kitao, H. Nakai, 
 T. Vreven, K. Throssell, J. A. Montgomery, Jr., J. E. Peralta, 
 F. Ogliaro, M. J. Bearpark, J. J. Heyd, E. N. Brothers, K. N. Kudin, 
 V. N. Staroverov, T. A. Keith, R. Kobayashi, J. Normand, 
 K. Raghavachari, A. P. Rendell, J. C. Burant, S. S. Iyengar, 
 J. Tomasi, M. Cossi, J. M. Millam, M. Klene, C. Adamo, R. Cammi, 
 J. W. Ochterski, R. L. Martin, K. Morokuma, O. Farkas, 
 J. B. Foresman, and D. J. Fox, Gaussian, Inc., Wallingford CT, 2019.
 
 ******************************************
 Gaussian 16:  ES64L-G16RevC.01  3-Jul-2019
                25-Feb-2024 
 ******************************************
 %nproc=40
 Will use up to   40 processors via shared memory.
 %mem=56GB
 ------------------------------------------
 #p opt freq b3lyp/def2svpp em=gd3bj nosymm
 ------------------------------------------
 1/18=20,19=15,26=3,38=1/1,3;
 2/9=110,12=2,15=1,17=6,18=5,40=1/2;
 3/5=43,7=202,11=2,25=1,30=1,71=1,74=-5,124=41/1,2,3;
 4//1;
 5/5=2,38=5/2;
 6/7=2,8=2,9=2,10=2,28=1/1;
 7/30=1/1,2,3,16;
 1/18=20,19=15,26=3/3(2);
 2/9=110,15=1/2;
 99//99;
 2/9=110,15=1/2;
 3/5=43,7=202,11=2,25=1,30=1,71=1,74=-5,124=41/1,2,3;
 4/5=5,16=3,69=1/1;
 5/5=2,38=5/2;
 7/30=1/1,2,3,16;
 1/18=20,19=15,26=3/3(-5);
 2/9=110,15=1/2;
 6/7=2,8=2,9=2,10=2,19=2,28=1/1;
 99/9=1/99;
 Leave Link    1 at Sun Feb 25 04:16:31 2024, MaxMem=  7516192768 cpu:               1.8 elap:               0.1
 (Enter /public/apps/g16-C01//g16/l101.exe)
 ----------------------
 $$$$Singlemol####0????
 ----------------------
 Symbolic Z-matrix:
 Charge =  0 Multiplicity = 1
 O                    -3.55009  -1.28025   2.44991 
 C                    -3.35892  -0.28332   1.54956 
 C                    -3.9277    0.96782   1.85987 
 C                    -3.80208   2.01745   1.00113 
 C                    -3.07039   1.8853   -0.19735 
 C                    -2.89405   2.96628  -1.08326 
 C                    -2.1572    2.82757  -2.22566 
 C                    -1.57553   1.59054  -2.53635 
 C                    -1.7514    0.51392  -1.71178 
 C                    -2.49739   0.62774  -0.51812 
 C                    -2.68159  -0.47027   0.36107 
 C                    -2.18638  -1.81802  -0.01409 
 C                    -1.11466  -2.37843   0.65661 
 O                    -0.55677  -1.69523   1.68951 
 C                    -0.61533  -3.65172   0.27882 
 C                     0.55908  -4.22736   1.03498 
 O                     1.61666  -3.29806   1.19545 
 C                     2.31046  -3.00945  -0.01434 
 C                     2.95353  -1.65932   0.12808 
 C                     4.24177  -1.51223   0.55992 
 C                     4.81106  -0.23849   0.75754 
 C                     6.13902  -0.07912   1.20266 
 C                     6.66221   1.16565   1.41363 
 C                     5.87392   2.30558   1.1964 
 C                     4.58385   2.1859    0.76097 
 C                     4.01897   0.91498   0.51795 
 C                     2.68664   0.75686   0.05428 
 C                     1.84316   1.94982  -0.2244 
 C                     2.10265   2.72222  -1.33985 
 O                     3.08248   2.41031  -2.23006 
 C                     1.34589   3.88075  -1.6003 
 C                     0.36224   4.26698  -0.73991 
 C                     0.062     3.50668   0.4094 
 C                    -0.93937   3.89816   1.31942 
 C                    -1.22529   3.13809   2.41824 
 C                    -0.51724   1.95178   2.65519 
 C                     0.47711   1.55656   1.80579 
 C                     0.79668   2.31931   0.66211 
 C                     2.16987  -0.50897  -0.13952 
 O                     0.91378  -0.70671  -0.6081 
 C                    -1.19714  -4.327    -0.7579 
 C                    -2.31164  -3.80425  -1.44247 
 C                    -2.93343  -4.50947  -2.49291 
 C                    -4.02049  -3.98923  -3.13663 
 C                    -4.53309  -2.74118  -2.75183 
 C                    -3.94918  -2.03052  -1.74091 
 C                    -2.81914  -2.53507  -1.06208 
 H                    -3.03731  -2.05305   2.18044 
 H                    -4.47011   1.05335   2.78838 
 H                    -4.25424   2.97071   1.23231 
 H                    -3.35219   3.91342  -0.83642 
 H                    -2.01989   3.66271  -2.89616 
 H                    -0.9915    1.49128  -3.43978 
 H                    -1.32528  -0.44419  -1.97086 
 H                     0.33627  -2.05172   1.84019 
 H                     0.25917  -4.49064   2.05672 
 H                     0.91918  -5.1367    0.53594 
 H                     3.06673  -3.78657  -0.19165 
 H                     1.60397  -2.99396  -0.85281 
 H                     4.84021  -2.38774   0.76479 
 H                     6.73386  -0.96401   1.37781 
 H                     7.68017   1.28022   1.75519 
 H                     6.29392   3.28349   1.37924 
 H                     3.97805   3.06643   0.60452 
 H                     3.56179   1.62881  -1.92235 
 H                     1.58545   4.44763  -2.48588 
 H                    -0.20286   5.16761  -0.92838 
 H                    -1.47696   4.81577   1.1284 
 H                    -1.99391   3.44484   3.11149 
 H                    -0.75864   1.35114   3.51865 
 H                     1.03203   0.65326   2.00983 
 H                     0.4398    0.1375   -0.6598 
 H                    -0.80863  -5.29091  -1.05704 
 H                    -2.53408  -5.47329  -2.77557 
 H                    -4.49383  -4.53507  -3.93941 
 H                    -5.39881  -2.34442  -3.26142 
 H                    -4.35026  -1.07246  -1.44653 
 
 ITRead=  0  0  0  0  0  0  0  0  0  0  0  0  0  0  0  0  0  0  0  0
 ITRead=  0  0  0  0  0  0  0  0  0  0  0  0  0  0  0  0  0  0  0  0
 ITRead=  0  0  0  0  0  0  0  0  0  0  0  0  0  0  0  0  0  0  0  0
 ITRead=  0  0  0  0  0  0  0  0  0  0  0  0  0  0  0  0  0
 MicOpt= -1 -1 -1 -1 -1 -1 -1 -1 -1 -1 -1 -1 -1 -1 -1 -1 -1 -1 -1 -1
 MicOpt= -1 -1 -1 -1 -1 -1 -1 -1 -1 -1 -1 -1 -1 -1 -1 -1 -1 -1 -1 -1
 MicOpt= -1 -1 -1 -1 -1 -1 -1 -1 -1 -1 -1 -1 -1 -1 -1 -1 -1 -1 -1 -1
 MicOpt= -1 -1 -1 -1 -1 -1 -1 -1 -1 -1 -1 -1 -1 -1 -1 -1 -1
 NAtoms=     77 NQM=       77 NQMF=       0 NMMI=      0 NMMIF=      0
                NMic=       0 NMicF=      0.
                    Isotopes and Nuclear Properties:
 (Nuclear quadrupole moments (NQMom) in fm**2, nuclear magnetic moments (NMagM)
  in nuclear magnetons)

  Atom         1           2           3           4           5           6           7           8           9          10
 IAtWgt=          16          12          12          12          12          12          12          12          12          12
 AtmWgt=  15.9949146  12.0000000  12.0000000  12.0000000  12.0000000  12.0000000  12.0000000  12.0000000  12.0000000  12.0000000
 NucSpn=           0           0           0           0           0           0           0           0           0           0
 AtZEff=  -0.0000000  -0.0000000  -0.0000000  -0.0000000  -0.0000000  -0.0000000  -0.0000000  -0.0000000  -0.0000000  -0.0000000
 NQMom=    0.0000000   0.0000000   0.0000000   0.0000000   0.0000000   0.0000000   0.0000000   0.0000000   0.0000000   0.0000000
 NMagM=    0.0000000   0.0000000   0.0000000   0.0000000   0.0000000   0.0000000   0.0000000   0.0000000   0.0000000   0.0000000
 AtZNuc=   8.0000000   6.0000000   6.0000000   6.0000000   6.0000000   6.0000000   6.0000000   6.0000000   6.0000000   6.0000000

  Atom        11          12          13          14          15          16          17          18          19          20
 IAtWgt=          12          12          12          16          12          12          16          12          12          12
 AtmWgt=  12.0000000  12.0000000  12.0000000  15.9949146  12.0000000  12.0000000  15.9949146  12.0000000  12.0000000  12.0000000
 NucSpn=           0           0           0           0           0           0           0           0           0           0
 AtZEff=  -0.0000000  -0.0000000  -0.0000000  -0.0000000  -0.0000000  -0.0000000  -0.0000000  -0.0000000  -0.0000000  -0.0000000
 NQMom=    0.0000000   0.0000000   0.0000000   0.0000000   0.0000000   0.0000000   0.0000000   0.0000000   0.0000000   0.0000000
 NMagM=    0.0000000   0.0000000   0.0000000   0.0000000   0.0000000   0.0000000   0.0000000   0.0000000   0.0000000   0.0000000
 AtZNuc=   6.0000000   6.0000000   6.0000000   8.0000000   6.0000000   6.0000000   8.0000000   6.0000000   6.0000000   6.0000000

  Atom        21          22          23          24          25          26          27          28          29          30
 IAtWgt=          12          12          12          12          12          12          12          12          12          16
 AtmWgt=  12.0000000  12.0000000  12.0000000  12.0000000  12.0000000  12.0000000  12.0000000  12.0000000  12.0000000  15.9949146
 NucSpn=           0           0           0           0           0           0           0           0           0           0
 AtZEff=  -0.0000000  -0.0000000  -0.0000000  -0.0000000  -0.0000000  -0.0000000  -0.0000000  -0.0000000  -0.0000000  -0.0000000
 NQMom=    0.0000000   0.0000000   0.0000000   0.0000000   0.0000000   0.0000000   0.0000000   0.0000000   0.0000000   0.0000000
 NMagM=    0.0000000   0.0000000   0.0000000   0.0000000   0.0000000   0.0000000   0.0000000   0.0000000   0.0000000   0.0000000
 AtZNuc=   6.0000000   6.0000000   6.0000000   6.0000000   6.0000000   6.0000000   6.0000000   6.0000000   6.0000000   8.0000000

  Atom        31          32          33          34          35          36          37          38          39          40
 IAtWgt=          12          12          12          12          12          12          12          12          12          16
 AtmWgt=  12.0000000  12.0000000  12.0000000  12.0000000  12.0000000  12.0000000  12.0000000  12.0000000  12.0000000  15.9949146
 NucSpn=           0           0           0           0           0           0           0           0           0           0
 AtZEff=  -0.0000000  -0.0000000  -0.0000000  -0.0000000  -0.0000000  -0.0000000  -0.0000000  -0.0000000  -0.0000000  -0.0000000
 NQMom=    0.0000000   0.0000000   0.0000000   0.0000000   0.0000000   0.0000000   0.0000000   0.0000000   0.0000000   0.0000000
 NMagM=    0.0000000   0.0000000   0.0000000   0.0000000   0.0000000   0.0000000   0.0000000   0.0000000   0.0000000   0.0000000
 AtZNuc=   6.0000000   6.0000000   6.0000000   6.0000000   6.0000000   6.0000000   6.0000000   6.0000000   6.0000000   8.0000000

  Atom        41          42          43          44          45          46          47          48          49          50
 IAtWgt=          12          12          12          12          12          12          12           1           1           1
 AtmWgt=  12.0000000  12.0000000  12.0000000  12.0000000  12.0000000  12.0000000  12.0000000   1.0078250   1.0078250   1.0078250
 NucSpn=           0           0           0           0           0           0           0           1           1           1
 AtZEff=  -0.0000000  -0.0000000  -0.0000000  -0.0000000  -0.0000000  -0.0000000  -0.0000000  -0.0000000  -0.0000000  -0.0000000
 NQMom=    0.0000000   0.0000000   0.0000000   0.0000000   0.0000000   0.0000000   0.0000000   0.0000000   0.0000000   0.0000000
 NMagM=    0.0000000   0.0000000   0.0000000   0.0000000   0.0000000   0.0000000   0.0000000   2.7928460   2.7928460   2.7928460
 AtZNuc=   6.0000000   6.0000000   6.0000000   6.0000000   6.0000000   6.0000000   6.0000000   1.0000000   1.0000000   1.0000000

  Atom        51          52          53          54          55          56          57          58          59          60
 IAtWgt=           1           1           1           1           1           1           1           1           1           1
 AtmWgt=   1.0078250   1.0078250   1.0078250   1.0078250   1.0078250   1.0078250   1.0078250   1.0078250   1.0078250   1.0078250
 NucSpn=           1           1           1           1           1           1           1           1           1           1
 AtZEff=  -0.0000000  -0.0000000  -0.0000000  -0.0000000  -0.0000000  -0.0000000  -0.0000000  -0.0000000  -0.0000000  -0.0000000
 NQMom=    0.0000000   0.0000000   0.0000000   0.0000000   0.0000000   0.0000000   0.0000000   0.0000000   0.0000000   0.0000000
 NMagM=    2.7928460   2.7928460   2.7928460   2.7928460   2.7928460   2.7928460   2.7928460   2.7928460   2.7928460   2.7928460
 AtZNuc=   1.0000000   1.0000000   1.0000000   1.0000000   1.0000000   1.0000000   1.0000000   1.0000000   1.0000000   1.0000000

  Atom        61          62          63          64          65          66          67          68          69          70
 IAtWgt=           1           1           1           1           1           1           1           1           1           1
 AtmWgt=   1.0078250   1.0078250   1.0078250   1.0078250   1.0078250   1.0078250   1.0078250   1.0078250   1.0078250   1.0078250
 NucSpn=           1           1           1           1           1           1           1           1           1           1
 AtZEff=  -0.0000000  -0.0000000  -0.0000000  -0.0000000  -0.0000000  -0.0000000  -0.0000000  -0.0000000  -0.0000000  -0.0000000
 NQMom=    0.0000000   0.0000000   0.0000000   0.0000000   0.0000000   0.0000000   0.0000000   0.0000000   0.0000000   0.0000000
 NMagM=    2.7928460   2.7928460   2.7928460   2.7928460   2.7928460   2.7928460   2.7928460   2.7928460   2.7928460   2.7928460
 AtZNuc=   1.0000000   1.0000000   1.0000000   1.0000000   1.0000000   1.0000000   1.0000000   1.0000000   1.0000000   1.0000000

  Atom        71          72          73          74          75          76          77
 IAtWgt=           1           1           1           1           1           1           1
 AtmWgt=   1.0078250   1.0078250   1.0078250   1.0078250   1.0078250   1.0078250   1.0078250
 NucSpn=           1           1           1           1           1           1           1
 AtZEff=  -0.0000000  -0.0000000  -0.0000000  -0.0000000  -0.0000000  -0.0000000  -0.0000000
 NQMom=    0.0000000   0.0000000   0.0000000   0.0000000   0.0000000   0.0000000   0.0000000
 NMagM=    2.7928460   2.7928460   2.7928460   2.7928460   2.7928460   2.7928460   2.7928460
 AtZNuc=   1.0000000   1.0000000   1.0000000   1.0000000   1.0000000   1.0000000   1.0000000
 Leave Link  101 at Sun Feb 25 04:16:31 2024, MaxMem=  7516192768 cpu:               9.4 elap:               0.3
 (Enter /public/apps/g16-C01//g16/l103.exe)

 GradGradGradGradGradGradGradGradGradGradGradGradGradGradGradGradGradGrad
 Berny optimization.
 Initialization pass.
                           ----------------------------
                           !    Initial Parameters    !
                           ! (Angstroms and Degrees)  !
 --------------------------                            --------------------------
 ! Name  Definition              Value          Derivative Info.                !
 --------------------------------------------------------------------------------
 ! R1    R(1,2)                  1.3569         estimate D2E/DX2                !
 ! R2    R(1,48)                 0.9658         estimate D2E/DX2                !
 ! R3    R(2,3)                  1.409          estimate D2E/DX2                !
 ! R4    R(2,11)                 1.3807         estimate D2E/DX2                !
 ! R5    R(3,4)                  1.362          estimate D2E/DX2                !
 ! R6    R(3,49)                 1.0787         estimate D2E/DX2                !
 ! R7    R(4,5)                  1.4104         estimate D2E/DX2                !
 ! R8    R(4,50)                 1.0801         estimate D2E/DX2                !
 ! R9    R(5,6)                  1.4087         estimate D2E/DX2                !
 ! R10   R(5,10)                 1.4187         estimate D2E/DX2                !
 ! R11   R(6,7)                  1.3665         estimate D2E/DX2                !
 ! R12   R(6,51)                 1.0807         estimate D2E/DX2                !
 ! R13   R(7,8)                  1.4018         estimate D2E/DX2                !
 ! R14   R(7,52)                 1.0798         estimate D2E/DX2                !
 ! R15   R(8,9)                  1.3675         estimate D2E/DX2                !
 ! R16   R(8,53)                 1.0803         estimate D2E/DX2                !
 ! R17   R(9,10)                 1.4122         estimate D2E/DX2                !
 ! R18   R(9,54)                 1.0801         estimate D2E/DX2                !
 ! R19   R(10,11)                1.4186         estimate D2E/DX2                !
 ! R20   R(11,12)                1.484          estimate D2E/DX2                !
 ! R21   R(12,13)                1.3829         estimate D2E/DX2                !
 ! R22   R(12,47)                1.4187         estimate D2E/DX2                !
 ! R23   R(13,14)                1.3583         estimate D2E/DX2                !
 ! R24   R(13,15)                1.4189         estimate D2E/DX2                !
 ! R25   R(14,55)                0.9733         estimate D2E/DX2                !
 ! R26   R(15,16)                1.5108         estimate D2E/DX2                !
 ! R27   R(15,41)                1.3672         estimate D2E/DX2                !
 ! R28   R(16,17)                1.417          estimate D2E/DX2                !
 ! R29   R(16,56)                1.0969         estimate D2E/DX2                !
 ! R30   R(16,57)                1.098          estimate D2E/DX2                !
 ! R31   R(17,18)                1.4242         estimate D2E/DX2                !
 ! R32   R(18,19)                1.5022         estimate D2E/DX2                !
 ! R33   R(18,58)                1.0988         estimate D2E/DX2                !
 ! R34   R(18,59)                1.0965         estimate D2E/DX2                !
 ! R35   R(19,20)                1.3666         estimate D2E/DX2                !
 ! R36   R(19,39)                1.4174         estimate D2E/DX2                !
 ! R37   R(20,21)                1.4091         estimate D2E/DX2                !
 ! R38   R(20,60)                1.0801         estimate D2E/DX2                !
 ! R39   R(21,22)                1.4096         estimate D2E/DX2                !
 ! R40   R(21,26)                1.4196         estimate D2E/DX2                !
 ! R41   R(22,23)                1.3666         estimate D2E/DX2                !
 ! R42   R(22,61)                1.0805         estimate D2E/DX2                !
 ! R43   R(23,24)                1.4029         estimate D2E/DX2                !
 ! R44   R(23,62)                1.0798         estimate D2E/DX2                !
 ! R45   R(24,25)                1.3668         estimate D2E/DX2                !
 ! R46   R(24,63)                1.0799         estimate D2E/DX2                !
 ! R47   R(25,26)                1.4119         estimate D2E/DX2                !
 ! R48   R(25,64)                1.0802         estimate D2E/DX2                !
 ! R49   R(26,27)                1.4195         estimate D2E/DX2                !
 ! R50   R(27,28)                1.4874         estimate D2E/DX2                !
 ! R51   R(27,39)                1.3809         estimate D2E/DX2                !
 ! R52   R(28,29)                1.3814         estimate D2E/DX2                !
 ! R53   R(28,38)                1.4204         estimate D2E/DX2                !
 ! R54   R(29,30)                1.3601         estimate D2E/DX2                !
 ! R55   R(29,31)                1.4081         estimate D2E/DX2                !
 ! R56   R(30,65)                0.967          estimate D2E/DX2                !
 ! R57   R(31,32)                1.3627         estimate D2E/DX2                !
 ! R58   R(31,66)                1.0784         estimate D2E/DX2                !
 ! R59   R(32,33)                1.4104         estimate D2E/DX2                !
 ! R60   R(32,67)                1.0798         estimate D2E/DX2                !
 ! R61   R(33,34)                1.4086         estimate D2E/DX2                !
 ! R62   R(33,38)                1.419          estimate D2E/DX2                !
 ! R63   R(34,35)                1.3663         estimate D2E/DX2                !
 ! R64   R(34,68)                1.0805         estimate D2E/DX2                !
 ! R65   R(35,36)                1.4017         estimate D2E/DX2                !
 ! R66   R(35,69)                1.0796         estimate D2E/DX2                !
 ! R67   R(36,37)                1.3662         estimate D2E/DX2                !
 ! R68   R(36,70)                1.0792         estimate D2E/DX2                !
 ! R69   R(37,38)                1.4114         estimate D2E/DX2                !
 ! R70   R(37,71)                1.0796         estimate D2E/DX2                !
 ! R71   R(39,40)                1.3552         estimate D2E/DX2                !
 ! R72   R(40,72)                0.9695         estimate D2E/DX2                !
 ! R73   R(41,42)                1.4086         estimate D2E/DX2                !
 ! R74   R(41,73)                1.0814         estimate D2E/DX2                !
 ! R75   R(42,43)                1.4098         estimate D2E/DX2                !
 ! R76   R(42,47)                1.4188         estimate D2E/DX2                !
 ! R77   R(43,44)                1.3663         estimate D2E/DX2                !
 ! R78   R(43,74)                1.0809         estimate D2E/DX2                !
 ! R79   R(44,45)                1.403          estimate D2E/DX2                !
 ! R80   R(44,75)                1.08           estimate D2E/DX2                !
 ! R81   R(45,46)                1.3667         estimate D2E/DX2                !
 ! R82   R(45,76)                1.0801         estimate D2E/DX2                !
 ! R83   R(46,47)                1.4115         estimate D2E/DX2                !
 ! R84   R(46,77)                1.0795         estimate D2E/DX2                !
 ! A1    A(2,1,48)             109.1451         estimate D2E/DX2                !
 ! A2    A(1,2,3)              116.7064         estimate D2E/DX2                !
 ! A3    A(1,2,11)             122.7401         estimate D2E/DX2                !
 ! A4    A(3,2,11)             120.5222         estimate D2E/DX2                !
 ! A5    A(2,3,4)              120.5475         estimate D2E/DX2                !
 ! A6    A(2,3,49)             117.5785         estimate D2E/DX2                !
 ! A7    A(4,3,49)             121.8696         estimate D2E/DX2                !
 ! A8    A(3,4,5)              120.7587         estimate D2E/DX2                !
 ! A9    A(3,4,50)             120.4383         estimate D2E/DX2                !
 ! A10   A(5,4,50)             118.8001         estimate D2E/DX2                !
 ! A11   A(4,5,6)              121.8327         estimate D2E/DX2                !
 ! A12   A(4,5,10)             118.9943         estimate D2E/DX2                !
 ! A13   A(6,5,10)             119.173          estimate D2E/DX2                !
 ! A14   A(5,6,7)              121.0221         estimate D2E/DX2                !
 ! A15   A(5,6,51)             118.4123         estimate D2E/DX2                !
 ! A16   A(7,6,51)             120.5649         estimate D2E/DX2                !
 ! A17   A(6,7,8)              119.9079         estimate D2E/DX2                !
 ! A18   A(6,7,52)             120.611          estimate D2E/DX2                !
 ! A19   A(8,7,52)             119.4809         estimate D2E/DX2                !
 ! A20   A(7,8,9)              120.5144         estimate D2E/DX2                !
 ! A21   A(7,8,53)             119.3885         estimate D2E/DX2                !
 ! A22   A(9,8,53)             120.0953         estimate D2E/DX2                !
 ! A23   A(8,9,10)             120.9413         estimate D2E/DX2                !
 ! A24   A(8,9,54)             120.1984         estimate D2E/DX2                !
 ! A25   A(10,9,54)            118.8584         estimate D2E/DX2                !
 ! A26   A(5,10,9)             118.4193         estimate D2E/DX2                !
 ! A27   A(5,10,11)            119.5719         estimate D2E/DX2                !
 ! A28   A(9,10,11)            122.0083         estimate D2E/DX2                !
 ! A29   A(2,11,10)            119.4967         estimate D2E/DX2                !
 ! A30   A(2,11,12)            120.2836         estimate D2E/DX2                !
 ! A31   A(10,11,12)           120.1928         estimate D2E/DX2                !
 ! A32   A(11,12,13)           120.2662         estimate D2E/DX2                !
 ! A33   A(11,12,47)           119.7951         estimate D2E/DX2                !
 ! A34   A(13,12,47)           119.9383         estimate D2E/DX2                !
 ! A35   A(12,13,14)           118.8996         estimate D2E/DX2                !
 ! A36   A(12,13,15)           120.4801         estimate D2E/DX2                !
 ! A37   A(14,13,15)           120.6177         estimate D2E/DX2                !
 ! A38   A(13,14,55)           108.0809         estimate D2E/DX2                !
 ! A39   A(13,15,16)           118.8307         estimate D2E/DX2                !
 ! A40   A(13,15,41)           119.6935         estimate D2E/DX2                !
 ! A41   A(16,15,41)           121.4752         estimate D2E/DX2                !
 ! A42   A(15,16,17)           112.7669         estimate D2E/DX2                !
 ! A43   A(15,16,56)           110.1897         estimate D2E/DX2                !
 ! A44   A(15,16,57)           110.0608         estimate D2E/DX2                !
 ! A45   A(17,16,56)           104.8323         estimate D2E/DX2                !
 ! A46   A(17,16,57)           110.4776         estimate D2E/DX2                !
 ! A47   A(56,16,57)           108.3153         estimate D2E/DX2                !
 ! A48   A(16,17,18)           113.5971         estimate D2E/DX2                !
 ! A49   A(17,18,19)           108.0677         estimate D2E/DX2                !
 ! A50   A(17,18,58)           109.2118         estimate D2E/DX2                !
 ! A51   A(17,18,59)           109.7882         estimate D2E/DX2                !
 ! A52   A(19,18,58)           110.8737         estimate D2E/DX2                !
 ! A53   A(19,18,59)           109.6096         estimate D2E/DX2                !
 ! A54   A(58,18,59)           109.2717         estimate D2E/DX2                !
 ! A55   A(18,19,20)           122.0203         estimate D2E/DX2                !
 ! A56   A(18,19,39)           118.349          estimate D2E/DX2                !
 ! A57   A(20,19,39)           119.569          estimate D2E/DX2                !
 ! A58   A(19,20,21)           121.4965         estimate D2E/DX2                !
 ! A59   A(19,20,60)           119.6675         estimate D2E/DX2                !
 ! A60   A(21,20,60)           118.8337         estimate D2E/DX2                !
 ! A61   A(20,21,22)           121.8093         estimate D2E/DX2                !
 ! A62   A(20,21,26)           119.0374         estimate D2E/DX2                !
 ! A63   A(22,21,26)           119.1482         estimate D2E/DX2                !
 ! A64   A(21,22,23)           120.8226         estimate D2E/DX2                !
 ! A65   A(21,22,61)           118.5033         estimate D2E/DX2                !
 ! A66   A(23,22,61)           120.6736         estimate D2E/DX2                !
 ! A67   A(22,23,24)           120.0722         estimate D2E/DX2                !
 ! A68   A(22,23,62)           120.4218         estimate D2E/DX2                !
 ! A69   A(24,23,62)           119.5043         estimate D2E/DX2                !
 ! A70   A(23,24,25)           120.5669         estimate D2E/DX2                !
 ! A71   A(23,24,63)           119.4115         estimate D2E/DX2                !
 ! A72   A(25,24,63)           120.0213         estimate D2E/DX2                !
 ! A73   A(24,25,26)           120.7493         estimate D2E/DX2                !
 ! A74   A(24,25,64)           120.2723         estimate D2E/DX2                !
 ! A75   A(26,25,64)           118.977          estimate D2E/DX2                !
 ! A76   A(21,26,25)           118.6276         estimate D2E/DX2                !
 ! A77   A(21,26,27)           119.2291         estimate D2E/DX2                !
 ! A78   A(25,26,27)           122.1412         estimate D2E/DX2                !
 ! A79   A(26,27,28)           120.2727         estimate D2E/DX2                !
 ! A80   A(26,27,39)           119.9454         estimate D2E/DX2                !
 ! A81   A(28,27,39)           119.7818         estimate D2E/DX2                !
 ! A82   A(27,28,29)           119.5536         estimate D2E/DX2                !
 ! A83   A(27,28,38)           120.6316         estimate D2E/DX2                !
 ! A84   A(29,28,38)           119.7966         estimate D2E/DX2                !
 ! A85   A(28,29,30)           122.3865         estimate D2E/DX2                !
 ! A86   A(28,29,31)           120.5607         estimate D2E/DX2                !
 ! A87   A(30,29,31)           117.0527         estimate D2E/DX2                !
 ! A88   A(29,30,65)           109.52           estimate D2E/DX2                !
 ! A89   A(29,31,32)           120.2885         estimate D2E/DX2                !
 ! A90   A(29,31,66)           117.7097         estimate D2E/DX2                !
 ! A91   A(32,31,66)           121.9944         estimate D2E/DX2                !
 ! A92   A(31,32,33)           121.0233         estimate D2E/DX2                !
 ! A93   A(31,32,67)           120.2615         estimate D2E/DX2                !
 ! A94   A(33,32,67)           118.7152         estimate D2E/DX2                !
 ! A95   A(32,33,34)           121.8693         estimate D2E/DX2                !
 ! A96   A(32,33,38)           119.0781         estimate D2E/DX2                !
 ! A97   A(34,33,38)           119.0507         estimate D2E/DX2                !
 ! A98   A(33,34,35)           120.9118         estimate D2E/DX2                !
 ! A99   A(33,34,68)           118.3927         estimate D2E/DX2                !
 ! A100  A(35,34,68)           120.6956         estimate D2E/DX2                !
 ! A101  A(34,35,36)           120.0687         estimate D2E/DX2                !
 ! A102  A(34,35,69)           120.4877         estimate D2E/DX2                !
 ! A103  A(36,35,69)           119.4434         estimate D2E/DX2                !
 ! A104  A(35,36,37)           120.4902         estimate D2E/DX2                !
 ! A105  A(35,36,70)           119.5581         estimate D2E/DX2                !
 ! A106  A(37,36,70)           119.951          estimate D2E/DX2                !
 ! A107  A(36,37,38)           120.8161         estimate D2E/DX2                !
 ! A108  A(36,37,71)           119.9114         estimate D2E/DX2                !
 ! A109  A(38,37,71)           119.2717         estimate D2E/DX2                !
 ! A110  A(28,38,33)           119.2083         estimate D2E/DX2                !
 ! A111  A(28,38,37)           122.14           estimate D2E/DX2                !
 ! A112  A(33,38,37)           118.6402         estimate D2E/DX2                !
 ! A113  A(19,39,27)           120.7008         estimate D2E/DX2                !
 ! A114  A(19,39,40)           117.3437         estimate D2E/DX2                !
 ! A115  A(27,39,40)           121.9477         estimate D2E/DX2                !
 ! A116  A(39,40,72)           110.1522         estimate D2E/DX2                !
 ! A117  A(15,41,42)           121.4612         estimate D2E/DX2                !
 ! A118  A(15,41,73)           119.8084         estimate D2E/DX2                !
 ! A119  A(42,41,73)           118.7248         estimate D2E/DX2                !
 ! A120  A(41,42,43)           121.6997         estimate D2E/DX2                !
 ! A121  A(41,42,47)           118.9933         estimate D2E/DX2                !
 ! A122  A(43,42,47)           119.307          estimate D2E/DX2                !
 ! A123  A(42,43,44)           120.7643         estimate D2E/DX2                !
 ! A124  A(42,43,74)           118.5528         estimate D2E/DX2                !
 ! A125  A(44,43,74)           120.6824         estimate D2E/DX2                !
 ! A126  A(43,44,45)           120.0122         estimate D2E/DX2                !
 ! A127  A(43,44,75)           120.4283         estimate D2E/DX2                !
 ! A128  A(45,44,75)           119.5588         estimate D2E/DX2                !
 ! A129  A(44,45,46)           120.618          estimate D2E/DX2                !
 ! A130  A(44,45,76)           119.3548         estimate D2E/DX2                !
 ! A131  A(46,45,76)           120.0271         estimate D2E/DX2                !
 ! A132  A(45,46,47)           120.7902         estimate D2E/DX2                !
 ! A133  A(45,46,77)           120.2937         estimate D2E/DX2                !
 ! A134  A(47,46,77)           118.9157         estimate D2E/DX2                !
 ! A135  A(12,47,42)           119.3808         estimate D2E/DX2                !
 ! A136  A(12,47,46)           122.117          estimate D2E/DX2                !
 ! A137  A(42,47,46)           118.5013         estimate D2E/DX2                !
 ! D1    D(48,1,2,3)          -173.7705         estimate D2E/DX2                !
 ! D2    D(48,1,2,11)            8.2605         estimate D2E/DX2                !
 ! D3    D(1,2,3,4)           -178.9504         estimate D2E/DX2                !
 ! D4    D(1,2,3,49)             0.2982         estimate D2E/DX2                !
 ! D5    D(11,2,3,4)            -0.9336         estimate D2E/DX2                !
 ! D6    D(11,2,3,49)          178.3151         estimate D2E/DX2                !
 ! D7    D(1,2,11,10)         -178.6956         estimate D2E/DX2                !
 ! D8    D(1,2,11,12)            3.1891         estimate D2E/DX2                !
 ! D9    D(3,2,11,10)            3.4106         estimate D2E/DX2                !
 ! D10   D(3,2,11,12)         -174.7047         estimate D2E/DX2                !
 ! D11   D(2,3,4,5)             -1.7503         estimate D2E/DX2                !
 ! D12   D(2,3,4,50)           178.8724         estimate D2E/DX2                !
 ! D13   D(49,3,4,5)           179.0339         estimate D2E/DX2                !
 ! D14   D(49,3,4,50)           -0.3434         estimate D2E/DX2                !
 ! D15   D(3,4,5,6)           -178.1669         estimate D2E/DX2                !
 ! D16   D(3,4,5,10)             1.8654         estimate D2E/DX2                !
 ! D17   D(50,4,5,6)             1.2205         estimate D2E/DX2                !
 ! D18   D(50,4,5,10)         -178.7472         estimate D2E/DX2                !
 ! D19   D(4,5,6,7)            178.548          estimate D2E/DX2                !
 ! D20   D(4,5,6,51)            -1.1566         estimate D2E/DX2                !
 ! D21   D(10,5,6,7)            -1.4843         estimate D2E/DX2                !
 ! D22   D(10,5,6,51)          178.8111         estimate D2E/DX2                !
 ! D23   D(4,5,10,9)          -179.1222         estimate D2E/DX2                !
 ! D24   D(4,5,10,11)            0.6292         estimate D2E/DX2                !
 ! D25   D(6,5,10,9)             0.9092         estimate D2E/DX2                !
 ! D26   D(6,5,10,11)         -179.3394         estimate D2E/DX2                !
 ! D27   D(5,6,7,8)              0.6747         estimate D2E/DX2                !
 ! D28   D(5,6,7,52)          -179.5174         estimate D2E/DX2                !
 ! D29   D(51,6,7,8)          -179.6271         estimate D2E/DX2                !
 ! D30   D(51,6,7,52)            0.1809         estimate D2E/DX2                !
 ! D31   D(6,7,8,9)              0.7274         estimate D2E/DX2                !
 ! D32   D(6,7,8,53)          -179.7671         estimate D2E/DX2                !
 ! D33   D(52,7,8,9)          -179.0827         estimate D2E/DX2                !
 ! D34   D(52,7,8,53)            0.4228         estimate D2E/DX2                !
 ! D35   D(7,8,9,10)            -1.2928         estimate D2E/DX2                !
 ! D36   D(7,8,9,54)           178.193          estimate D2E/DX2                !
 ! D37   D(53,8,9,10)          179.2052         estimate D2E/DX2                !
 ! D38   D(53,8,9,54)           -1.309          estimate D2E/DX2                !
 ! D39   D(8,9,10,5)             0.4586         estimate D2E/DX2                !
 ! D40   D(8,9,10,11)         -179.2863         estimate D2E/DX2                !
 ! D41   D(54,9,10,5)         -179.0339         estimate D2E/DX2                !
 ! D42   D(54,9,10,11)           1.2211         estimate D2E/DX2                !
 ! D43   D(5,10,11,2)           -3.2356         estimate D2E/DX2                !
 ! D44   D(5,10,11,12)         174.8814         estimate D2E/DX2                !
 ! D45   D(9,10,11,2)          176.5065         estimate D2E/DX2                !
 ! D46   D(9,10,11,12)          -5.3764         estimate D2E/DX2                !
 ! D47   D(2,11,12,13)         -71.5058         estimate D2E/DX2                !
 ! D48   D(2,11,12,47)         108.2692         estimate D2E/DX2                !
 ! D49   D(10,11,12,13)        110.392          estimate D2E/DX2                !
 ! D50   D(10,11,12,47)        -69.8329         estimate D2E/DX2                !
 ! D51   D(11,12,13,14)          2.2319         estimate D2E/DX2                !
 ! D52   D(11,12,13,15)       -178.3523         estimate D2E/DX2                !
 ! D53   D(47,12,13,14)       -177.5428         estimate D2E/DX2                !
 ! D54   D(47,12,13,15)          1.873          estimate D2E/DX2                !
 ! D55   D(11,12,47,42)        177.9759         estimate D2E/DX2                !
 ! D56   D(11,12,47,46)         -2.3763         estimate D2E/DX2                !
 ! D57   D(13,12,47,42)         -2.2483         estimate D2E/DX2                !
 ! D58   D(13,12,47,46)        177.3995         estimate D2E/DX2                !
 ! D59   D(12,13,14,55)       -160.5168         estimate D2E/DX2                !
 ! D60   D(15,13,14,55)         20.0682         estimate D2E/DX2                !
 ! D61   D(12,13,15,16)        179.8602         estimate D2E/DX2                !
 ! D62   D(12,13,15,41)          0.1428         estimate D2E/DX2                !
 ! D63   D(14,13,15,16)         -0.7341         estimate D2E/DX2                !
 ! D64   D(14,13,15,41)        179.5485         estimate D2E/DX2                !
 ! D65   D(13,15,16,17)        -47.7973         estimate D2E/DX2                !
 ! D66   D(13,15,16,56)         68.9544         estimate D2E/DX2                !
 ! D67   D(13,15,16,57)       -171.6571         estimate D2E/DX2                !
 ! D68   D(41,15,16,17)        131.9149         estimate D2E/DX2                !
 ! D69   D(41,15,16,56)       -111.3334         estimate D2E/DX2                !
 ! D70   D(41,15,16,57)          8.0551         estimate D2E/DX2                !
 ! D71   D(13,15,41,42)         -1.7936         estimate D2E/DX2                !
 ! D72   D(13,15,41,73)        179.081          estimate D2E/DX2                !
 ! D73   D(16,15,41,42)        178.4966         estimate D2E/DX2                !
 ! D74   D(16,15,41,73)         -0.6288         estimate D2E/DX2                !
 ! D75   D(15,16,17,18)        -70.7485         estimate D2E/DX2                !
 ! D76   D(56,16,17,18)        169.3617         estimate D2E/DX2                !
 ! D77   D(57,16,17,18)         52.8809         estimate D2E/DX2                !
 ! D78   D(16,17,18,19)        155.9429         estimate D2E/DX2                !
 ! D79   D(16,17,18,58)        -83.3551         estimate D2E/DX2                !
 ! D80   D(16,17,18,59)         36.4349         estimate D2E/DX2                !
 ! D81   D(17,18,19,20)         93.4258         estimate D2E/DX2                !
 ! D82   D(17,18,19,39)        -83.7034         estimate D2E/DX2                !
 ! D83   D(58,18,19,20)        -26.2338         estimate D2E/DX2                !
 ! D84   D(58,18,19,39)        156.6371         estimate D2E/DX2                !
 ! D85   D(59,18,19,20)       -146.9536         estimate D2E/DX2                !
 ! D86   D(59,18,19,39)         35.9173         estimate D2E/DX2                !
 ! D87   D(18,19,20,21)       -176.5715         estimate D2E/DX2                !
 ! D88   D(18,19,20,60)          2.8743         estimate D2E/DX2                !
 ! D89   D(39,19,20,21)          0.5236         estimate D2E/DX2                !
 ! D90   D(39,19,20,60)        179.9694         estimate D2E/DX2                !
 ! D91   D(18,19,39,27)        176.042          estimate D2E/DX2                !
 ! D92   D(18,19,39,40)         -4.9535         estimate D2E/DX2                !
 ! D93   D(20,19,39,27)         -1.1595         estimate D2E/DX2                !
 ! D94   D(20,19,39,40)        177.845          estimate D2E/DX2                !
 ! D95   D(19,20,21,22)       -179.9965         estimate D2E/DX2                !
 ! D96   D(19,20,21,26)          0.8288         estimate D2E/DX2                !
 ! D97   D(60,20,21,22)          0.5531         estimate D2E/DX2                !
 ! D98   D(60,20,21,26)       -178.6215         estimate D2E/DX2                !
 ! D99   D(20,21,22,23)       -178.6603         estimate D2E/DX2                !
 ! D100  D(20,21,22,61)          1.0774         estimate D2E/DX2                !
 ! D101  D(26,21,22,23)          0.5135         estimate D2E/DX2                !
 ! D102  D(26,21,22,61)       -179.7488         estimate D2E/DX2                !
 ! D103  D(20,21,26,25)        177.9372         estimate D2E/DX2                !
 ! D104  D(20,21,26,27)         -1.5548         estimate D2E/DX2                !
 ! D105  D(22,21,26,25)         -1.2597         estimate D2E/DX2                !
 ! D106  D(22,21,26,27)        179.2483         estimate D2E/DX2                !
 ! D107  D(21,22,23,24)          0.4387         estimate D2E/DX2                !
 ! D108  D(21,22,23,62)        179.9659         estimate D2E/DX2                !
 ! D109  D(61,22,23,24)       -179.2933         estimate D2E/DX2                !
 ! D110  D(61,22,23,62)          0.2339         estimate D2E/DX2                !
 ! D111  D(22,23,24,25)         -0.6322         estimate D2E/DX2                !
 ! D112  D(22,23,24,63)        179.1781         estimate D2E/DX2                !
 ! D113  D(62,23,24,25)        179.8362         estimate D2E/DX2                !
 ! D114  D(62,23,24,63)         -0.3534         estimate D2E/DX2                !
 ! D115  D(23,24,25,26)         -0.148          estimate D2E/DX2                !
 ! D116  D(23,24,25,64)        179.3997         estimate D2E/DX2                !
 ! D117  D(63,24,25,26)       -179.9573         estimate D2E/DX2                !
 ! D118  D(63,24,25,64)         -0.4095         estimate D2E/DX2                !
 ! D119  D(24,25,26,21)          1.0882         estimate D2E/DX2                !
 ! D120  D(24,25,26,27)       -179.4354         estimate D2E/DX2                !
 ! D121  D(64,25,26,21)       -178.4653         estimate D2E/DX2                !
 ! D122  D(64,25,26,27)          1.0111         estimate D2E/DX2                !
 ! D123  D(21,26,27,28)       -179.0509         estimate D2E/DX2                !
 ! D124  D(21,26,27,39)          0.9448         estimate D2E/DX2                !
 ! D125  D(25,26,27,28)          1.4757         estimate D2E/DX2                !
 ! D126  D(25,26,27,39)       -178.5286         estimate D2E/DX2                !
 ! D127  D(26,27,28,29)         72.6935         estimate D2E/DX2                !
 ! D128  D(26,27,28,38)       -105.7563         estimate D2E/DX2                !
 ! D129  D(39,27,28,29)       -107.3022         estimate D2E/DX2                !
 ! D130  D(39,27,28,38)         74.248          estimate D2E/DX2                !
 ! D131  D(26,27,39,19)          0.4119         estimate D2E/DX2                !
 ! D132  D(26,27,39,40)       -178.546          estimate D2E/DX2                !
 ! D133  D(28,27,39,19)       -179.5924         estimate D2E/DX2                !
 ! D134  D(28,27,39,40)          1.4497         estimate D2E/DX2                !
 ! D135  D(27,28,29,30)          2.196          estimate D2E/DX2                !
 ! D136  D(27,28,29,31)       -177.9011         estimate D2E/DX2                !
 ! D137  D(38,28,29,30)       -179.3411         estimate D2E/DX2                !
 ! D138  D(38,28,29,31)          0.5618         estimate D2E/DX2                !
 ! D139  D(27,28,38,33)        176.3128         estimate D2E/DX2                !
 ! D140  D(27,28,38,37)         -2.436          estimate D2E/DX2                !
 ! D141  D(29,28,38,33)         -2.1332         estimate D2E/DX2                !
 ! D142  D(29,28,38,37)        179.118          estimate D2E/DX2                !
 ! D143  D(28,29,30,65)         -3.1924         estimate D2E/DX2                !
 ! D144  D(31,29,30,65)        176.9015         estimate D2E/DX2                !
 ! D145  D(28,29,31,32)          1.1758         estimate D2E/DX2                !
 ! D146  D(28,29,31,66)       -179.7972         estimate D2E/DX2                !
 ! D147  D(30,29,31,32)       -178.9163         estimate D2E/DX2                !
 ! D148  D(30,29,31,66)          0.1107         estimate D2E/DX2                !
 ! D149  D(29,31,32,33)         -1.3011         estimate D2E/DX2                !
 ! D150  D(29,31,32,67)        178.6159         estimate D2E/DX2                !
 ! D151  D(66,31,32,33)        179.7146         estimate D2E/DX2                !
 ! D152  D(66,31,32,67)         -0.3684         estimate D2E/DX2                !
 ! D153  D(31,32,33,34)        179.1855         estimate D2E/DX2                !
 ! D154  D(31,32,33,38)         -0.298          estimate D2E/DX2                !
 ! D155  D(67,32,33,34)         -0.7328         estimate D2E/DX2                !
 ! D156  D(67,32,33,38)        179.7838         estimate D2E/DX2                !
 ! D157  D(32,33,34,35)        179.1934         estimate D2E/DX2                !
 ! D158  D(32,33,34,68)         -0.8445         estimate D2E/DX2                !
 ! D159  D(38,33,34,35)         -1.323          estimate D2E/DX2                !
 ! D160  D(38,33,34,68)        178.6391         estimate D2E/DX2                !
 ! D161  D(32,33,38,28)          2.0028         estimate D2E/DX2                !
 ! D162  D(32,33,38,37)       -179.2043         estimate D2E/DX2                !
 ! D163  D(34,33,38,28)       -177.4954         estimate D2E/DX2                !
 ! D164  D(34,33,38,37)          1.2975         estimate D2E/DX2                !
 ! D165  D(33,34,35,36)          0.1302         estimate D2E/DX2                !
 ! D166  D(33,34,35,69)        179.975          estimate D2E/DX2                !
 ! D167  D(68,34,35,36)       -179.831          estimate D2E/DX2                !
 ! D168  D(68,34,35,69)          0.0138         estimate D2E/DX2                !
 ! D169  D(34,35,36,37)          1.1037         estimate D2E/DX2                !
 ! D170  D(34,35,36,70)       -179.2034         estimate D2E/DX2                !
 ! D171  D(69,35,36,37)       -178.7427         estimate D2E/DX2                !
 ! D172  D(69,35,36,70)          0.9501         estimate D2E/DX2                !
 ! D173  D(35,36,37,38)         -1.1073         estimate D2E/DX2                !
 ! D174  D(35,36,37,71)        178.5664         estimate D2E/DX2                !
 ! D175  D(70,36,37,38)        179.201          estimate D2E/DX2                !
 ! D176  D(70,36,37,71)         -1.1252         estimate D2E/DX2                !
 ! D177  D(36,37,38,28)        178.654          estimate D2E/DX2                !
 ! D178  D(36,37,38,33)         -0.1016         estimate D2E/DX2                !
 ! D179  D(71,37,38,28)         -1.0218         estimate D2E/DX2                !
 ! D180  D(71,37,38,33)       -179.7774         estimate D2E/DX2                !
 ! D181  D(19,39,40,72)        173.6551         estimate D2E/DX2                !
 ! D182  D(27,39,40,72)         -7.3537         estimate D2E/DX2                !
 ! D183  D(15,41,42,43)       -178.595          estimate D2E/DX2                !
 ! D184  D(15,41,42,47)          1.3862         estimate D2E/DX2                !
 ! D185  D(73,41,42,43)          0.5396         estimate D2E/DX2                !
 ! D186  D(73,41,42,47)       -179.4791         estimate D2E/DX2                !
 ! D187  D(41,42,43,44)        179.4523         estimate D2E/DX2                !
 ! D188  D(41,42,43,74)         -0.2867         estimate D2E/DX2                !
 ! D189  D(47,42,43,44)         -0.5288         estimate D2E/DX2                !
 ! D190  D(47,42,43,74)        179.7322         estimate D2E/DX2                !
 ! D191  D(41,42,47,12)          0.6452         estimate D2E/DX2                !
 ! D192  D(41,42,47,46)       -179.0154         estimate D2E/DX2                !
 ! D193  D(43,42,47,12)       -179.3732         estimate D2E/DX2                !
 ! D194  D(43,42,47,46)          0.9663         estimate D2E/DX2                !
 ! D195  D(42,43,44,45)         -0.1905         estimate D2E/DX2                !
 ! D196  D(42,43,44,75)       -179.8789         estimate D2E/DX2                !
 ! D197  D(74,43,44,45)        179.5429         estimate D2E/DX2                !
 ! D198  D(74,43,44,75)         -0.1454         estimate D2E/DX2                !
 ! D199  D(43,44,45,46)          0.464          estimate D2E/DX2                !
 ! D200  D(43,44,45,76)       -179.3966         estimate D2E/DX2                !
 ! D201  D(75,44,45,46)       -179.8449         estimate D2E/DX2                !
 ! D202  D(75,44,45,76)          0.2945         estimate D2E/DX2                !
 ! D203  D(44,45,46,47)         -0.0012         estimate D2E/DX2                !
 ! D204  D(44,45,46,77)       -179.7619         estimate D2E/DX2                !
 ! D205  D(76,45,46,47)        179.8584         estimate D2E/DX2                !
 ! D206  D(76,45,46,77)          0.0977         estimate D2E/DX2                !
 ! D207  D(45,46,47,12)        179.6387         estimate D2E/DX2                !
 ! D208  D(45,46,47,42)         -0.7106         estimate D2E/DX2                !
 ! D209  D(77,46,47,12)         -0.5974         estimate D2E/DX2                !
 ! D210  D(77,46,47,42)        179.0534         estimate D2E/DX2                !
 --------------------------------------------------------------------------------
 Trust Radius=3.00D-01 FncErr=1.00D-07 GrdErr=1.00D-06 EigMax=2.50D+02 EigMin=1.00D-04
 Number of steps in this run=    441 maximum allowed number of steps=    462.
 GradGradGradGradGradGradGradGradGradGradGradGradGradGradGradGradGradGrad

 Leave Link  103 at Sun Feb 25 04:16:32 2024, MaxMem=  7516192768 cpu:               4.7 elap:               0.1
 (Enter /public/apps/g16-C01//g16/l202.exe)
 Symmetry turned off by external request.
 Stoichiometry    C42H30O5
 Framework group  C1[X(C42H30O5)]
 Deg. of freedom   225
 Full point group                 C1      NOp   1
                          Input orientation:                          
 ---------------------------------------------------------------------
 Center     Atomic      Atomic             Coordinates (Angstroms)
 Number     Number       Type             X           Y           Z
 ---------------------------------------------------------------------
      1          8           0       -3.550085   -1.280252    2.449914
      2          6           0       -3.358918   -0.283319    1.549556
      3          6           0       -3.927701    0.967818    1.859867
      4          6           0       -3.802077    2.017451    1.001129
      5          6           0       -3.070389    1.885302   -0.197346
      6          6           0       -2.894053    2.966277   -1.083265
      7          6           0       -2.157204    2.827571   -2.225662
      8          6           0       -1.575532    1.590539   -2.536345
      9          6           0       -1.751401    0.513917   -1.711778
     10          6           0       -2.497393    0.627742   -0.518119
     11          6           0       -2.681587   -0.470270    0.361072
     12          6           0       -2.186378   -1.818015   -0.014086
     13          6           0       -1.114656   -2.378433    0.656610
     14          8           0       -0.556774   -1.695229    1.689507
     15          6           0       -0.615330   -3.651716    0.278823
     16          6           0        0.559080   -4.227362    1.034984
     17          8           0        1.616661   -3.298055    1.195452
     18          6           0        2.310455   -3.009447   -0.014338
     19          6           0        2.953528   -1.659320    0.128083
     20          6           0        4.241771   -1.512225    0.559915
     21          6           0        4.811058   -0.238492    0.757540
     22          6           0        6.139024   -0.079120    1.202655
     23          6           0        6.662214    1.165651    1.413631
     24          6           0        5.873925    2.305579    1.196398
     25          6           0        4.583855    2.185903    0.760970
     26          6           0        4.018966    0.914983    0.517947
     27          6           0        2.686640    0.756863    0.054276
     28          6           0        1.843157    1.949815   -0.224398
     29          6           0        2.102655    2.722222   -1.339852
     30          8           0        3.082481    2.410308   -2.230062
     31          6           0        1.345886    3.880750   -1.600295
     32          6           0        0.362237    4.266976   -0.739911
     33          6           0        0.062000    3.506680    0.409401
     34          6           0       -0.939366    3.898164    1.319421
     35          6           0       -1.225291    3.138087    2.418242
     36          6           0       -0.517240    1.951782    2.655188
     37          6           0        0.477107    1.556561    1.805787
     38          6           0        0.796682    2.319311    0.662105
     39          6           0        2.169870   -0.508969   -0.139517
     40          8           0        0.913776   -0.706705   -0.608104
     41          6           0       -1.197138   -4.327005   -0.757895
     42          6           0       -2.311637   -3.804247   -1.442467
     43          6           0       -2.933425   -4.509473   -2.492911
     44          6           0       -4.020492   -3.989232   -3.136628
     45          6           0       -4.533090   -2.741180   -2.751830
     46          6           0       -3.949184   -2.030525   -1.740907
     47          6           0       -2.819138   -2.535065   -1.062085
     48          1           0       -3.037315   -2.053054    2.180436
     49          1           0       -4.470112    1.053348    2.788383
     50          1           0       -4.254241    2.970708    1.232307
     51          1           0       -3.352190    3.913417   -0.836423
     52          1           0       -2.019891    3.662710   -2.896161
     53          1           0       -0.991495    1.491281   -3.439777
     54          1           0       -1.325279   -0.444185   -1.970864
     55          1           0        0.336266   -2.051720    1.840188
     56          1           0        0.259172   -4.490638    2.056717
     57          1           0        0.919181   -5.136703    0.535938
     58          1           0        3.066731   -3.786570   -0.191652
     59          1           0        1.603965   -2.993962   -0.852814
     60          1           0        4.840212   -2.387738    0.764785
     61          1           0        6.733855   -0.964011    1.377805
     62          1           0        7.680167    1.280216    1.755189
     63          1           0        6.293925    3.283488    1.379240
     64          1           0        3.978049    3.066428    0.604517
     65          1           0        3.561794    1.628813   -1.922348
     66          1           0        1.585448    4.447631   -2.485877
     67          1           0       -0.202860    5.167607   -0.928383
     68          1           0       -1.476958    4.815773    1.128404
     69          1           0       -1.993908    3.444835    3.111490
     70          1           0       -0.758638    1.351139    3.518648
     71          1           0        1.032031    0.653256    2.009828
     72          1           0        0.439804    0.137496   -0.659801
     73          1           0       -0.808633   -5.290905   -1.057038
     74          1           0       -2.534081   -5.473287   -2.775570
     75          1           0       -4.493828   -4.535075   -3.939405
     76          1           0       -5.398808   -2.344415   -3.261420
     77          1           0       -4.350260   -1.072463   -1.446526
 ---------------------------------------------------------------------
 Rotational constants (GHZ):           0.1047628           0.0680773           0.0522215
 Leave Link  202 at Sun Feb 25 04:16:32 2024, MaxMem=  7516192768 cpu:               1.3 elap:               0.1
 (Enter /public/apps/g16-C01//g16/l301.exe)
 Standard basis: def2SVPP (5D, 7F)
 Ernie: Thresh=  0.10000D-02 Tol=  0.10000D-05 Strict=F.
   718 basis functions,  1295 primitive gaussians,   765 cartesian basis functions
   161 alpha electrons      161 beta electrons
       nuclear repulsion energy      6032.9363009305 Hartrees.
 IExCor=  402 DFT=T Ex+Corr=B3LYP ExCW=0 ScaHFX=  0.200000
 ScaDFX=  0.800000  0.720000  1.000000  0.810000 ScalE2=  1.000000  1.000000
 IRadAn=      5 IRanWt=     -1 IRanGd=            0 ICorTp=0 IEmpDi=141
 NAtoms=   77 NActive=   77 NUniq=   77 SFac= 1.00D+00 NAtFMM=   60 NAOKFM=T Big=T
 Integral buffers will be    131072 words long.
 Raffenetti 2 integral format.
 Two-electron integral symmetry is turned off.
 R6Disp:  Grimme-D3(BJ) Dispersion energy=       -0.2364193473 Hartrees.
 Nuclear repulsion after empirical dispersion term =     6032.6998815832 Hartrees.
 Leave Link  301 at Sun Feb 25 04:16:32 2024, MaxMem=  7516192768 cpu:               2.1 elap:               0.1
 (Enter /public/apps/g16-C01//g16/l302.exe)
 NPDir=0 NMtPBC=     1 NCelOv=     1 NCel=       1 NClECP=     1 NCelD=      1
         NCelK=      1 NCelE2=     1 NClLst=     1 CellRange=     0.0.
 One-electron integrals computed using PRISM.
   1 Symmetry operations used in ECPInt.
 ECPInt:  NShTT=   58653 NPrTT=  234971 LenC2=   50269 LenP2D=  125631.
 LDataN:  DoStor=T MaxTD1= 4 Len=   56
 NBasis=   718 RedAO= T EigKep=  1.45D-04  NBF=   718
 NBsUse=   718 1.00D-06 EigRej= -1.00D+00 NBFU=   718
 Precomputing XC quadrature grid using
 IXCGrd= 4 IRadAn=           5 IRanWt=          -1 IRanGd=           0 AccXCQ= 0.00D+00.
 Generated NRdTot=       0 NPtTot=           0 NUsed=           0 NTot=          32
 NSgBfM=   751   751   751   751   751 MxSgAt=    77 MxSgA2=    77.
 Leave Link  302 at Sun Feb 25 04:16:35 2024, MaxMem=  7516192768 cpu:             110.8 elap:               2.9
 (Enter /public/apps/g16-C01//g16/l303.exe)
 DipDrv:  MaxL=1.
 Leave Link  303 at Sun Feb 25 04:16:38 2024, MaxMem=  7516192768 cpu:               9.2 elap:               0.3
 (Enter /public/apps/g16-C01//g16/l401.exe)
 ExpMin= 1.22D-01 ExpMax= 2.27D+03 ExpMxC= 3.41D+02 IAcc=3 IRadAn=         5 AccDes= 0.00D+00
 Harris functional with IExCor=  402 and IRadAn=       5 diagonalized for initial guess.
 HarFok:  IExCor=  402 AccDes= 0.00D+00 IRadAn=         5 IDoV= 1 UseB2=F ITyADJ=14
 ICtDFT=  3500011 ScaDFX=  1.000000  1.000000  1.000000  1.000000
 FoFCou: FMM=F IPFlag=           0 FMFlag=      100000 FMFlg1=        2001
         NFxFlg=           0 DoJE=T BraDBF=F KetDBF=T FulRan=T
         wScrn=  0.000000 ICntrl=       500 IOpCl=  0 I1Cent=   200000004 NGrid=           0
         NMat0=    1 NMatS0=      1 NMatT0=    0 NMatD0=    1 NMtDS0=    0 NMtDT0=    0
 Symmetry not used in FoFCou.
 Harris En= -1993.34614516349    
 JPrj=0 DoOrth=F DoCkMO=F.
 Leave Link  401 at Sun Feb 25 04:16:40 2024, MaxMem=  7516192768 cpu:              83.5 elap:               2.2
 (Enter /public/apps/g16-C01//g16/l502.exe)
 Two-electron integral symmetry not used.
 Closed shell SCF:
 Using DIIS extrapolation, IDIIS=  1040.
 NGot=  7516192768 LenX=  7514983569 LenY=  7514397579
 Requested convergence on RMS density matrix=1.00D-08 within 128 cycles.
 Requested convergence on MAX density matrix=1.00D-06.
 Requested convergence on             energy=1.00D-06.
 No special actions if energy rises.
 Fock matrices will be formed incrementally for  20 cycles.
 Integral accuracy reduced to 1.0D-05 until final iterations.

 Cycle   1  Pass 0  IDiag  1:
 FoFJK:  IHMeth= 1 ICntrl=       0 DoSepK=F KAlg= 0 I1Cent=           0 FoldK=F
 IRaf= 990000000 NMat=       1 IRICut=       1 DoRegI=T DoRafI=F ISym2E= 0 IDoP0=0 IntGTp=1.
 FoFCou: FMM=T IPFlag=           0 FMFlag=      100000 FMFlg1=        2001
         NFxFlg=           0 DoJE=F BraDBF=F KetDBF=F FulRan=T
         wScrn=  0.000000 ICntrl=         0 IOpCl=  0 I1Cent=           0 NGrid=           0
         NMat0=    1 NMatS0=      1 NMatT0=    0 NMatD0=    1 NMtDS0=    0 NMtDT0=    0
 Symmetry not used in FoFCou.
 FMM levels:  10  Number of levels for PrismC:   9
 E= -1992.52478166808    
 DIIS: error= 1.74D-02 at cycle   1 NSaved=   1.
 NSaved= 1 IEnMin= 1 EnMin= -1992.52478166808     IErMin= 1 ErrMin= 1.74D-02
 ErrMax= 1.74D-02  0.00D+00 EMaxC= 1.00D-01 BMatC= 7.80D-01 BMatP= 7.80D-01
 IDIUse=3 WtCom= 8.26D-01 WtEn= 1.74D-01
 Coeff-Com:  0.100D+01
 Coeff-En:   0.100D+01
 Coeff:      0.100D+01
 Gap=     0.161 Goal=   None    Shift=    0.000
 GapD=    0.161 DampG=1.000 DampE=0.500 DampFc=0.5000 IDamp=-1.
 Damping current iteration by 5.00D-01
 RMSDP=5.02D-03 MaxDP=1.63D-01              OVMax= 1.77D-01

 Cycle   2  Pass 0  IDiag  1:
 RMSU=  2.23D-03    CP:  9.32D-01
 E= -1992.92621426048     Delta-E=       -0.401432592398 Rises=F Damp=T
 DIIS: error= 3.49D-03 at cycle   2 NSaved=   2.
 NSaved= 2 IEnMin= 2 EnMin= -1992.92621426048     IErMin= 2 ErrMin= 3.49D-03
 ErrMax= 3.49D-03  0.00D+00 EMaxC= 1.00D-01 BMatC= 4.66D-02 BMatP= 7.80D-01
 IDIUse=3 WtCom= 9.65D-01 WtEn= 3.49D-02
 Coeff-Com:  0.266D-01 0.973D+00
 Coeff-En:   0.296D-01 0.970D+00
 Coeff:      0.267D-01 0.973D+00
 Gap=     0.169 Goal=   None    Shift=    0.000
 RMSDP=1.94D-03 MaxDP=1.02D-01 DE=-4.01D-01 OVMax= 1.69D-01

 Cycle   3  Pass 0  IDiag  1:
 RMSU=  1.72D-03    CP:  8.82D-01  1.15D+00
 E= -1993.31961319441     Delta-E=       -0.393398933933 Rises=F Damp=F
 DIIS: error= 6.60D-03 at cycle   3 NSaved=   3.
 NSaved= 3 IEnMin= 3 EnMin= -1993.31961319441     IErMin= 2 ErrMin= 3.49D-03
 ErrMax= 6.60D-03  0.00D+00 EMaxC= 1.00D-01 BMatC= 6.80D-02 BMatP= 4.66D-02
 IDIUse=3 WtCom= 1.10D-01 WtEn= 8.90D-01
 Coeff-Com: -0.365D-01 0.572D+00 0.464D+00
 Coeff-En:   0.000D+00 0.000D+00 0.100D+01
 Coeff:     -0.400D-02 0.627D-01 0.941D+00
 Gap=     0.160 Goal=   None    Shift=    0.000
 RMSDP=1.72D-03 MaxDP=6.77D-02 DE=-3.93D-01 OVMax= 1.76D-01

 Cycle   4  Pass 0  IDiag  1:
 RMSU=  1.23D-03    CP:  8.79D-01  1.39D+00  3.77D-01
 E= -1993.09354620631     Delta-E=        0.226066988103 Rises=F Damp=F
 DIIS: error= 1.33D-02 at cycle   4 NSaved=   4.
 NSaved= 4 IEnMin= 3 EnMin= -1993.31961319441     IErMin= 2 ErrMin= 3.49D-03
 ErrMax= 1.33D-02  0.00D+00 EMaxC= 1.00D-01 BMatC= 2.61D-01 BMatP= 4.66D-02
 IDIUse=2 WtCom= 0.00D+00 WtEn= 1.00D+00
 Coeff-En:   0.000D+00 0.000D+00 0.741D+00 0.259D+00
 Coeff:      0.000D+00 0.000D+00 0.741D+00 0.259D+00
 Gap=     0.147 Goal=   None    Shift=    0.000
 RMSDP=9.01D-04 MaxDP=4.92D-02 DE= 2.26D-01 OVMax= 1.00D-01

 Cycle   5  Pass 0  IDiag  1:
 RMSU=  2.60D-04    CP:  8.78D-01  1.29D+00  6.87D-01  4.87D-01
 E= -1993.38048920772     Delta-E=       -0.286943001411 Rises=F Damp=F
 DIIS: error= 2.86D-03 at cycle   5 NSaved=   5.
 NSaved= 5 IEnMin= 5 EnMin= -1993.38048920772     IErMin= 5 ErrMin= 2.86D-03
 ErrMax= 2.86D-03  0.00D+00 EMaxC= 1.00D-01 BMatC= 1.56D-02 BMatP= 4.66D-02
 IDIUse=3 WtCom= 9.71D-01 WtEn= 2.86D-02
 Coeff-Com:  0.604D-02 0.178D-01 0.380D+00 0.652D-01 0.531D+00
 Coeff-En:   0.000D+00 0.000D+00 0.227D+00 0.000D+00 0.773D+00
 Coeff:      0.587D-02 0.173D-01 0.375D+00 0.633D-01 0.538D+00
 Gap=     0.146 Goal=   None    Shift=    0.000
 RMSDP=2.90D-04 MaxDP=1.30D-02 DE=-2.87D-01 OVMax= 2.95D-02

 Cycle   6  Pass 0  IDiag  1:
 RMSU=  9.94D-05    CP:  8.78D-01  1.24D+00  7.94D-01  3.56D-01  6.95D-01
 E= -1993.39745164480     Delta-E=       -0.016962437078 Rises=F Damp=F
 DIIS: error= 4.74D-04 at cycle   6 NSaved=   6.
 NSaved= 6 IEnMin= 6 EnMin= -1993.39745164480     IErMin= 6 ErrMin= 4.74D-04
 ErrMax= 4.74D-04  0.00D+00 EMaxC= 1.00D-01 BMatC= 4.40D-04 BMatP= 1.56D-02
 IDIUse=3 WtCom= 9.95D-01 WtEn= 4.74D-03
 Coeff-Com:  0.319D-02-0.989D-02 0.123D+00-0.214D-01 0.369D+00 0.535D+00
 Coeff-En:   0.000D+00 0.000D+00 0.000D+00 0.000D+00 0.000D+00 0.100D+01
 Coeff:      0.317D-02-0.984D-02 0.123D+00-0.213D-01 0.368D+00 0.537D+00
 Gap=     0.145 Goal=   None    Shift=    0.000
 RMSDP=5.48D-05 MaxDP=2.80D-03 DE=-1.70D-02 OVMax= 7.24D-03

 Cycle   7  Pass 0  IDiag  1:
 RMSU=  4.11D-05    CP:  8.78D-01  1.25D+00  7.92D-01  3.53D-01  7.76D-01
                    CP:  7.11D-01
 E= -1993.39796968549     Delta-E=       -0.000518040688 Rises=F Damp=F
 DIIS: error= 1.96D-04 at cycle   7 NSaved=   7.
 NSaved= 7 IEnMin= 7 EnMin= -1993.39796968549     IErMin= 7 ErrMin= 1.96D-04
 ErrMax= 1.96D-04  0.00D+00 EMaxC= 1.00D-01 BMatC= 5.20D-05 BMatP= 4.40D-04
 IDIUse=3 WtCom= 9.98D-01 WtEn= 1.96D-03
 Coeff-Com:  0.139D-02-0.584D-02 0.539D-01-0.207D-01 0.207D+00 0.359D+00
 Coeff-Com:  0.406D+00
 Coeff-En:   0.000D+00 0.000D+00 0.000D+00 0.000D+00 0.000D+00 0.000D+00
 Coeff-En:   0.100D+01
 Coeff:      0.138D-02-0.583D-02 0.538D-01-0.207D-01 0.207D+00 0.358D+00
 Coeff:      0.407D+00
 Gap=     0.145 Goal=   None    Shift=    0.000
 RMSDP=2.35D-05 MaxDP=1.95D-03 DE=-5.18D-04 OVMax= 2.32D-03

 Cycle   8  Pass 0  IDiag  1:
 RMSU=  2.22D-05    CP:  8.78D-01  1.24D+00  7.94D-01  3.51D-01  7.59D-01
                    CP:  7.25D-01  8.94D-01
 E= -1993.39804328508     Delta-E=       -0.000073599591 Rises=F Damp=F
 DIIS: error= 3.69D-05 at cycle   8 NSaved=   8.
 NSaved= 8 IEnMin= 8 EnMin= -1993.39804328508     IErMin= 8 ErrMin= 3.69D-05
 ErrMax= 3.69D-05  0.00D+00 EMaxC= 1.00D-01 BMatC= 2.39D-06 BMatP= 5.20D-05
 IDIUse=1 WtCom= 1.00D+00 WtEn= 0.00D+00
 Coeff-Com:  0.498D-03-0.221D-02 0.192D-01-0.103D-01 0.836D-01 0.150D+00
 Coeff-Com:  0.223D+00 0.536D+00
 Coeff:      0.498D-03-0.221D-02 0.192D-01-0.103D-01 0.836D-01 0.150D+00
 Coeff:      0.223D+00 0.536D+00
 Gap=     0.145 Goal=   None    Shift=    0.000
 RMSDP=1.89D-05 MaxDP=5.94D-04 DE=-7.36D-05 OVMax= 5.69D-04

 Cycle   9  Pass 0  IDiag  1:
 RMSU=  1.48D-05    CP:  8.78D-01  1.25D+00  7.95D-01  3.52D-01  7.62D-01
                    CP:  7.28D-01  1.06D+00  1.41D+00
 E= -1993.39803809307     Delta-E=        0.000005192011 Rises=F Damp=F
 DIIS: error= 2.29D-05 at cycle   9 NSaved=   9.
 NSaved= 9 IEnMin= 8 EnMin= -1993.39804328508     IErMin= 9 ErrMin= 2.29D-05
 ErrMax= 2.29D-05  0.00D+00 EMaxC= 1.00D-01 BMatC= 5.88D-07 BMatP= 2.39D-06
 IDIUse=1 WtCom= 1.00D+00 WtEn= 0.00D+00
 Coeff-Com:  0.182D-03-0.831D-03 0.714D-02-0.478D-02 0.339D-01 0.616D-01
 Coeff-Com:  0.103D+00 0.350D+00 0.450D+00
 Coeff:      0.182D-03-0.831D-03 0.714D-02-0.478D-02 0.339D-01 0.616D-01
 Coeff:      0.103D+00 0.350D+00 0.450D+00
 Gap=     0.145 Goal=   None    Shift=    0.000
 RMSDP=1.94D-05 MaxDP=5.59D-04 DE= 5.19D-06 OVMax= 1.84D-04

 Cycle  10  Pass 0  IDiag  1:
 RMSU=  8.39D-06    CP:  8.78D-01  1.25D+00  7.97D-01  3.53D-01  7.65D-01
                    CP:  7.42D-01  1.20D+00  1.87D+00  1.83D+00
 E= -1993.39802669525     Delta-E=        0.000011397815 Rises=F Damp=F
 DIIS: error= 3.04D-05 at cycle  10 NSaved=  10.
 NSaved=10 IEnMin= 8 EnMin= -1993.39804328508     IErMin= 9 ErrMin= 2.29D-05
 ErrMax= 3.04D-05  0.00D+00 EMaxC= 1.00D-01 BMatC= 5.29D-07 BMatP= 5.88D-07
 IDIUse=1 WtCom= 1.00D+00 WtEn= 0.00D+00
 Coeff-Com:  0.196D-03-0.871D-03 0.759D-02-0.519D-02 0.364D-01 0.662D-01
 Coeff-Com:  0.113D+00 0.395D+00 0.548D+00-0.160D+00
 Coeff:      0.196D-03-0.871D-03 0.759D-02-0.519D-02 0.364D-01 0.662D-01
 Coeff:      0.113D+00 0.395D+00 0.548D+00-0.160D+00
 Gap=     0.145 Goal=   None    Shift=    0.000
 RMSDP=7.27D-06 MaxDP=1.88D-04 DE= 1.14D-05 OVMax= 2.41D-05

 Initial convergence to 1.0D-05 achieved.  Increase integral accuracy.
 Cycle  11  Pass 1  IDiag  1:
 E= -1993.39713751109     Delta-E=        0.000889184168 Rises=F Damp=F
 DIIS: error= 7.73D-04 at cycle   1 NSaved=   1.
 NSaved= 1 IEnMin= 1 EnMin= -1993.39713751109     IErMin= 1 ErrMin= 7.73D-04
 ErrMax= 7.73D-04  0.00D+00 EMaxC= 1.00D-01 BMatC= 2.82D-04 BMatP= 2.82D-04
 IDIUse=3 WtCom= 9.92D-01 WtEn= 7.73D-03
 Coeff-Com:  0.100D+01
 Coeff-En:   0.100D+01
 Coeff:      0.100D+01
 Gap=     0.145 Goal=   None    Shift=    0.000
 RMSDP=7.27D-06 MaxDP=1.88D-04 DE= 8.89D-04 OVMax= 2.34D-03

 Cycle  12  Pass 1  IDiag  1:
 RMSU=  9.52D-04    CP:  9.95D-01
 E= -1993.39745101043     Delta-E=       -0.000313499348 Rises=F Damp=F
 DIIS: error= 1.40D-05 at cycle   2 NSaved=   2.
 NSaved= 2 IEnMin= 2 EnMin= -1993.39745101043     IErMin= 2 ErrMin= 1.40D-05
 ErrMax= 1.40D-05  0.00D+00 EMaxC= 1.00D-01 BMatC= 2.63D-07 BMatP= 2.82D-04
 IDIUse=1 WtCom= 1.00D+00 WtEn= 0.00D+00
 Coeff-Com: -0.869D-02 0.101D+01
 Coeff:     -0.869D-02 0.101D+01
 Gap=     0.145 Goal=   None    Shift=    0.000
 RMSDP=1.24D-05 MaxDP=3.75D-04 DE=-3.13D-04 OVMax= 4.04D-04

 Cycle  13  Pass 1  IDiag  1:
 RMSU=  4.77D-06    CP:  9.95D-01  1.01D+00
 E= -1993.39745007821     Delta-E=        0.000000932224 Rises=F Damp=F
 DIIS: error= 2.91D-05 at cycle   3 NSaved=   3.
 NSaved= 3 IEnMin= 2 EnMin= -1993.39745101043     IErMin= 2 ErrMin= 1.40D-05
 ErrMax= 2.91D-05  0.00D+00 EMaxC= 1.00D-01 BMatC= 1.13D-06 BMatP= 2.63D-07
 IDIUse=1 WtCom= 1.00D+00 WtEn= 0.00D+00
 Coeff-Com: -0.680D-02 0.694D+00 0.313D+00
 Coeff:     -0.680D-02 0.694D+00 0.313D+00
 Gap=     0.145 Goal=   None    Shift=    0.000
 RMSDP=2.42D-06 MaxDP=1.56D-04 DE= 9.32D-07 OVMax= 2.99D-04

 Cycle  14  Pass 1  IDiag  1:
 RMSU=  1.80D-06    CP:  9.95D-01  1.01D+00  6.63D-01
 E= -1993.39745131853     Delta-E=       -0.000001240318 Rises=F Damp=F
 DIIS: error= 2.46D-06 at cycle   4 NSaved=   4.
 NSaved= 4 IEnMin= 4 EnMin= -1993.39745131853     IErMin= 4 ErrMin= 2.46D-06
 ErrMax= 2.46D-06  0.00D+00 EMaxC= 1.00D-01 BMatC= 1.01D-08 BMatP= 2.63D-07
 IDIUse=1 WtCom= 1.00D+00 WtEn= 0.00D+00
 Coeff-Com: -0.313D-02 0.316D+00 0.160D+00 0.528D+00
 Coeff:     -0.313D-02 0.316D+00 0.160D+00 0.528D+00
 Gap=     0.145 Goal=   None    Shift=    0.000
 RMSDP=3.64D-07 MaxDP=1.85D-05 DE=-1.24D-06 OVMax= 3.92D-05

 Cycle  15  Pass 1  IDiag  1:
 RMSU=  3.39D-07    CP:  9.95D-01  1.01D+00  6.83D-01  9.58D-01
 E= -1993.39745132651     Delta-E=       -0.000000007979 Rises=F Damp=F
 DIIS: error= 1.57D-06 at cycle   5 NSaved=   5.
 NSaved= 5 IEnMin= 5 EnMin= -1993.39745132651     IErMin= 5 ErrMin= 1.57D-06
 ErrMax= 1.57D-06  0.00D+00 EMaxC= 1.00D-01 BMatC= 2.69D-09 BMatP= 1.01D-08
 IDIUse=1 WtCom= 1.00D+00 WtEn= 0.00D+00
 Coeff-Com: -0.588D-03 0.574D-01 0.379D-01 0.349D+00 0.556D+00
 Coeff:     -0.588D-03 0.574D-01 0.379D-01 0.349D+00 0.556D+00
 Gap=     0.145 Goal=   None    Shift=    0.000
 RMSDP=1.54D-07 MaxDP=1.35D-05 DE=-7.98D-09 OVMax= 1.85D-05

 Cycle  16  Pass 1  IDiag  1:
 RMSU=  1.06D-07    CP:  9.95D-01  1.01D+00  6.86D-01  9.73D-01  6.90D-01
 E= -1993.39745132885     Delta-E=       -0.000000002346 Rises=F Damp=F
 DIIS: error= 4.78D-07 at cycle   6 NSaved=   6.
 NSaved= 6 IEnMin= 6 EnMin= -1993.39745132885     IErMin= 6 ErrMin= 4.78D-07
 ErrMax= 4.78D-07  0.00D+00 EMaxC= 1.00D-01 BMatC= 4.68D-10 BMatP= 2.69D-09
 IDIUse=1 WtCom= 1.00D+00 WtEn= 0.00D+00
 Coeff-Com: -0.259D-04 0.132D-02 0.656D-02 0.170D+00 0.370D+00 0.452D+00
 Coeff:     -0.259D-04 0.132D-02 0.656D-02 0.170D+00 0.370D+00 0.452D+00
 Gap=     0.145 Goal=   None    Shift=    0.000
 RMSDP=5.42D-08 MaxDP=2.93D-06 DE=-2.35D-09 OVMax= 6.16D-06

 Cycle  17  Pass 1  IDiag  1:
 RMSU=  2.80D-08    CP:  9.95D-01  1.01D+00  6.87D-01  9.76D-01  7.04D-01
                    CP:  5.77D-01
 E= -1993.39745132930     Delta-E=       -0.000000000450 Rises=F Damp=F
 DIIS: error= 1.42D-07 at cycle   7 NSaved=   7.
 NSaved= 7 IEnMin= 7 EnMin= -1993.39745132930     IErMin= 7 ErrMin= 1.42D-07
 ErrMax= 1.42D-07  0.00D+00 EMaxC= 1.00D-01 BMatC= 3.31D-11 BMatP= 4.68D-10
 IDIUse=1 WtCom= 1.00D+00 WtEn= 0.00D+00
 Coeff-Com:  0.200D-04-0.273D-02 0.186D-02 0.883D-01 0.204D+00 0.288D+00
 Coeff-Com:  0.421D+00
 Coeff:      0.200D-04-0.273D-02 0.186D-02 0.883D-01 0.204D+00 0.288D+00
 Coeff:      0.421D+00
 Gap=     0.145 Goal=   None    Shift=    0.000
 RMSDP=1.48D-08 MaxDP=7.57D-07 DE=-4.50D-10 OVMax= 2.20D-06

 Cycle  18  Pass 1  IDiag  1:
 RMSU=  1.09D-08    CP:  9.95D-01  1.01D+00  6.88D-01  9.76D-01  6.96D-01
                    CP:  5.95D-01  6.66D-01
 E= -1993.39745132934     Delta-E=       -0.000000000042 Rises=F Damp=F
 DIIS: error= 4.14D-08 at cycle   8 NSaved=   8.
 NSaved= 8 IEnMin= 8 EnMin= -1993.39745132934     IErMin= 8 ErrMin= 4.14D-08
 ErrMax= 4.14D-08  0.00D+00 EMaxC= 1.00D-01 BMatC= 2.80D-12 BMatP= 3.31D-11
 IDIUse=1 WtCom= 1.00D+00 WtEn= 0.00D+00
 Coeff-Com:  0.157D-04-0.186D-02 0.255D-03 0.322D-01 0.783D-01 0.117D+00
 Coeff-Com:  0.263D+00 0.512D+00
 Coeff:      0.157D-04-0.186D-02 0.255D-03 0.322D-01 0.783D-01 0.117D+00
 Coeff:      0.263D+00 0.512D+00
 Gap=     0.145 Goal=   None    Shift=    0.000
 RMSDP=4.85D-09 MaxDP=3.40D-07 DE=-4.18D-11 OVMax= 6.36D-07

 SCF Done:  E(RB3LYP) =  -1993.39745133     A.U. after   18 cycles
            NFock= 18  Conv=0.48D-08     -V/T= 2.0092
 KE= 1.975172173284D+03 PE=-1.669670372278D+04 EE= 6.695434216586D+03
 Leave Link  502 at Sun Feb 25 04:18:13 2024, MaxMem=  7516192768 cpu:            3608.5 elap:              91.8
 (Enter /public/apps/g16-C01//g16/l601.exe)
 Copying SCF densities to generalized density rwf, IOpCl= 0 IROHF=0.

 **********************************************************************

            Population analysis using the SCF Density.

 **********************************************************************

 Alpha  occ. eigenvalues --  -19.16618 -19.16092 -19.15929 -19.15533 -19.15068
 Alpha  occ. eigenvalues --  -10.25742 -10.25176 -10.24926 -10.24881 -10.24162
 Alpha  occ. eigenvalues --  -10.24101 -10.20310 -10.20128 -10.19961 -10.19822
 Alpha  occ. eigenvalues --  -10.19771 -10.19721 -10.19575 -10.19544 -10.19345
 Alpha  occ. eigenvalues --  -10.19246 -10.19088 -10.19059 -10.19033 -10.18928
 Alpha  occ. eigenvalues --  -10.18876 -10.18819 -10.18673 -10.18576 -10.18566
 Alpha  occ. eigenvalues --  -10.18535 -10.18334 -10.18274 -10.18261 -10.18255
 Alpha  occ. eigenvalues --  -10.18235 -10.18222 -10.18013 -10.17971 -10.17910
 Alpha  occ. eigenvalues --  -10.17890 -10.17704 -10.17689 -10.17623 -10.17585
 Alpha  occ. eigenvalues --  -10.17568 -10.17506  -1.06479  -1.05699  -1.05184
 Alpha  occ. eigenvalues --   -1.04550  -1.03961  -0.88457  -0.88023  -0.87040
 Alpha  occ. eigenvalues --   -0.86540  -0.83216  -0.82441  -0.81730  -0.81323
 Alpha  occ. eigenvalues --   -0.80065  -0.79490  -0.76803  -0.75996  -0.75356
 Alpha  occ. eigenvalues --   -0.74806  -0.73434  -0.73091  -0.72717  -0.72602
 Alpha  occ. eigenvalues --   -0.71412  -0.70311  -0.69903  -0.66390  -0.65204
 Alpha  occ. eigenvalues --   -0.64191  -0.63099  -0.62246  -0.61612  -0.61227
 Alpha  occ. eigenvalues --   -0.60916  -0.60774  -0.60552  -0.59915  -0.58218
 Alpha  occ. eigenvalues --   -0.57807  -0.56006  -0.55853  -0.55075  -0.54478
 Alpha  occ. eigenvalues --   -0.53488  -0.52747  -0.52298  -0.51609  -0.51378
 Alpha  occ. eigenvalues --   -0.51171  -0.50620  -0.50215  -0.49218  -0.48404
 Alpha  occ. eigenvalues --   -0.47432  -0.46530  -0.45919  -0.45669  -0.45487
 Alpha  occ. eigenvalues --   -0.45380  -0.45193  -0.45122  -0.44847  -0.44693
 Alpha  occ. eigenvalues --   -0.43734  -0.43658  -0.43450  -0.43065  -0.42646
 Alpha  occ. eigenvalues --   -0.42471  -0.42134  -0.41762  -0.41471  -0.41313
 Alpha  occ. eigenvalues --   -0.41096  -0.40543  -0.40379  -0.39990  -0.39632
 Alpha  occ. eigenvalues --   -0.39306  -0.38946  -0.38515  -0.38231  -0.38131
 Alpha  occ. eigenvalues --   -0.37658  -0.37174  -0.37052  -0.36392  -0.36300
 Alpha  occ. eigenvalues --   -0.35765  -0.35222  -0.34883  -0.34633  -0.34466
 Alpha  occ. eigenvalues --   -0.34082  -0.33687  -0.32751  -0.32475  -0.32243
 Alpha  occ. eigenvalues --   -0.32051  -0.31326  -0.30032  -0.29705  -0.28978
 Alpha  occ. eigenvalues --   -0.28590  -0.28396  -0.26846  -0.24706  -0.24211
 Alpha  occ. eigenvalues --   -0.23999  -0.22673  -0.22181  -0.21580  -0.21259
 Alpha  occ. eigenvalues --   -0.19870
 Alpha virt. eigenvalues --   -0.05359  -0.04721  -0.03984  -0.03893  -0.01828
 Alpha virt. eigenvalues --   -0.01308  -0.00475   0.00211   0.01485   0.02073
[...]
 00000184,0.00000003,-0.00000209,-0.00000045,-0.00000085,-0.00000076,-0
 .00000161,-0.00000045,0.00000144,0.00000035,0.00000056,0.00000544,0.00
 000219,-0.00000275,0.00000062,0.00000029,0.00000141,0.00000201,0.00000
 051,0.00000060,0.00000147,0.00000041,0.00000197,0.00000196,0.00000136,
 0.00000196,0.00000108,0.00000206,0.00000414,0.00000508,0.00000129,0.00
 000259,0.00001444,0.00000532,0.00000403,-0.00008022,-0.00002608,0.0001
 0427,0.00229472,0.00196531,-0.00186429,0.10828046,0.12501087,0.1943301
 9,0.00000646,-0.00004769,-0.00001212,0.00001078,0.00000619,0.00004398,
 0.00000218,-0.00000617,0.00000663,0.00001950,-0.00002390,-0.00000603,0
 .00000762,-0.00001283,-0.00000326,0.00000906,0.00000800,-0.00000684,0.
 00000351,-0.00001728,0.00002453,0.00001417,0.00000089,0.00001432,0.000
 01390,0.00001829,0.00003226,0.00000001,0.00004723,-0.00011218,0.000057
 85,0.00008391,-0.00009449,-0.00043263,0.00059109,-0.00007480,-0.000138
 07,-0.00025506,0.00027466,-0.00022603,-0.00008267,-0.00019646,0.000060
 34,-0.00003454,-0.00007799,0.00008033,0.00002442,-0.00000136,-0.000092
 10,-0.00002467,0.00003407,0.00005199,0.00002507,-0.00004230,-0.0000109
 5,0.00000715,-0.00000222,0.00001248,-0.00000216,0.00000609,-0.00000443
 ,-0.00000377,-0.00000217,0.00000556,-0.00000222,0.00000254,-0.00000159
 ,-0.00000469,-0.00000049,-0.00000275,0.00000028,-0.00000049,-0.0000028
 1,0.00000192,-0.00000030,0.00000154,-0.00000285,0.00000079,-0.00000717
 ,-0.00000322,0.00000030,-0.00000487,-0.00000252,0.00000029,0.00001272,
 -0.00000067,-0.00001326,-0.00001145,0.00000074,0.00001725,-0.00000296,
 0.00000351,0.00000163,0.00000292,0.00000232,-0.00000422,0.00000047,-0.
 00000473,0.00000392,0.00000149,-0.00000033,-0.00000236,-0.00000334,-0.
 00000147,0.00000375,-0.00000087,0.00000071,-0.00000177,-0.00000735,0.0
 0000396,-0.00000206,0.00000454,-0.00000261,-0.00000212,0.00003690,0.00
 000636,0.00000832,-0.00003896,-0.00002258,0.00001179,-0.00021651,-0.00
 018030,0.00033428,0.00034405,-0.00045156,0.00046808,0.00213683,0.00324
 101,-0.00048086,-0.00564308,0.00156157,-0.00642360,-0.24225342,0.08364
 317,-0.11036339,-0.00727471,0.00640032,-0.00533496,0.00320867,0.000041
 33,-0.00444157,-0.00002206,0.00002181,0.00005571,0.00000208,-0.0000075
 1,-0.00000513,-0.00000216,-0.00000655,-0.00000170,-0.00000137,-0.00000
 574,-0.00000135,-0.00000684,-0.00000773,-0.00000182,-0.00001928,-0.000
 00559,0.00000188,-0.00000112,0.00000917,-0.00002190,0.00006516,-0.0000
 3051,-0.00000680,-0.00001788,-0.00000250,-0.00000865,-0.00000849,-0.00
 000075,-0.00000110,-0.00000875,0.00000044,0.00000529,0.00000196,0.0000
 0315,-0.00000120,0.00000233,0.00000084,-0.00000025,0.00000059,0.000001
 05,-0.00000026,-0.00000123,-0.00000031,-0.00000089,-0.00000066,-0.0000
 0123,-0.00000074,0.00000070,-0.00000066,-0.00000036,0.00000193,0.00000
 282,-0.00000854,-0.00000140,-0.00000161,0.00000067,0.00000116,-0.00000
 183,-0.00000066,0.00000088,-0.00000185,0.00000061,0.00000085,0.0000008
 3,0.00000075,-0.00000085,0.00000251,0.00000520,0.00000850,0.00000129,0
 .00000237,-0.00000406,0.00001586,-0.00001661,0.00001503,0.00002457,-0.
 00000495,-0.00032346,0.00009058,-0.00035044,-0.00042089,-0.00085467,0.
 00158061,0.25194173,-0.00002868,-0.00003362,0.00001382,0.00002423,0.00
 001942,-0.00000010,0.00001110,-0.00001329,0.00000182,0.00001216,-0.000
 01131,-0.00001210,0.00000580,-0.00000251,0.00000017,0.00000750,0.00000
 241,-0.00000470,-0.00000170,-0.00000396,0.00001700,0.00000436,-0.00000
 540,0.00001664,0.00001773,0.00000800,0.00000955,-0.00002804,0.00002130
 ,-0.00003612,0.00009660,0.00007006,-0.00007357,-0.00037777,0.00060975,
 0.00000289,-0.00040140,-0.00015397,0.00004491,-0.00005816,0.00003836,0
 .00001473,0.00005642,-0.00013095,-0.00012468,-0.00001747,0.00000988,-0
 .00002672,0.00002570,0.00001843,0.00001343,-0.00000799,-0.00000422,-0.
 00000043,0.00000562,-0.00000221,0.00000417,-0.00000368,0.,-0.00000150,
 0.00000237,0.00000038,0.00000086,-0.00000206,0.00000113,-0.00000074,0.
 00000072,0.00000111,0.00000047,0.00000016,-0.00000015,0.00000002,0.000
 00197,0.00000060,0.00000095,-0.00000333,-0.00000134,-0.00000156,0.0000
 0364,0.00000433,0.00000146,0.00000172,0.00000245,0.00000035,-0.0000056
 0,0.00000067,0.00000372,0.00000647,-0.00000026,-0.00000234,0.00000135,
 -0.00000027,0.00000256,0.00000119,-0.00000025,0.00000100,0.00000064,-0
 .00000034,0.00000019,0.00000135,-0.00000025,0.00000144,0.00000247,0.00
 000059,0.00000046,0.00000180,0.00000141,-0.00000020,0.00000028,0.00000
 097,0.00000158,-0.00000064,0.00000072,-0.00000033,-0.00002001,-0.00000
 302,-0.00000941,0.00002471,-0.00000090,0.00001350,-0.00003171,-0.00005
 997,0.00043543,-0.00061208,-0.00055017,-0.00047700,0.00235756,-0.00338
 759,-0.00376612,0.02337872,-0.00453296,0.01365248,0.08398903,-0.087319
 61,0.03622298,-0.01512846,0.00982867,-0.00871419,0.00056483,-0.0000385
 6,-0.00521124,0.00002447,0.00001225,0.00000906,-0.00000038,-0.00000237
 ,-0.00000077,-0.00000206,-0.00000062,-0.00000173,-0.00000180,-0.000000
 43,-0.00000054,-0.00000302,-0.00000043,-0.00000203,-0.00000617,-0.0000
 0280,-0.00000134,-0.00000551,-0.00000379,-0.00000365,-0.00000465,-0.00
 000373,-0.00003059,-0.00000094,0.00000228,0.00000455,-0.00000692,0.000
 00100,-0.00000270,0.00000027,0.00000006,-0.00000147,0.00000085,-0.0000
 0128,0.00000020,-0.00000022,-0.00000055,-0.00000009,0.00000010,-0.0000
 0078,-0.00000010,0.00000093,0.00000012,0.00000031,0.00000028,0.0000007
 1,0.00000012,-0.00000075,-0.00000040,-0.00000042,-0.00000282,-0.000000
 59,-0.00000024,-0.00000087,-0.00000055,-0.00000068,-0.00000106,-0.0000
 0111,-0.00000060,-0.00000076,-0.00000111,-0.00000113,-0.00000108,-0.00
 000046,-0.00000096,-0.00000077,-0.00000058,-0.00000087,-0.00000071,-0.
 00000036,-0.00000091,-0.00001189,0.00000177,-0.00000738,-0.00004667,0.
 00003260,-0.00004235,0.00112535,-0.00034060,0.00057146,-0.00149676,0.0
 0046314,0.00107733,-0.09222066,0.08572902,0.00007291,0.00007344,-0.000
 03559,-0.00007167,-0.00010251,0.00002984,0.00000982,0.00005850,0.00000
 443,-0.00000538,-0.00003512,0.00003931,0.00002366,-0.00002688,-0.00001
 686,-0.00000575,-0.00002406,0.00002040,0.00001990,-0.00001684,-0.00001
 594,-0.00000641,0.00002735,-0.00001146,-0.00003099,0.00000830,0.000043
 39,0.00009562,0.00002310,-0.00003570,-0.00012277,0.00002108,0.00018166
 ,-0.00065704,0.00075214,0.00006014,0.00018716,0.00015151,-0.00045334,-
 0.00019475,-0.00003645,-0.00016232,-0.00003779,-0.00024113,-0.00006885
 ,0.00005108,-0.00002682,0.00005893,-0.00008067,-0.00000973,0.00000195,
 0.00003540,0.00001764,-0.00002190,-0.00001055,0.00000558,-0.00000499,0
 .00001066,-0.00000131,0.00000457,-0.00000415,-0.00000266,-0.00000187,0
 .00000489,-0.00000199,0.00000172,-0.00000130,-0.00000352,-0.00000099,-
 0.00000175,0.00000026,-0.00000071,-0.00000272,0.00000139,-0.00000093,0
 .00000288,-0.00000181,0.00000133,-0.00000730,-0.00000325,-0.00000254,-
 0.00000322,-0.00000092,-0.00000338,-0.00000008,0.00000350,-0.00000095,
 -0.00000022,-0.00000445,-0.00000010,0.00000061,-0.00000051,-0.00000112
 ,-0.00000031,0.00000033,-0.00000079,0.00000077,-0.00000234,0.00000132,
 0.00000023,0.00000002,-0.00000051,-0.00000267,0.00000046,0.00000222,-0
 .00000026,-0.00000041,-0.00000085,-0.00000395,0.00000384,-0.00000276,0
 .00000083,-0.00000300,0.00000159,0.00003987,0.00000493,0.00001402,-0.0
 0003892,-0.00001385,-0.00000678,0.00050653,0.00032837,-0.00014633,0.00
 029980,-0.00023632,-0.00051877,-0.00101155,-0.00308610,0.00251847,0.00
 771829,-0.00392032,0.00726517,-0.11018842,0.03589913,-0.10433711,-0.01
 930543,0.00871599,-0.00542247,-0.00413706,-0.00568026,0.00162502,-0.00
 005547,-0.00000880,0.00001582,0.00000026,-0.00000698,-0.00001156,-0.00
 000389,-0.00000743,-0.00000321,-0.00000308,-0.00000691,-0.00000223,-0.
 00000039,-0.00000323,-0.00000001,0.00000249,0.00000246,-0.00000079,0.0
 0002536,0.00000772,-0.00001287,0.00003872,-0.00002123,-0.00001685,-0.0
 0000581,-0.00000585,-0.00000906,-0.00000719,0.00000766,0.00000231,-0.0
 0000661,0.00000026,0.00000425,0.00000179,-0.00000059,-0.00000158,0.000
 00112,0.00000066,0.00000016,0.00000016,0.00000095,0.00000020,-0.000001
 22,-0.00000031,-0.00000036,-0.00000068,-0.00000106,-0.00000018,0.00000
 040,-0.00000039,0.00000020,0.00000218,0.00000354,-0.00000160,0.0000000
 5,0.00000007,0.00000068,0.00000083,-0.00000068,0.00000030,0.00000032,-
 0.00000130,0.00000110,0.00000143,-0.00000055,-0.00000065,-0.00000109,0
 .00000257,0.00000277,0.00000559,0.00000093,0.00000233,-0.00000093,0.00
 001024,-0.00000081,-0.00005287,0.00001194,0.00001234,0.00032501,-0.000
 27135,0.00026764,0.00116676,0.00159757,-0.00108653,0.12278706,-0.03576
 729,0.10205533,-0.00015771,-0.00067875,0.00044986,0.00056947,0.0002960
 6,-0.00079359,0.00002218,-0.00011690,-0.00002499,-0.00005975,0.0001374
 8,-0.00014374,0.00004877,-0.00017810,0.00013408,0.00003041,0.00001314,
 -0.00008519,-0.00007867,0.00005613,0.00004449,0.00010301,-0.00014790,0
 .00005413,-0.00002535,0.00010398,0.00014547,-0.00044437,-0.00079904,-0
 .00009179,-0.00035773,0.00019072,-0.00032297,-0.00031948,-0.00017132,0
 .00157565,0.00012487,-0.00004369,0.00035404,-0.00000539,-0.00013638,-0
 .00020594,-0.00008335,0.00001733,0.00013620,0.00018499,0.00004092,0.00
 000207,-0.00015638,-0.00013186,0.00000772,0.00006652,0.00005104,-0.000
 05846,-0.00000062,0.00001132,0.00000049,0.00001937,-0.00001079,0.00000
 744,0.00000175,-0.00001300,0.00000044,0.00000556,0.00000097,0.00000198
 ,0.00000282,-0.00000941,0.00000004,-0.00000991,-0.00000046,-0.00000423
 ,0.00000813,0.00001288,0.00000485,-0.00002524,-0.00001958,-0.00001081,
 0.00001281,0.00002714,0.00000801,0.00000875,0.00002946,-0.00001993,-0.
 00005160,0.00001187,0.00004368,0.00006282,-0.00002352,-0.00003357,0.00
 001391,-0.00000397,0.00001229,0.00001145,-0.00001365,0.00000933,0.0000
 0214,-0.00000381,0.00000013,0.00001296,-0.00001042,0.00000974,0.000015
 97,0.00000055,0.00000248,0.00001060,0.00001005,0.00000094,0.00000086,0
 .00003420,0.00000313,-0.00001701,-0.00001277,0.00002123,-0.00007064,-0
 .00000936,-0.00003260,0.00011091,-0.00006124,0.00005979,-0.00007634,0.
 00115586,0.00060902,-0.00189762,0.00131303,-0.00475414,-0.00063547,-0.
 00048805,-0.00036905,0.00170109,0.00044167,-0.00486537,0.00932556,-0.0
 1343038,-0.00488227,-0.09398999,0.10181229,0.02066193,-0.00544672,0.02
 309082,0.00743192,-0.00010304,0.00014641,0.00009829,-0.00001179,0.0000
 0505,0.00002832,0.00000105,0.00003538,0.00002178,-0.00000086,0.0000323
 4,0.00000867,0.00000628,0.00002119,-0.00001302,-0.00000278,0.00000842,
 -0.00003212,-0.00009140,0.00002950,-0.00002173,0.00002117,0.00005663,-
 0.00000497,-0.00005098,0.00000020,-0.00002451,0.00001357,-0.00001529,0
 .00000098,-0.00000493,-0.00000607,0.00000861,0.00000188,0.00001187,-0.
 00000201,0.00000710,-0.00000144,0.00000173,0.00000258,-0.00000192,0.00
 000054,0.00000185,-0.00000060,0.00000064,-0.00000024,0.00000080,0.0000
 0031,-0.00000501,-0.00000606,-0.00000294,-0.00001468,0.00001296,-0.000
 00749,-0.00000284,-0.00000353,-0.00000349,-0.00000549,-0.00000700,-0.0
 0000252,-0.00000396,-0.00000802,-0.00000673,-0.00000231,-0.00000939,-0
 .00001193,-0.00001070,0.00000205,-0.00000979,0.00000089,-0.00000155,0.
 00000076,-0.00011024,0.00005188,-0.00005204,-0.00027559,0.00019495,-0.
 00022506,-0.00031439,-0.00022643,0.00047906,0.00032978,-0.00057283,-0.
 00030258,-0.00093220,-0.00121517,0.00263191,0.09298888,-0.00006362,-0.
 00024001,0.00026128,-0.00043478,0.00016383,-0.00038453,-0.00000498,0.0
 0009201,0.00010109,0.00011173,-0.00004781,-0.00004069,-0.00003791,0.00
 006027,0.00006409,0.00000633,-0.00001614,0.00003188,-0.00000974,-0.000
 01631,-0.00000532,0.00003819,0.00002667,0.00001001,0.00011044,-0.00002
 414,-0.00009030,-0.00115407,-0.00050162,-0.00072142,-0.00098927,-0.000
 37937,-0.00089051,-0.00137850,-0.00121935,-0.00010380,0.00013933,-0.00
 028319,0.00022334,0.00002586,0.00009843,-0.00003862,-0.00004544,0.0001
 3412,0.00012078,-0.00007895,0.00000501,-0.00003399,0.00007335,0.000037
 69,0.00000605,-0.00003239,-0.00001611,0.00002156,0.00000742,-0.0000056
 2,0.00000342,-0.00000849,0.00000248,-0.00000349,0.00000291,0.00000259,
 0.00000129,-0.00000376,0.00000157,-0.00000133,0.00000062,0.00000313,0.
 00000065,0.00000189,0.,0.00000074,0.00000153,-0.00000135,0.00000057,-0
 .00000027,0.00000166,-0.00000049,0.00000269,0.00000192,0.00000029,0.00
 000362,0.00000035,0.00000373,-0.00000106,-0.00000076,0.00000087,-0.000
 00031,0.00000287,0.00000008,-0.00000033,0.,0.00000324,0.00000135,0.000
 00098,0.00000004,0.00000070,0.00000032,-0.00000008,0.00000116,-0.00000
 132,0.00000469,0.00000492,0.00000323,0.00000219,0.00000016,0.00000397,
 -0.00000094,-0.00000218,-0.00000764,0.00000208,0.00000033,0.00000557,-
 0.00000975,-0.00001350,-0.00000352,-0.00000459,0.00001234,0.00000857,0
 .00000699,-0.00014298,-0.00035622,-0.00040678,0.00233596,0.00171629,-0
 .00018901,-0.00041985,0.00058608,0.00038142,-0.00038304,0.00171634,-0.
 00431320,0.00785798,-0.00987592,-0.00297571,0.10278871,-0.27469840,-0.
 07060221,0.00357460,-0.00544334,-0.00301893,0.00016113,-0.00000950,0.0
 0005050,0.00000197,0.00000542,0.00001389,-0.00000107,0.00000260,0.0000
 0868,-0.00000210,0.00000322,-0.00000219,0.00000369,0.00000260,-0.00000
 231,-0.00000327,-0.00000362,-0.00000585,0.00002290,-0.00002005,0.00002
 194,0.00001346,0.00001353,-0.00001732,0.00002452,0.00000189,0.00001571
 ,0.00000128,0.00000214,0.00000242,0.00000454,0.00000016,-0.00000238,-0
 .00000248,-0.00000350,0.00000260,-0.00000160,-0.00000055,-0.00000037,-
 0.00000028,-0.00000071,-0.00000020,0.00000096,0.00000027,0.00000031,0.
 00000050,0.00000083,0.00000015,-0.00000022,0.00000049,-0.00000011,-0.0
 0000138,-0.00000275,0.00000183,-0.00000046,-0.00000008,-0.00000046,-0.
 00000088,-0.00000070,-0.00000028,-0.00000054,-0.00000070,-0.00000081,-
 0.00000117,-0.00000005,-0.00000091,0.00000056,-0.00000132,0.00000222,0
 .00000023,-0.00000044,-0.00000086,0.00000777,-0.00000046,-0.00000785,0
 .00014665,-0.00000090,0.00000089,-0.00022934,-0.00029349,0.00031664,0.
 00038900,-0.00043645,-0.00011825,-0.00155417,-0.00026399,0.00184307,-0
 .11087888,0.28946829,0.00019527,-0.00009005,0.00024981,-0.00027156,-0.
 00015445,-0.00071444,0.00020626,-0.00014987,-0.00005102,-0.00001628,0.
 00006946,-0.00007098,-0.00022789,0.00026733,0.00017392,0.00004168,-0.0
 0005113,-0.00001270,-0.00000941,0.00009511,-0.00003256,0.00004787,-0.0
 0007966,-0.00008545,0.00016010,0.00014614,-0.00022057,-0.00064504,-0.0
 0090547,0.00017668,-0.00068647,-0.00012059,-0.00052841,0.00120706,0.00
 067117,-0.00120778,0.00026395,0.00017229,-0.00009040,-0.00002474,-0.00
 010841,0.00006105,0.00007912,0.00011688,-0.00001570,0.00003450,-0.0000
 1367,0.00001427,-0.00003744,-0.00003928,-0.00001704,0.00001134,0.00001
 220,-0.00000108,-0.00000201,0.00000433,-0.00000376,0.00000663,-0.00000
 265,0.00000176,-0.00000013,-0.00000435,0.00000014,0.00000227,0.0000003
 6,0.00000035,0.00000080,-0.00000317,-0.00000054,-0.00000334,-0.0000002
 2,-0.00000185,0.00000272,0.00000469,0.00000103,-0.00000779,-0.00000753
 ,-0.00000319,0.00000231,0.00000918,0.00000014,0.00000760,0.00001349,-0
 .00001886,-0.00002957,0.00000639,0.00002916,0.00003511,-0.00001445,-0.
 00002884,0.00000896,-0.00000318,0.00000034,0.00000395,-0.00000869,0.00
 000653,0.00000221,0.00000282,-0.00000484,0.00000270,-0.00000526,0.0000
 0925,0.00000867,0.00000414,-0.00000181,0.00000026,0.00000194,0.0000038
 7,0.00000172,0.00001149,-0.00000412,-0.00001506,-0.00000687,0.00001188
 ,-0.00000995,-0.00000264,0.,0.00001874,-0.00001073,-0.00000784,-0.0001
 9201,0.00065503,0.00035583,-0.00409803,-0.00103083,0.00103652,-0.00029
 224,0.00034928,-0.00057390,-0.00542726,-0.00373050,0.00125480,0.009003
 96,-0.02039571,-0.00137451,0.02086662,-0.07068492,-0.06686214,-0.00532
 976,0.01284102,0.00777786,-0.00018743,0.00007892,-0.00002759,-0.000019
 64,-0.00000651,0.00000038,0.00002083,0.00002814,-0.00000111,-0.0000009
 1,0.00000816,0.00000181,0.00001406,0.00000318,-0.00000247,0.00001532,0
 .00000435,-0.00001291,0.00005815,-0.00003325,-0.00002959,-0.00004622,-
 0.00001307,0.00003670,-0.00001292,0.00000153,-0.00000932,0.00001175,-0
 .00000866,0.00000040,0.00000017,-0.00000281,0.00000115,0.00000074,0.00
 000447,-0.00000051,0.00000164,-0.00000052,0.00000095,0.00000065,-0.000
 00068,0.00000054,0.00000061,-0.00000028,0.00000057,-0.00000020,0.00000
 032,0.00000050,-0.00000221,-0.00000223,-0.00000077,-0.00000455,0.00000
 645,0.00000193,0.00000081,0.00000013,-0.00000140,-0.00000227,-0.000000
 72,0.00000020,-0.00000223,-0.00000192,-0.00000190,-0.00000013,-0.00000
 863,-0.00000979,-0.00000521,0.00000235,-0.00000987,-0.00000208,-0.0000
 0152,0.00000157,-0.00002127,0.00001186,0.00000104,-0.00027457,0.000033
 38,0.00000230,0.00047501,0.00033262,-0.00049173,0.00033088,-0.00091742
 ,-0.00008572,0.00240741,0.00218930,-0.00181671,-0.01765259,0.08046265,
 0.06322050\\-0.00000293,0.00000231,-0.00000045,-0.00000227,0.00000250,
 0.00000240,-0.00000187,-0.00000274,0.00000144,0.00000237,-0.00000332,-
 0.00000637,-0.00000277,0.00000110,0.00000370,0.00000260,-0.00000380,-0
 .00000235,-0.00000177,0.00000230,0.00000414,-0.00000052,-0.00000014,0.
 00000041,0.00000358,0.00000327,-0.00000223,-0.00000434,-0.00000031,0.0
 0000563,0.00000449,-0.00000359,-0.00000353,-0.00001362,0.00000171,-0.0
 0000697,0.00000885,-0.00000439,0.00000026,-0.00001140,0.00001052,-0.00
 000287,0.00000029,-0.00000839,-0.00000189,0.00000358,0.00001200,0.0000
 0606,-0.00000647,-0.00001122,-0.00000643,0.00000738,0.00000857,-0.0000
 0501,0.00001266,-0.00000761,0.00000708,-0.00000127,0.00000553,-0.00000
 174,0.00000208,-0.00000742,0.00000221,-0.00000408,0.00000192,-0.000002
 05,0.00000015,0.00000169,0.00000057,0.00000127,-0.00000129,0.00000122,
 0.00000126,0.00000018,0.00000154,-0.00001013,-0.00000698,-0.00000514,0
 .00000935,0.00002070,0.00000608,0.00000665,-0.00000620,-0.00000746,-0.
 00000254,0.,0.00000909,-0.00000215,0.00000085,-0.00000357,-0.00000168,
 0.00000326,0.00000029,0.00000325,-0.00000186,0.00000259,-0.00000218,-0
 .00000087,0.00000102,0.00000270,-0.00000243,-0.00000035,0.00000090,0.0
 0000034,0.00000112,0.00000015,0.00000063,-0.00000159,-0.00000225,0.000
 00076,0.00000051,-0.00000537,0.00000064,0.00000363,-0.00001172,-0.0000
 0757,-0.00000356,0.00000429,-0.00000348,-0.00000088,-0.00001123,0.0000
 0511,-0.00000705,0.00000742,-0.00000442,0.00000194,-0.00000569,0.00000
 400,-0.00000428,0.00000491,-0.00000488,-0.00000117,0.00000097,0.000006
 71,0.00000315,-0.00000527,-0.00000451,-0.00000795,0.00000868,0.0000055
 4,0.00000930,0.00000257,-0.00000367,-0.00000180,0.00000042,0.00000014,
 0.00000051,-0.00000037,0.00000018,0.00000185,-0.00000047,0.00000110,0.
 00000148,0.,0.00000061,0.00000050,0.00000106,0.00000077,0.00000114,-0.
 00000196,-0.00000051,-0.00000223,0.00001327,-0.00000358,0.00000292,-0.
 00000192,-0.00000188,-0.00000164,0.00000203,-0.00000288,-0.00000097,-0
 .00000251,-0.00000293,-0.00000110,0.00000121,0.00000100,0.00000011,0.0
 0000035,-0.00000103,-0.00000014,0.00000058,-0.00000103,0.00000105,0.00
 000049,-0.00000056,0.00000090,0.00000002,0.00000095,0.00000065,-0.0000
 0065,0.00000033,0.00000198,0.00000299,0.00000091,0.00000067,0.00000070
 ,0.00000122,0.00000197,-0.00000181,0.00000014,0.00000046,-0.00000034,0
 .00000007,0.00000101,-0.00000031,-0.00000188,0.00000039,-0.00000015,-0
 .00000156,0.00000031,0.00000023,0.00000082,0.00000069,-0.00000504,0.00
 000631,0.00000270,0.00000199,-0.00000068,0.00000015,0.00000156,-0.0000
 0012,-0.00000180,0.00000010,0.00000077,-0.00000194,-0.00000056,0.00000
 081,-0.00000122,0.00000020,0.00000147,0.00000093\\\@
 The archive entry for this job was punched.


       THE DEATH-KNELL OF THE ATOM

 SO THE ATOMS IN TURN, WE NOW CLEARLY DISCERN,
 FLY TO BITS WITH THE UTMOST FACILITY;
 THEY WEND ON THEIR WAY, AND, IN SPLITTING, DISPLAY
 AN ABSOLUTE LACK OF STABILITY.

          SIR WM. RAMSAY, 1905
 Job cpu time:       0 days 18 hours 58 minutes 10.2 seconds.
 Elapsed time:       0 days  0 hours 28 minutes 44.3 seconds.
 File lengths (MBytes):  RWF=   4277 Int=      0 D2E=      0 Chk=     45 Scr=      1
 Normal termination of Gaussian 16 at Sun Feb 25 05:27:09 2024.
