 Entering Gaussian System, Link 0=g16
 Initial command:
 /public/software/apps/Gaussian/g16/l1.exe "/tmp/Gau-85581.inp" -scrdir="/tmp/"
 Entering Link 1 = /public/software/apps/Gaussian/g16/l1.exe PID=     85582.
  
 Copyright (c) 1988-2019, Gaussian, Inc.  All Rights Reserved.
  
 This is part of the Gaussian(R) 16 program.  It is based on
 the Gaussian(R) 09 system (copyright 2009, Gaussian, Inc.),
 the Gaussian(R) 03 system (copyright 2003, Gaussian, Inc.),
 the Gaussian(R) 98 system (copyright 1998, Gaussian, Inc.),
 the Gaussian(R) 94 system (copyright 1995, Gaussian, Inc.),
 the Gaussian 92(TM) system (copyright 1992, Gaussian, Inc.),
 the Gaussian 90(TM) system (copyright 1990, Gaussian, Inc.),
 the Gaussian 88(TM) system (copyright 1988, Gaussian, Inc.),
 the Gaussian 86(TM) system (copyright 1986, Carnegie Mellon
 University), and the Gaussian 82(TM) system (copyright 1983,
 Carnegie Mellon University). Gaussian is a federally registered
 trademark of Gaussian, Inc.
  
 This software contains proprietary and confidential information,
 including trade secrets, belonging to Gaussian, Inc.
  
 This software is provided under written license and may be
 used, copied, transmitted, or stored only in accord with that
 written license.
  
 The following legend is applicable only to US Government
 contracts under FAR:
  
                    RESTRICTED RIGHTS LEGEND
  
 Use, reproduction and disclosure by the US Government is
 subject to restrictions as set forth in subparagraphs (a)
 and (c) of the Commercial Computer Software - Restricted
 Rights clause in FAR 52.227-19.
  
 Gaussian, Inc.
 340 Quinnipiac St., Bldg. 40, Wallingford CT 06492
  
  
 ---------------------------------------------------------------
 Warning -- This program may not be used in any manner that
 competes with the business of Gaussian, Inc. or will provide
 assistance to any competitor of Gaussian, Inc.  The licensee
 of this program is prohibited from giving any competitor of
 Gaussian, Inc. access to this program.  By using this program,
 the user acknowledges that Gaussian, Inc. is engaged in the
 business of creating and licensing software in the field of
 computational chemistry and represents and warrants to the
 licensee that it is not a competitor of Gaussian, Inc. and that
 it will not use this program in any manner prohibited above.
 ---------------------------------------------------------------
  

 Cite this work as:
 Gaussian 16, Revision C.01,
 M. J. Frisch, G. W. Trucks, H. B. Schlegel, G. E. Scuseria, 
 M. A. Robb, J. R. Cheeseman, G. Scalmani, V. Barone, 
 G. A. Petersson, H. Nakatsuji, X. Li, M. Caricato, A. V. Marenich, 
 J. Bloino, B. G. Janesko, R. Gomperts, B. Mennucci, H. P. Hratchian, 
 J. V. Ortiz, A. F. Izmaylov, J. L. Sonnenberg, D. Williams-Young, 
 F. Ding, F. Lipparini, F. Egidi, J. Goings, B. Peng, A. Petrone, 
 T. Henderson, D. Ranasinghe, V. G. Zakrzewski, J. Gao, N. Rega, 
 G. Zheng, W. Liang, M. Hada, M. Ehara, K. Toyota, R. Fukuda, 
 J. Hasegawa, M. Ishida, T. Nakajima, Y. Honda, O. Kitao, H. Nakai, 
 T. Vreven, K. Throssell, J. A. Montgomery, Jr., J. E. Peralta, 
 F. Ogliaro, M. J. Bearpark, J. J. Heyd, E. N. Brothers, K. N. Kudin, 
 V. N. Staroverov, T. A. Keith, R. Kobayashi, J. Normand, 
 K. Raghavachari, A. P. Rendell, J. C. Burant, S. S. Iyengar, 
 J. Tomasi, M. Cossi, J. M. Millam, M. Klene, C. Adamo, R. Cammi, 
 J. W. Ochterski, R. L. Martin, K. Morokuma, O. Farkas, 
 J. B. Foresman, and D. J. Fox, Gaussian, Inc., Wallingford CT, 2019.
 
 ******************************************
 Gaussian 16:  ES64L-G16RevC.01  3-Jul-2019
                16-May-2024 
 ******************************************
 %nprocshared=32
 Will use up to   32 processors via shared memory.
 %mem=100GB
 ------------------------------------------
 #p opt freq b3lyp/def2svpp em=gd3bj nosymm
 ------------------------------------------
 1/18=20,19=15,26=3,38=1/1,3;
 2/9=110,12=2,15=1,17=6,18=5,40=1/2;
 3/5=43,7=202,11=2,25=1,30=1,71=1,74=-5,124=41/1,2,3;
 4//1;
 5/5=2,38=5/2;
 6/7=2,8=2,9=2,10=2,28=1/1;
 7/30=1/1,2,3,16;
 1/18=20,19=15,26=3/3(2);
 2/9=110,15=1/2;
 99//99;
 2/9=110,15=1/2;
 3/5=43,7=202,11=2,25=1,30=1,71=1,74=-5,124=41/1,2,3;
 4/5=5,16=3,69=1/1;
 5/5=2,38=5/2;
 7/30=1/1,2,3,16;
 1/18=20,19=15,26=3/3(-5);
 2/9=110,15=1/2;
 6/7=2,8=2,9=2,10=2,19=2,28=1/1;
 99/9=1/99;
 Leave Link    1 at Thu May 16 02:29:44 2024, MaxMem= 13421772800 cpu:               1.6 elap:               0.1
 (Enter /public/software/apps/Gaussian/g16/l101.exe)
 ----------------------
 $$$$Singlemol####0????
 ----------------------
 Symbolic Z-matrix:
 Charge =  0 Multiplicity = 1
 O                     1.77525  -1.30152   1.3906 
 C                     1.74867  -0.12555   0.71495 
 C                     2.98816   0.55632   0.6925 
 P                     4.29964  -0.45152   1.48208 
 C                     5.76572   0.55223   1.02908 
 C                     5.92134   1.76931   1.69029 
 C                     7.02536   2.56434   1.45012 
 C                     8.00158   2.14102   0.56213 
 C                     7.87041   0.91797  -0.07293 
 C                     6.76202   0.12269   0.16161 
 C                     4.33878  -1.74283   0.17128 
 C                     4.47928  -3.06818   0.56149 
 C                     4.45859  -4.0817   -0.38056 
 C                     4.29307  -3.77665  -1.72071 
 C                     4.15501  -2.45584  -2.11714 
 C                     4.17688  -1.44159  -1.17756 
 C                     3.06919   1.79329   0.11859 
 C                     1.93767   2.37797  -0.49132 
 C                     2.00491   3.65349  -1.08723 
 C                     0.9162    4.19697  -1.71115 
 C                    -0.28315   3.47554  -1.78353 
 C                    -0.3815    2.23446  -1.21722 
 C                     0.71275   1.65954  -0.53598 
 C                     0.63217   0.3841    0.09349 
 C                    -0.6325   -0.38742   0.09358 
 C                    -1.7483    0.12265   0.71598 
 O                    -1.77343   1.29781   1.39309 
 C                    -2.98871  -0.55744   0.69266 
 P                    -4.29835   0.45309   1.48216 
 C                    -5.767    -0.54783   1.03172 
 C                    -6.76806  -0.11171   0.17297 
 C                    -7.87904  -0.90392  -0.05952 
 C                    -8.00814  -2.13051   0.5691 
 C                    -7.02733  -2.56028   1.44889 
 C                    -5.92074  -1.76826   1.68717 
 C                    -4.33502   1.74151   0.1683 
 C                    -4.45955   3.06941   0.55512 
 C                    -4.43535   4.07956  -0.3905 
 C                    -4.28261   3.76844  -1.73077 
 C                    -4.16042   2.44502  -2.12376 
 C                    -4.18546   1.43421  -1.1806 
 C                    -3.07158  -1.79314   0.11635 
 C                    -1.94072  -2.37859  -0.49407 
 C                    -2.00973  -3.65311  -1.09191 
 C                    -0.92163  -4.19745  -1.71613 
 C                     0.27894  -3.47787  -1.78686 
 C                     0.37897  -2.23771  -1.21883 
 C                    -0.71468  -1.66197  -0.53736 
 H                     0.92169  -1.75125   1.33289 
 H                     5.16403   2.08623   2.39596 
 H                     7.13045   3.5117    1.95949 
 H                     8.86701   2.7594    0.3738 
 H                     8.63721   0.57878  -0.75477 
 H                     6.67329  -0.83415  -0.33316 
 H                     4.59676  -3.29822   1.61099 
 H                     4.56603  -5.11077  -0.06928 
 H                     4.2719   -4.56655  -2.4578 
 H                     4.026    -2.21513  -3.16312 
 H                     4.0688   -0.41174  -1.4918 
 H                     4.00411   2.33495   0.10562 
 H                     2.94026   4.1929   -1.04162 
 H                     0.977     5.17711  -2.1603 
 H                    -1.13563   3.90154  -2.2913 
 H                    -1.30768   1.68393  -1.29536 
 H                    -0.91947   1.74682   1.33555 
 H                    -6.68083   0.8479   -0.31669 
 H                    -8.64947  -0.55956  -0.73464 
 H                    -8.87554  -2.74661   0.3823 
 H                    -7.13091  -3.51032   1.95357 
 H                    -5.16011  -2.09014   2.387 
 H                    -4.56723   3.30402   1.60464 
 H                    -4.53048   5.11067  -0.08195 
 H                    -4.25944   4.55562  -2.47072 
 H                    -4.04129   2.19963  -3.1698 
 H                    -4.08915   0.40232  -1.49192 
 H                    -4.00734  -2.3333    0.10185 
 H                    -2.94597  -4.1911   -1.04754 
 H                    -0.98382  -5.17683  -2.16675 
 H                     1.131    -3.90465  -2.29468 
 H                     1.3061   -1.68859  -1.29562 
 
 ITRead=  0  0  0  0  0  0  0  0  0  0  0  0  0  0  0  0  0  0  0  0
 ITRead=  0  0  0  0  0  0  0  0  0  0  0  0  0  0  0  0  0  0  0  0
 ITRead=  0  0  0  0  0  0  0  0  0  0  0  0  0  0  0  0  0  0  0  0
 ITRead=  0  0  0  0  0  0  0  0  0  0  0  0  0  0  0  0  0  0  0  0
 MicOpt= -1 -1 -1 -1 -1 -1 -1 -1 -1 -1 -1 -1 -1 -1 -1 -1 -1 -1 -1 -1
 MicOpt= -1 -1 -1 -1 -1 -1 -1 -1 -1 -1 -1 -1 -1 -1 -1 -1 -1 -1 -1 -1
 MicOpt= -1 -1 -1 -1 -1 -1 -1 -1 -1 -1 -1 -1 -1 -1 -1 -1 -1 -1 -1 -1
 MicOpt= -1 -1 -1 -1 -1 -1 -1 -1 -1 -1 -1 -1 -1 -1 -1 -1 -1 -1 -1 -1
 NAtoms=     80 NQM=       80 NQMF=       0 NMMI=      0 NMMIF=      0
                NMic=       0 NMicF=      0.
                    Isotopes and Nuclear Properties:
 (Nuclear quadrupole moments (NQMom) in fm**2, nuclear magnetic moments (NMagM)
  in nuclear magnetons)

  Atom         1           2           3           4           5           6           7           8           9          10
 IAtWgt=          16          12          12          31          12          12          12          12          12          12
 AtmWgt=  15.9949146  12.0000000  12.0000000  30.9737634  12.0000000  12.0000000  12.0000000  12.0000000  12.0000000  12.0000000
 NucSpn=           0           0           0           1           0           0           0           0           0           0
 AtZEff=  -0.0000000  -0.0000000  -0.0000000  -0.0000000  -0.0000000  -0.0000000  -0.0000000  -0.0000000  -0.0000000  -0.0000000
 NQMom=    0.0000000   0.0000000   0.0000000   0.0000000   0.0000000   0.0000000   0.0000000   0.0000000   0.0000000   0.0000000
 NMagM=    0.0000000   0.0000000   0.0000000   1.1316000   0.0000000   0.0000000   0.0000000   0.0000000   0.0000000   0.0000000
 AtZNuc=   8.0000000   6.0000000   6.0000000  15.0000000   6.0000000   6.0000000   6.0000000   6.0000000   6.0000000   6.0000000

  Atom        11          12          13          14          15          16          17          18          19          20
 IAtWgt=          12          12          12          12          12          12          12          12          12          12
 AtmWgt=  12.0000000  12.0000000  12.0000000  12.0000000  12.0000000  12.0000000  12.0000000  12.0000000  12.0000000  12.0000000
 NucSpn=           0           0           0           0           0           0           0           0           0           0
 AtZEff=  -0.0000000  -0.0000000  -0.0000000  -0.0000000  -0.0000000  -0.0000000  -0.0000000  -0.0000000  -0.0000000  -0.0000000
 NQMom=    0.0000000   0.0000000   0.0000000   0.0000000   0.0000000   0.0000000   0.0000000   0.0000000   0.0000000   0.0000000
 NMagM=    0.0000000   0.0000000   0.0000000   0.0000000   0.0000000   0.0000000   0.0000000   0.0000000   0.0000000   0.0000000
 AtZNuc=   6.0000000   6.0000000   6.0000000   6.0000000   6.0000000   6.0000000   6.0000000   6.0000000   6.0000000   6.0000000

  Atom        21          22          23          24          25          26          27          28          29          30
 IAtWgt=          12          12          12          12          12          12          16          12          31          12
 AtmWgt=  12.0000000  12.0000000  12.0000000  12.0000000  12.0000000  12.0000000  15.9949146  12.0000000  30.9737634  12.0000000
 NucSpn=           0           0           0           0           0           0           0           0           1           0
 AtZEff=  -0.0000000  -0.0000000  -0.0000000  -0.0000000  -0.0000000  -0.0000000  -0.0000000  -0.0000000  -0.0000000  -0.0000000
 NQMom=    0.0000000   0.0000000   0.0000000   0.0000000   0.0000000   0.0000000   0.0000000   0.0000000   0.0000000   0.0000000
 NMagM=    0.0000000   0.0000000   0.0000000   0.0000000   0.0000000   0.0000000   0.0000000   0.0000000   1.1316000   0.0000000
 AtZNuc=   6.0000000   6.0000000   6.0000000   6.0000000   6.0000000   6.0000000   8.0000000   6.0000000  15.0000000   6.0000000

  Atom        31          32          33          34          35          36          37          38          39          40
 IAtWgt=          12          12          12          12          12          12          12          12          12          12
 AtmWgt=  12.0000000  12.0000000  12.0000000  12.0000000  12.0000000  12.0000000  12.0000000  12.0000000  12.0000000  12.0000000
 NucSpn=           0           0           0           0           0           0           0           0           0           0
 AtZEff=  -0.0000000  -0.0000000  -0.0000000  -0.0000000  -0.0000000  -0.0000000  -0.0000000  -0.0000000  -0.0000000  -0.0000000
 NQMom=    0.0000000   0.0000000   0.0000000   0.0000000   0.0000000   0.0000000   0.0000000   0.0000000   0.0000000   0.0000000
 NMagM=    0.0000000   0.0000000   0.0000000   0.0000000   0.0000000   0.0000000   0.0000000   0.0000000   0.0000000   0.0000000
 AtZNuc=   6.0000000   6.0000000   6.0000000   6.0000000   6.0000000   6.0000000   6.0000000   6.0000000   6.0000000   6.0000000

  Atom        41          42          43          44          45          46          47          48          49          50
 IAtWgt=          12          12          12          12          12          12          12          12           1           1
 AtmWgt=  12.0000000  12.0000000  12.0000000  12.0000000  12.0000000  12.0000000  12.0000000  12.0000000   1.0078250   1.0078250
 NucSpn=           0           0           0           0           0           0           0           0           1           1
 AtZEff=  -0.0000000  -0.0000000  -0.0000000  -0.0000000  -0.0000000  -0.0000000  -0.0000000  -0.0000000  -0.0000000  -0.0000000
 NQMom=    0.0000000   0.0000000   0.0000000   0.0000000   0.0000000   0.0000000   0.0000000   0.0000000   0.0000000   0.0000000
 NMagM=    0.0000000   0.0000000   0.0000000   0.0000000   0.0000000   0.0000000   0.0000000   0.0000000   2.7928460   2.7928460
 AtZNuc=   6.0000000   6.0000000   6.0000000   6.0000000   6.0000000   6.0000000   6.0000000   6.0000000   1.0000000   1.0000000

  Atom        51          52          53          54          55          56          57          58          59          60
 IAtWgt=           1           1           1           1           1           1           1           1           1           1
 AtmWgt=   1.0078250   1.0078250   1.0078250   1.0078250   1.0078250   1.0078250   1.0078250   1.0078250   1.0078250   1.0078250
 NucSpn=           1           1           1           1           1           1           1           1           1           1
 AtZEff=  -0.0000000  -0.0000000  -0.0000000  -0.0000000  -0.0000000  -0.0000000  -0.0000000  -0.0000000  -0.0000000  -0.0000000
 NQMom=    0.0000000   0.0000000   0.0000000   0.0000000   0.0000000   0.0000000   0.0000000   0.0000000   0.0000000   0.0000000
 NMagM=    2.7928460   2.7928460   2.7928460   2.7928460   2.7928460   2.7928460   2.7928460   2.7928460   2.7928460   2.7928460
 AtZNuc=   1.0000000   1.0000000   1.0000000   1.0000000   1.0000000   1.0000000   1.0000000   1.0000000   1.0000000   1.0000000

  Atom        61          62          63          64          65          66          67          68          69          70
 IAtWgt=           1           1           1           1           1           1           1           1           1           1
 AtmWgt=   1.0078250   1.0078250   1.0078250   1.0078250   1.0078250   1.0078250   1.0078250   1.0078250   1.0078250   1.0078250
 NucSpn=           1           1           1           1           1           1           1           1           1           1
 AtZEff=  -0.0000000  -0.0000000  -0.0000000  -0.0000000  -0.0000000  -0.0000000  -0.0000000  -0.0000000  -0.0000000  -0.0000000
 NQMom=    0.0000000   0.0000000   0.0000000   0.0000000   0.0000000   0.0000000   0.0000000   0.0000000   0.0000000   0.0000000
 NMagM=    2.7928460   2.7928460   2.7928460   2.7928460   2.7928460   2.7928460   2.7928460   2.7928460   2.7928460   2.7928460
 AtZNuc=   1.0000000   1.0000000   1.0000000   1.0000000   1.0000000   1.0000000   1.0000000   1.0000000   1.0000000   1.0000000

  Atom        71          72          73          74          75          76          77          78          79          80
 IAtWgt=           1           1           1           1           1           1           1           1           1           1
 AtmWgt=   1.0078250   1.0078250   1.0078250   1.0078250   1.0078250   1.0078250   1.0078250   1.0078250   1.0078250   1.0078250
 NucSpn=           1           1           1           1           1           1           1           1           1           1
 AtZEff=  -0.0000000  -0.0000000  -0.0000000  -0.0000000  -0.0000000  -0.0000000  -0.0000000  -0.0000000  -0.0000000  -0.0000000
 NQMom=    0.0000000   0.0000000   0.0000000   0.0000000   0.0000000   0.0000000   0.0000000   0.0000000   0.0000000   0.0000000
 NMagM=    2.7928460   2.7928460   2.7928460   2.7928460   2.7928460   2.7928460   2.7928460   2.7928460   2.7928460   2.7928460
 AtZNuc=   1.0000000   1.0000000   1.0000000   1.0000000   1.0000000   1.0000000   1.0000000   1.0000000   1.0000000   1.0000000
 Leave Link  101 at Thu May 16 02:29:45 2024, MaxMem= 13421772800 cpu:               5.7 elap:               0.2
 (Enter /public/software/apps/Gaussian/g16/l103.exe)

 GradGradGradGradGradGradGradGradGradGradGradGradGradGradGradGradGradGrad
 Berny optimization.
 Initialization pass.
                           ----------------------------
                           !    Initial Parameters    !
                           ! (Angstroms and Degrees)  !
 --------------------------                            --------------------------
 ! Name  Definition              Value          Derivative Info.                !
 --------------------------------------------------------------------------------
 ! R1    R(1,2)                  1.3565         estimate D2E/DX2                !
 ! R2    R(1,49)                 0.9665         estimate D2E/DX2                !
 ! R3    R(2,3)                  1.4148         estimate D2E/DX2                !
 ! R4    R(2,24)                 1.3757         estimate D2E/DX2                !
 ! R5    R(3,4)                  1.8328         estimate D2E/DX2                !
 ! R6    R(3,17)                 1.366          estimate D2E/DX2                !
 ! R7    R(4,5)                  1.8336         estimate D2E/DX2                !
 ! R8    R(4,11)                 1.8404         estimate D2E/DX2                !
 ! R9    R(5,6)                  1.3938         estimate D2E/DX2                !
 ! R10   R(5,10)                 1.3891         estimate D2E/DX2                !
 ! R11   R(6,7)                  1.3815         estimate D2E/DX2                !
 ! R12   R(6,50)                 1.0826         estimate D2E/DX2                !
 ! R13   R(7,8)                  1.3859         estimate D2E/DX2                !
 ! R14   R(7,51)                 1.0807         estimate D2E/DX2                !
 ! R15   R(8,9)                  1.3843         estimate D2E/DX2                !
 ! R16   R(8,52)                 1.0802         estimate D2E/DX2                !
 ! R17   R(9,10)                 1.3842         estimate D2E/DX2                !
 ! R18   R(9,53)                 1.0807         estimate D2E/DX2                !
 ! R19   R(10,54)                1.0808         estimate D2E/DX2                !
 ! R20   R(11,12)                1.3887         estimate D2E/DX2                !
 ! R21   R(11,16)                1.3915         estimate D2E/DX2                !
 ! R22   R(12,13)                1.3839         estimate D2E/DX2                !
 ! R23   R(12,55)                1.0808         estimate D2E/DX2                !
 ! R24   R(13,14)                1.3844         estimate D2E/DX2                !
 ! R25   R(13,56)                1.0805         estimate D2E/DX2                !
 ! R26   R(14,15)                1.3859         estimate D2E/DX2                !
 ! R27   R(14,57)                1.0806         estimate D2E/DX2                !
 ! R28   R(15,16)                1.3828         estimate D2E/DX2                !
 ! R29   R(15,58)                1.081          estimate D2E/DX2                !
 ! R30   R(16,59)                1.0821         estimate D2E/DX2                !
 ! R31   R(17,18)                1.4122         estimate D2E/DX2                !
 ! R32   R(17,60)                1.0806         estimate D2E/DX2                !
 ! R33   R(18,19)                1.4095         estimate D2E/DX2                !
 ! R34   R(18,23)                1.4208         estimate D2E/DX2                !
 ! R35   R(19,20)                1.3675         estimate D2E/DX2                !
 ! R36   R(19,61)                1.0807         estimate D2E/DX2                !
 ! R37   R(20,21)                1.4015         estimate D2E/DX2                !
 ! R38   R(20,62)                1.0799         estimate D2E/DX2                !
 ! R39   R(21,22)                1.3677         estimate D2E/DX2                !
 ! R40   R(21,63)                1.0798         estimate D2E/DX2                !
 ! R41   R(22,23)                1.4114         estimate D2E/DX2                !
 ! R42   R(22,64)                1.0803         estimate D2E/DX2                !
 ! R43   R(23,24)                1.4246         estimate D2E/DX2                !
 ! R44   R(24,25)                1.4814         estimate D2E/DX2                !
 ! R45   R(25,26)                1.3757         estimate D2E/DX2                !
 ! R46   R(25,48)                1.4245         estimate D2E/DX2                !
 ! R47   R(26,27)                1.3565         estimate D2E/DX2                !
 ! R48   R(26,28)                1.4148         estimate D2E/DX2                !
 ! R49   R(27,65)                0.9665         estimate D2E/DX2                !
 ! R50   R(28,29)                1.8329         estimate D2E/DX2                !
 ! R51   R(28,42)                1.366          estimate D2E/DX2                !
 ! R52   R(29,30)                1.8335         estimate D2E/DX2                !
 ! R53   R(29,36)                1.8405         estimate D2E/DX2                !
 ! R54   R(30,31)                1.3892         estimate D2E/DX2                !
 ! R55   R(30,35)                1.3938         estimate D2E/DX2                !
 ! R56   R(31,32)                1.3842         estimate D2E/DX2                !
 ! R57   R(31,66)                1.0808         estimate D2E/DX2                !
 ! R58   R(32,33)                1.3843         estimate D2E/DX2                !
 ! R59   R(32,67)                1.0807         estimate D2E/DX2                !
 ! R60   R(33,34)                1.3859         estimate D2E/DX2                !
 ! R61   R(33,68)                1.0802         estimate D2E/DX2                !
 ! R62   R(34,35)                1.3815         estimate D2E/DX2                !
 ! R63   R(34,69)                1.0807         estimate D2E/DX2                !
 ! R64   R(35,70)                1.0826         estimate D2E/DX2                !
 ! R65   R(36,37)                1.3887         estimate D2E/DX2                !
 ! R66   R(36,41)                1.3915         estimate D2E/DX2                !
 ! R67   R(37,38)                1.3839         estimate D2E/DX2                !
 ! R68   R(37,71)                1.0808         estimate D2E/DX2                !
 ! R69   R(38,39)                1.3844         estimate D2E/DX2                !
 ! R70   R(38,72)                1.0805         estimate D2E/DX2                !
 ! R71   R(39,40)                1.3859         estimate D2E/DX2                !
 ! R72   R(39,73)                1.0806         estimate D2E/DX2                !
 ! R73   R(40,41)                1.3827         estimate D2E/DX2                !
 ! R74   R(40,74)                1.081          estimate D2E/DX2                !
 ! R75   R(41,75)                1.0821         estimate D2E/DX2                !
 ! R76   R(42,43)                1.4122         estimate D2E/DX2                !
 ! R77   R(42,76)                1.0806         estimate D2E/DX2                !
 ! R78   R(43,44)                1.4095         estimate D2E/DX2                !
 ! R79   R(43,48)                1.4208         estimate D2E/DX2                !
 ! R80   R(44,45)                1.3675         estimate D2E/DX2                !
 ! R81   R(44,77)                1.0807         estimate D2E/DX2                !
 ! R82   R(45,46)                1.4015         estimate D2E/DX2                !
 ! R83   R(45,78)                1.0799         estimate D2E/DX2                !
 ! R84   R(46,47)                1.3677         estimate D2E/DX2                !
 ! R85   R(46,79)                1.0798         estimate D2E/DX2                !
 ! R86   R(47,48)                1.4114         estimate D2E/DX2                !
 ! R87   R(47,80)                1.0803         estimate D2E/DX2                !
 ! A1    A(2,1,49)             110.8754         estimate D2E/DX2                !
 ! A2    A(1,2,3)              114.1127         estimate D2E/DX2                !
 ! A3    A(1,2,24)             124.199          estimate D2E/DX2                !
 ! A4    A(3,2,24)             121.6881         estimate D2E/DX2                !
 ! A5    A(2,3,4)              110.795          estimate D2E/DX2                !
 ! A6    A(2,3,17)             119.6724         estimate D2E/DX2                !
 ! A7    A(4,3,17)             129.5304         estimate D2E/DX2                !
 ! A8    A(3,4,5)               99.4788         estimate D2E/DX2                !
 ! A9    A(3,4,11)              95.4059         estimate D2E/DX2                !
 ! A10   A(5,4,11)             101.0184         estimate D2E/DX2                !
 ! A11   A(4,5,6)              116.7486         estimate D2E/DX2                !
 ! A12   A(4,5,10)             123.9499         estimate D2E/DX2                !
 ! A13   A(6,5,10)             119.0902         estimate D2E/DX2                !
 ! A14   A(5,6,7)              120.6145         estimate D2E/DX2                !
 ! A15   A(5,6,50)             119.1283         estimate D2E/DX2                !
 ! A16   A(7,6,50)             120.2572         estimate D2E/DX2                !
 ! A17   A(6,7,8)              119.9012         estimate D2E/DX2                !
 ! A18   A(6,7,51)             120.0152         estimate D2E/DX2                !
 ! A19   A(8,7,51)             120.0823         estimate D2E/DX2                !
 ! A20   A(7,8,9)              119.8056         estimate D2E/DX2                !
 ! A21   A(7,8,52)             120.0785         estimate D2E/DX2                !
 ! A22   A(9,8,52)             120.1131         estimate D2E/DX2                !
 ! A23   A(8,9,10)             120.3811         estimate D2E/DX2                !
 ! A24   A(8,9,53)             119.9668         estimate D2E/DX2                !
 ! A25   A(10,9,53)            119.652          estimate D2E/DX2                !
 ! A26   A(5,10,9)             120.163          estimate D2E/DX2                !
 ! A27   A(5,10,54)            120.0485         estimate D2E/DX2                !
 ! A28   A(9,10,54)            119.7885         estimate D2E/DX2                !
 ! A29   A(4,11,12)            118.1412         estimate D2E/DX2                !
 ! A30   A(4,11,16)            122.4125         estimate D2E/DX2                !
 ! A31   A(12,11,16)           119.3891         estimate D2E/DX2                !
 ! A32   A(11,12,13)           120.409          estimate D2E/DX2                !
 ! A33   A(11,12,55)           119.1411         estimate D2E/DX2                !
 ! A34   A(13,12,55)           120.448          estimate D2E/DX2                !
 ! A35   A(12,13,14)           119.9603         estimate D2E/DX2                !
 ! A36   A(12,13,56)           119.9953         estimate D2E/DX2                !
 ! A37   A(14,13,56)           120.0435         estimate D2E/DX2                !
 ! A38   A(13,14,15)           119.922          estimate D2E/DX2                !
 ! A39   A(13,14,57)           120.1054         estimate D2E/DX2                !
 ! A40   A(15,14,57)           119.9726         estimate D2E/DX2                !
 ! A41   A(14,15,16)           120.2056         estimate D2E/DX2                !
 ! A42   A(14,15,58)           120.0564         estimate D2E/DX2                !
 ! A43   A(16,15,58)           119.7376         estimate D2E/DX2                !
 ! A44   A(11,16,15)           120.1133         estimate D2E/DX2                !
 ! A45   A(11,16,59)           119.9427         estimate D2E/DX2                !
 ! A46   A(15,16,59)           119.944          estimate D2E/DX2                !
 ! A47   A(3,17,18)            120.5869         estimate D2E/DX2                !
 ! A48   A(3,17,60)            120.6826         estimate D2E/DX2                !
 ! A49   A(18,17,60)           118.7202         estimate D2E/DX2                !
 ! A50   A(17,18,19)           121.2699         estimate D2E/DX2                !
 ! A51   A(17,18,23)           119.672          estimate D2E/DX2                !
 ! A52   A(19,18,23)           119.042          estimate D2E/DX2                !
 ! A53   A(18,19,20)           120.9708         estimate D2E/DX2                !
 ! A54   A(18,19,61)           118.3686         estimate D2E/DX2                !
 ! A55   A(20,19,61)           120.6605         estimate D2E/DX2                !
 ! A56   A(19,20,21)           120.0199         estimate D2E/DX2                !
 ! A57   A(19,20,62)           120.3772         estimate D2E/DX2                !
 ! A58   A(21,20,62)           119.5992         estimate D2E/DX2                !
 ! A59   A(20,21,22)           120.481          estimate D2E/DX2                !
 ! A60   A(20,21,63)           119.7885         estimate D2E/DX2                !
 ! A61   A(22,21,63)           119.7304         estimate D2E/DX2                !
 ! A62   A(21,22,23)           120.913          estimate D2E/DX2                !
 ! A63   A(21,22,64)           119.612          estimate D2E/DX2                !
 ! A64   A(23,22,64)           119.4745         estimate D2E/DX2                !
 ! A65   A(18,23,22)           118.5303         estimate D2E/DX2                !
 ! A66   A(18,23,24)           119.1827         estimate D2E/DX2                !
 ! A67   A(22,23,24)           122.2842         estimate D2E/DX2                !
 ! A68   A(2,24,23)            119.0373         estimate D2E/DX2                !
 ! A69   A(2,24,25)            119.9922         estimate D2E/DX2                !
 ! A70   A(23,24,25)           120.9691         estimate D2E/DX2                !
 ! A71   A(24,25,26)           119.9564         estimate D2E/DX2                !
 ! A72   A(24,25,48)           121.0091         estimate D2E/DX2                !
 ! A73   A(26,25,48)           119.0335         estimate D2E/DX2                !
 ! A74   A(25,26,27)           124.1979         estimate D2E/DX2                !
 ! A75   A(25,26,28)           121.6964         estimate D2E/DX2                !
 ! A76   A(27,26,28)           114.1054         estimate D2E/DX2                !
 ! A77   A(26,27,65)           110.8782         estimate D2E/DX2                !
 ! A78   A(26,28,29)           110.7519         estimate D2E/DX2                !
 ! A79   A(26,28,42)           119.6684         estimate D2E/DX2                !
 ! A80   A(29,28,42)           129.5764         estimate D2E/DX2                !
 ! A81   A(28,29,30)            99.5289         estimate D2E/DX2                !
 ! A82   A(28,29,36)            95.3186         estimate D2E/DX2                !
 ! A83   A(30,29,36)           101.0005         estimate D2E/DX2                !
 ! A84   A(29,30,31)           123.898          estimate D2E/DX2                !
 ! A85   A(29,30,35)           116.7965         estimate D2E/DX2                !
 ! A86   A(31,30,35)           119.0854         estimate D2E/DX2                !
 ! A87   A(30,31,32)           120.1685         estimate D2E/DX2                !
 ! A88   A(30,31,66)           120.042          estimate D2E/DX2                !
 ! A89   A(32,31,66)           119.7895         estimate D2E/DX2                !
 ! A90   A(31,32,33)           120.3779         estimate D2E/DX2                !
 ! A91   A(31,32,67)           119.6531         estimate D2E/DX2                !
 ! A92   A(33,32,67)           119.9689         estimate D2E/DX2                !
 ! A93   A(32,33,34)           119.8044         estimate D2E/DX2                !
 ! A94   A(32,33,68)           120.1139         estimate D2E/DX2                !
 ! A95   A(34,33,68)           120.0788         estimate D2E/DX2                !
 ! A96   A(33,34,35)           119.9055         estimate D2E/DX2                !
 ! A97   A(33,34,69)           120.0802         estimate D2E/DX2                !
 ! A98   A(35,34,69)           120.0128         estimate D2E/DX2                !
 ! A99   A(30,35,34)           120.6122         estimate D2E/DX2                !
 ! A100  A(30,35,70)           119.1341         estimate D2E/DX2                !
 ! A101  A(34,35,70)           120.2537         estimate D2E/DX2                !
 ! A102  A(29,36,37)           118.1855         estimate D2E/DX2                !
 ! A103  A(29,36,41)           122.3604         estimate D2E/DX2                !
 ! A104  A(37,36,41)           119.395          estimate D2E/DX2                !
 ! A105  A(36,37,38)           120.4031         estimate D2E/DX2                !
 ! A106  A(36,37,71)           119.1431         estimate D2E/DX2                !
 ! A107  A(38,37,71)           120.4518         estimate D2E/DX2                !
 ! A108  A(37,38,39)           119.9618         estimate D2E/DX2                !
 ! A109  A(37,38,72)           119.9945         estimate D2E/DX2                !
 ! A110  A(39,38,72)           120.043          estimate D2E/DX2                !
 ! A111  A(38,39,40)           119.9242         estimate D2E/DX2                !
 ! A112  A(38,39,73)           120.1059         estimate D2E/DX2                !
 ! A113  A(40,39,73)           119.9698         estimate D2E/DX2                !
 ! A114  A(39,40,41)           120.2019         estimate D2E/DX2                !
 ! A115  A(39,40,74)           120.0564         estimate D2E/DX2                !
 ! A116  A(41,40,74)           119.7413         estimate D2E/DX2                !
 ! A117  A(36,41,40)           120.1135         estimate D2E/DX2                !
 ! A118  A(36,41,75)           119.9358         estimate D2E/DX2                !
 ! A119  A(40,41,75)           119.9507         estimate D2E/DX2                !
 ! A120  A(28,42,43)           120.5854         estimate D2E/DX2                !
 ! A121  A(28,42,76)           120.6902         estimate D2E/DX2                !
 ! A122  A(43,42,76)           118.7142         estimate D2E/DX2                !
 ! A123  A(42,43,44)           121.2667         estimate D2E/DX2                !
 ! A124  A(42,43,48)           119.6764         estimate D2E/DX2                !
 ! A125  A(44,43,48)           119.0408         estimate D2E/DX2                !
 ! A126  A(43,44,45)           120.9719         estimate D2E/DX2                !
 ! A127  A(43,44,77)           118.3699         estimate D2E/DX2                !
 ! A128  A(45,44,77)           120.6581         estimate D2E/DX2                !
 ! A129  A(44,45,46)           120.0196         estimate D2E/DX2                !
 ! A130  A(44,45,78)           120.377          estimate D2E/DX2                !
 ! A131  A(46,45,78)           119.5997         estimate D2E/DX2                !
 ! A132  A(45,46,47)           120.4804         estimate D2E/DX2                !
 ! A133  A(45,46,79)           119.7857         estimate D2E/DX2                !
 ! A134  A(47,46,79)           119.7338         estimate D2E/DX2                !
 ! A135  A(46,47,48)           120.9137         estimate D2E/DX2                !
 ! A136  A(46,47,80)           119.6135         estimate D2E/DX2                !
 ! A137  A(48,47,80)           119.4723         estimate D2E/DX2                !
 ! A138  A(25,48,43)           119.1808         estimate D2E/DX2                !
 ! A139  A(25,48,47)           122.2854         estimate D2E/DX2                !
 ! A140  A(43,48,47)           118.531          estimate D2E/DX2                !
 ! D1    D(49,1,2,3)          -176.6894         estimate D2E/DX2                !
 ! D2    D(49,1,2,24)            3.1634         estimate D2E/DX2                !
 ! D3    D(1,2,3,4)              4.7582         estimate D2E/DX2                !
 ! D4    D(1,2,3,17)          -175.7381         estimate D2E/DX2                !
 ! D5    D(24,2,3,4)          -175.0988         estimate D2E/DX2                !
 ! D6    D(24,2,3,17)            4.4049         estimate D2E/DX2                !
 ! D7    D(1,2,24,23)          177.2578         estimate D2E/DX2                !
 ! D8    D(1,2,24,25)           -2.3253         estimate D2E/DX2                !
 ! D9    D(3,2,24,23)           -2.9            estimate D2E/DX2                !
 ! D10   D(3,2,24,25)          177.5169         estimate D2E/DX2                !
 ! D11   D(2,3,4,5)            170.6112         estimate D2E/DX2                !
 ! D12   D(2,3,4,11)            68.4633         estimate D2E/DX2                !
 ! D13   D(17,3,4,5)            -8.8296         estimate D2E/DX2                !
 ! D14   D(17,3,4,11)         -110.9775         estimate D2E/DX2                !
 ! D15   D(2,3,17,18)           -2.111          estimate D2E/DX2                !
 ! D16   D(2,3,17,60)          179.0725         estimate D2E/DX2                !
 ! D17   D(4,3,17,18)          177.2873         estimate D2E/DX2                !
 ! D18   D(4,3,17,60)           -1.5291         estimate D2E/DX2                !
 ! D19   D(3,4,5,6)             72.1476         estimate D2E/DX2                !
 ! D20   D(3,4,5,10)          -113.1951         estimate D2E/DX2                !
 ! D21   D(11,4,5,6)           169.6067         estimate D2E/DX2                !
 ! D22   D(11,4,5,10)          -15.736          estimate D2E/DX2                !
 ! D23   D(3,4,11,12)         -140.1344         estimate D2E/DX2                !
 ! D24   D(3,4,11,16)           37.094          estimate D2E/DX2                !
 ! D25   D(5,4,11,12)          119.0908         estimate D2E/DX2                !
 ! D26   D(5,4,11,16)          -63.6808         estimate D2E/DX2                !
 ! D27   D(4,5,6,7)            177.3883         estimate D2E/DX2                !
 ! D28   D(4,5,6,50)            -2.6766         estimate D2E/DX2                !
 ! D29   D(10,5,6,7)             2.4593         estimate D2E/DX2                !
 ! D30   D(10,5,6,50)         -177.6056         estimate D2E/DX2                !
 ! D31   D(4,5,10,9)          -176.6894         estimate D2E/DX2                !
 ! D32   D(4,5,10,54)            3.3602         estimate D2E/DX2                !
 ! D33   D(6,5,10,9)            -2.1495         estimate D2E/DX2                !
 ! D34   D(6,5,10,54)          177.9001         estimate D2E/DX2                !
 ! D35   D(5,6,7,8)             -1.1533         estimate D2E/DX2                !
 ! D36   D(5,6,7,51)           179.2764         estimate D2E/DX2                !
 ! D37   D(50,6,7,8)           178.9124         estimate D2E/DX2                !
 ! D38   D(50,6,7,51)           -0.6579         estimate D2E/DX2                !
 ! D39   D(6,7,8,9)             -0.4787         estimate D2E/DX2                !
 ! D40   D(6,7,8,52)          -179.8693         estimate D2E/DX2                !
 ! D41   D(51,7,8,9)           179.0914         estimate D2E/DX2                !
 ! D42   D(51,7,8,52)           -0.2992         estimate D2E/DX2                !
 ! D43   D(7,8,9,10)             0.7804         estimate D2E/DX2                !
 ! D44   D(7,8,9,53)          -179.0997         estimate D2E/DX2                !
 ! D45   D(52,8,9,10)         -179.8293         estimate D2E/DX2                !
 ! D46   D(52,8,9,53)            0.2906         estimate D2E/DX2                !
 ! D47   D(8,9,10,5)             0.5509         estimate D2E/DX2                !
 ! D48   D(8,9,10,54)         -179.4986         estimate D2E/DX2                !
 ! D49   D(53,9,10,5)         -179.5686         estimate D2E/DX2                !
 ! D50   D(53,9,10,54)           0.3819         estimate D2E/DX2                !
 ! D51   D(4,11,12,13)         177.3048         estimate D2E/DX2                !
 ! D52   D(4,11,12,55)          -2.1935         estimate D2E/DX2                !
 ! D53   D(16,11,12,13)         -0.0099         estimate D2E/DX2                !
 ! D54   D(16,11,12,55)       -179.5082         estimate D2E/DX2                !
 ! D55   D(4,11,16,15)        -177.1151         estimate D2E/DX2                !
 ! D56   D(4,11,16,59)           2.9406         estimate D2E/DX2                !
 ! D57   D(12,11,16,15)          0.0799         estimate D2E/DX2                !
 ! D58   D(12,11,16,59)       -179.8644         estimate D2E/DX2                !
 ! D59   D(11,12,13,14)         -0.1899         estimate D2E/DX2                !
 ! D60   D(11,12,13,56)       -179.8475         estimate D2E/DX2                !
 ! D61   D(55,12,13,14)        179.3018         estimate D2E/DX2                !
 ! D62   D(55,12,13,56)         -0.3558         estimate D2E/DX2                !
 ! D63   D(12,13,14,15)          0.3193         estimate D2E/DX2                !
 ! D64   D(12,13,14,57)       -179.7123         estimate D2E/DX2                !
 ! D65   D(56,13,14,15)        179.9768         estimate D2E/DX2                !
 ! D66   D(56,13,14,57)         -0.0548         estimate D2E/DX2                !
 ! D67   D(13,14,15,16)         -0.2499         estimate D2E/DX2                !
 ! D68   D(13,14,15,58)        179.9782         estimate D2E/DX2                !
 ! D69   D(57,14,15,16)        179.7817         estimate D2E/DX2                !
 ! D70   D(57,14,15,58)          0.0098         estimate D2E/DX2                !
 ! D71   D(14,15,16,11)          0.0498         estimate D2E/DX2                !
 ! D72   D(14,15,16,59)        179.994          estimate D2E/DX2                !
 ! D73   D(58,15,16,11)        179.8224         estimate D2E/DX2                !
 ! D74   D(58,15,16,59)         -0.2334         estimate D2E/DX2                !
 ! D75   D(3,17,18,19)         179.9746         estimate D2E/DX2                !
 ! D76   D(3,17,18,23)          -1.4975         estimate D2E/DX2                !
 ! D77   D(60,17,18,19)         -1.186          estimate D2E/DX2                !
 ! D78   D(60,17,18,23)        177.3418         estimate D2E/DX2                !
 ! D79   D(17,18,19,20)        178.0281         estimate D2E/DX2                !
 ! D80   D(17,18,19,61)         -1.831          estimate D2E/DX2                !
 ! D81   D(23,18,19,20)         -0.5089         estimate D2E/DX2                !
 ! D82   D(23,18,19,61)        179.6321         estimate D2E/DX2                !
 ! D83   D(17,18,23,22)       -176.4681         estimate D2E/DX2                !
 ! D84   D(17,18,23,24)          2.9484         estimate D2E/DX2                !
 ! D85   D(19,18,23,22)          2.0927         estimate D2E/DX2                !
 ! D86   D(19,18,23,24)       -178.4909         estimate D2E/DX2                !
 ! D87   D(18,19,20,21)         -1.0117         estimate D2E/DX2                !
 ! D88   D(18,19,20,62)        179.6959         estimate D2E/DX2                !
 ! D89   D(61,19,20,21)        178.8441         estimate D2E/DX2                !
 ! D90   D(61,19,20,62)         -0.4483         estimate D2E/DX2                !
 ! D91   D(19,20,21,22)          0.9128         estimate D2E/DX2                !
 ! D92   D(19,20,21,63)       -178.993          estimate D2E/DX2                !
 ! D93   D(62,20,21,22)       -179.7893         estimate D2E/DX2                !
 ! D94   D(62,20,21,63)          0.3049         estimate D2E/DX2                !
 ! D95   D(20,21,22,23)          0.7373         estimate D2E/DX2                !
 ! D96   D(20,21,22,64)       -179.0023         estimate D2E/DX2                !
 ! D97   D(63,21,22,23)       -179.3569         estimate D2E/DX2                !
 ! D98   D(63,21,22,64)          0.9036         estimate D2E/DX2                !
 ! D99   D(21,22,23,18)         -2.2261         estimate D2E/DX2                !
 ! D100  D(21,22,23,24)        178.3766         estimate D2E/DX2                !
 ! D101  D(64,22,23,18)        177.5139         estimate D2E/DX2                !
 ! D102  D(64,22,23,24)         -1.8835         estimate D2E/DX2                !
 ! D103  D(18,23,24,2)          -0.7647         estimate D2E/DX2                !
 ! D104  D(18,23,24,25)        178.8142         estimate D2E/DX2                !
 ! D105  D(22,23,24,2)         178.6289         estimate D2E/DX2                !
 ! D106  D(22,23,24,25)         -1.7922         estimate D2E/DX2                !
 ! D107  D(2,24,25,26)         117.0821         estimate D2E/DX2                !
 ! D108  D(2,24,25,48)         -62.5591         estimate D2E/DX2                !
 ! D109  D(23,24,25,26)        -62.4928         estimate D2E/DX2                !
 ! D110  D(23,24,25,48)        117.866          estimate D2E/DX2                !
 ! D111  D(24,25,26,27)         -2.3932         estimate D2E/DX2                !
 ! D112  D(24,25,26,28)        177.4232         estimate D2E/DX2                !
 ! D113  D(48,25,26,27)        177.2551         estimate D2E/DX2                !
 ! D114  D(48,25,26,28)         -2.9285         estimate D2E/DX2                !
 ! D115  D(24,25,48,43)        178.9299         estimate D2E/DX2                !
 ! D116  D(24,25,48,47)         -1.6821         estimate D2E/DX2                !
 ! D117  D(26,25,48,43)         -0.7146         estimate D2E/DX2                !
 ! D118  D(26,25,48,47)        178.6733         estimate D2E/DX2                !
 ! D119  D(25,26,27,65)          3.1774         estimate D2E/DX2                !
 ! D120  D(28,26,27,65)       -176.6515         estimate D2E/DX2                !
 ! D121  D(25,26,28,29)       -175.0158         estimate D2E/DX2                !
 ! D122  D(25,26,28,42)          4.3797         estimate D2E/DX2                !
 ! D123  D(27,26,28,29)          4.8178         estimate D2E/DX2                !
 ! D124  D(27,26,28,42)       -175.7866         estimate D2E/DX2                !
 ! D125  D(26,28,29,30)        170.695          estimate D2E/DX2                !
 ! D126  D(26,28,29,36)         68.5756         estimate D2E/DX2                !
 ! D127  D(42,28,29,30)         -8.6236         estimate D2E/DX2                !
 ! D128  D(42,28,29,36)       -110.7431         estimate D2E/DX2                !
 ! D129  D(26,28,42,43)         -2.0548         estimate D2E/DX2                !
 ! D130  D(26,28,42,76)        179.1227         estimate D2E/DX2                !
 ! D131  D(29,28,42,43)        177.2119         estimate D2E/DX2                !
 ! D132  D(29,28,42,76)         -1.6105         estimate D2E/DX2                !
 ! D133  D(28,29,30,31)       -113.7267         estimate D2E/DX2                !
 ! D134  D(28,29,30,35)         71.7274         estimate D2E/DX2                !
 ! D135  D(36,29,30,31)        -16.3507         estimate D2E/DX2                !
 ! D136  D(36,29,30,35)        169.1035         estimate D2E/DX2                !
 ! D137  D(28,29,36,37)       -139.51           estimate D2E/DX2                !
 ! D138  D(28,29,36,41)         37.6742         estimate D2E/DX2                !
 ! D139  D(30,29,36,37)        119.6848         estimate D2E/DX2                !
 ! D140  D(30,29,36,41)        -63.131          estimate D2E/DX2                !
 ! D141  D(29,30,31,32)       -176.6151         estimate D2E/DX2                !
 ! D142  D(29,30,31,66)          3.4437         estimate D2E/DX2                !
 ! D143  D(35,30,31,32)         -2.1864         estimate D2E/DX2                !
 ! D144  D(35,30,31,66)        177.8724         estimate D2E/DX2                !
 ! D145  D(29,30,35,34)        177.324          estimate D2E/DX2                !
 ! D146  D(29,30,35,70)         -2.7266         estimate D2E/DX2                !
 ! D147  D(31,30,35,34)          2.5036         estimate D2E/DX2                !
 ! D148  D(31,30,35,70)       -177.5469         estimate D2E/DX2                !
 ! D149  D(30,31,32,33)          0.5565         estimate D2E/DX2                !
 ! D150  D(30,31,32,67)       -179.5646         estimate D2E/DX2                !
 ! D151  D(66,31,32,33)       -179.5022         estimate D2E/DX2                !
 ! D152  D(66,31,32,67)          0.3768         estimate D2E/DX2                !
 ! D153  D(31,32,33,34)          0.7994         estimate D2E/DX2                !
 ! D154  D(31,32,33,68)       -179.8188         estimate D2E/DX2                !
 ! D155  D(67,32,33,34)       -179.0792         estimate D2E/DX2                !
 ! D156  D(67,32,33,68)          0.3027         estimate D2E/DX2                !
 ! D157  D(32,33,34,35)         -0.4903         estimate D2E/DX2                !
 ! D158  D(32,33,34,69)        179.0697         estimate D2E/DX2                !
 ! D159  D(68,33,34,35)       -179.8723         estimate D2E/DX2                !
 ! D160  D(68,33,34,69)         -0.3123         estimate D2E/DX2                !
 ! D161  D(33,34,35,30)         -1.1736         estimate D2E/DX2                !
 ! D162  D(33,34,35,70)        178.8775         estimate D2E/DX2                !
 ! D163  D(69,34,35,30)        179.2661         estimate D2E/DX2                !
 ! D164  D(69,34,35,70)         -0.6828         estimate D2E/DX2                !
 ! D165  D(29,36,37,38)        177.2673         estimate D2E/DX2                !
 ! D166  D(29,36,37,71)         -2.2239         estimate D2E/DX2                !
 ! D167  D(41,36,37,38)         -0.0028         estimate D2E/DX2                !
 ! D168  D(41,36,37,71)       -179.494          estimate D2E/DX2                !
 ! D169  D(29,36,41,40)       -177.095          estimate D2E/DX2                !
 ! D170  D(29,36,41,75)          2.9391         estimate D2E/DX2                !
 ! D171  D(37,36,41,40)          0.0563         estimate D2E/DX2                !
 ! D172  D(37,36,41,75)       -179.9097         estimate D2E/DX2                !
 ! D173  D(36,37,38,39)         -0.1756         estimate D2E/DX2                !
 ! D174  D(36,37,38,72)       -179.8573         estimate D2E/DX2                !
 ! D175  D(71,37,38,39)        179.3089         estimate D2E/DX2                !
 ! D176  D(71,37,38,72)         -0.3728         estimate D2E/DX2                !
 ! D177  D(37,38,39,40)          0.3002         estimate D2E/DX2                !
 ! D178  D(37,38,39,73)       -179.7563         estimate D2E/DX2                !
 ! D179  D(72,38,39,40)        179.9818         estimate D2E/DX2                !
 ! D180  D(72,38,39,73)         -0.0747         estimate D2E/DX2                !
 ! D181  D(38,39,40,41)         -0.2473         estimate D2E/DX2                !
 ! D182  D(38,39,40,74)        179.985          estimate D2E/DX2                !
 ! D183  D(73,39,40,41)        179.809          estimate D2E/DX2                !
 ! D184  D(73,39,40,74)          0.0414         estimate D2E/DX2                !
 ! D185  D(39,40,41,36)          0.0687         estimate D2E/DX2                !
 ! D186  D(39,40,41,75)       -179.9654         estimate D2E/DX2                !
 ! D187  D(74,40,41,36)        179.8371         estimate D2E/DX2                !
 ! D188  D(74,40,41,75)         -0.197          estimate D2E/DX2                !
 ! D189  D(28,42,43,44)        179.9451         estimate D2E/DX2                !
 ! D190  D(28,42,43,48)         -1.5309         estimate D2E/DX2                !
 ! D191  D(76,42,43,44)         -1.2096         estimate D2E/DX2                !
 ! D192  D(76,42,43,48)        177.3145         estimate D2E/DX2                !
 ! D193  D(42,43,44,45)        178.0385         estimate D2E/DX2                !
 ! D194  D(42,43,44,77)         -1.8213         estimate D2E/DX2                !
 ! D195  D(48,43,44,45)         -0.4948         estimate D2E/DX2                !
 ! D196  D(48,43,44,77)        179.6455         estimate D2E/DX2                !
 ! D197  D(42,43,48,25)          2.9281         estimate D2E/DX2                !
 ! D198  D(42,43,48,47)       -176.4829         estimate D2E/DX2                !
 ! D199  D(44,43,48,25)       -178.5149         estimate D2E/DX2                !
 ! D200  D(44,43,48,47)          2.0741         estimate D2E/DX2                !
 ! D201  D(43,44,45,46)         -1.0111         estimate D2E/DX2                !
 ! D202  D(43,44,45,78)        179.6957         estimate D2E/DX2                !
 ! D203  D(77,44,45,46)        178.8454         estimate D2E/DX2                !
 ! D204  D(77,44,45,78)         -0.4478         estimate D2E/DX2                !
 ! D205  D(44,45,46,47)          0.9021         estimate D2E/DX2                !
 ! D206  D(44,45,46,79)       -179.0064         estimate D2E/DX2                !
 ! D207  D(78,45,46,47)       -179.7992         estimate D2E/DX2                !
 ! D208  D(78,45,46,79)          0.2923         estimate D2E/DX2                !
 ! D209  D(45,46,47,48)          0.743          estimate D2E/DX2                !
 ! D210  D(45,46,47,80)       -179.007          estimate D2E/DX2                !
 ! D211  D(79,46,47,48)       -179.3484         estimate D2E/DX2                !
 ! D212  D(79,46,47,80)          0.9016         estimate D2E/DX2                !
 ! D213  D(46,47,48,25)        178.3911         estimate D2E/DX2                !
 ! D214  D(46,47,48,43)         -2.2171         estimate D2E/DX2                !
 ! D215  D(80,47,48,25)         -1.8585         estimate D2E/DX2                !
 ! D216  D(80,47,48,43)        177.5332         estimate D2E/DX2                !
 --------------------------------------------------------------------------------
 Trust Radius=3.00D-01 FncErr=1.00D-07 GrdErr=1.00D-06 EigMax=2.50D+02 EigMin=1.00D-04
 Number of steps in this run=    453 maximum allowed number of steps=    480.
 GradGradGradGradGradGradGradGradGradGradGradGradGradGradGradGradGradGrad

 Leave Link  103 at Thu May 16 02:29:45 2024, MaxMem= 13421772800 cpu:               0.8 elap:               0.0
 (Enter /public/software/apps/Gaussian/g16/l202.exe)
 Symmetry turned off by external request.
 Stoichiometry    C44H32O2P2
 Framework group  C1[X(C44H32O2P2)]
 Deg. of freedom   234
 Full point group                 C1      NOp   1
                          Input orientation:                          
 ---------------------------------------------------------------------
 Center     Atomic      Atomic             Coordinates (Angstroms)
 Number     Number       Type             X           Y           Z
 ---------------------------------------------------------------------
      1          8           0        1.775254   -1.301523    1.390598
      2          6           0        1.748669   -0.125547    0.714952
      3          6           0        2.988159    0.556321    0.692499
      4         15           0        4.299638   -0.451517    1.482079
      5          6           0        5.765718    0.552233    1.029079
      6          6           0        5.921335    1.769309    1.690291
      7          6           0        7.025355    2.564344    1.450121
      8          6           0        8.001575    2.141017    0.562126
      9          6           0        7.870411    0.917971   -0.072929
     10          6           0        6.762022    0.122686    0.161613
     11          6           0        4.338781   -1.742825    0.171284
     12          6           0        4.479284   -3.068183    0.561491
     13          6           0        4.458585   -4.081701   -0.380560
     14          6           0        4.293073   -3.776649   -1.720713
     15          6           0        4.155014   -2.455836   -2.117142
     16          6           0        4.176878   -1.441585   -1.177556
     17          6           0        3.069189    1.793287    0.118591
     18          6           0        1.937671    2.377970   -0.491320
     19          6           0        2.004908    3.653487   -1.087226
     20          6           0        0.916204    4.196973   -1.711153
     21          6           0       -0.283152    3.475538   -1.783530
     22          6           0       -0.381498    2.234457   -1.217216
     23          6           0        0.712746    1.659536   -0.535983
     24          6           0        0.632169    0.384095    0.093488
     25          6           0       -0.632499   -0.387415    0.093580
     26          6           0       -1.748299    0.122649    0.715978
     27          8           0       -1.773425    1.297805    1.393087
     28          6           0       -2.988709   -0.557435    0.692658
     29         15           0       -4.298351    0.453089    1.482159
     30          6           0       -5.767004   -0.547825    1.031719
     31          6           0       -6.768058   -0.111708    0.172974
     32          6           0       -7.879039   -0.903924   -0.059524
     33          6           0       -8.008138   -2.130510    0.569098
     34          6           0       -7.027333   -2.560280    1.448894
     35          6           0       -5.920737   -1.768255    1.687166
     36          6           0       -4.335019    1.741514    0.168300
     37          6           0       -4.459547    3.069409    0.555115
     38          6           0       -4.435348    4.079557   -0.390497
     39          6           0       -4.282605    3.768439   -1.730766
     40          6           0       -4.160416    2.445021   -2.123755
     41          6           0       -4.185459    1.434210   -1.180602
     42          6           0       -3.071576   -1.793135    0.116346
     43          6           0       -1.940717   -2.378589   -0.494070
     44          6           0       -2.009733   -3.653109   -1.091905
     45          6           0       -0.921626   -4.197452   -1.716126
     46          6           0        0.278943   -3.477874   -1.786858
     47          6           0        0.378971   -2.237707   -1.218830
     48          6           0       -0.714676   -1.661965   -0.537359
     49          1           0        0.921693   -1.751252    1.332892
     50          1           0        5.164029    2.086231    2.395964
     51          1           0        7.130454    3.511698    1.959494
     52          1           0        8.867013    2.759402    0.373801
     53          1           0        8.637210    0.578780   -0.754766
     54          1           0        6.673292   -0.834148   -0.333157
     55          1           0        4.596759   -3.298223    1.610990
     56          1           0        4.566026   -5.110772   -0.069279
     57          1           0        4.271902   -4.566550   -2.457798
     58          1           0        4.026003   -2.215131   -3.163116
     59          1           0        4.068802   -0.411744   -1.491804
     60          1           0        4.004106    2.334950    0.105618
     61          1           0        2.940264    4.192903   -1.041616
     62          1           0        0.977004    5.177111   -2.160304
     63          1           0       -1.135628    3.901543   -2.291299
     64          1           0       -1.307683    1.683932   -1.295358
     65          1           0       -0.919472    1.746820    1.335551
     66          1           0       -6.680834    0.847899   -0.316692
     67          1           0       -8.649470   -0.559561   -0.734640
     68          1           0       -8.875537   -2.746608    0.382298
     69          1           0       -7.130913   -3.510320    1.953565
     70          1           0       -5.160109   -2.090137    2.386996
     71          1           0       -4.567225    3.304024    1.604639
     72          1           0       -4.530483    5.110671   -0.081954
     73          1           0       -4.259442    4.555616   -2.470718
     74          1           0       -4.041289    2.199633   -3.169800
     75          1           0       -4.089150    0.402319   -1.491915
     76          1           0       -4.007339   -2.333295    0.101846
     77          1           0       -2.945969   -4.191099   -1.047545
     78          1           0       -0.983820   -5.176826   -2.166753
     79          1           0        1.131004   -3.904653   -2.294682
     80          1           0        1.306098   -1.688593   -1.295624
 ---------------------------------------------------------------------
 Rotational constants (GHZ):           0.1161702           0.0378804           0.0318644
 Leave Link  202 at Thu May 16 02:29:45 2024, MaxMem= 13421772800 cpu:               1.4 elap:               0.1
 (Enter /public/software/apps/Gaussian/g16/l301.exe)
 Standard basis: def2SVPP (5D, 7F)
 Ernie: Thresh=  0.10000D-02 Tol=  0.10000D-05 Strict=F.
   744 basis functions,  1352 primitive gaussians,   792 cartesian basis functions
   171 alpha electrons      171 beta electrons
       nuclear repulsion energy      6192.6359370303 Hartrees.
 IExCor=  402 DFT=T Ex+Corr=B3LYP ExCW=0 ScaHFX=  0.200000
 ScaDFX=  0.800000  0.720000  1.000000  0.810000 ScalE2=  1.000000  1.000000
 IRadAn=      5 IRanWt=     -1 IRanGd=            0 ICorTp=0 IEmpDi=141
 NAtoms=   80 NActive=   80 NUniq=   80 SFac= 1.00D+00 NAtFMM=   60 NAOKFM=T Big=T
 Integral buffers will be    131072 words long.
 Raffenetti 2 integral format.
 Two-electron integral symmetry is turned off.
 R6Disp:  Grimme-D3(BJ) Dispersion energy=       -0.2450969194 Hartrees.
 Nuclear repulsion after empirical dispersion term =     6192.3908401109 Hartrees.
 Leave Link  301 at Thu May 16 02:29:45 2024, MaxMem= 13421772800 cpu:               0.7 elap:               0.0
 (Enter /public/software/apps/Gaussian/g16/l302.exe)
 NPDir=0 NMtPBC=     1 NCelOv=     1 NCel=       1 NClECP=     1 NCelD=      1
         NCelK=      1 NCelE2=     1 NClLst=     1 CellRange=     0.0.
 One-electron integrals computed using PRISM.
   1 Symmetry operations used in ECPInt.
 ECPInt:  NShTT=   63546 NPrTT=  257426 LenC2=   49934 LenP2D=  122137.
 LDataN:  DoStor=T MaxTD1= 4 Len=   56
 NBasis=   744 RedAO= T EigKep=  1.48D-04  NBF=   744
 NBsUse=   744 1.00D-06 EigRej= -1.00D+00 NBFU=   744
 Precomputing XC quadrature grid using
 IXCGrd= 4 IRadAn=           5 IRanWt=          -1 IRanGd=           0 AccXCQ= 0.00D+00.
 Generated NRdTot=       0 NPtTot=           0 NUsed=           0 NTot=          32
 NSgBfM=   762   762   762   762   762 MxSgAt=    80 MxSgA2=    80.
 Leave Link  302 at Thu May 16 02:29:46 2024, MaxMem= 13421772800 cpu:              35.0 elap:               1.1
 (Enter /public/software/apps/Gaussian/g16/l303.exe)
 DipDrv:  MaxL=1.
 Leave Link  303 at Thu May 16 02:29:46 2024, MaxMem= 13421772800 cpu:               4.0 elap:               0.2
 (Enter /public/software/apps/Gaussian/g16/l401.exe)
 ExpMin= 1.05D-01 ExpMax= 8.00D+03 ExpMxC= 1.20D+03 IAcc=3 IRadAn=         5 AccDes= 0.00D+00
 Harris functional with IExCor=  402 and IRadAn=       5 diagonalized for initial guess.
 HarFok:  IExCor=  402 AccDes= 0.00D+00 IRadAn=         5 IDoV= 1 UseB2=F ITyADJ=14
 ICtDFT=  3500011 ScaDFX=  1.000000  1.000000  1.000000  1.000000
 FoFCou: FMM=F IPFlag=           0 FMFlag=      100000 FMFlg1=        2001
         NFxFlg=           0 DoJE=T BraDBF=F KetDBF=T FulRan=T
         wScrn=  0.000000 ICntrl=       500 IOpCl=  0 I1Cent=   200000004 NGrid=           0
         NMat0=    1 NMatS0=      1 NMatT0=    0 NMatD0=    1 NMtDS0=    0 NMtDT0=    0
 Symmetry not used in FoFCou.
 Harris En= -2527.71843283417    
 JPrj=0 DoOrth=F DoCkMO=F.
 Leave Link  401 at Thu May 16 02:29:49 2024, MaxMem= 13421772800 cpu:              79.7 elap:               2.5
 (Enter /public/software/apps/Gaussian/g16/l502.exe)
 Two-electron integral symmetry not used.
 Closed shell SCF:
 Using DIIS extrapolation, IDIIS=  1040.
 NGot= 13421772800 LenX= 13420484642 LenY= 13419856586
 Requested convergence on RMS density matrix=1.00D-08 within 128 cycles.
 Requested convergence on MAX density matrix=1.00D-06.
 Requested convergence on             energy=1.00D-06.
 No special actions if energy rises.
 Fock matrices will be formed incrementally for  20 cycles.
 Integral accuracy reduced to 1.0D-05 until final iterations.

 Cycle   1  Pass 0  IDiag  1:
 FoFJK:  IHMeth= 1 ICntrl=       0 DoSepK=F KAlg= 0 I1Cent=           0 FoldK=F
 IRaf= 890000000 NMat=       1 IRICut=       1 DoRegI=T DoRafI=F ISym2E= 0 IDoP0=0 IntGTp=1.
 FoFCou: FMM=T IPFlag=           0 FMFlag=      100000 FMFlg1=        2001
         NFxFlg=           0 DoJE=F BraDBF=F KetDBF=F FulRan=T
         wScrn=  0.000000 ICntrl=         0 IOpCl=  0 I1Cent=           0 NGrid=           0
         NMat0=    1 NMatS0=      1 NMatT0=    0 NMatD0=    1 NMtDS0=    0 NMtDT0=    0
 Symmetry not used in FoFCou.
 FMM levels:  10  Number of levels for PrismC:   9
 E= -2526.72089175286    
 DIIS: error= 2.44D-02 at cycle   1 NSaved=   1.
 NSaved= 1 IEnMin= 1 EnMin= -2526.72089175286     IErMin= 1 ErrMin= 2.44D-02
 ErrMax= 2.44D-02  0.00D+00 EMaxC= 1.00D-01 BMatC= 8.89D-01 BMatP= 8.89D-01
 IDIUse=3 WtCom= 7.56D-01 WtEn= 2.44D-01
 Coeff-Com:  0.100D+01
 Coeff-En:   0.100D+01
 Coeff:      0.100D+01
 Gap=     0.265 Goal=   None    Shift=    0.000
 GapD=    0.265 DampG=1.000 DampE=0.500 DampFc=0.5000 IDamp=-1.
 Damping current iteration by 5.00D-01
 RMSDP=4.71D-03 MaxDP=1.58D-01              OVMax= 1.70D-01

 Cycle   2  Pass 0  IDiag  1:
 RMSU=  2.14D-03    CP:  9.40D-01
 E= -2527.18383437477     Delta-E=       -0.462942621911 Rises=F Damp=T
 DIIS: error= 5.35D-03 at cycle   2 NSaved=   2.
 NSaved= 2 IEnMin= 2 EnMin= -2527.18383437477     IErMin= 2 ErrMin= 5.35D-03
 ErrMax= 5.35D-03  0.00D+00 EMaxC= 1.00D-01 BMatC= 4.87D-02 BMatP= 8.89D-01
 IDIUse=3 WtCom= 9.46D-01 WtEn= 5.35D-02
 Coeff-Com:  0.535D-01 0.946D+00
 Coeff-En:   0.912D-01 0.909D+00
 Coeff:      0.555D-01 0.944D+00
 Gap=     0.173 Goal=   None    Shift=    0.000
 RMSDP=1.68D-03 MaxDP=1.03D-01 DE=-4.63D-01 OVMax= 1.63D-01

 Cycle   3  Pass 0  IDiag  1:
 RMSU=  1.58D-03    CP:  9.05D-01  1.02D+00
 E= -2527.71357854966     Delta-E=       -0.529744174892 Rises=F Damp=F
 DIIS: error= 7.18D-03 at cycle   3 NSaved=   3.
 NSaved= 3 IEnMin= 3 EnMin= -2527.71357854966     IErMin= 2 ErrMin= 5.35D-03
 ErrMax= 7.18D-03  0.00D+00 EMaxC= 1.00D-01 BMatC= 4.30D-02 BMatP= 4.87D-02
 IDIUse=3 WtCom= 9.28D-01 WtEn= 7.18D-02
 Coeff-Com: -0.171D-01 0.484D+00 0.533D+00
 Coeff-En:   0.000D+00 0.000D+00 0.100D+01
 Coeff:     -0.158D-01 0.449D+00 0.566D+00
 Gap=     0.168 Goal=   None    Shift=    0.000
 RMSDP=8.28D-04 MaxDP=3.46D-02 DE=-5.30D-01 OVMax= 9.90D-02

 Cycle   4  Pass 0  IDiag  1:
 RMSU=  6.40D-04    CP:  9.04D-01  1.12D+00  6.98D-01
 E= -2527.74305380256     Delta-E=       -0.029475252899 Rises=F Damp=F
 DIIS: error= 5.48D-03 at cycle   4 NSaved=   4.
 NSaved= 4 IEnMin= 4 EnMin= -2527.74305380256     IErMin= 2 ErrMin= 5.35D-03
 ErrMax= 5.48D-03  0.00D+00 EMaxC= 1.00D-01 BMatC= 1.82D-02 BMatP= 4.30D-02
 IDIUse=3 WtCom= 9.45D-01 WtEn= 5.48D-02
 Coeff-Com: -0.183D-01 0.172D+00 0.397D+00 0.449D+00
 Coeff-En:   0.000D+00 0.000D+00 0.331D+00 0.669D+00
 Coeff:     -0.173D-01 0.163D+00 0.394D+00 0.461D+00
 Gap=     0.156 Goal=   None    Shift=    0.000
 RMSDP=3.73D-04 MaxDP=1.60D-02 DE=-2.95D-02 OVMax= 5.23D-02

 Cycle   5  Pass 0  IDiag  1:
 RMSU=  2.15D-04    CP:  9.02D-01  1.11D+00  7.75D-01  5.69D-01
 E= -2527.76378571392     Delta-E=       -0.020731911367 Rises=F Damp=F
 DIIS: error= 9.90D-04 at cycle   5 NSaved=   5.
 NSaved= 5 IEnMin= 5 EnMin= -2527.76378571392     IErMin= 5 ErrMin= 9.90D-04
 ErrMax= 9.90D-04  0.00D+00 EMaxC= 1.00D-01 BMatC= 1.18D-03 BMatP= 1.82D-02
 IDIUse=3 WtCom= 9.90D-01 WtEn= 9.90D-03
 Coeff-Com: -0.838D-02 0.416D-01 0.163D+00 0.267D+00 0.537D+00
 Coeff-En:   0.000D+00 0.000D+00 0.000D+00 0.278D-02 0.997D+00
 Coeff:     -0.829D-02 0.412D-01 0.161D+00 0.265D+00 0.541D+00
 Gap=     0.154 Goal=   None    Shift=    0.000
 RMSDP=1.02D-04 MaxDP=4.46D-03 DE=-2.07D-02 OVMax= 1.25D-02

 Cycle   6  Pass 0  IDiag  1:
 RMSU=  7.13D-05    CP:  9.02D-01  1.11D+00  7.88D-01  6.01D-01  6.90D-01
 E= -2527.76496958139     Delta-E=       -0.001183867464 Rises=F Damp=F
 DIIS: error= 4.42D-04 at cycle   6 NSaved=   6.
 NSaved= 6 IEnMin= 6 EnMin= -2527.76496958139     IErMin= 6 ErrMin= 4.42D-04
 ErrMax= 4.42D-04  0.00D+00 EMaxC= 1.00D-01 BMatC= 2.19D-04 BMatP= 1.18D-03
 IDIUse=3 WtCom= 9.96D-01 WtEn= 4.42D-03
 Coeff-Com: -0.328D-02 0.635D-02 0.559D-01 0.116D+00 0.351D+00 0.474D+00
 Coeff-En:   0.000D+00 0.000D+00 0.000D+00 0.000D+00 0.123D+00 0.877D+00
 Coeff:     -0.326D-02 0.632D-02 0.557D-01 0.115D+00 0.350D+00 0.476D+00
 Gap=     0.154 Goal=   None    Shift=    0.000
 RMSDP=3.64D-05 MaxDP=1.40D-03 DE=-1.18D-03 OVMax= 4.14D-03

 Cycle   7  Pass 0  IDiag  1:
 RMSU=  2.75D-05    CP:  9.02D-01  1.11D+00  7.87D-01  6.04D-01  7.37D-01
                    CP:  6.99D-01
 E= -2527.76523909582     Delta-E=       -0.000269514430 Rises=F Damp=F
 DIIS: error= 9.10D-05 at cycle   7 NSaved=   7.
 NSaved= 7 IEnMin= 7 EnMin= -2527.76523909582     IErMin= 7 ErrMin= 9.10D-05
 ErrMax= 9.10D-05  0.00D+00 EMaxC= 1.00D-01 BMatC= 1.64D-05 BMatP= 2.19D-04
 IDIUse=1 WtCom= 1.00D+00 WtEn= 0.00D+00
 Coeff-Com: -0.115D-02-0.320D-05 0.168D-01 0.407D-01 0.148D+00 0.281D+00
 Coeff-Com:  0.515D+00
 Coeff:     -0.115D-02-0.320D-05 0.168D-01 0.407D-01 0.148D+00 0.281D+00
 Coeff:      0.515D+00
 Gap=     0.154 Goal=   None    Shift=    0.000
 RMSDP=1.54D-05 MaxDP=7.85D-04 DE=-2.70D-04 OVMax= 1.00D-03

 Cycle   8  Pass 0  IDiag  1:
 RMSU=  1.46D-05    CP:  9.02D-01  1.11D+00  7.87D-01  6.08D-01  7.25D-01
                    CP:  7.22D-01  9.13D-01
 E= -2527.76527188526     Delta-E=       -0.000032789447 Rises=F Damp=F
 DIIS: error= 3.11D-05 at cycle   8 NSaved=   8.
 NSaved= 8 IEnMin= 8 EnMin= -2527.76527188526     IErMin= 8 ErrMin= 3.11D-05
 ErrMax= 3.11D-05  0.00D+00 EMaxC= 1.00D-01 BMatC= 1.18D-06 BMatP= 1.64D-05
 IDIUse=1 WtCom= 1.00D+00 WtEn= 0.00D+00
 Coeff-Com: -0.375D-03-0.555D-03 0.520D-02 0.137D-01 0.554D-01 0.119D+00
 Coeff-Com:  0.284D+00 0.524D+00
 Coeff:     -0.375D-03-0.555D-03 0.520D-02 0.137D-01 0.554D-01 0.119D+00
 Coeff:      0.284D+00 0.524D+00
 Gap=     0.154 Goal=   None    Shift=    0.000
 RMSDP=1.29D-05 MaxDP=4.20D-04 DE=-3.28D-05 OVMax= 2.92D-04

 Cycle   9  Pass 0  IDiag  1:
 RMSU=  9.91D-06    CP:  9.02D-01  1.11D+00  7.87D-01  6.09D-01  7.28D-01
                    CP:  7.29D-01  1.05D+00  1.49D+00
 E= -2527.76527411540     Delta-E=       -0.000002230134 Rises=F Damp=F
 DIIS: error= 2.77D-05 at cycle   9 NSaved=   9.
 NSaved= 9 IEnMin= 9 EnMin= -2527.76527411540     IErMin= 9 ErrMin= 2.77D-05
 ErrMax= 2.77D-05  0.00D+00 EMaxC= 1.00D-01 BMatC= 3.70D-07 BMatP= 1.18D-06
 IDIUse=1 WtCom= 1.00D+00 WtEn= 0.00D+00
 Coeff-Com: -0.117D-03-0.374D-03 0.158D-02 0.428D-02 0.198D-01 0.473D-01
 Coeff-Com:  0.132D+00 0.359D+00 0.437D+00
 Coeff:     -0.117D-03-0.374D-03 0.158D-02 0.428D-02 0.198D-01 0.473D-01
 Coeff:      0.132D+00 0.359D+00 0.437D+00
 Gap=     0.154 Goal=   None    Shift=    0.000
 RMSDP=1.47D-05 MaxDP=4.93D-04 DE=-2.23D-06 OVMax= 9.58D-05

 Cycle  10  Pass 0  IDiag  1:
 RMSU=  8.14D-06    CP:  9.02D-01  1.11D+00  7.88D-01  6.09D-01  7.27D-01
                    CP:  7.48D-01  1.21D+00  2.01D+00  1.85D+00
 E= -2527.76527780014     Delta-E=       -0.000003684747 Rises=F Damp=F
 DIIS: error= 2.95D-05 at cycle  10 NSaved=  10.
 NSaved=10 IEnMin=10 EnMin= -2527.76527780014     IErMin= 9 ErrMin= 2.77D-05
 ErrMax= 2.95D-05  0.00D+00 EMaxC= 1.00D-01 BMatC= 3.63D-07 BMatP= 3.70D-07
 IDIUse=1 WtCom= 1.00D+00 WtEn= 0.00D+00
 Coeff-Com: -0.113D-03-0.417D-03 0.151D-02 0.416D-02 0.199D-01 0.485D-01
 Coeff-Com:  0.139D+00 0.404D+00 0.555D+00-0.172D+00
 Coeff:     -0.113D-03-0.417D-03 0.151D-02 0.416D-02 0.199D-01 0.485D-01
 Coeff:      0.139D+00 0.404D+00 0.555D+00-0.172D+00
 Gap=     0.154 Goal=   None    Shift=    0.000
 RMSDP=5.50D-06 MaxDP=1.69D-04 DE=-3.68D-06 OVMax= 1.63D-05

 Initial convergence to 1.0D-05 achieved.  Increase integral accuracy.
 Cycle  11  Pass 1  IDiag  1:
 E= -2527.76469211375     Delta-E=        0.000585686397 Rises=F Damp=F
 DIIS: error= 9.89D-04 at cycle   1 NSaved=   1.
 NSaved= 1 IEnMin= 1 EnMin= -2527.76469211375     IErMin= 1 ErrMin= 9.89D-04
 ErrMax= 9.89D-04  0.00D+00 EMaxC= 1.00D-01 BMatC= 1.61D-04 BMatP= 1.61D-04
 IDIUse=3 WtCom= 9.90D-01 WtEn= 9.89D-03
 Coeff-Com:  0.100D+01
 Coeff-En:   0.100D+01
 Coeff:      0.100D+01
 Gap=     0.154 Goal=   None    Shift=    0.000
 RMSDP=5.50D-06 MaxDP=1.69D-04 DE= 5.86D-04 OVMax= 1.68D-03

 Cycle  12  Pass 1  IDiag  1:
 RMSU=  6.20D-04    CP:  9.97D-01
 E= -2527.76487676623     Delta-E=       -0.000184652481 Rises=F Damp=F
 DIIS: error= 9.65D-06 at cycle   2 NSaved=   2.
 NSaved= 2 IEnMin= 2 EnMin= -2527.76487676623     IErMin= 2 ErrMin= 9.65D-06
 ErrMax= 9.65D-06  0.00D+00 EMaxC= 1.00D-01 BMatC= 1.28D-07 BMatP= 1.61D-04
 IDIUse=1 WtCom= 1.00D+00 WtEn= 0.00D+00
 Coeff-Com: -0.896D-02 0.101D+01
 Coeff:     -0.896D-02 0.101D+01
 Gap=     0.154 Goal=   None    Shift=    0.000
 RMSDP=8.09D-06 MaxDP=2.30D-04 DE=-1.85D-04 OVMax= 2.45D-04

 Cycle  13  Pass 1  IDiag  1:
 RMSU=  3.12D-06    CP:  9.97D-01  1.01D+00
 E= -2527.76487636531     Delta-E=        0.000000400923 Rises=F Damp=F
 DIIS: error= 2.14D-05 at cycle   3 NSaved=   3.
 NSaved= 3 IEnMin= 2 EnMin= -2527.76487676623     IErMin= 2 ErrMin= 9.65D-06
 ErrMax= 2.14D-05  0.00D+00 EMaxC= 1.00D-01 BMatC= 4.97D-07 BMatP= 1.28D-07
 IDIUse=1 WtCom= 1.00D+00 WtEn= 0.00D+00
 Coeff-Com: -0.677D-02 0.686D+00 0.321D+00
 Coeff:     -0.677D-02 0.686D+00 0.321D+00
 Gap=     0.154 Goal=   None    Shift=    0.000
 RMSDP=1.44D-06 MaxDP=8.66D-05 DE= 4.01D-07 OVMax= 1.90D-04

 Cycle  14  Pass 1  IDiag  1:
 RMSU=  1.14D-06    CP:  9.97D-01  1.01D+00  7.18D-01
 E= -2527.76487691990     Delta-E=       -0.000000554592 Rises=F Damp=F
 DIIS: error= 2.28D-06 at cycle   4 NSaved=   4.
 NSaved= 4 IEnMin= 4 EnMin= -2527.76487691990     IErMin= 4 ErrMin= 2.28D-06
 ErrMax= 2.28D-06  0.00D+00 EMaxC= 1.00D-01 BMatC= 5.19D-09 BMatP= 1.28D-07
 IDIUse=1 WtCom= 1.00D+00 WtEn= 0.00D+00
 Coeff-Com: -0.305D-02 0.305D+00 0.164D+00 0.534D+00
 Coeff:     -0.305D-02 0.305D+00 0.164D+00 0.534D+00
 Gap=     0.154 Goal=   None    Shift=    0.000
 RMSDP=2.33D-07 MaxDP=1.57D-05 DE=-5.55D-07 OVMax= 2.42D-05

 Cycle  15  Pass 1  IDiag  1:
 RMSU=  1.89D-07    CP:  9.97D-01  1.01D+00  7.48D-01  9.16D-01
 E= -2527.76487692453     Delta-E=       -0.000000004635 Rises=F Damp=F
 DIIS: error= 8.78D-07 at cycle   5 NSaved=   5.
 NSaved= 5 IEnMin= 5 EnMin= -2527.76487692453     IErMin= 5 ErrMin= 8.78D-07
 ErrMax= 8.78D-07  0.00D+00 EMaxC= 1.00D-01 BMatC= 1.10D-09 BMatP= 5.19D-09
 IDIUse=1 WtCom= 1.00D+00 WtEn= 0.00D+00
 Coeff-Com: -0.398D-03 0.380D-01 0.307D-01 0.330D+00 0.602D+00
 Coeff:     -0.398D-03 0.380D-01 0.307D-01 0.330D+00 0.602D+00
 Gap=     0.154 Goal=   None    Shift=    0.000
 RMSDP=8.98D-08 MaxDP=6.20D-06 DE=-4.63D-09 OVMax= 9.93D-06

 Cycle  16  Pass 1  IDiag  1:
 RMSU=  6.39D-08    CP:  9.97D-01  1.01D+00  7.49D-01  9.42D-01  7.15D-01
 E= -2527.76487692559     Delta-E=       -0.000000001059 Rises=F Damp=F
 DIIS: error= 3.39D-07 at cycle   6 NSaved=   6.
 NSaved= 6 IEnMin= 6 EnMin= -2527.76487692559     IErMin= 6 ErrMin= 3.39D-07
 ErrMax= 3.39D-07  0.00D+00 EMaxC= 1.00D-01 BMatC= 1.67D-10 BMatP= 1.10D-09
 IDIUse=1 WtCom= 1.00D+00 WtEn= 0.00D+00
 Coeff-Com: -0.723D-05-0.461D-03 0.616D-02 0.168D+00 0.386D+00 0.441D+00
 Coeff:     -0.723D-05-0.461D-03 0.616D-02 0.168D+00 0.386D+00 0.441D+00
 Gap=     0.154 Goal=   None    Shift=    0.000
 RMSDP=3.21D-08 MaxDP=1.92D-06 DE=-1.06D-09 OVMax= 2.94D-06

 Cycle  17  Pass 1  IDiag  1:
 RMSU=  1.53D-08    CP:  9.97D-01  1.01D+00  7.50D-01  9.46D-01  7.27D-01
                    CP:  5.69D-01
 E= -2527.76487692579     Delta-E=       -0.000000000204 Rises=F Damp=F
 DIIS: error= 6.74D-08 at cycle   7 NSaved=   7.
 NSaved= 7 IEnMin= 7 EnMin= -2527.76487692579     IErMin= 7 ErrMin= 6.74D-08
 ErrMax= 6.74D-08  0.00D+00 EMaxC= 1.00D-01 BMatC= 9.43D-12 BMatP= 1.67D-10
 IDIUse=1 WtCom= 1.00D+00 WtEn= 0.00D+00
 Coeff-Com:  0.251D-04-0.310D-02 0.144D-02 0.764D-01 0.188D+00 0.259D+00
 Coeff-Com:  0.478D+00
 Coeff:      0.251D-04-0.310D-02 0.144D-02 0.764D-01 0.188D+00 0.259D+00
 Coeff:      0.478D+00
 Gap=     0.154 Goal=   None    Shift=    0.000
 RMSDP=6.62D-09 MaxDP=3.40D-07 DE=-2.04D-10 OVMax= 9.34D-07

 SCF Done:  E(RB3LYP) =  -2527.76487693     A.U. after   17 cycles
            NFock= 17  Conv=0.66D-08     -V/T= 2.0077
 KE= 2.508517945068D+03 PE=-1.828557841411D+04 EE= 7.056904752001D+03
 Leave Link  502 at Thu May 16 02:31:10 2024, MaxMem= 13421772800 cpu:            2584.7 elap:              81.9
 (Enter /public/software/apps/Gaussian/g16/l601.exe)
 Copying SCF densities to generalized density rwf, IOpCl= 0 IROHF=0.

 **********************************************************************

            Population analysis using the SCF Density.

 **********************************************************************

 Alpha  occ. eigenvalues --  -77.05215 -77.05214 -19.16951 -19.16944 -10.25528
 Alpha  occ. eigenvalues --  -10.25526 -10.20107 -10.20103 -10.19815 -10.19797
 Alpha  occ. eigenvalues --  -10.19459 -10.19458 -10.19301 -10.19299 -10.19169
 Alpha  occ. eigenvalues --  -10.19169 -10.18977 -10.18976 -10.18936 -10.18934
 Alpha  occ. eigenvalues --  -10.18809 -10.18808 -10.18772 -10.18772 -10.18724
 Alpha  occ. eigenvalues --  -10.18722 -10.18717 -10.18717 -10.18676 -10.18675
 Alpha  occ. eigenvalues --  -10.18663 -10.18663 -10.18633 -10.18633 -10.18578
 Alpha  occ. eigenvalues --  -10.18578 -10.18496 -10.18492 -10.18464 -10.18462
 Alpha  occ. eigenvalues --  -10.18422 -10.18420 -10.18384 -10.18382 -10.18319
 Alpha  occ. eigenvalues --  -10.18319 -10.18244 -10.18240  -6.54822  -6.54821
 Alpha  occ. eigenvalues --   -4.71441  -4.71439  -4.71422  -4.71421  -4.70918
 Alpha  occ. eigenvalues --   -4.70917  -1.06568  -1.06357  -0.88432  -0.87443
 Alpha  occ. eigenvalues --   -0.85989  -0.85971  -0.85325  -0.85321  -0.82677
 Alpha  occ. eigenvalues --   -0.82230  -0.80218  -0.76865  -0.76594  -0.76197
 Alpha  occ. eigenvalues --   -0.74620  -0.74609  -0.74472  -0.74462  -0.74088
 Alpha  occ. eigenvalues --   -0.74047  -0.73803  -0.73761  -0.72661  -0.70822
 Alpha  occ. eigenvalues --   -0.66460  -0.66252  -0.64512  -0.63066  -0.61278
 Alpha  occ. eigenvalues --   -0.61269  -0.60945  -0.60832  -0.60822  -0.60411
 Alpha  occ. eigenvalues --   -0.60006  -0.59543  -0.59537  -0.58610  -0.56580
 Alpha  occ. eigenvalues --   -0.56442  -0.55621  -0.55310  -0.53121  -0.52891
 Alpha  occ. eigenvalues --   -0.52306  -0.52115  -0.51673  -0.50512  -0.48756
 Alpha  occ. eigenvalues --   -0.48589  -0.46615  -0.46359  -0.46314  -0.46285
 Alpha  occ. eigenvalues --   -0.46048  -0.46005  -0.45460  -0.45280  -0.45267
[...]
 3,0.00000961,0.00000283,0.00000714,0.00000263,-0.00000845,0.00000167,0
 .00000021,0.00000056,0.00000228,0.00000241,-0.00000037,-0.00000241,0.0
 0000116,0.00000596,0.00000691,0.00000123,-0.00000247,-0.00000332,-0.00
 001402,0.00002693,0.00001217,0.00000045,0.00002724,0.00000096,0.000015
 73,0.00002460,-0.00006032,0.00014265,-0.00002473,0.00009098,0.00003728
 ,0.00005758,0.00012893,-0.00007992,-0.00005539,0.00000277,-0.00000778,
 0.00000596,0.00000149,0.00000320,-0.00000740,0.00000005,-0.00000481,0.
 00000082,-0.00000144,0.00000317,-0.00000392,0.00000258,0.00000006,-0.0
 0000280,-0.00000495,0.00000203,-0.00001032,0.00000389,-0.00001325,0.00
 001870,-0.00001963,-0.00002253,0.00007226,0.00011403,0.00006633,0.0000
 7425,0.00013130,-0.00003208,-0.00025298,0.00002834,0.00012787,0.000042
 62,-0.00003273,-0.00008306,0.00001269,0.00003190,-0.00002709,0.0000065
 1,-0.00000846,0.00001013,-0.00000140,-0.00000490,-0.00000629,0.0000083
 3,0.00000154,0.00000082,0.00000701,0.00000073,0.00000373,0.00000149,0.
 00000046,0.00000844,-0.00000238,-0.00000741,0.00000475,-0.00000516,-0.
 00000944,0.00000019,0.00000100,0.00000137,0.00000380,-0.00001317,0.000
 00045,0.00000043,0.,-0.00000056,0.00000230,-0.00000302,-0.00000321,0.0
 0000130,0.00000800,0.00000180,0.00000388,-0.00000395,-0.00008009,0.000
 23456,-0.00008884,0.00028188,-0.00061929,-0.00060744,-0.00314273,-0.00
 428338,0.00037106,-0.01560916,0.01412280,0.01369488,-0.22223207,0.0892
 9856,0.10625756,0.00667266,-0.00330163,-0.00266717,0.00148991,-0.00233
 699,0.00086094,-0.00002192,0.00000046,-0.00002788,-0.00000190,-0.00000
 134,-0.00000090,0.00000120,0.00000214,0.00000074,0.00000179,0.00000204
 ,0.00000005,0.00000192,0.00000016,-0.00000202,-0.00000684,-0.00000335,
 0.00000444,0.00000004,-0.00000105,0.00000479,0.00000823,-0.00000644,0.
 00001570,0.00000898,-0.00000845,-0.00001381,-0.00006634,-0.00003207,0.
 00006451,-0.00002433,-0.00001233,0.00001136,0.00000035,0.00000108,-0.0
 0000020,0.00000244,0.00000110,0.00000074,0.00000038,0.00000392,-0.0000
 0021,-0.00000323,0.00000255,0.00000088,0.00000143,-0.00000334,0.000009
 15,-0.00002047,-0.00001286,0.00000584,0.00000237,-0.00000176,-0.000000
 28,-0.00000100,-0.00000098,-0.00000278,-0.00000055,-0.00000241,-0.0000
 0109,0.00000165,-0.00000247,-0.00000083,0.00000271,-0.00000057,-0.0000
 0388,0.00000077,-0.00000312,0.00000037,-0.00000068,0.00000288,-0.00000
 014,-0.00000021,0.00000289,-0.00000093,0.00000122,0.00000170,-0.000002
 84,-0.00000038,-0.00000619,0.00000953,0.00004453,-0.00003977,-0.000018
 50,-0.00082727,0.00064302,0.00062094,0.00095420,0.00036058,-0.00106373
 ,0.23177776,-0.00009565,0.00002437,-0.00000775,0.00002925,-0.00001176,
 0.00005934,0.00000910,0.00001800,0.00000275,0.00005669,-0.00009641,-0.
 00005036,-0.00001768,0.00003892,0.00001844,0.00000941,0.00000667,-0.00
 001021,0.00000342,0.00000425,0.00000369,0.00000047,0.00000186,0.000001
 35,-0.00000204,0.00000287,0.00000852,0.00000137,-0.00001413,-0.0000121
 1,-0.00003798,-0.00001998,0.00000314,0.00003232,-0.00002934,0.00005984
 ,-0.00001536,-0.00000608,0.00006245,-0.00001866,0.00017609,0.00004729,
 0.00008743,0.00001601,-0.00027054,0.00007013,-0.00005544,0.00001967,-0
 .00003711,-0.00002572,0.00001145,-0.00001564,-0.00000113,0.00001264,-0
 .00000879,-0.00000697,0.00000666,-0.00001520,-0.00000489,0.00000186,0.
 00000454,0.00001568,-0.00000182,0.00002489,-0.00000717,0.00002204,-0.0
 0003514,0.00004042,-0.00007158,0.00004410,0.00010250,-0.00005342,0.001
 17797,0.00022042,-0.00034919,0.00011995,-0.00034524,0.00009761,0.00007
 385,-0.00028420,-0.00013677,-0.00023501,-0.00013233,-0.00011393,-0.000
 04611,0.00002004,-0.00002737,0.00000582,-0.00001680,0.00000709,0.00000
 643,0.00001058,-0.00000712,0.00000016,0.00000015,-0.00000105,0.0000039
 2,0.00000274,0.00000273,-0.00000219,-0.00000157,0.00000120,0.00000459,
 -0.00000121,0.00000709,0.00001401,0.00000284,0.00000451,-0.00000189,-0
 .00000067,0.00001486,-0.00000113,-0.00000209,0.00000143,0.00000053,-0.
 00000560,0.00000208,0.00000224,0.00000010,-0.00000929,0.,-0.00000698,0
 .00000580,0.00000231,0.00014378,0.00049386,-0.00036105,-0.00070888,0.0
 0009346,-0.00330725,0.00018915,-0.00176015,-0.01221281,0.00987491,0.00
 728935,0.08858465,-0.10561648,-0.06384322,0.02280215,-0.00749033,-0.01
 371413,-0.00292482,-0.00244113,-0.00499870,0.00010132,0.00000623,0.000
 09143,-0.00000151,-0.00000101,0.00000171,0.00000255,0.00000261,0.00000
 167,0.00000176,0.00000221,0.00000015,-0.00000187,-0.00000123,-0.000000
 76,-0.00001114,-0.00000368,0.00000580,0.00000777,-0.00000730,0.0000080
 6,0.00001364,-0.00000717,0.00002515,0.00003219,-0.00001309,-0.00002483
 ,-0.00012227,-0.00001034,0.00024894,0.00001030,-0.00004389,-0.00003726
 ,0.00000072,-0.00000891,-0.00000021,-0.00000266,-0.00000570,-0.0000004
 1,-0.00000097,-0.00000326,-0.00000120,0.00000255,-0.00000269,-0.000003
 14,-0.00000723,0.00000477,-0.00001289,0.00005209,0.00004300,-0.0000073
 0,-0.00000224,-0.00000015,-0.00000035,0.00000311,0.00000059,0.00000227
 ,0.00000192,0.00000132,0.00000020,0.00000079,0.00000202,-0.00000064,-0
 .00000216,-0.00000171,0.00000206,-0.00000092,0.00000370,-0.00000051,0.
 00000073,-0.00000299,0.00000047,0.00000100,-0.00000311,0.00000111,0.00
 000022,-0.00000189,0.00000490,-0.00000321,0.00000600,-0.00001301,0.000
 04274,0.00000051,-0.00003901,-0.00063524,0.00034687,0.00028483,0.00116
 709,0.00001011,0.00130282,-0.09505397,0.10614504,-0.00005170,0.0002088
 5,-0.00002015,0.00002324,-0.00021543,-0.00000884,0.00008800,0.00006818
 ,0.00001130,0.00006639,-0.00014109,-0.00006486,-0.00003025,0.00005357,
 0.00001388,0.00001313,0.00000925,-0.00001663,0.00000510,0.00000571,0.0
 0000376,0.00000235,0.00000534,0.00000099,-0.00000539,0.00000334,0.0000
 0964,0.00000743,-0.00000716,-0.00001400,-0.00004127,-0.00004933,0.0000
 5523,-0.00000772,0.00003804,0.00005578,-0.00000886,0.00004425,-0.00009
 523,0.00004173,0.00022220,-0.00002735,0.00018200,0.00000120,0.00013739
 ,0.00009648,-0.00008705,-0.00014018,-0.00003687,-0.00006383,0.00003928
 ,-0.00003821,0.00001552,-0.00001802,-0.00000109,-0.00003037,0.00001157
 ,-0.00003472,0.00000351,-0.00001400,0.00001615,0.00003404,-0.00001369,
 0.00003301,-0.00002189,0.00001725,-0.00007830,0.00007022,-0.00003446,0
 .00004660,-0.00008490,0.00021519,0.00072720,0.00002098,0.00000366,-0.0
 0024969,0.00020677,-0.00043870,0.00002272,-0.00015680,-0.00015850,0.00
 000014,-0.00011365,0.00005880,-0.00006442,0.00000920,0.00005350,0.0000
 0905,-0.00000688,-0.00000210,0.00000260,0.00000188,-0.00000883,-0.0000
 0009,0.00000041,-0.00000290,0.00000057,0.00000034,0.00000062,-0.000001
 92,-0.00000475,0.00000042,0.00000831,-0.00000135,0.00000795,0.00002708
 ,-0.00001494,-0.00001041,-0.00000021,-0.00000322,0.00001208,-0.0000012
 4,-0.00000311,-0.00000080,0.00000014,-0.00000276,-0.00000107,0.0000016
 9,-0.00000136,-0.00000372,-0.00000147,0.00000665,0.00000335,-0.0001229
 2,0.00038163,-0.00052286,-0.00048505,0.00027442,-0.00031313,0.00105413
 ,-0.00148774,0.00427369,-0.00065817,-0.00124565,0.00313007,0.10567049,
 -0.06354788,-0.10580619,0.01152422,-0.00576266,-0.00241867,0.00053229,
 -0.00519047,0.00550437,0.00006900,-0.00007516,0.00002694,-0.00000176,-
 0.00000275,0.00000200,0.00000396,0.00000273,0.00000207,0.00000307,0.00
 000244,0.00000086,0.00000207,-0.00000147,-0.00000122,-0.00001386,-0.00
 000989,0.00001098,-0.00000262,-0.00000634,0.00000766,-0.00000677,-0.00
 000378,0.00001102,-0.00004474,-0.00000368,0.00002254,-0.00004566,-0.00
 002224,0.00008320,-0.00000169,0.00000333,-0.00001393,0.00000391,-0.000
 00836,0.00000137,-0.00000164,-0.00000496,0.00000033,-0.00000173,-0.000
 00104,0.00000016,-0.00000087,0.00000314,0.00000054,-0.00000874,0.00001
 264,-0.00000693,0.00004488,0.00001551,0.00000813,-0.00000237,0.0000020
 7,-0.00000021,-0.00000087,0.00000128,0.00000145,0.00000089,0.00000124,
 0.00000107,0.00000133,0.00000263,-0.00000087,-0.00000253,-0.00000136,0
 .00000099,0.00000085,0.00000114,-0.00000110,0.00000116,-0.00000314,-0.
 00000014,0.00000068,-0.00000206,0.00000124,0.00000022,0.00000204,0.000
 00083,-0.00000381,0.00000105,-0.00000509,0.00000999,-0.00002141,0.0000
 2891,-0.00001565,-0.00012146,0.00009840,-0.00065611,0.00155930,-0.0020
 5784,-0.11624911,0.07277428,0.10158982,-0.00003815,-0.00066892,-0.0005
 7541,0.00047879,-0.00043626,-0.00131171,0.00024813,0.00024906,0.000073
 63,0.00014443,-0.00012450,-0.00007254,-0.00002961,0.00006446,0.0000415
 9,0.00000929,0.00001387,-0.00001343,0.00000723,0.00001215,0.00000564,-
 0.00000003,0.00000526,0.00000379,-0.00000729,0.00000247,0.00000896,-0.
 00000237,-0.00001594,-0.00002037,0.00000138,-0.00012132,-0.00015459,0.
 00005711,-0.00005936,0.00008501,0.00002454,-0.00000623,0.00002995,0.00
 004350,-0.00001984,0.00005159,-0.00019228,0.00015861,0.00019759,-0.000
 60522,0.00012002,-0.00002934,-0.00007072,-0.00022381,0.00017775,-0.000
 18988,0.00011943,-0.00004299,0.00004208,-0.00005175,0.00002893,-0.0001
 0134,-0.00001355,-0.00002109,0.00009434,0.00011094,-0.00004100,0.00002
 789,-0.00012942,0.00009752,0.00020317,0.00047696,-0.00043013,0.0001771
 5,-0.00059906,-0.00032588,-0.00013548,-0.00106403,-0.00132382,-0.00031
 090,-0.00003667,-0.00006178,0.00018916,0.00005693,0.00004704,0.0001341
 8,0.00006240,0.00002036,0.00003878,-0.00004589,0.00000627,-0.00002116,
 0.00002564,0.00000575,0.00000347,-0.00000300,0.00001967,0.00000147,-0.
 00000204,0.00000376,-0.00000111,0.00000052,-0.00000428,0.00000689,0.00
 000985,-0.00000007,-0.00000915,0.00001186,-0.00000675,-0.00003050,-0.0
 0000167,0.00000349,0.00000369,0.00000614,-0.00002625,0.00000240,0.0000
 0612,-0.00000054,0.00000044,0.00001420,-0.00000504,0.00000485,0.000001
 64,0.00001054,0.00000388,0.00002054,-0.00000613,-0.00070814,-0.0009276
 6,-0.00028374,-0.00083095,0.00240765,0.00341702,0.00041913,0.00077255,
 0.00008763,0.00210130,-0.00109580,0.00122365,0.00081925,0.00008443,0.0
 0112132,-0.28165910,-0.11588297,0.01799157,-0.01655913,-0.01112996,0.0
 0032781,-0.00040311,0.00000999,0.00037750,0.00000073,-0.00000107,0.000
 00469,0.00000417,0.00000066,0.00000183,0.00000198,0.00000116,0.0000016
 9,-0.00000017,-0.00000243,0.00000066,-0.00001956,-0.00001358,0.0000082
 6,0.00000789,-0.00002972,0.00001853,0.00001003,-0.00000185,0.00000764,
 -0.00000016,-0.00003139,0.00000757,0.00001818,0.00002509,-0.00000615,-
 0.00081933,-0.00029031,-0.00003125,0.00001290,-0.00002761,-0.00000617,
 -0.00000624,-0.00000626,0.00000017,-0.00000295,-0.00000494,0.00000498,
 0.00000141,-0.00000721,0.00000874,-0.00002241,0.00000924,0.00003034,-0
 .00010049,0.00002928,0.00003463,0.00000010,-0.00000184,-0.00000156,-0.
 00000214,-0.00000092,-0.00000227,-0.00000128,-0.00000130,-0.00000074,0
 .00000019,-0.00000215,0.00000006,0.00000231,-0.00000018,-0.00000353,-0
 .00000079,-0.00000625,-0.00000031,-0.00000154,0.00000340,-0.00000227,-
 0.00000294,0.00000289,-0.00000154,-0.00000588,0.00000342,-0.00001197,-
 0.00000418,-0.00001784,0.00001575,-0.00018981,0.00012823,0.00014536,-0
 .00013862,0.00007199,-0.00025867,0.00000220,0.00008901,0.00013260,0.00
 035259,0.00062276,-0.00136418,0.29752151,-0.00007256,-0.00129071,0.000
 22948,-0.00050578,0.00026124,-0.00241595,-0.00019023,0.00000741,0.0001
 7421,-0.00011516,0.00026147,0.00012158,0.00004958,-0.00009292,-0.00002
 261,-0.00001397,-0.00001468,0.00001649,-0.00000918,-0.00001235,-0.0000
 0755,-0.00000128,-0.00000638,-0.00000243,0.00000630,-0.00000758,-0.000
 00942,-0.00000623,0.00001276,0.00003324,0.00004355,-0.00015792,0.00020
 418,-0.00003320,0.00015611,-0.00005778,0.00000047,-0.00006141,-0.00017
 782,0.00002108,-0.00033642,0.00011156,-0.00024593,-0.00001104,0.000015
 68,-0.00019859,0.00033144,-0.00023864,0.00004826,0.00008209,-0.0001017
 1,0.00009792,-0.00006534,0.00005868,-0.00003535,0.00002343,-0.00003526
 ,0.00007550,0.00002960,0.00001241,-0.00005879,-0.00008586,0.00004070,-
 0.00002196,0.00015317,-0.00000463,0.00001548,-0.00044142,0.00008203,0.
 00053142,-0.00076942,-0.00037247,0.00011391,-0.00063657,0.00067618,-0.
 00008492,0.00006696,0.00026195,-0.00009587,0.00007259,-0.00006998,0.00
 011702,0.00006040,0.00013354,0.00001598,0.00001412,-0.00001718,0.00000
 437,-0.00000188,-0.00000258,-0.00000865,-0.00000547,-0.00000543,-0.000
 00013,0.00000252,0.00000099,-0.00000165,-0.00000135,0.00000269,-0.0000
 0282,-0.00000349,-0.00000222,0.00000072,-0.00000509,-0.00000424,-0.000
 00087,0.00000410,-0.00000018,-0.00000131,-0.00000014,0.00000210,-0.000
 00006,-0.00000228,0.00000086,-0.00000134,-0.00000683,0.00000152,-0.000
 00587,-0.00000128,-0.00000092,-0.00000648,-0.00000908,-0.00000042,0.00
 062088,0.00040905,0.00001781,0.00127055,-0.00024886,-0.00321912,0.0007
 0859,-0.00036736,-0.00011136,-0.00007903,-0.00223895,-0.00548439,-0.02
 617675,-0.00828300,0.00151667,-0.11513926,-0.10921154,-0.00202648,0.01
 237817,0.01009378,-0.00003788,-0.00012256,0.00019123,0.00017201,0.0000
 0045,0.00000307,-0.00000504,-0.00000522,-0.00000195,-0.00000242,-0.000
 00309,-0.00000176,-0.00000189,-0.00000067,0.00000369,-0.00000062,0.000
 01622,0.00002159,-0.00002178,-0.00000111,0.00001287,-0.00001243,-0.000
 00464,0.00000171,-0.00002218,0.00000582,0.00000557,0.00000584,0.000117
 90,-0.00000554,-0.00015027,-0.00032200,-0.00001320,0.00008465,-0.00000
 908,0.00002371,-0.00000386,0.00001063,0.00000995,-0.00000392,0.0000017
 8,0.00000704,-0.00000504,-0.00000334,0.00000477,-0.00001264,0.00000919
 ,-0.00000915,-0.00001513,0.00003329,-0.00001583,-0.00001463,0.00000233
 ,0.00000052,0.00000129,0.00000033,-0.00000050,-0.00000046,0.00000017,-
 0.00000070,-0.00000024,-0.00000071,-0.00000101,0.00000005,0.00000075,0
 .00000163,0.00000123,0.00000042,0.00000102,0.00000123,0.00000043,0.000
 00104,0.00000118,0.00000196,0.00000033,0.00000009,0.00000464,-0.000000
 75,0.00000601,0.00000483,0.00000924,-0.00000058,0.00013259,-0.00003683
 ,-0.00018166,0.00006347,-0.00019948,0.00046109,-0.00114249,-0.00040327
 ,-0.00001090,0.00090554,-0.00003667,0.00246307,0.12729567,0.11276206,-
 0.00001394,0.00075157,-0.00054583,-0.00025223,-0.00210975,-0.00065979,
 -0.00016698,-0.00005810,-0.00012826,-0.00015840,-0.00001354,-0.0000366
 4,0.00000576,-0.00002648,-0.00000716,0.00001358,0.00000215,-0.00001817
 ,-0.00000294,-0.00000609,-0.00000151,0.00000652,0.00000348,-0.00000449
 ,-0.00000006,0.00000008,0.00000168,0.00001252,0.00003452,0.00001224,0.
 00007274,0.00007653,-0.00004630,-0.00004666,0.00005282,-0.00009680,-0.
 00001868,-0.00003294,-0.00005919,-0.00001250,-0.00009283,-0.00000182,0
 .00009260,0.00016524,0.00019976,-0.00005010,-0.00029236,0.00001083,0.0
 0002056,0.00011113,0.00001749,0.00018075,0.00005692,-0.00002662,-0.000
 05939,-0.00002459,-0.00002318,0.00004047,0.00007839,-0.00002879,-0.000
 03748,-0.00005149,-0.00001478,-0.00000829,0.00017019,-0.00008841,-0.00
 015546,-0.00019473,0.00032819,0.00008038,-0.00049664,-0.00069321,-0.00
 057852,0.00136308,-0.00159606,-0.00029811,0.00034840,-0.00006436,-0.00
 003140,-0.00023092,0.00009822,0.00002151,0.00015851,-0.00009030,-0.000
 02966,0.00001583,0.00002290,0.00002142,-0.00001077,-0.00000828,-0.0000
 0072,0.00000143,-0.00001491,-0.00000101,-0.00000225,-0.00000398,-0.000
 00037,0.00000118,0.00000076,-0.00000408,-0.00000480,0.00000233,0.00000
 404,-0.00001403,0.00000738,0.00002581,-0.00001025,-0.00000966,-0.00000
 053,-0.00000670,0.00001477,-0.00000124,-0.00000451,-0.00000326,-0.0000
 0172,-0.00000749,0.00000094,-0.00000470,-0.00000635,-0.00000017,-0.000
 00974,0.00000326,0.00000219,0.00070073,0.00049104,0.00019115,0.0026731
 3,-0.00374650,0.00229963,0.00003588,-0.00029499,-0.00079323,0.00161601
 ,-0.00510600,0.00462451,-0.01292105,-0.00693071,0.00470585,0.01701831,
 -0.00233920,-0.04338207,0.01272131,0.00779992,0.00293769,0.00047260,-0
 .00011644,-0.00076245,-0.00000460,-0.00000384,-0.00000414,0.00000156,0
 .00000377,0.00000036,0.00000290,0.00000212,-0.00000071,0.00000689,0.00
 000228,-0.00000443,0.00000067,-0.00000909,0.00000692,-0.00000343,0.000
 00752,0.00000276,0.00000013,-0.00000306,-0.00001387,0.00000463,-0.0000
 1122,-0.00000022,0.00008287,-0.00006907,-0.00014513,0.00003742,0.00019
 839,0.00017575,0.00000587,0.00003235,-0.00001354,0.00000742,0.00000556
 ,0.00000272,-0.00000412,0.00000855,-0.00000068,-0.00000914,0.00001288,
 -0.00000693,-0.00003033,0.00001515,-0.00000271,0.00009199,-0.00001297,
 -0.00004689,-0.00000150,0.00000319,0.00000128,0.00000015,0.00000058,0.
 00000146,0.00000110,0.00000112,0.00000070,0.00000070,0.00000211,-0.000
 00061,-0.00000224,-0.00000004,0.00000148,0.00000180,0.00000304,-0.0000
 0084,0.00000221,-0.00000295,0.00000075,0.00000280,-0.00000204,0.000001
 88,0.00000369,0.00000330,0.00000534,0.00000010,0.00001010,-0.00000305,
 0.00019844,-0.00018585,0.00002062,-0.00024131,0.00045661,-0.00074115,-
 0.00051049,-0.00036686,0.00020295,-0.00117550,0.00246215,-0.00327767,-
 0.01944136,0.00798201,0.03756876\\-0.00000032,0.00000139,0.00000302,0.
 00000640,-0.00000245,0.00000211,-0.00000635,-0.00000504,0.00000399,0.0
 0000170,0.00000243,-0.00000524,-0.00000496,0.00000023,0.00000535,-0.00
 000093,-0.00000411,-0.00000151,0.00000458,0.00000201,-0.00000237,-0.00
 000110,0.00000275,0.00000279,-0.00000236,-0.00000268,0.00000002,0.0000
 0628,0.00000028,-0.00000348,-0.00000099,0.00000030,0.00000426,-0.00000
 062,0.00000055,-0.00000055,0.00000050,-0.00000112,-0.00000156,0.000001
 10,-0.00000170,0.00000094,-0.00000135,0.00000172,0.00000047,-0.0000019
 5,-0.00000156,-0.00000260,0.00000098,0.00000454,-0.00000366,0.00000518
 ,0.00000090,0.00000042,0.00000028,-0.00000193,0.00000075,-0.00000229,0
 .00000037,-0.00000039,0.00000069,0.00000152,-0.00000110,-0.00000037,-0
 .00000156,0.00000354,-0.00000584,-0.00000659,0.00000216,0.00000243,0.0
 0001287,-0.00000329,-0.00000568,-0.00000622,0.00000001,-0.00000346,-0.
 00000056,0.00000211,0.00000300,0.00000143,-0.00000254,0.00000631,0.000
 00490,0.00000345,-0.00000069,-0.00000336,-0.00000538,0.00000430,-0.000
 00012,0.00000569,-0.00000657,-0.00000075,-0.00000381,0.00000288,0.0000
 0343,-0.00000032,0.00000132,-0.00000313,0.00000345,-0.00000513,-0.0000
 0232,-0.00000277,0.00000149,0.00000509,-0.00000143,0.00000097,-0.00000
 093,0.00000428,-0.00000011,-0.00000044,-0.00000063,-0.00000059,0.00000
 097,-0.00000127,-0.00000100,0.00000155,0.00000062,0.00000152,-0.000001
 36,0.00000068,0.00000247,0.00000141,-0.00000261,-0.00000099,-0.0000052
 9,-0.00000294,-0.00000573,-0.00000134,0.00000011,-0.00000033,0.0000017
 9,0.00000091,0.00000241,-0.00000014,0.00000002,-0.00000060,-0.00000159
 ,-0.00000100,0.00000072,0.00000037,-0.00000151,0.00000402,0.00000473,0
 .00000025,0.00000220,-0.00000042,-0.00000038,0.00000045,0.00000096,-0.
 00000057,-0.00000134,-0.00000070,-0.00000037,-0.00000012,-0.00000145,0
 .00000042,-0.00000052,0.00000045,0.00000074,-0.00000023,0.00000205,0.0
 0000084,0.00000004,0.00000012,-0.00000102,-0.00000037,0.00000083,-0.00
 000036,-0.00000027,0.00000071,0.00000076,0.00000042,-0.00000002,0.0000
 0070,0.00000187,-0.00000089,0.00000015,-0.00000160,-0.00000112,0.00000
 037,-0.00000121,0.00000028,-0.00000041,0.00000038,-0.00000094,0.000000
 29,0.00000047,-0.00000004,0.00000040,-0.00000034,-0.00000005,0.0000003
 7,-0.00000160,-0.00000037,-0.00000161,0.00000059,-0.00000162,0.0000007
 3,0.00000049,-0.00000053,0.00000072,0.00000006,0.00000150,0.00000035,0
 .00000142,0.00000074,-0.00000032,-0.00000048,-0.00000091,-0.00000056,-
 0.00000005,0.,-0.00000093,0.00000035,-0.00000080,-0.00000036,0.0000002
 1,-0.00000073,0.00000073,-0.00000041,0.00000003,0.00000064,-0.00000182
 ,0.00000126,0.00000010,0.00000164,0.00000156,-0.00000015,0.00000121,-0
 .00000025,-0.00000052,-0.00000040,0.00000100,0.00000013,-0.00000030,0.
 00000006,0.00000097,-0.00000199,-0.00000195,-0.00000131\\\@
 The archive entry for this job was punched.


 There are more things in heaven and earth, Horatio,
 than are dreamt of in your philosophy.
                   -- Hamlet, Act I, Scene 5
 Job cpu time:       0 days 12 hours  3 minutes 58.8 seconds.
 Elapsed time:       0 days  0 hours 22 minutes 42.5 seconds.
 File lengths (MBytes):  RWF=   4827 Int=      0 D2E=      0 Chk=     49 Scr=      1
 Normal termination of Gaussian 16 at Thu May 16 03:16:09 2024.
