 Entering Gaussian System, Link 0=g16
 Initial command:
 /public/software/apps/Gaussian/g16/l1.exe "/tmp/Gau-119760.inp" -scrdir="/tmp/"
 Entering Link 1 = /public/software/apps/Gaussian/g16/l1.exe PID=    119762.
  
 Copyright (c) 1988-2019, Gaussian, Inc.  All Rights Reserved.
  
 This is part of the Gaussian(R) 16 program.  It is based on
 the Gaussian(R) 09 system (copyright 2009, Gaussian, Inc.),
 the Gaussian(R) 03 system (copyright 2003, Gaussian, Inc.),
 the Gaussian(R) 98 system (copyright 1998, Gaussian, Inc.),
 the Gaussian(R) 94 system (copyright 1995, Gaussian, Inc.),
 the Gaussian 92(TM) system (copyright 1992, Gaussian, Inc.),
 the Gaussian 90(TM) system (copyright 1990, Gaussian, Inc.),
 the Gaussian 88(TM) system (copyright 1988, Gaussian, Inc.),
 the Gaussian 86(TM) system (copyright 1986, Carnegie Mellon
 University), and the Gaussian 82(TM) system (copyright 1983,
 Carnegie Mellon University). Gaussian is a federally registered
 trademark of Gaussian, Inc.
  
 This software contains proprietary and confidential information,
 including trade secrets, belonging to Gaussian, Inc.
  
 This software is provided under written license and may be
 used, copied, transmitted, or stored only in accord with that
 written license.
  
 The following legend is applicable only to US Government
 contracts under FAR:
  
                    RESTRICTED RIGHTS LEGEND
  
 Use, reproduction and disclosure by the US Government is
 subject to restrictions as set forth in subparagraphs (a)
 and (c) of the Commercial Computer Software - Restricted
 Rights clause in FAR 52.227-19.
  
 Gaussian, Inc.
 340 Quinnipiac St., Bldg. 40, Wallingford CT 06492
  
  
 ---------------------------------------------------------------
 Warning -- This program may not be used in any manner that
 competes with the business of Gaussian, Inc. or will provide
 assistance to any competitor of Gaussian, Inc.  The licensee
 of this program is prohibited from giving any competitor of
 Gaussian, Inc. access to this program.  By using this program,
 the user acknowledges that Gaussian, Inc. is engaged in the
 business of creating and licensing software in the field of
 computational chemistry and represents and warrants to the
 licensee that it is not a competitor of Gaussian, Inc. and that
 it will not use this program in any manner prohibited above.
 ---------------------------------------------------------------
  

 Cite this work as:
 Gaussian 16, Revision C.01,
 M. J. Frisch, G. W. Trucks, H. B. Schlegel, G. E. Scuseria, 
 M. A. Robb, J. R. Cheeseman, G. Scalmani, V. Barone, 
 G. A. Petersson, H. Nakatsuji, X. Li, M. Caricato, A. V. Marenich, 
 J. Bloino, B. G. Janesko, R. Gomperts, B. Mennucci, H. P. Hratchian, 
 J. V. Ortiz, A. F. Izmaylov, J. L. Sonnenberg, D. Williams-Young, 
 F. Ding, F. Lipparini, F. Egidi, J. Goings, B. Peng, A. Petrone, 
 T. Henderson, D. Ranasinghe, V. G. Zakrzewski, J. Gao, N. Rega, 
 G. Zheng, W. Liang, M. Hada, M. Ehara, K. Toyota, R. Fukuda, 
 J. Hasegawa, M. Ishida, T. Nakajima, Y. Honda, O. Kitao, H. Nakai, 
 T. Vreven, K. Throssell, J. A. Montgomery, Jr., J. E. Peralta, 
 F. Ogliaro, M. J. Bearpark, J. J. Heyd, E. N. Brothers, K. N. Kudin, 
 V. N. Staroverov, T. A. Keith, R. Kobayashi, J. Normand, 
 K. Raghavachari, A. P. Rendell, J. C. Burant, S. S. Iyengar, 
 J. Tomasi, M. Cossi, J. M. Millam, M. Klene, C. Adamo, R. Cammi, 
 J. W. Ochterski, R. L. Martin, K. Morokuma, O. Farkas, 
 J. B. Foresman, and D. J. Fox, Gaussian, Inc., Wallingford CT, 2019.
 
 ******************************************
 Gaussian 16:  ES64L-G16RevC.01  3-Jul-2019
                23-Jan-2025 
 ******************************************
 %nprocshared=32
 Will use up to   32 processors via shared memory.
 %mem=100GB
 ------------------------------------------
 #p opt freq b3lyp/def2svpp em=gd3bj nosymm
 ------------------------------------------
 1/18=20,19=15,26=3,38=1/1,3;
 2/9=110,12=2,15=1,17=6,18=5,40=1/2;
 3/5=43,7=202,11=2,25=1,30=1,71=1,74=-5,124=41/1,2,3;
 4//1;
 5/5=2,38=5/2;
 6/7=2,8=2,9=2,10=2,28=1/1;
 7/30=1/1,2,3,16;
 1/18=20,19=15,26=3/3(2);
 2/9=110,15=1/2;
 99//99;
 2/9=110,15=1/2;
 3/5=43,7=202,11=2,25=1,30=1,71=1,74=-5,124=41/1,2,3;
 4/5=5,16=3,69=1/1;
 5/5=2,38=5/2;
 7/30=1/1,2,3,16;
 1/18=20,19=15,26=3/3(-5);
 2/9=110,15=1/2;
 6/7=2,8=2,9=2,10=2,19=2,28=1/1;
 99/9=1/99;
 Leave Link    1 at Thu Jan 23 09:15:26 2025, MaxMem= 13421772800 cpu:               2.4 elap:               0.1
 (Enter /public/software/apps/Gaussian/g16/l101.exe)
 ----------------------
 $$$$Singlemol####0????
 ----------------------
 Symbolic Z-matrix:
 Charge =  0 Multiplicity = 1
 C                     5.04817   1.29893   1.00643 
 C                     4.92404   1.44959  -0.50862 
 C                     6.23307   1.97839  -1.08872 
 Si                    4.38958  -0.19869  -1.34239 
 C                     3.95506   0.06129  -3.18041 
 C                     5.79539  -1.48494  -1.22413 
 C                     2.88431  -0.87269  -0.4029 
 C                     2.85883  -2.07449   0.25113 
 C                     1.72915  -2.51421   0.9714 
 C                     1.71031  -3.75176   1.64628 
 C                     0.61011  -4.14929   2.3534 
 C                    -0.51797  -3.31869   2.42467 
 C                    -0.53355  -2.11307   1.78046 
 C                     0.58043  -1.68257   1.02809 
 C                     0.59694  -0.4408    0.3394 
 C                    -0.59706   0.44355   0.33775 
 C                    -1.72671   0.06471  -0.35869 
 O                    -1.78712  -1.1063   -1.04713 
 C                    -2.88341   0.87355  -0.40883 
 Si                   -4.38817   0.19537  -1.34612 
 C                    -3.95609  -0.07111  -3.18373 
 C                    -5.79558   1.4801   -1.23049 
 C                    -4.9189   -1.45048  -0.50505 
 C                    -5.03864  -1.29457   1.00984 
 C                    -6.22917  -1.98264  -1.07924 
 C                    -2.85995   2.07565   0.2447 
 C                    -1.73186   2.51643   0.96683 
 C                    -1.71528   3.75402   1.64167 
 C                    -0.61706   4.15207   2.35157 
 C                     0.51124   3.32204   2.42567 
 C                     0.52909   2.11648   1.78138 
 C                    -0.58282   1.68541   1.02628 
 C                     1.72826  -0.06278  -0.35475 
 O                     1.79079   1.10811  -1.04321 
 H                     5.29955   2.25295   1.46881 
 H                     4.11428   0.94535   1.43788 
 H                     5.82954   0.58529   1.25928 
 H                     4.14966   2.19644  -0.70423 
 H                     7.04664   1.28259  -0.8963 
 H                     6.15035   2.12088  -2.16328 
 H                     6.49408   2.9352   -0.63754 
 H                     4.82862   0.36625  -3.74766 
 H                     3.57865  -0.85509  -3.62458 
 H                     3.19486   0.82488  -3.30001 
 H                     5.49703  -2.43787  -1.64989 
 H                     6.1011   -1.66089  -0.1976 
 H                     6.66811  -1.1458   -1.77249 
 H                     3.72851  -2.71321   0.22715 
 H                     2.58844  -4.37961   1.59426 
 H                     0.60381  -5.09937   2.86701 
 H                    -1.37697  -3.63689   2.99679 
 H                    -1.40055  -1.47171   1.84814 
 H                    -0.96933  -1.60536  -0.91113 
 H                    -4.83041  -0.37852  -3.74848 
 H                    -3.58072   0.84374  -3.63188 
 H                    -3.19578  -0.83486  -3.30161 
 H                    -6.10121   1.65798  -0.20426 
 H                    -5.49857   2.43244  -1.6585 
 H                    -6.66802   1.13855  -1.7778 
 H                    -4.14443  -2.19735  -0.70028 
 H                    -5.28721  -2.24726   1.47647 
 H                    -5.82023  -0.5811    1.26247 
 H                    -4.10397  -0.93803   1.43716 
 H                    -7.04271  -1.28673  -0.8871 
 H                    -6.48807  -2.93791  -0.6236 
 H                    -6.14946  -2.12918  -2.15348 
 H                    -3.73014   2.71362   0.21915 
 H                    -2.59363   4.38139   1.58756 
 H                    -0.61259   5.10208   2.86534 
 H                     1.36859   3.64062   3.00005 
 H                     1.39625   1.47554   1.85116 
 H                     0.97324   1.6079   -0.90854 
 
 ITRead=  0  0  0  0  0  0  0  0  0  0  0  0  0  0  0  0  0  0  0  0
 ITRead=  0  0  0  0  0  0  0  0  0  0  0  0  0  0  0  0  0  0  0  0
 ITRead=  0  0  0  0  0  0  0  0  0  0  0  0  0  0  0  0  0  0  0  0
 ITRead=  0  0  0  0  0  0  0  0  0  0  0  0
 MicOpt= -1 -1 -1 -1 -1 -1 -1 -1 -1 -1 -1 -1 -1 -1 -1 -1 -1 -1 -1 -1
 MicOpt= -1 -1 -1 -1 -1 -1 -1 -1 -1 -1 -1 -1 -1 -1 -1 -1 -1 -1 -1 -1
 MicOpt= -1 -1 -1 -1 -1 -1 -1 -1 -1 -1 -1 -1 -1 -1 -1 -1 -1 -1 -1 -1
 MicOpt= -1 -1 -1 -1 -1 -1 -1 -1 -1 -1 -1 -1
 NAtoms=     72 NQM=       72 NQMF=       0 NMMI=      0 NMMIF=      0
                NMic=       0 NMicF=      0.
                    Isotopes and Nuclear Properties:
 (Nuclear quadrupole moments (NQMom) in fm**2, nuclear magnetic moments (NMagM)
  in nuclear magnetons)

  Atom         1           2           3           4           5           6           7           8           9          10
 IAtWgt=          12          12          12          28          12          12          12          12          12          12
 AtmWgt=  12.0000000  12.0000000  12.0000000  27.9769284  12.0000000  12.0000000  12.0000000  12.0000000  12.0000000  12.0000000
 NucSpn=           0           0           0           0           0           0           0           0           0           0
 AtZEff=  -0.0000000  -0.0000000  -0.0000000  -0.0000000  -0.0000000  -0.0000000  -0.0000000  -0.0000000  -0.0000000  -0.0000000
 NQMom=    0.0000000   0.0000000   0.0000000   0.0000000   0.0000000   0.0000000   0.0000000   0.0000000   0.0000000   0.0000000
 NMagM=    0.0000000   0.0000000   0.0000000   0.0000000   0.0000000   0.0000000   0.0000000   0.0000000   0.0000000   0.0000000
 AtZNuc=   6.0000000   6.0000000   6.0000000  14.0000000   6.0000000   6.0000000   6.0000000   6.0000000   6.0000000   6.0000000

  Atom        11          12          13          14          15          16          17          18          19          20
 IAtWgt=          12          12          12          12          12          12          12          16          12          28
 AtmWgt=  12.0000000  12.0000000  12.0000000  12.0000000  12.0000000  12.0000000  12.0000000  15.9949146  12.0000000  27.9769284
 NucSpn=           0           0           0           0           0           0           0           0           0           0
 AtZEff=  -0.0000000  -0.0000000  -0.0000000  -0.0000000  -0.0000000  -0.0000000  -0.0000000  -0.0000000  -0.0000000  -0.0000000
 NQMom=    0.0000000   0.0000000   0.0000000   0.0000000   0.0000000   0.0000000   0.0000000   0.0000000   0.0000000   0.0000000
 NMagM=    0.0000000   0.0000000   0.0000000   0.0000000   0.0000000   0.0000000   0.0000000   0.0000000   0.0000000   0.0000000
 AtZNuc=   6.0000000   6.0000000   6.0000000   6.0000000   6.0000000   6.0000000   6.0000000   8.0000000   6.0000000  14.0000000

  Atom        21          22          23          24          25          26          27          28          29          30
 IAtWgt=          12          12          12          12          12          12          12          12          12          12
 AtmWgt=  12.0000000  12.0000000  12.0000000  12.0000000  12.0000000  12.0000000  12.0000000  12.0000000  12.0000000  12.0000000
 NucSpn=           0           0           0           0           0           0           0           0           0           0
 AtZEff=  -0.0000000  -0.0000000  -0.0000000  -0.0000000  -0.0000000  -0.0000000  -0.0000000  -0.0000000  -0.0000000  -0.0000000
 NQMom=    0.0000000   0.0000000   0.0000000   0.0000000   0.0000000   0.0000000   0.0000000   0.0000000   0.0000000   0.0000000
 NMagM=    0.0000000   0.0000000   0.0000000   0.0000000   0.0000000   0.0000000   0.0000000   0.0000000   0.0000000   0.0000000
 AtZNuc=   6.0000000   6.0000000   6.0000000   6.0000000   6.0000000   6.0000000   6.0000000   6.0000000   6.0000000   6.0000000

  Atom        31          32          33          34          35          36          37          38          39          40
 IAtWgt=          12          12          12          16           1           1           1           1           1           1
 AtmWgt=  12.0000000  12.0000000  12.0000000  15.9949146   1.0078250   1.0078250   1.0078250   1.0078250   1.0078250   1.0078250
 NucSpn=           0           0           0           0           1           1           1           1           1           1
 AtZEff=  -0.0000000  -0.0000000  -0.0000000  -0.0000000  -0.0000000  -0.0000000  -0.0000000  -0.0000000  -0.0000000  -0.0000000
 NQMom=    0.0000000   0.0000000   0.0000000   0.0000000   0.0000000   0.0000000   0.0000000   0.0000000   0.0000000   0.0000000
 NMagM=    0.0000000   0.0000000   0.0000000   0.0000000   2.7928460   2.7928460   2.7928460   2.7928460   2.7928460   2.7928460
 AtZNuc=   6.0000000   6.0000000   6.0000000   8.0000000   1.0000000   1.0000000   1.0000000   1.0000000   1.0000000   1.0000000

  Atom        41          42          43          44          45          46          47          48          49          50
 IAtWgt=           1           1           1           1           1           1           1           1           1           1
 AtmWgt=   1.0078250   1.0078250   1.0078250   1.0078250   1.0078250   1.0078250   1.0078250   1.0078250   1.0078250   1.0078250
 NucSpn=           1           1           1           1           1           1           1           1           1           1
 AtZEff=  -0.0000000  -0.0000000  -0.0000000  -0.0000000  -0.0000000  -0.0000000  -0.0000000  -0.0000000  -0.0000000  -0.0000000
 NQMom=    0.0000000   0.0000000   0.0000000   0.0000000   0.0000000   0.0000000   0.0000000   0.0000000   0.0000000   0.0000000
 NMagM=    2.7928460   2.7928460   2.7928460   2.7928460   2.7928460   2.7928460   2.7928460   2.7928460   2.7928460   2.7928460
 AtZNuc=   1.0000000   1.0000000   1.0000000   1.0000000   1.0000000   1.0000000   1.0000000   1.0000000   1.0000000   1.0000000

  Atom        51          52          53          54          55          56          57          58          59          60
 IAtWgt=           1           1           1           1           1           1           1           1           1           1
 AtmWgt=   1.0078250   1.0078250   1.0078250   1.0078250   1.0078250   1.0078250   1.0078250   1.0078250   1.0078250   1.0078250
 NucSpn=           1           1           1           1           1           1           1           1           1           1
 AtZEff=  -0.0000000  -0.0000000  -0.0000000  -0.0000000  -0.0000000  -0.0000000  -0.0000000  -0.0000000  -0.0000000  -0.0000000
 NQMom=    0.0000000   0.0000000   0.0000000   0.0000000   0.0000000   0.0000000   0.0000000   0.0000000   0.0000000   0.0000000
 NMagM=    2.7928460   2.7928460   2.7928460   2.7928460   2.7928460   2.7928460   2.7928460   2.7928460   2.7928460   2.7928460
 AtZNuc=   1.0000000   1.0000000   1.0000000   1.0000000   1.0000000   1.0000000   1.0000000   1.0000000   1.0000000   1.0000000

  Atom        61          62          63          64          65          66          67          68          69          70
 IAtWgt=           1           1           1           1           1           1           1           1           1           1
 AtmWgt=   1.0078250   1.0078250   1.0078250   1.0078250   1.0078250   1.0078250   1.0078250   1.0078250   1.0078250   1.0078250
 NucSpn=           1           1           1           1           1           1           1           1           1           1
 AtZEff=  -0.0000000  -0.0000000  -0.0000000  -0.0000000  -0.0000000  -0.0000000  -0.0000000  -0.0000000  -0.0000000  -0.0000000
 NQMom=    0.0000000   0.0000000   0.0000000   0.0000000   0.0000000   0.0000000   0.0000000   0.0000000   0.0000000   0.0000000
 NMagM=    2.7928460   2.7928460   2.7928460   2.7928460   2.7928460   2.7928460   2.7928460   2.7928460   2.7928460   2.7928460
 AtZNuc=   1.0000000   1.0000000   1.0000000   1.0000000   1.0000000   1.0000000   1.0000000   1.0000000   1.0000000   1.0000000

  Atom        71          72
 IAtWgt=           1           1
 AtmWgt=   1.0078250   1.0078250
 NucSpn=           1           1
 AtZEff=  -0.0000000  -0.0000000
 NQMom=    0.0000000   0.0000000
 NMagM=    2.7928460   2.7928460
 AtZNuc=   1.0000000   1.0000000
 Leave Link  101 at Thu Jan 23 09:15:26 2025, MaxMem= 13421772800 cpu:               4.3 elap:               0.1
 (Enter /public/software/apps/Gaussian/g16/l103.exe)

 GradGradGradGradGradGradGradGradGradGradGradGradGradGradGradGradGradGrad
 Berny optimization.
 Initialization pass.
                           ----------------------------
                           !    Initial Parameters    !
                           ! (Angstroms and Degrees)  !
 --------------------------                            --------------------------
 ! Name  Definition              Value          Derivative Info.                !
 --------------------------------------------------------------------------------
 ! R1    R(1,2)                  1.5276         estimate D2E/DX2                !
 ! R2    R(1,35)                 1.0896         estimate D2E/DX2                !
 ! R3    R(1,36)                 1.0878         estimate D2E/DX2                !
 ! R4    R(1,37)                 1.088          estimate D2E/DX2                !
 ! R5    R(2,3)                  1.5263         estimate D2E/DX2                !
 ! R6    R(2,4)                  1.9229         estimate D2E/DX2                !
 ! R7    R(2,38)                 1.0935         estimate D2E/DX2                !
 ! R8    R(3,39)                 1.0877         estimate D2E/DX2                !
 ! R9    R(3,40)                 1.0871         estimate D2E/DX2                !
 ! R10   R(3,41)                 1.0896         estimate D2E/DX2                !
 ! R11   R(4,5)                  1.9065         estimate D2E/DX2                !
 ! R12   R(4,6)                  1.9091         estimate D2E/DX2                !
 ! R13   R(4,7)                  1.8981         estimate D2E/DX2                !
 ! R14   R(5,42)                 1.0853         estimate D2E/DX2                !
 ! R15   R(5,43)                 1.0857         estimate D2E/DX2                !
 ! R16   R(5,44)                 1.0841         estimate D2E/DX2                !
 ! R17   R(6,45)                 1.0855         estimate D2E/DX2                !
 ! R18   R(6,46)                 1.0854         estimate D2E/DX2                !
 ! R19   R(6,47)                 1.0851         estimate D2E/DX2                !
 ! R20   R(7,8)                  1.3685         estimate D2E/DX2                !
 ! R21   R(7,33)                 1.4123         estimate D2E/DX2                !
 ! R22   R(8,9)                  1.4101         estimate D2E/DX2                !
 ! R23   R(8,48)                 1.0793         estimate D2E/DX2                !
 ! R24   R(9,10)                 1.4097         estimate D2E/DX2                !
 ! R25   R(9,14)                 1.4193         estimate D2E/DX2                !
 ! R26   R(10,11)                1.3669         estimate D2E/DX2                !
 ! R27   R(10,49)                1.0807         estimate D2E/DX2                !
 ! R28   R(11,12)                1.4027         estimate D2E/DX2                !
 ! R29   R(11,50)                1.08           estimate D2E/DX2                !
 ! R30   R(12,13)                1.367          estimate D2E/DX2                !
 ! R31   R(12,51)                1.08           estimate D2E/DX2                !
 ! R32   R(13,14)                1.4115         estimate D2E/DX2                !
 ! R33   R(13,52)                1.0806         estimate D2E/DX2                !
 ! R34   R(14,15)                1.4201         estimate D2E/DX2                !
 ! R35   R(15,16)                1.4858         estimate D2E/DX2                !
 ! R36   R(15,33)                1.3801         estimate D2E/DX2                !
 ! R37   R(16,17)                1.3801         estimate D2E/DX2                !
 ! R38   R(16,32)                1.42           estimate D2E/DX2                !
 ! R39   R(17,18)                1.3597         estimate D2E/DX2                !
 ! R40   R(17,19)                1.4123         estimate D2E/DX2                !
 ! R41   R(18,53)                0.9676         estimate D2E/DX2                !
 ! R42   R(19,20)                1.8981         estimate D2E/DX2                !
 ! R43   R(19,26)                1.3685         estimate D2E/DX2                !
 ! R44   R(20,21)                1.9064         estimate D2E/DX2                !
 ! R45   R(20,22)                1.9091         estimate D2E/DX2                !
 ! R46   R(20,23)                1.923          estimate D2E/DX2                !
 ! R47   R(21,54)                1.0853         estimate D2E/DX2                !
 ! R48   R(21,55)                1.0857         estimate D2E/DX2                !
 ! R49   R(21,56)                1.0841         estimate D2E/DX2                !
 ! R50   R(22,57)                1.0854         estimate D2E/DX2                !
 ! R51   R(22,58)                1.0855         estimate D2E/DX2                !
 ! R52   R(22,59)                1.0851         estimate D2E/DX2                !
 ! R53   R(23,24)                1.5276         estimate D2E/DX2                !
 ! R54   R(23,25)                1.5263         estimate D2E/DX2                !
 ! R55   R(23,60)                1.0935         estimate D2E/DX2                !
 ! R56   R(24,61)                1.0896         estimate D2E/DX2                !
 ! R57   R(24,62)                1.088          estimate D2E/DX2                !
 ! R58   R(24,63)                1.0878         estimate D2E/DX2                !
 ! R59   R(25,64)                1.0877         estimate D2E/DX2                !
 ! R60   R(25,65)                1.0896         estimate D2E/DX2                !
 ! R61   R(25,66)                1.0871         estimate D2E/DX2                !
 ! R62   R(26,27)                1.4101         estimate D2E/DX2                !
 ! R63   R(26,67)                1.0793         estimate D2E/DX2                !
 ! R64   R(27,28)                1.4097         estimate D2E/DX2                !
 ! R65   R(27,32)                1.4193         estimate D2E/DX2                !
 ! R66   R(28,29)                1.3669         estimate D2E/DX2                !
 ! R67   R(28,68)                1.0808         estimate D2E/DX2                !
 ! R68   R(29,30)                1.4027         estimate D2E/DX2                !
 ! R69   R(29,69)                1.08           estimate D2E/DX2                !
 ! R70   R(30,31)                1.367          estimate D2E/DX2                !
 ! R71   R(30,70)                1.08           estimate D2E/DX2                !
 ! R72   R(31,32)                1.4115         estimate D2E/DX2                !
 ! R73   R(31,71)                1.0806         estimate D2E/DX2                !
 ! R74   R(33,34)                1.3597         estimate D2E/DX2                !
 ! R75   R(34,72)                0.9676         estimate D2E/DX2                !
 ! A1    A(2,1,35)             110.688          estimate D2E/DX2                !
 ! A2    A(2,1,36)             110.8343         estimate D2E/DX2                !
 ! A3    A(2,1,37)             110.7037         estimate D2E/DX2                !
 ! A4    A(35,1,36)            108.3225         estimate D2E/DX2                !
 ! A5    A(35,1,37)            108.0594         estimate D2E/DX2                !
 ! A6    A(36,1,37)            108.131          estimate D2E/DX2                !
 ! A7    A(1,2,3)              109.9635         estimate D2E/DX2                !
 ! A8    A(1,2,4)              111.5976         estimate D2E/DX2                !
 ! A9    A(1,2,38)             107.5973         estimate D2E/DX2                !
 ! A10   A(3,2,4)              111.7493         estimate D2E/DX2                !
 ! A11   A(3,2,38)             107.6221         estimate D2E/DX2                !
 ! A12   A(4,2,38)             108.1229         estimate D2E/DX2                !
 ! A13   A(2,3,39)             110.6481         estimate D2E/DX2                !
 ! A14   A(2,3,40)             110.8437         estimate D2E/DX2                !
 ! A15   A(2,3,41)             110.6281         estimate D2E/DX2                !
 ! A16   A(39,3,40)            108.3989         estimate D2E/DX2                !
 ! A17   A(39,3,41)            108.0184         estimate D2E/DX2                !
 ! A18   A(40,3,41)            108.206          estimate D2E/DX2                !
 ! A19   A(2,4,5)              111.3758         estimate D2E/DX2                !
 ! A20   A(2,4,6)              110.242          estimate D2E/DX2                !
 ! A21   A(2,4,7)              108.0702         estimate D2E/DX2                !
 ! A22   A(5,4,6)              108.628          estimate D2E/DX2                !
 ! A23   A(5,4,7)              110.1735         estimate D2E/DX2                !
 ! A24   A(6,4,7)              108.3045         estimate D2E/DX2                !
 ! A25   A(4,5,42)             111.0241         estimate D2E/DX2                !
 ! A26   A(4,5,43)             110.998          estimate D2E/DX2                !
 ! A27   A(4,5,44)             111.2367         estimate D2E/DX2                !
 ! A28   A(42,5,43)            107.6026         estimate D2E/DX2                !
 ! A29   A(42,5,44)            107.9888         estimate D2E/DX2                !
 ! A30   A(43,5,44)            107.8345         estimate D2E/DX2                !
 ! A31   A(4,6,45)             111.3923         estimate D2E/DX2                !
 ! A32   A(4,6,46)             112.0358         estimate D2E/DX2                !
 ! A33   A(4,6,47)             110.5099         estimate D2E/DX2                !
 ! A34   A(45,6,46)            107.8209         estimate D2E/DX2                !
 ! A35   A(45,6,47)            107.2918         estimate D2E/DX2                !
 ! A36   A(46,6,47)            107.583          estimate D2E/DX2                !
 ! A37   A(4,7,8)              124.2751         estimate D2E/DX2                !
 ! A38   A(4,7,33)             117.5405         estimate D2E/DX2                !
 ! A39   A(8,7,33)             118.1689         estimate D2E/DX2                !
 ! A40   A(7,8,9)              122.2018         estimate D2E/DX2                !
 ! A41   A(7,8,48)             119.6099         estimate D2E/DX2                !
 ! A42   A(9,8,48)             118.1872         estimate D2E/DX2                !
 ! A43   A(8,9,10)             121.938          estimate D2E/DX2                !
 ! A44   A(8,9,14)             119.0839         estimate D2E/DX2                !
 ! A45   A(10,9,14)            118.9762         estimate D2E/DX2                !
 ! A46   A(9,10,11)            120.9112         estimate D2E/DX2                !
 ! A47   A(9,10,49)            118.4299         estimate D2E/DX2                !
 ! A48   A(11,10,49)           120.6587         estimate D2E/DX2                !
 ! A49   A(10,11,12)           120.091          estimate D2E/DX2                !
 ! A50   A(10,11,50)           120.4325         estimate D2E/DX2                !
 ! A51   A(12,11,50)           119.4749         estimate D2E/DX2                !
 ! A52   A(11,12,13)           120.4942         estimate D2E/DX2                !
 ! A53   A(11,12,51)           119.4787         estimate D2E/DX2                !
 ! A54   A(13,12,51)           120.0268         estimate D2E/DX2                !
 ! A55   A(12,13,14)           120.7425         estimate D2E/DX2                !
 ! A56   A(12,13,52)           120.2046         estimate D2E/DX2                !
 ! A57   A(14,13,52)           119.0511         estimate D2E/DX2                !
 ! A58   A(9,14,13)            118.7723         estimate D2E/DX2                !
 ! A59   A(9,14,15)            118.9216         estimate D2E/DX2                !
 ! A60   A(13,14,15)           122.3021         estimate D2E/DX2                !
 ! A61   A(14,15,16)           120.7743         estimate D2E/DX2                !
 ! A62   A(14,15,33)           119.5364         estimate D2E/DX2                !
 ! A63   A(16,15,33)           119.6802         estimate D2E/DX2                !
 ! A64   A(15,16,17)           119.6661         estimate D2E/DX2                !
 ! A65   A(15,16,32)           120.7908         estimate D2E/DX2                !
 ! A66   A(17,16,32)           119.5348         estimate D2E/DX2                !
 ! A67   A(16,17,18)           121.8884         estimate D2E/DX2                !
 ! A68   A(16,17,19)           122.0788         estimate D2E/DX2                !
 ! A69   A(18,17,19)           116.0306         estimate D2E/DX2                !
 ! A70   A(17,18,53)           109.6003         estimate D2E/DX2                !
 ! A71   A(17,19,20)           117.5286         estimate D2E/DX2                !
 ! A72   A(17,19,26)           118.1692         estimate D2E/DX2                !
 ! A73   A(20,19,26)           124.2827         estimate D2E/DX2                !
 ! A74   A(19,20,21)           110.2579         estimate D2E/DX2                !
 ! A75   A(19,20,22)           108.3061         estimate D2E/DX2                !
 ! A76   A(19,20,23)           107.9764         estimate D2E/DX2                !
 ! A77   A(21,20,22)           108.6344         estimate D2E/DX2                !
 ! A78   A(21,20,23)           111.3767         estimate D2E/DX2                !
 ! A79   A(22,20,23)           110.243          estimate D2E/DX2                !
 ! A80   A(20,21,54)           111.0132         estimate D2E/DX2                !
 ! A81   A(20,21,55)           111.0057         estimate D2E/DX2                !
 ! A82   A(20,21,56)           111.2373         estimate D2E/DX2                !
 ! A83   A(54,21,55)           107.6027         estimate D2E/DX2                !
 ! A84   A(54,21,56)           107.9903         estimate D2E/DX2                !
 ! A85   A(55,21,56)           107.8356         estimate D2E/DX2                !
 ! A86   A(20,22,57)           112.0317         estimate D2E/DX2                !
 ! A87   A(20,22,58)           111.3948         estimate D2E/DX2                !
 ! A88   A(20,22,59)           110.5104         estimate D2E/DX2                !
 ! A89   A(57,22,58)           107.8208         estimate D2E/DX2                !
 ! A90   A(57,22,59)           107.5829         estimate D2E/DX2                !
 ! A91   A(58,22,59)           107.2933         estimate D2E/DX2                !
 ! A92   A(20,23,24)           111.5935         estimate D2E/DX2                !
 ! A93   A(20,23,25)           111.7648         estimate D2E/DX2                !
 ! A94   A(20,23,60)           108.1206         estimate D2E/DX2                !
 ! A95   A(24,23,25)           109.9595         estimate D2E/DX2                !
 ! A96   A(24,23,60)           107.594          estimate D2E/DX2                !
 ! A97   A(25,23,60)           107.6197         estimate D2E/DX2                !
 ! A98   A(23,24,61)           110.6928         estimate D2E/DX2                !
 ! A99   A(23,24,62)           110.7014         estimate D2E/DX2                !
 ! A100  A(23,24,63)           110.8338         estimate D2E/DX2                !
 ! A101  A(61,24,62)           108.0625         estimate D2E/DX2                !
 ! A102  A(61,24,63)           108.3231         estimate D2E/DX2                !
 ! A103  A(62,24,63)           108.1253         estimate D2E/DX2                !
 ! A104  A(23,25,64)           110.6437         estimate D2E/DX2                !
 ! A105  A(23,25,65)           110.6305         estimate D2E/DX2                !
 ! A106  A(23,25,66)           110.8416         estimate D2E/DX2                !
 ! A107  A(64,25,65)           108.0198         estimate D2E/DX2                !
 ! A108  A(64,25,66)           108.3995         estimate D2E/DX2                !
 ! A109  A(65,25,66)           108.2082         estimate D2E/DX2                !
 ! A110  A(19,26,27)           122.1998         estimate D2E/DX2                !
 ! A111  A(19,26,67)           119.6107         estimate D2E/DX2                !
 ! A112  A(27,26,67)           118.1883         estimate D2E/DX2                !
 ! A113  A(26,27,28)           121.9368         estimate D2E/DX2                !
 ! A114  A(26,27,32)           119.085          estimate D2E/DX2                !
 ! A115  A(28,27,32)           118.9759         estimate D2E/DX2                !
 ! A116  A(27,28,29)           120.911          estimate D2E/DX2                !
 ! A117  A(27,28,68)           118.4301         estimate D2E/DX2                !
 ! A118  A(29,28,68)           120.6586         estimate D2E/DX2                !
 ! A119  A(28,29,30)           120.0914         estimate D2E/DX2                !
 ! A120  A(28,29,69)           120.432          estimate D2E/DX2                !
 ! A121  A(30,29,69)           119.475          estimate D2E/DX2                !
 ! A122  A(29,30,31)           120.4944         estimate D2E/DX2                !
 ! A123  A(29,30,70)           119.4775         estimate D2E/DX2                !
 ! A124  A(31,30,70)           120.0277         estimate D2E/DX2                !
 ! A125  A(30,31,32)           120.7417         estimate D2E/DX2                !
 ! A126  A(30,31,71)           120.2073         estimate D2E/DX2                !
 ! A127  A(32,31,71)           119.0492         estimate D2E/DX2                !
 ! A128  A(16,32,27)           118.9217         estimate D2E/DX2                !
 ! A129  A(16,32,31)           122.3012         estimate D2E/DX2                !
 ! A130  A(27,32,31)           118.773          estimate D2E/DX2                !
 ! A131  A(7,33,15)            122.0775         estimate D2E/DX2                !
 ! A132  A(7,33,34)            116.034          estimate D2E/DX2                !
 ! A133  A(15,33,34)           121.886          estimate D2E/DX2                !
 ! A134  A(33,34,72)           109.6            estimate D2E/DX2                !
 ! D1    D(35,1,2,3)            58.4141         estimate D2E/DX2                !
 ! D2    D(35,1,2,4)          -176.9885         estimate D2E/DX2                !
 ! D3    D(35,1,2,38)          -58.5297         estimate D2E/DX2                !
 ! D4    D(36,1,2,3)           178.6292         estimate D2E/DX2                !
 ! D5    D(36,1,2,4)           -56.7734         estimate D2E/DX2                !
 ! D6    D(36,1,2,38)           61.6855         estimate D2E/DX2                !
 ! D7    D(37,1,2,3)           -61.3857         estimate D2E/DX2                !
 ! D8    D(37,1,2,4)            63.2117         estimate D2E/DX2                !
 ! D9    D(37,1,2,38)         -178.3294         estimate D2E/DX2                !
 ! D10   D(1,2,3,39)            61.496          estimate D2E/DX2                !
 ! D11   D(1,2,3,40)          -178.213          estimate D2E/DX2                !
 ! D12   D(1,2,3,41)           -58.1773         estimate D2E/DX2                !
 ! D13   D(4,2,3,39)           -63.0138         estimate D2E/DX2                !
 ! D14   D(4,2,3,40)            57.2772         estimate D2E/DX2                !
 ! D15   D(4,2,3,41)           177.3129         estimate D2E/DX2                !
 ! D16   D(38,2,3,39)          178.4242         estimate D2E/DX2                !
 ! D17   D(38,2,3,40)          -61.2848         estimate D2E/DX2                !
 ! D18   D(38,2,3,41)           58.7509         estimate D2E/DX2                !
 ! D19   D(1,2,4,5)            170.5129         estimate D2E/DX2                !
 ! D20   D(1,2,4,6)            -68.8277         estimate D2E/DX2                !
 ! D21   D(1,2,4,7)             49.3642         estimate D2E/DX2                !
 ! D22   D(3,2,4,5)            -65.8949         estimate D2E/DX2                !
 ! D23   D(3,2,4,6)             54.7645         estimate D2E/DX2                !
 ! D24   D(3,2,4,7)            172.9564         estimate D2E/DX2                !
 ! D25   D(38,2,4,5)            52.3685         estimate D2E/DX2                !
 ! D26   D(38,2,4,6)           173.028          estimate D2E/DX2                !
 ! D27   D(38,2,4,7)           -68.7801         estimate D2E/DX2                !
 ! D28   D(2,4,5,42)            64.9005         estimate D2E/DX2                !
 ! D29   D(2,4,5,43)          -175.4596         estimate D2E/DX2                !
 ! D30   D(2,4,5,44)           -55.3859         estimate D2E/DX2                !
 ! D31   D(6,4,5,42)           -56.702          estimate D2E/DX2                !
 ! D32   D(6,4,5,43)            62.9379         estimate D2E/DX2                !
 ! D33   D(6,4,5,44)          -176.9884         estimate D2E/DX2                !
 ! D34   D(7,4,5,42)          -175.1874         estimate D2E/DX2                !
 ! D35   D(7,4,5,43)           -55.5475         estimate D2E/DX2                !
 ! D36   D(7,4,5,44)            64.5261         estimate D2E/DX2                !
 ! D37   D(2,4,6,45)           177.438          estimate D2E/DX2                !
 ! D38   D(2,4,6,46)            56.5642         estimate D2E/DX2                !
 ! D39   D(2,4,6,47)           -63.3935         estimate D2E/DX2                !
 ! D40   D(5,4,6,45)           -60.2686         estimate D2E/DX2                !
 ! D41   D(5,4,6,46)           178.8576         estimate D2E/DX2                !
 ! D42   D(5,4,6,47)            58.8999         estimate D2E/DX2                !
 ! D43   D(7,4,6,45)            59.3901         estimate D2E/DX2                !
 ! D44   D(7,4,6,46)           -61.4836         estimate D2E/DX2                !
 ! D45   D(7,4,6,47)           178.5586         estimate D2E/DX2                !
 ! D46   D(2,4,7,8)           -118.5984         estimate D2E/DX2                !
 ! D47   D(2,4,7,33)            59.9395         estimate D2E/DX2                !
 ! D48   D(5,4,7,8)            119.5093         estimate D2E/DX2                !
 ! D49   D(5,4,7,33)           -61.9529         estimate D2E/DX2                !
 ! D50   D(6,4,7,8)              0.8255         estimate D2E/DX2                !
 ! D51   D(6,4,7,33)           179.3634         estimate D2E/DX2                !
 ! D52   D(4,7,8,9)            177.9696         estimate D2E/DX2                !
 ! D53   D(4,7,8,48)            -1.6484         estimate D2E/DX2                !
 ! D54   D(33,7,8,9)            -0.5598         estimate D2E/DX2                !
 ! D55   D(33,7,8,48)          179.8223         estimate D2E/DX2                !
 ! D56   D(4,7,33,15)         -177.8057         estimate D2E/DX2                !
 ! D57   D(4,7,33,34)            2.7497         estimate D2E/DX2                !
 ! D58   D(8,7,33,15)            0.8237         estimate D2E/DX2                !
 ! D59   D(8,7,33,34)         -178.6208         estimate D2E/DX2                !
 ! D60   D(7,8,9,10)          -179.8196         estimate D2E/DX2                !
 ! D61   D(7,8,9,14)            -0.3263         estimate D2E/DX2                !
 ! D62   D(48,8,9,10)           -0.1965         estimate D2E/DX2                !
 ! D63   D(48,8,9,14)          179.2969         estimate D2E/DX2                !
 ! D64   D(8,9,10,11)          179.1069         estimate D2E/DX2                !
 ! D65   D(8,9,10,49)           -0.7255         estimate D2E/DX2                !
 ! D66   D(14,9,10,11)          -0.387          estimate D2E/DX2                !
 ! D67   D(14,9,10,49)         179.7806         estimate D2E/DX2                !
 ! D68   D(8,9,14,13)         -178.3265         estimate D2E/DX2                !
 ! D69   D(8,9,14,15)            0.9671         estimate D2E/DX2                !
 ! D70   D(10,9,14,13)           1.182          estimate D2E/DX2                !
 ! D71   D(10,9,14,15)        -179.5243         estimate D2E/DX2                !
 ! D72   D(9,10,11,12)          -0.5037         estimate D2E/DX2                !
 ! D73   D(9,10,11,50)         179.9572         estimate D2E/DX2                !
 ! D74   D(49,10,11,12)        179.3249         estimate D2E/DX2                !
 ! D75   D(49,10,11,50)         -0.2142         estimate D2E/DX2                !
 ! D76   D(10,11,12,13)          0.5869         estimate D2E/DX2                !
 ! D77   D(10,11,12,51)       -179.2046         estimate D2E/DX2                !
 ! D78   D(50,11,12,13)       -179.8696         estimate D2E/DX2                !
 ! D79   D(50,11,12,51)          0.3389         estimate D2E/DX2                !
 ! D80   D(11,12,13,14)          0.2396         estimate D2E/DX2                !
 ! D81   D(11,12,13,52)       -179.2739         estimate D2E/DX2                !
 ! D82   D(51,12,13,14)       -179.97           estimate D2E/DX2                !
 ! D83   D(51,12,13,52)          0.5165         estimate D2E/DX2                !
 ! D84   D(12,13,14,9)          -1.1192         estimate D2E/DX2                !
 ! D85   D(12,13,14,15)        179.6123         estimate D2E/DX2                !
 ! D86   D(52,13,14,9)         178.3999         estimate D2E/DX2                !
 ! D87   D(52,13,14,15)         -0.8687         estimate D2E/DX2                !
 ! D88   D(9,14,15,16)         178.1806         estimate D2E/DX2                !
 ! D89   D(9,14,15,33)          -0.7198         estimate D2E/DX2                !
 ! D90   D(13,14,15,16)         -2.5519         estimate D2E/DX2                !
 ! D91   D(13,14,15,33)        178.5476         estimate D2E/DX2                !
 ! D92   D(14,15,16,17)        -69.7779         estimate D2E/DX2                !
 ! D93   D(14,15,16,32)        111.2725         estimate D2E/DX2                !
 ! D94   D(33,15,16,17)        109.121          estimate D2E/DX2                !
 ! D95   D(33,15,16,32)        -69.8287         estimate D2E/DX2                !
 ! D96   D(14,15,33,7)          -0.1805         estimate D2E/DX2                !
 ! D97   D(14,15,33,34)        179.2318         estimate D2E/DX2                !
 ! D98   D(16,15,33,7)        -179.093          estimate D2E/DX2                !
 ! D99   D(16,15,33,34)          0.3192         estimate D2E/DX2                !
 ! D100  D(15,16,17,18)          0.2689         estimate D2E/DX2                !
 ! D101  D(15,16,17,19)       -179.1745         estimate D2E/DX2                !
 ! D102  D(32,16,17,18)        179.2318         estimate D2E/DX2                !
 ! D103  D(32,16,17,19)         -0.2116         estimate D2E/DX2                !
 ! D104  D(15,16,32,27)        178.217          estimate D2E/DX2                !
 ! D105  D(15,16,32,31)         -2.5302         estimate D2E/DX2                !
 ! D106  D(17,16,32,27)         -0.734          estimate D2E/DX2                !
 ! D107  D(17,16,32,31)        178.5188         estimate D2E/DX2                !
 ! D108  D(16,17,18,53)          3.5633         estimate D2E/DX2                !
 ! D109  D(19,17,18,53)       -176.9616         estimate D2E/DX2                !
 ! D110  D(16,17,19,20)       -177.5879         estimate D2E/DX2                !
 ! D111  D(16,17,19,26)          0.8757         estimate D2E/DX2                !
 ! D112  D(18,17,19,20)          2.9381         estimate D2E/DX2                !
 ! D113  D(18,17,19,26)       -178.5983         estimate D2E/DX2                !
 ! D114  D(17,19,20,21)        -61.9283         estimate D2E/DX2                !
 ! D115  D(17,19,20,22)        179.3304         estimate D2E/DX2                !
 ! D116  D(17,19,20,23)         59.9573         estimate D2E/DX2                !
 ! D117  D(26,19,20,21)        119.7109         estimate D2E/DX2                !
 ! D118  D(26,19,20,22)          0.9697         estimate D2E/DX2                !
 ! D119  D(26,19,20,23)       -118.4035         estimate D2E/DX2                !
 ! D120  D(17,19,26,27)         -0.5872         estimate D2E/DX2                !
 ! D121  D(17,19,26,67)        179.8176         estimate D2E/DX2                !
 ! D122  D(20,19,26,27)        177.7639         estimate D2E/DX2                !
 ! D123  D(20,19,26,67)         -1.8313         estimate D2E/DX2                !
 ! D124  D(19,20,21,54)       -175.1859         estimate D2E/DX2                !
 ! D125  D(19,20,21,55)        -55.5479         estimate D2E/DX2                !
 ! D126  D(19,20,21,56)         64.5328         estimate D2E/DX2                !
 ! D127  D(22,20,21,54)        -56.6453         estimate D2E/DX2                !
 ! D128  D(22,20,21,55)         62.9927         estimate D2E/DX2                !
 ! D129  D(22,20,21,56)       -176.9267         estimate D2E/DX2                !
 ! D130  D(23,20,21,54)         64.9632         estimate D2E/DX2                !
 ! D131  D(23,20,21,55)       -175.3989         estimate D2E/DX2                !
 ! D132  D(23,20,21,56)        -55.3182         estimate D2E/DX2                !
 ! D133  D(19,20,22,57)        -61.4928         estimate D2E/DX2                !
 ! D134  D(19,20,22,58)         59.3797         estimate D2E/DX2                !
 ! D135  D(19,20,22,59)        178.552          estimate D2E/DX2                !
 ! D136  D(21,20,22,57)        178.7424         estimate D2E/DX2                !
 ! D137  D(21,20,22,58)        -60.385          estimate D2E/DX2                !
 ! D138  D(21,20,22,59)         58.7873         estimate D2E/DX2                !
 ! D139  D(23,20,22,57)         56.4432         estimate D2E/DX2                !
 ! D140  D(23,20,22,58)        177.3157         estimate D2E/DX2                !
 ! D141  D(23,20,22,59)        -63.512          estimate D2E/DX2                !
 ! D142  D(19,20,23,24)         49.2252         estimate D2E/DX2                !
 ! D143  D(19,20,23,25)        172.8207         estimate D2E/DX2                !
 ! D144  D(19,20,23,60)        -68.9112         estimate D2E/DX2                !
 ! D145  D(21,20,23,24)        170.4177         estimate D2E/DX2                !
 ! D146  D(21,20,23,25)        -65.9869         estimate D2E/DX2                !
 ! D147  D(21,20,23,60)         52.2812         estimate D2E/DX2                !
 ! D148  D(22,20,23,24)        -68.9136         estimate D2E/DX2                !
 ! D149  D(22,20,23,25)         54.6819         estimate D2E/DX2                !
 ! D150  D(22,20,23,60)        172.95           estimate D2E/DX2                !
 ! D151  D(20,23,24,61)       -176.9477         estimate D2E/DX2                !
 ! D152  D(20,23,24,62)         63.2471         estimate D2E/DX2                !
 ! D153  D(20,23,24,63)        -56.7289         estimate D2E/DX2                !
 ! D154  D(25,23,24,61)         58.4407         estimate D2E/DX2                !
 ! D155  D(25,23,24,62)        -61.3645         estimate D2E/DX2                !
 ! D156  D(25,23,24,63)        178.6595         estimate D2E/DX2                !
 ! D157  D(60,23,24,61)        -58.4962         estimate D2E/DX2                !
 ! D158  D(60,23,24,62)       -178.3013         estimate D2E/DX2                !
 ! D159  D(60,23,24,63)         61.7226         estimate D2E/DX2                !
 ! D160  D(20,23,25,64)        -62.9941         estimate D2E/DX2                !
 ! D161  D(20,23,25,65)        177.332          estimate D2E/DX2                !
 ! D162  D(20,23,25,66)         57.2934         estimate D2E/DX2                !
 ! D163  D(24,23,25,64)         61.5186         estimate D2E/DX2                !
 ! D164  D(24,23,25,65)        -58.1553         estimate D2E/DX2                !
 ! D165  D(24,23,25,66)       -178.1939         estimate D2E/DX2                !
 ! D166  D(60,23,25,64)        178.4394         estimate D2E/DX2                !
 ! D167  D(60,23,25,65)         58.7655         estimate D2E/DX2                !
 ! D168  D(60,23,25,66)        -61.2731         estimate D2E/DX2                !
 ! D169  D(19,26,27,28)       -179.7914         estimate D2E/DX2                !
 ! D170  D(19,26,27,32)         -0.3428         estimate D2E/DX2                !
 ! D171  D(67,26,27,28)         -0.1907         estimate D2E/DX2                !
 ! D172  D(67,26,27,32)        179.2579         estimate D2E/DX2                !
 ! D173  D(26,27,28,29)        179.0488         estimate D2E/DX2                !
 ! D174  D(26,27,28,68)         -0.7691         estimate D2E/DX2                !
 ! D175  D(32,27,28,29)         -0.4004         estimate D2E/DX2                !
 ! D176  D(32,27,28,68)        179.7817         estimate D2E/DX2                !
 ! D177  D(26,27,32,16)          1.0046         estimate D2E/DX2                !
 ! D178  D(26,27,32,31)       -178.275          estimate D2E/DX2                !
 ! D179  D(28,27,32,16)       -179.5303         estimate D2E/DX2                !
 ! D180  D(28,27,32,31)          1.1902         estimate D2E/DX2                !
 ! D181  D(27,28,29,30)         -0.4967         estimate D2E/DX2                !
 ! D182  D(27,28,29,69)        179.973          estimate D2E/DX2                !
 ! D183  D(68,28,29,30)        179.3171         estimate D2E/DX2                !
 ! D184  D(68,28,29,69)         -0.2132         estimate D2E/DX2                !
 ! D185  D(28,29,30,31)          0.5917         estimate D2E/DX2                !
 ! D186  D(28,29,30,70)       -179.1984         estimate D2E/DX2                !
 ! D187  D(69,29,30,31)       -179.8735         estimate D2E/DX2                !
 ! D188  D(69,29,30,70)          0.3365         estimate D2E/DX2                !
 ! D189  D(29,30,31,32)          0.2296         estimate D2E/DX2                !
 ! D190  D(29,30,31,71)       -179.2771         estimate D2E/DX2                !
 ! D191  D(70,30,31,32)       -179.9814         estimate D2E/DX2                !
 ! D192  D(70,30,31,71)          0.5118         estimate D2E/DX2                !
 ! D193  D(30,31,32,16)        179.6302         estimate D2E/DX2                !
 ! D194  D(30,31,32,27)         -1.1158         estimate D2E/DX2                !
 ! D195  D(71,31,32,16)         -0.8573         estimate D2E/DX2                !
 ! D196  D(71,31,32,27)        178.3966         estimate D2E/DX2                !
 ! D197  D(7,33,34,72)        -176.9591         estimate D2E/DX2                !
 ! D198  D(15,33,34,72)          3.5951         estimate D2E/DX2                !
 --------------------------------------------------------------------------------
 Trust Radius=3.00D-01 FncErr=1.00D-07 GrdErr=1.00D-06 EigMax=2.50D+02 EigMin=1.00D-04
 Number of steps in this run=    417 maximum allowed number of steps=    432.
 GradGradGradGradGradGradGradGradGradGradGradGradGradGradGradGradGradGrad

 Leave Link  103 at Thu Jan 23 09:15:26 2025, MaxMem= 13421772800 cpu:               0.7 elap:               0.0
 (Enter /public/software/apps/Gaussian/g16/l202.exe)
 Symmetry turned off by external request.
 Stoichiometry    C30H38O2Si2
 Framework group  C1[X(C30H38O2Si2)]
 Deg. of freedom   210
 Full point group                 C1      NOp   1
                          Input orientation:                          
 ---------------------------------------------------------------------
 Center     Atomic      Atomic             Coordinates (Angstroms)
 Number     Number       Type             X           Y           Z
 ---------------------------------------------------------------------
      1          6           0        5.048169    1.298927    1.006433
      2          6           0        4.924037    1.449588   -0.508624
      3          6           0        6.233071    1.978390   -1.088723
      4         14           0        4.389579   -0.198688   -1.342393
      5          6           0        3.955061    0.061285   -3.180414
      6          6           0        5.795393   -1.484942   -1.224131
      7          6           0        2.884308   -0.872692   -0.402903
      8          6           0        2.858831   -2.074487    0.251127
      9          6           0        1.729152   -2.514211    0.971401
     10          6           0        1.710307   -3.751758    1.646283
     11          6           0        0.610107   -4.149288    2.353399
     12          6           0       -0.517967   -3.318693    2.424671
     13          6           0       -0.533546   -2.113073    1.780459
     14          6           0        0.580433   -1.682565    1.028091
     15          6           0        0.596937   -0.440796    0.339397
     16          6           0       -0.597062    0.443546    0.337746
     17          6           0       -1.726708    0.064708   -0.358690
     18          8           0       -1.787116   -1.106302   -1.047130
     19          6           0       -2.883413    0.873549   -0.408827
     20         14           0       -4.388166    0.195373   -1.346117
     21          6           0       -3.956086   -0.071109   -3.183727
     22          6           0       -5.795583    1.480097   -1.230487
     23          6           0       -4.918902   -1.450479   -0.505054
     24          6           0       -5.038639   -1.294574    1.009842
     25          6           0       -6.229167   -1.982638   -1.079239
     26          6           0       -2.859948    2.075653    0.244700
     27          6           0       -1.731863    2.516428    0.966828
     28          6           0       -1.715281    3.754024    1.641671
     29          6           0       -0.617064    4.152073    2.351572
     30          6           0        0.511242    3.322038    2.425667
     31          6           0        0.529091    2.116484    1.781379
     32          6           0       -0.582817    1.685411    1.026280
     33          6           0        1.728259   -0.062782   -0.354752
     34          8           0        1.790789    1.108111   -1.043214
     35          1           0        5.299555    2.252952    1.468809
     36          1           0        4.114277    0.945352    1.437882
     37          1           0        5.829540    0.585292    1.259275
     38          1           0        4.149662    2.196437   -0.704229
     39          1           0        7.046643    1.282589   -0.896295
     40          1           0        6.150351    2.120877   -2.163280
     41          1           0        6.494076    2.935198   -0.637544
     42          1           0        4.828618    0.366251   -3.747660
     43          1           0        3.578650   -0.855094   -3.624576
     44          1           0        3.194862    0.824884   -3.300010
     45          1           0        5.497029   -2.437868   -1.649887
     46          1           0        6.101096   -1.660888   -0.197600
     47          1           0        6.668105   -1.145795   -1.772488
     48          1           0        3.728514   -2.713209    0.227145
     49          1           0        2.588437   -4.379613    1.594264
     50          1           0        0.603807   -5.099370    2.867005
     51          1           0       -1.376967   -3.636893    2.996788
     52          1           0       -1.400550   -1.471712    1.848136
     53          1           0       -0.969333   -1.605358   -0.911125
     54          1           0       -4.830410   -0.378518   -3.748479
     55          1           0       -3.580715    0.843735   -3.631880
     56          1           0       -3.195785   -0.834863   -3.301605
     57          1           0       -6.101206    1.657981   -0.204262
     58          1           0       -5.498573    2.432439   -1.658496
     59          1           0       -6.668017    1.138553   -1.777800
     60          1           0       -4.144431   -2.197350   -0.700279
     61          1           0       -5.287211   -2.247262    1.476473
     62          1           0       -5.820231   -0.581099    1.262470
     63          1           0       -4.103972   -0.938032    1.437155
     64          1           0       -7.042710   -1.286728   -0.887104
     65          1           0       -6.488066   -2.937907   -0.623598
     66          1           0       -6.149456   -2.129178   -2.153481
     67          1           0       -3.730143    2.713620    0.219153
     68          1           0       -2.593633    4.381392    1.587562
     69          1           0       -0.612590    5.102080    2.865337
     70          1           0        1.368586    3.640621    3.000048
     71          1           0        1.396247    1.475539    1.851156
     72          1           0        0.973238    1.607904   -0.908539
 ---------------------------------------------------------------------
 Rotational constants (GHZ):           0.1642743           0.0714877           0.0637594
 Leave Link  202 at Thu Jan 23 09:15:26 2025, MaxMem= 13421772800 cpu:               1.1 elap:               0.0
 (Enter /public/software/apps/Gaussian/g16/l301.exe)
 Standard basis: def2SVPP (5D, 7F)
 Ernie: Thresh=  0.10000D-02 Tol=  0.10000D-05 Strict=F.
   560 basis functions,  1026 primitive gaussians,   594 cartesian basis functions
   131 alpha electrons      131 beta electrons
       nuclear repulsion energy      4001.7701373183 Hartrees.
 IExCor=  402 DFT=T Ex+Corr=B3LYP ExCW=0 ScaHFX=  0.200000
 ScaDFX=  0.800000  0.720000  1.000000  0.810000 ScalE2=  1.000000  1.000000
 IRadAn=      5 IRanWt=     -1 IRanGd=            0 ICorTp=0 IEmpDi=141
 NAtoms=   72 NActive=   72 NUniq=   72 SFac= 1.00D+00 NAtFMM=   60 NAOKFM=T Big=T
 Integral buffers will be    131072 words long.
 Raffenetti 2 integral format.
 Two-electron integral symmetry is turned off.
 R6Disp:  Grimme-D3(BJ) Dispersion energy=       -0.1809465568 Hartrees.
 Nuclear repulsion after empirical dispersion term =     4001.5891907615 Hartrees.
 Leave Link  301 at Thu Jan 23 09:15:26 2025, MaxMem= 13421772800 cpu:               0.8 elap:               0.0
 (Enter /public/software/apps/Gaussian/g16/l302.exe)
 NPDir=0 NMtPBC=     1 NCelOv=     1 NCel=       1 NClECP=     1 NCelD=      1
         NCelK=      1 NCelE2=     1 NClLst=     1 CellRange=     0.0.
 One-electron integrals computed using PRISM.
   1 Symmetry operations used in ECPInt.
 ECPInt:  NShTT=   40470 NPrTT=  164454 LenC2=   34884 LenP2D=   88654.
 LDataN:  DoStor=T MaxTD1= 4 Len=   56
 NBasis=   560 RedAO= T EigKep=  1.45D-04  NBF=   560
 NBsUse=   560 1.00D-06 EigRej= -1.00D+00 NBFU=   560
 Precomputing XC quadrature grid using
 IXCGrd= 4 IRadAn=           5 IRanWt=          -1 IRanGd=           0 AccXCQ= 0.00D+00.
 Generated NRdTot=       0 NPtTot=           0 NUsed=           0 NTot=          32
 NSgBfM=   585   583   584   585   585 MxSgAt=    72 MxSgA2=    72.
 Leave Link  302 at Thu Jan 23 09:15:27 2025, MaxMem= 13421772800 cpu:              20.5 elap:               0.7
 (Enter /public/software/apps/Gaussian/g16/l303.exe)
 DipDrv:  MaxL=1.
 Leave Link  303 at Thu Jan 23 09:15:27 2025, MaxMem= 13421772800 cpu:               2.7 elap:               0.1
 (Enter /public/software/apps/Gaussian/g16/l401.exe)
 ExpMin= 7.80D-02 ExpMax= 6.90D+03 ExpMxC= 1.04D+03 IAcc=3 IRadAn=         5 AccDes= 0.00D+00
 Harris functional with IExCor=  402 and IRadAn=       5 diagonalized for initial guess.
 HarFok:  IExCor=  402 AccDes= 0.00D+00 IRadAn=         5 IDoV= 1 UseB2=F ITyADJ=14
 ICtDFT=  3500011 ScaDFX=  1.000000  1.000000  1.000000  1.000000
 FoFCou: FMM=F IPFlag=           0 FMFlag=      100000 FMFlg1=        2001
         NFxFlg=           0 DoJE=T BraDBF=F KetDBF=T FulRan=T
         wScrn=  0.000000 ICntrl=       500 IOpCl=  0 I1Cent=   200000004 NGrid=           0
         NMat0=    1 NMatS0=      1 NMatT0=    0 NMatD0=    1 NMtDS0=    0 NMtDT0=    0
 Symmetry not used in FoFCou.
 Harris En= -1894.68552483342    
 JPrj=0 DoOrth=F DoCkMO=F.
 Leave Link  401 at Thu Jan 23 09:15:29 2025, MaxMem= 13421772800 cpu:              54.8 elap:               1.7
 (Enter /public/software/apps/Gaussian/g16/l502.exe)
 Two-electron integral symmetry not used.
 Closed shell SCF:
 Using DIIS extrapolation, IDIIS=  1040.
 NGot= 13421772800 LenX= 13421041096 LenY= 13420687666
 Requested convergence on RMS density matrix=1.00D-08 within 128 cycles.
 Requested convergence on MAX density matrix=1.00D-06.
 Requested convergence on             energy=1.00D-06.
 No special actions if energy rises.
 Fock matrices will be formed incrementally for  20 cycles.
 Integral accuracy reduced to 1.0D-05 until final iterations.

 Cycle   1  Pass 0  IDiag  1:
 FoFJK:  IHMeth= 1 ICntrl=       0 DoSepK=F KAlg= 0 I1Cent=           0 FoldK=F
 IRaf= 990000000 NMat=       1 IRICut=       1 DoRegI=T DoRafI=F ISym2E= 0 IDoP0=0 IntGTp=1.
 FoFCou: FMM=T IPFlag=           0 FMFlag=      100000 FMFlg1=        2001
         NFxFlg=           0 DoJE=F BraDBF=F KetDBF=F FulRan=T
         wScrn=  0.000000 ICntrl=         0 IOpCl=  0 I1Cent=           0 NGrid=           0
         NMat0=    1 NMatS0=      1 NMatT0=    0 NMatD0=    1 NMtDS0=    0 NMtDT0=    0
 Symmetry not used in FoFCou.
 FMM levels:  10  Number of levels for PrismC:   9
 E= -1893.53303109523    
 DIIS: error= 3.58D-02 at cycle   1 NSaved=   1.
 NSaved= 1 IEnMin= 1 EnMin= -1893.53303109523     IErMin= 1 ErrMin= 3.58D-02
 ErrMax= 3.58D-02  0.00D+00 EMaxC= 1.00D-01 BMatC= 9.64D-01 BMatP= 9.64D-01
 IDIUse=3 WtCom= 6.42D-01 WtEn= 3.58D-01
 Coeff-Com:  0.100D+01
 Coeff-En:   0.100D+01
 Coeff:      0.100D+01
 Gap=     0.179 Goal=   None    Shift=    0.000
 GapD=    0.179 DampG=1.000 DampE=0.500 DampFc=0.5000 IDamp=-1.
 Damping current iteration by 5.00D-01
 RMSDP=5.31D-03 MaxDP=2.07D-01              OVMax= 1.99D-01

 Cycle   2  Pass 0  IDiag  1:
 RMSU=  2.50D-03    CP:  9.51D-01
 E= -1894.01771263794     Delta-E=       -0.484681542713 Rises=F Damp=T
 DIIS: error= 5.74D-03 at cycle   2 NSaved=   2.
 NSaved= 2 IEnMin= 2 EnMin= -1894.01771263794     IErMin= 2 ErrMin= 5.74D-03
 ErrMax= 5.74D-03  0.00D+00 EMaxC= 1.00D-01 BMatC= 3.52D-02 BMatP= 9.64D-01
 IDIUse=3 WtCom= 9.43D-01 WtEn= 5.74D-02
 Coeff-Com:  0.592D-01 0.941D+00
 Coeff-En:   0.992D-01 0.901D+00
 Coeff:      0.615D-01 0.939D+00
 Gap=     0.177 Goal=   None    Shift=    0.000
 RMSDP=1.69D-03 MaxDP=1.00D-01 DE=-4.85D-01 OVMax= 1.38D-01

 Cycle   3  Pass 0  IDiag  1:
 RMSU=  1.57D-03    CP:  9.17D-01  1.04D+00
 E= -1894.56862484627     Delta-E=       -0.550912208329 Rises=F Damp=F
 DIIS: error= 6.71D-03 at cycle   3 NSaved=   3.
 NSaved= 3 IEnMin= 3 EnMin= -1894.56862484627     IErMin= 2 ErrMin= 5.74D-03
 ErrMax= 6.71D-03  0.00D+00 EMaxC= 1.00D-01 BMatC= 2.89D-02 BMatP= 3.52D-02
 IDIUse=3 WtCom= 9.33D-01 WtEn= 6.71D-02
 Coeff-Com:  0.537D-02 0.470D+00 0.524D+00
 Coeff-En:   0.000D+00 0.000D+00 0.100D+01
 Coeff:      0.501D-02 0.439D+00 0.556D+00
 Gap=     0.167 Goal=   None    Shift=    0.000
 RMSDP=7.68D-04 MaxDP=3.18D-02 DE=-5.51D-01 OVMax= 8.44D-02

 Cycle   4  Pass 0  IDiag  1:
 RMSU=  6.57D-04    CP:  9.18D-01  1.10D+00  7.60D-01
 E= -1894.58762675929     Delta-E=       -0.019001913026 Rises=F Damp=F
 DIIS: error= 5.38D-03 at cycle   4 NSaved=   4.
 NSaved= 4 IEnMin= 4 EnMin= -1894.58762675929     IErMin= 4 ErrMin= 5.38D-03
 ErrMax= 5.38D-03  0.00D+00 EMaxC= 1.00D-01 BMatC= 1.19D-02 BMatP= 2.89D-02
 IDIUse=3 WtCom= 9.46D-01 WtEn= 5.38D-02
 Coeff-Com: -0.543D-02 0.129D+00 0.388D+00 0.489D+00
 Coeff-En:   0.000D+00 0.000D+00 0.335D+00 0.665D+00
 Coeff:     -0.514D-02 0.122D+00 0.385D+00 0.498D+00
 Gap=     0.159 Goal=   None    Shift=    0.000
 RMSDP=3.88D-04 MaxDP=2.05D-02 DE=-1.90D-02 OVMax= 4.46D-02

 Cycle   5  Pass 0  IDiag  1:
 RMSU=  1.85D-04    CP:  9.17D-01  1.07D+00  8.46D-01  5.32D-01
 E= -1894.60082316569     Delta-E=       -0.013196406395 Rises=F Damp=F
 DIIS: error= 1.31D-03 at cycle   5 NSaved=   5.
 NSaved= 5 IEnMin= 5 EnMin= -1894.60082316569     IErMin= 5 ErrMin= 1.31D-03
 ErrMax= 1.31D-03  0.00D+00 EMaxC= 1.00D-01 BMatC= 9.43D-04 BMatP= 1.19D-02
 IDIUse=3 WtCom= 9.87D-01 WtEn= 1.31D-02
 Coeff-Com: -0.346D-02 0.307D-01 0.181D+00 0.305D+00 0.487D+00
 Coeff-En:   0.000D+00 0.000D+00 0.000D+00 0.199D-01 0.980D+00
 Coeff:     -0.341D-02 0.303D-01 0.178D+00 0.301D+00 0.494D+00
 Gap=     0.158 Goal=   None    Shift=    0.000
 RMSDP=1.01D-04 MaxDP=3.49D-03 DE=-1.32D-02 OVMax= 1.34D-02

 Cycle   6  Pass 0  IDiag  1:
 RMSU=  6.67D-05    CP:  9.17D-01  1.08D+00  8.44D-01  5.79D-01  6.33D-01
 E= -1894.60180225542     Delta-E=       -0.000979089731 Rises=F Damp=F
 DIIS: error= 4.23D-04 at cycle   6 NSaved=   6.
 NSaved= 6 IEnMin= 6 EnMin= -1894.60180225542     IErMin= 6 ErrMin= 4.23D-04
 ErrMax= 4.23D-04  0.00D+00 EMaxC= 1.00D-01 BMatC= 1.18D-04 BMatP= 9.43D-04
 IDIUse=3 WtCom= 9.96D-01 WtEn= 4.23D-03
 Coeff-Com: -0.134D-02 0.229D-02 0.597D-01 0.122D+00 0.308D+00 0.509D+00
 Coeff-En:   0.000D+00 0.000D+00 0.000D+00 0.000D+00 0.791D-01 0.921D+00
 Coeff:     -0.134D-02 0.228D-02 0.594D-01 0.122D+00 0.307D+00 0.511D+00
 Gap=     0.158 Goal=   None    Shift=    0.000
 RMSDP=3.63D-05 MaxDP=1.19D-03 DE=-9.79D-04 OVMax= 4.98D-03

 Cycle   7  Pass 0  IDiag  1:
 RMSU=  2.56D-05    CP:  9.17D-01  1.08D+00  8.44D-01  5.80D-01  6.98D-01
                    CP:  6.60D-01
 E= -1894.60194662543     Delta-E=       -0.000144370013 Rises=F Damp=F
 DIIS: error= 1.34D-04 at cycle   7 NSaved=   7.
 NSaved= 7 IEnMin= 7 EnMin= -1894.60194662543     IErMin= 7 ErrMin= 1.34D-04
 ErrMax= 1.34D-04  0.00D+00 EMaxC= 1.00D-01 BMatC= 1.53D-05 BMatP= 1.18D-04
 IDIUse=3 WtCom= 9.99D-01 WtEn= 1.34D-03
 Coeff-Com: -0.525D-03-0.122D-02 0.201D-01 0.470D-01 0.145D+00 0.328D+00
 Coeff-Com:  0.462D+00
 Coeff-En:   0.000D+00 0.000D+00 0.000D+00 0.000D+00 0.000D+00 0.739D-02
 Coeff-En:   0.993D+00
 Coeff:     -0.524D-03-0.122D-02 0.201D-01 0.469D-01 0.145D+00 0.328D+00
 Coeff:      0.462D+00
 Gap=     0.158 Goal=   None    Shift=    0.000
 RMSDP=1.52D-05 MaxDP=7.43D-04 DE=-1.44D-04 OVMax= 1.22D-03

 Cycle   8  Pass 0  IDiag  1:
 RMSU=  1.17D-05    CP:  9.17D-01  1.08D+00  8.44D-01  5.81D-01  6.67D-01
                    CP:  6.83D-01  7.10D-01
 E= -1894.60197824270     Delta-E=       -0.000031617265 Rises=F Damp=F
 DIIS: error= 3.85D-05 at cycle   8 NSaved=   8.
 NSaved= 8 IEnMin= 8 EnMin= -1894.60197824270     IErMin= 8 ErrMin= 3.85D-05
 ErrMax= 3.85D-05  0.00D+00 EMaxC= 1.00D-01 BMatC= 5.19D-07 BMatP= 1.53D-05
 IDIUse=1 WtCom= 1.00D+00 WtEn= 0.00D+00
 Coeff-Com: -0.169D-03-0.761D-03 0.649D-02 0.159D-01 0.546D-01 0.135D+00
 Coeff-Com:  0.231D+00 0.557D+00
 Coeff:     -0.169D-03-0.761D-03 0.649D-02 0.159D-01 0.546D-01 0.135D+00
 Coeff:      0.231D+00 0.557D+00
 Gap=     0.158 Goal=   None    Shift=    0.000
 RMSDP=7.72D-06 MaxDP=2.60D-04 DE=-3.16D-05 OVMax= 1.69D-04

 Initial convergence to 1.0D-05 achieved.  Increase integral accuracy.
 Cycle   9  Pass 1  IDiag  1:
 E= -1894.60169213542     Delta-E=        0.000286107281 Rises=F Damp=F
 DIIS: error= 7.01D-04 at cycle   1 NSaved=   1.
 NSaved= 1 IEnMin= 1 EnMin= -1894.60169213542     IErMin= 1 ErrMin= 7.01D-04
 ErrMax= 7.01D-04  0.00D+00 EMaxC= 1.00D-01 BMatC= 8.21D-05 BMatP= 8.21D-05
 IDIUse=3 WtCom= 9.93D-01 WtEn= 7.01D-03
 Coeff-Com:  0.100D+01
 Coeff-En:   0.100D+01
 Coeff:      0.100D+01
 Gap=     0.158 Goal=   None    Shift=    0.000
 RMSDP=7.72D-06 MaxDP=2.60D-04 DE= 2.86D-04 OVMax= 1.36D-03

 Cycle  10  Pass 1  IDiag  1:
 RMSU=  5.65D-04    CP:  9.98D-01
 E= -1894.60177987647     Delta-E=       -0.000087741057 Rises=F Damp=F
 DIIS: error= 2.93D-05 at cycle   2 NSaved=   2.
 NSaved= 2 IEnMin= 2 EnMin= -1894.60177987647     IErMin= 2 ErrMin= 2.93D-05
 ErrMax= 2.93D-05  0.00D+00 EMaxC= 1.00D-01 BMatC= 2.80D-07 BMatP= 8.21D-05
 IDIUse=1 WtCom= 1.00D+00 WtEn= 0.00D+00
 Coeff-Com: -0.463D-02 0.100D+01
 Coeff:     -0.463D-02 0.100D+01
 Gap=     0.158 Goal=   None    Shift=    0.000
 RMSDP=8.95D-06 MaxDP=3.71D-04 DE=-8.77D-05 OVMax= 3.47D-04

 Cycle  11  Pass 1  IDiag  1:
 RMSU=  4.70D-06    CP:  9.98D-01  1.01D+00
 E= -1894.60177916717     Delta-E=        0.000000709305 Rises=F Damp=F
 DIIS: error= 5.43D-05 at cycle   3 NSaved=   3.
 NSaved= 3 IEnMin= 2 EnMin= -1894.60177987647     IErMin= 2 ErrMin= 2.93D-05
 ErrMax= 5.43D-05  0.00D+00 EMaxC= 1.00D-01 BMatC= 9.89D-07 BMatP= 2.80D-07
 IDIUse=1 WtCom= 1.00D+00 WtEn= 0.00D+00
 Coeff-Com: -0.640D-02 0.660D+00 0.346D+00
 Coeff:     -0.640D-02 0.660D+00 0.346D+00
 Gap=     0.158 Goal=   None    Shift=    0.000
 RMSDP=2.64D-06 MaxDP=1.23D-04 DE= 7.09D-07 OVMax= 2.49D-04

 Cycle  12  Pass 1  IDiag  1:
 RMSU=  1.46D-06    CP:  9.98D-01  1.01D+00  5.34D-01
 E= -1894.60178015837     Delta-E=       -0.000000991197 Rises=F Damp=F
 DIIS: error= 3.10D-06 at cycle   4 NSaved=   4.
 NSaved= 4 IEnMin= 4 EnMin= -1894.60178015837     IErMin= 4 ErrMin= 3.10D-06
 ErrMax= 3.10D-06  0.00D+00 EMaxC= 1.00D-01 BMatC= 7.26D-09 BMatP= 2.80D-07
 IDIUse=1 WtCom= 1.00D+00 WtEn= 0.00D+00
 Coeff-Com: -0.356D-02 0.359D+00 0.195D+00 0.449D+00
 Coeff:     -0.356D-02 0.359D+00 0.195D+00 0.449D+00
 Gap=     0.158 Goal=   None    Shift=    0.000
 RMSDP=2.82D-07 MaxDP=1.05D-05 DE=-9.91D-07 OVMax= 2.85D-05

 Cycle  13  Pass 1  IDiag  1:
 RMSU=  2.64D-07    CP:  9.98D-01  1.01D+00  5.48D-01  9.52D-01
 E= -1894.60178016601     Delta-E=       -0.000000007646 Rises=F Damp=F
 DIIS: error= 1.22D-06 at cycle   5 NSaved=   5.
 NSaved= 5 IEnMin= 5 EnMin= -1894.60178016601     IErMin= 5 ErrMin= 1.22D-06
 ErrMax= 1.22D-06  0.00D+00 EMaxC= 1.00D-01 BMatC= 5.86D-10 BMatP= 7.26D-09
 IDIUse=1 WtCom= 1.00D+00 WtEn= 0.00D+00
 Coeff-Com: -0.882D-03 0.869D-01 0.487D-01 0.237D+00 0.629D+00
 Coeff:     -0.882D-03 0.869D-01 0.487D-01 0.237D+00 0.629D+00
 Gap=     0.158 Goal=   None    Shift=    0.000
 RMSDP=1.10D-07 MaxDP=8.24D-06 DE=-7.65D-09 OVMax= 1.12D-05

 Cycle  14  Pass 1  IDiag  1:
 RMSU=  9.01D-08    CP:  9.98D-01  1.01D+00  5.47D-01  9.66D-01  7.91D-01
 E= -1894.60178016637     Delta-E=       -0.000000000363 Rises=F Damp=F
 DIIS: error= 6.51D-07 at cycle   6 NSaved=   6.
 NSaved= 6 IEnMin= 6 EnMin= -1894.60178016637     IErMin= 6 ErrMin= 6.51D-07
 ErrMax= 6.51D-07  0.00D+00 EMaxC= 1.00D-01 BMatC= 1.97D-10 BMatP= 5.86D-10
 IDIUse=1 WtCom= 1.00D+00 WtEn= 0.00D+00
 Coeff-Com: -0.721D-04 0.590D-02 0.397D-02 0.917D-01 0.428D+00 0.471D+00
 Coeff:     -0.721D-04 0.590D-02 0.397D-02 0.917D-01 0.428D+00 0.471D+00
 Gap=     0.158 Goal=   None    Shift=    0.000
 RMSDP=4.99D-08 MaxDP=2.81D-06 DE=-3.63D-10 OVMax= 5.52D-06

 Cycle  15  Pass 1  IDiag  1:
 RMSU=  1.93D-08    CP:  9.98D-01  1.01D+00  5.48D-01  9.74D-01  8.30D-01
                    CP:  5.32D-01
 E= -1894.60178016660     Delta-E=       -0.000000000224 Rises=F Damp=F
 DIIS: error= 1.73D-07 at cycle   7 NSaved=   7.
 NSaved= 7 IEnMin= 7 EnMin= -1894.60178016660     IErMin= 7 ErrMin= 1.73D-07
 ErrMax= 1.73D-07  0.00D+00 EMaxC= 1.00D-01 BMatC= 1.63D-11 BMatP= 1.97D-10
 IDIUse=1 WtCom= 1.00D+00 WtEn= 0.00D+00
 Coeff-Com:  0.155D-04-0.232D-02-0.765D-03 0.430D-01 0.234D+00 0.303D+00
 Coeff-Com:  0.423D+00
 Coeff:      0.155D-04-0.232D-02-0.765D-03 0.430D-01 0.234D+00 0.303D+00
 Coeff:      0.423D+00
 Gap=     0.158 Goal=   None    Shift=    0.000
 RMSDP=1.08D-08 MaxDP=3.92D-07 DE=-2.24D-10 OVMax= 1.38D-06

 Cycle  16  Pass 1  IDiag  1:
 RMSU=  6.66D-09    CP:  9.98D-01  1.01D+00  5.49D-01  9.74D-01  8.29D-01
                    CP:  5.75D-01  6.17D-01
 E= -1894.60178016659     Delta-E=        0.000000000005 Rises=F Damp=F
 DIIS: error= 3.40D-08 at cycle   8 NSaved=   8.
 NSaved= 8 IEnMin= 7 EnMin= -1894.60178016660     IErMin= 8 ErrMin= 3.40D-08
 ErrMax= 3.40D-08  0.00D+00 EMaxC= 1.00D-01 BMatC= 7.82D-13 BMatP= 1.63D-11
 IDIUse=1 WtCom= 1.00D+00 WtEn= 0.00D+00
 Coeff-Com:  0.160D-04-0.188D-02-0.804D-03 0.130D-01 0.799D-01 0.110D+00
 Coeff-Com:  0.232D+00 0.568D+00
 Coeff:      0.160D-04-0.188D-02-0.804D-03 0.130D-01 0.799D-01 0.110D+00
 Coeff:      0.232D+00 0.568D+00
 Gap=     0.158 Goal=   None    Shift=    0.000
 RMSDP=2.95D-09 MaxDP=1.25D-07 DE= 4.55D-12 OVMax= 2.81D-07

 SCF Done:  E(RB3LYP) =  -1894.60178017     A.U. after   16 cycles
            NFock= 16  Conv=0.29D-08     -V/T= 2.0078
 KE= 1.879878536536D+03 PE=-1.243049918921D+04 EE= 4.654429681749D+03
 Leave Link  502 at Thu Jan 23 09:16:22 2025, MaxMem= 13421772800 cpu:            1670.8 elap:              53.2
 (Enter /public/software/apps/Gaussian/g16/l601.exe)
 Copying SCF densities to generalized density rwf, IOpCl= 0 IROHF=0.

 **********************************************************************

            Population analysis using the SCF Density.

 **********************************************************************

 Alpha  occ. eigenvalues --  -66.09813 -66.09813 -19.16823 -19.16814 -10.25448
 Alpha  occ. eigenvalues --  -10.25447 -10.20219 -10.20215 -10.19665 -10.19648
 Alpha  occ. eigenvalues --  -10.19411 -10.19410 -10.19321 -10.19320 -10.18901
 Alpha  occ. eigenvalues --  -10.18901 -10.18870 -10.18869 -10.18598 -10.18596
 Alpha  occ. eigenvalues --  -10.18570 -10.18569 -10.17441 -10.17440 -10.16243
 Alpha  occ. eigenvalues --  -10.16242 -10.16174 -10.16174 -10.15972 -10.15971
 Alpha  occ. eigenvalues --  -10.15249 -10.15249 -10.14611 -10.14609  -5.26264
 Alpha  occ. eigenvalues --   -5.26264  -3.62505  -3.62505  -3.62440  -3.62440
 Alpha  occ. eigenvalues --   -3.62392  -3.62391  -1.06322  -1.06052  -0.88411
 Alpha  occ. eigenvalues --   -0.87400  -0.82564  -0.81872  -0.79618  -0.77167
 Alpha  occ. eigenvalues --   -0.77143  -0.76327  -0.74078  -0.73958  -0.72796
 Alpha  occ. eigenvalues --   -0.70854  -0.69199  -0.69062  -0.67280  -0.67264
 Alpha  occ. eigenvalues --   -0.66993  -0.66922  -0.65434  -0.63737  -0.61655
 Alpha  occ. eigenvalues --   -0.61387  -0.61068  -0.58638  -0.56894  -0.56743
 Alpha  occ. eigenvalues --   -0.55845  -0.55553  -0.52873  -0.52745  -0.51221
 Alpha  occ. eigenvalues --   -0.49814  -0.47445  -0.47220  -0.46496  -0.46253
 Alpha  occ. eigenvalues --   -0.45502  -0.45405  -0.44933  -0.44458  -0.44227
 Alpha  occ. eigenvalues --   -0.43954  -0.43586  -0.42729  -0.42344  -0.42045
 Alpha  occ. eigenvalues --   -0.41605  -0.41409  -0.41257  -0.40313  -0.40137
 Alpha  occ. eigenvalues --   -0.39823  -0.39786  -0.39609  -0.39442  -0.39186
 Alpha  occ. eigenvalues --   -0.39106  -0.38696  -0.38629  -0.38603  -0.38392
 Alpha  occ. eigenvalues --   -0.37982  -0.37905  -0.37842  -0.37766  -0.36513
 Alpha  occ. eigenvalues --   -0.36317  -0.35254  -0.34104  -0.33424  -0.33411
 Alpha  occ. eigenvalues --   -0.33339  -0.33305  -0.32113  -0.31772  -0.30469
 Alpha  occ. eigenvalues --   -0.30398  -0.29662  -0.29577  -0.29190  -0.28544
 Alpha  occ. eigenvalues --   -0.27165  -0.27145  -0.24120  -0.24100  -0.22461
 Alpha  occ. eigenvalues --   -0.21289
 Alpha virt. eigenvalues --   -0.05466  -0.04492  -0.01940  -0.01527   0.01243
 Alpha virt. eigenvalues --    0.02540   0.04430   0.04538   0.05825   0.06147
 Alpha virt. eigenvalues --    0.06539   0.07220   0.07363   0.07624   0.08202
 Alpha virt. eigenvalues --    0.08376   0.08843   0.09122   0.09348   0.10103
 Alpha virt. eigenvalues --    0.10293   0.10556   0.10928   0.11285   0.11319
 Alpha virt. eigenvalues --    0.11607   0.11766   0.12095   0.12613   0.12826
 Alpha virt. eigenvalues --    0.13550   0.13716   0.14153   0.14213   0.14906
 Alpha virt. eigenvalues --    0.14994   0.15346   0.15562   0.15627   0.15828
 Alpha virt. eigenvalues --    0.16171   0.16328   0.17256   0.17410   0.17482
 Alpha virt. eigenvalues --    0.18307   0.18735   0.18955   0.19378   0.19740
 Alpha virt. eigenvalues --    0.19757   0.19764   0.20374   0.20750   0.21570
 Alpha virt. eigenvalues --    0.21886   0.22196   0.22855   0.23413   0.24133
 Alpha virt. eigenvalues --    0.24307   0.24904   0.25994   0.26407   0.27332
 Alpha virt. eigenvalues --    0.27884   0.28723   0.28993   0.30156   0.30298
 Alpha virt. eigenvalues --    0.30799   0.31043   0.31728   0.32090   0.32345
 Alpha virt. eigenvalues --    0.34090   0.34427   0.35271   0.35881   0.36842
 Alpha virt. eigenvalues --    0.36986   0.37160   0.37602   0.37798   0.38237
 Alpha virt. eigenvalues --    0.38379   0.39500   0.40359   0.40975   0.41280
 Alpha virt. eigenvalues --    0.41876   0.42287   0.42719   0.42886   0.43386
 Alpha virt. eigenvalues --    0.43450   0.44463   0.45358   0.45475   0.45659
 Alpha virt. eigenvalues --    0.46106   0.46411   0.46424   0.47144   0.47639
 Alpha virt. eigenvalues --    0.48183   0.48294   0.48468   0.48999   0.49730
 Alpha virt. eigenvalues --    0.50077   0.50487   0.50529   0.51283   0.51704
 Alpha virt. eigenvalues --    0.51894   0.53218   0.53740   0.53946   0.54207
 Alpha virt. eigenvalues --    0.55242   0.55908   0.55934   0.56712   0.57220
 Alpha virt. eigenvalues --    0.57379   0.58136   0.58455   0.58960   0.59170
 Alpha virt. eigenvalues --    0.59639   0.59699   0.60084   0.60107   0.60956
 Alpha virt. eigenvalues --    0.61464   0.61865   0.62558   0.63284   0.63584
 Alpha virt. eigenvalues --    0.64354   0.64592   0.65112   0.65185   0.65563
 Alpha virt. eigenvalues --    0.65934   0.66181   0.66253   0.66318   0.67197
 Alpha virt. eigenvalues --    0.67372   0.67672   0.68170   0.68254   0.68578
 Alpha virt. eigenvalues --    0.68584   0.69260   0.69312   0.69603   0.70067
 Alpha virt. eigenvalues --    0.70176   0.70520   0.70812   0.71085   0.71202
 Alpha virt. eigenvalues --    0.71466   0.71489   0.71785   0.72031   0.72324
 Alpha virt. eigenvalues --    0.72438   0.72607   0.72714   0.73432   0.73448
 Alpha virt. eigenvalues --    0.73845   0.73864   0.74073   0.74806   0.74830
 Alpha virt. eigenvalues --    0.74958   0.75056   0.75317   0.75391   0.75916
 Alpha virt. eigenvalues --    0.76273   0.76588   0.76757   0.76903   0.77697
 Alpha virt. eigenvalues --    0.77855   0.78467   0.78478   0.79071   0.79115
 Alpha virt. eigenvalues --    0.79688   0.80592   0.80858   0.80953   0.81399
 Alpha virt. eigenvalues --    0.81732   0.82121   0.82412   0.82564   0.82638
 Alpha virt. eigenvalues --    0.83106   0.83528   0.83831   0.85373   0.86254
 Alpha virt. eigenvalues --    0.86652   0.87356   0.87757   0.88596   0.89545
 Alpha virt. eigenvalues --    0.89843   0.90025   0.90590   0.90830   0.91500
 Alpha virt. eigenvalues --    0.92580   0.93189   0.93409   0.94465   0.95240
 Alpha virt. eigenvalues --    0.96684   0.97055   0.98090   0.98767   1.00514
 Alpha virt. eigenvalues --    1.01383   1.02622   1.03209   1.04263   1.06284
 Alpha virt. eigenvalues --    1.06816   1.07234   1.07740   1.09361   1.10267
 Alpha virt. eigenvalues --    1.11583   1.12580   1.12701   1.13565   1.14888
 Alpha virt. eigenvalues --    1.16732   1.16773   1.17994   1.18384   1.19472
 Alpha virt. eigenvalues --    1.19855   1.22903   1.23074   1.24389   1.24587
 Alpha virt. eigenvalues --    1.26036   1.26536   1.28392   1.28606   1.31005
 Alpha virt. eigenvalues --    1.31355   1.33467   1.36958   1.37185   1.38495
 Alpha virt. eigenvalues --    1.40154   1.41767   1.43791   1.44185   1.46107
 Alpha virt. eigenvalues --    1.46696   1.47516   1.47620   1.48550   1.48625
 Alpha virt. eigenvalues --    1.48719   1.49472   1.50154   1.50441   1.52275
 Alpha virt. eigenvalues --    1.52484   1.54154   1.54778   1.55462   1.56153
 Alpha virt. eigenvalues --    1.60907   1.61184   1.62603   1.64409   1.67678
 Alpha virt. eigenvalues --    1.71662   1.72862   1.73980   1.74268   1.74938
 Alpha virt. eigenvalues --    1.75631   1.76790   1.77934   1.78038   1.78611
 Alpha virt. eigenvalues --    1.80006   1.81000   1.81777   1.82956   1.83189
 Alpha virt. eigenvalues --    1.83823   1.83975   1.84109   1.85173   1.86147
 Alpha virt. eigenvalues --    1.86367   1.87186   1.87211   1.88580   1.89494
 Alpha virt. eigenvalues --    1.89693   1.90293   1.90548   1.92317   1.92449
 Alpha virt. eigenvalues --    1.92785   1.93849   1.96407   1.97393   1.98200
 Alpha virt. eigenvalues --    1.98350   1.99234   2.00024   2.01484   2.02669
 Alpha virt. eigenvalues --    2.04066   2.04204   2.05865   2.06023   2.06803
[...]
 .00001362,0.00000603,0.00000207,-0.00000074,0.00000342,-0.00000717,0.0
 0000699,0.00021316,0.00035467,-0.00048869,0.00057946,0.00020408,-0.000
 25803,-0.00132658,-0.00134748,0.00402740,0.00033111,-0.00150215,0.0029
 4125,-0.12286300,-0.05087556,-0.12271035,-0.01289006,-0.00375976,-0.00
 362620,-0.00129051,-0.00533926,0.00499755,-0.00005330,-0.00021599,0.00
 002376,0.00005761,0.00019973,-0.00001973,0.00008978,0.00004631,0.00002
 569,-0.00004255,-0.00007615,-0.00001180,-0.00003408,0.00003544,0.00002
 695,-0.00001368,-0.00000692,-0.00002633,-0.00000832,0.00000464,-0.0000
 0250,-0.00000825,-0.00000445,0.00001244,0.00001889,0.00001128,-0.00000
 309,0.00000062,-0.00000191,-0.00001515,0.00000131,0.00000273,0.0000171
 4,-0.00000565,-0.00000670,0.00000089,-0.00001081,0.00001410,0.00000378
 ,-0.00000011,-0.00000946,0.00000023,0.00000889,-0.00000840,-0.00000160
 ,-0.00000029,-0.00000589,0.00000269,0.00000159,-0.00000480,-0.00000031
 ,0.00000126,-0.00000220,0.00000045,0.00000065,0.00000241,0.00000094,0.
 00001034,0.00001175,-0.00000623,-0.00003813,0.00002127,0.00000973,-0.0
 0000055,-0.00000103,-0.00000415,-0.00000052,0.00000255,0.00000105,0.00
 000163,-0.00000041,0.00000507,0.00000654,-0.00000044,-0.00000109,0.000
 00321,-0.00000138,0.00000356,-0.00000672,0.00000130,-0.00000077,0.0000
 0454,0.00000484,-0.00000057,-0.00000351,-0.00000447,-0.00000040,0.0000
 0118,0.00000079,0.00000032,-0.00000465,0.00000415,-0.00000581,-0.00000
 138,0.00000090,0.00000034,-0.00000535,-0.00000425,0.00000021,-0.000000
 54,0.00000035,-0.00000311,-0.00002646,-0.00001458,0.00002694,0.0000036
 3,-0.00012390,0.00007332,0.00093124,0.00150731,-0.00181402,0.13503042,
 0.05866169,0.12006989,-0.00042732,-0.00005283,0.00010111,0.00009046,-0
 .00001441,0.00002035,-0.00002820,-0.00003160,-0.00010066,0.00026100,0.
 00019439,-0.00002831,-0.00005504,-0.00005907,0.00001009,-0.00005614,-0
 .00004834,0.00001165,0.00008223,-0.00028046,-0.00004428,-0.00002469,0.
 00018821,-0.00016379,-0.00015660,-0.00008551,0.00006966,0.00004704,0.0
 0003241,-0.00003232,-0.00008316,0.00001957,0.00001878,0.00008031,-0.00
 010011,0.00004090,0.00000755,0.00009465,-0.00006462,0.00018289,-0.0004
 7084,0.00039773,0.00011210,0.00042795,0.00037183,-0.00012392,0.0009014
 6,0.00153901,-0.00030304,0.00012067,0.00014366,0.00022082,-0.00015506,
 -0.00010377,0.00005154,-0.00018573,-0.00004740,0.00018441,0.00015657,0
 .00011733,-0.00004821,-0.00003623,-0.00002610,-0.00005214,-0.00002717,
 -0.00003344,-0.00003586,-0.00000627,-0.00002379,-0.00000497,-0.0000125
 2,-0.00001021,0.00000751,-0.00002215,0.00001831,-0.00063550,0.00111747
 ,0.00033232,-0.00109876,-0.00205917,-0.00417054,0.00021426,-0.00085939
 ,-0.00011641,0.00249091,0.00091438,-0.00205687,0.00360059,-0.00155993,
 -0.00118745,-0.24084553,0.13433760,-0.02081244,-0.01607500,0.01499548,
 -0.00062736,0.00063904,0.00054214,0.00073356,0.00007743,0.00016345,0.0
 0026117,0.00003548,0.00000870,-0.00002275,-0.00010486,0.00005155,0.000
 04301,0.00008330,-0.00000234,-0.00003094,0.00001030,0.00001438,-0.0000
 1985,0.00000321,-0.00000229,0.00000777,0.00002947,0.00001353,-0.000017
 81,-0.00001410,-0.00000916,0.00000748,-0.00000283,0.00000168,0.0000243
 6,-0.00000156,0.00000171,-0.00002267,0.00000488,0.00000851,-0.00001856
 ,0.00001542,-0.00001651,-0.00000919,0.00000179,0.00001327,-0.00000123,
 -0.00001608,0.00000940,0.00000062,0.00000265,0.00002047,0.00000011,-0.
 00000697,0.00000704,0.00000146,-0.00000168,0.00000660,-0.00000600,0.00
 000252,0.00000493,-0.00001035,-0.00003650,-0.00001515,-0.00005058,-0.0
 0014105,-0.00000722,-0.00004981,0.00000333,-0.00000450,-0.00002342,0.0
 0000016,0.00000260,0.00001256,0.00000273,-0.00000228,-0.00000187,0.000
 01605,0.00000476,-0.00000366,0.00001355,-0.00001513,0.00001420,-0.0000
 1506,-0.00000061,-0.00000365,0.00000111,-0.00000966,-0.00000241,-0.000
 01082,-0.00001279,0.00000493,0.00000867,0.00000164,-0.00000090,-0.0000
 0057,0.00001924,-0.00000660,0.00000270,0.00000238,-0.00000164,-0.00001
 288,-0.00001014,-0.00000099,0.00000195,0.00000375,0.00000023,-0.000260
 57,-0.00007789,-0.00020952,-0.00020361,-0.00010994,0.00035780,0.000096
 33,-0.00010994,-0.00014547,0.00001922,-0.00075543,0.00195372,0.2525171
 8,-0.00013635,-0.00032895,0.00010368,-0.00001608,-0.00004471,0.0000407
 9,-0.00001014,-0.00003879,-0.00006758,0.00029656,0.00036797,0.00002420
 ,-0.00007850,-0.00008816,-0.00000307,-0.00007081,-0.00008636,0.0000044
 2,0.00001855,-0.00000781,0.00016150,-0.00001538,0.00007060,-0.00010736
 ,-0.00006708,-0.00002958,0.00011636,0.00003021,0.00001772,-0.00003925,
 -0.00006207,0.00002332,0.00001608,0.00005161,-0.00007475,0.00004245,0.
 00003615,0.00013102,0.00001102,-0.00008610,-0.00041855,-0.00004662,-0.
 00053313,-0.00062731,-0.00045301,-0.00033174,-0.00077366,0.00049170,0.
 00007881,0.00001265,0.00028290,0.00007699,0.00007568,-0.00005641,-0.00
 009561,0.00008974,0.00009561,-0.00004062,0.00001742,-0.00004163,0.0000
 0536,-0.00000082,0.00000717,0.00000645,-0.00000289,0.00000140,0.000008
 98,-0.00000008,0.00000746,-0.00000805,-0.00000556,-0.00000175,-0.00000
 222,0.00000165,-0.00000147,-0.00045573,0.00030787,-0.00002393,-0.00085
 119,0.00050806,-0.00281505,-0.00075506,-0.00016772,-0.00010908,-0.0002
 2090,-0.00181881,-0.00551263,0.02352076,-0.01123544,0.00235507,0.13483
 443,-0.14547788,0.00218324,-0.00813916,0.00920456,-0.00016804,0.000297
 98,0.00015960,-0.00222493,-0.00008697,-0.00125776,0.00043296,-0.000134
 77,-0.00003477,0.00000721,0.00017933,0.00044357,-0.00008188,0.00013445
 ,-0.00002601,-0.00005996,0.00000750,-0.00000617,0.00004252,0.00001512,
 0.00000020,0.00000451,0.00002407,0.00001461,-0.00002782,-0.00002048,-0
 .00001104,0.00000933,0.00000225,-0.00000065,0.00003253,-0.00000265,-0.
 00000217,-0.00003437,0.00001013,0.00000736,-0.00000234,0.00002356,-0.0
 0002672,-0.00000992,0.00000223,0.00001855,-0.00000113,-0.00001936,0.00
 001500,0.00000283,0.00000010,0.00001916,0.00000305,-0.00000772,0.00001
 018,-0.00000193,-0.00000086,0.00000744,-0.00000521,0.00000300,0.000001
 33,-0.00001177,-0.00001503,-0.00001479,-0.00002140,-0.00002659,-0.0000
 1040,-0.00001172,0.00000123,0.00000027,0.00000214,-0.00000019,-0.00000
 145,0.00000158,-0.00000081,-0.00000073,-0.00000577,0.00000056,0.000002
 16,0.00000006,0.00000038,-0.00000572,0.00000223,0.00000190,-0.00000379
 ,0.00000010,-0.00000152,-0.00000557,-0.00000216,-0.00000124,0.00000045
 ,0.00000122,0.00000381,-0.00000165,0.00000011,0.00000343,0.00000383,0.
 00000416,0.00000244,-0.00000082,-0.00000058,0.00000128,0.00000131,-0.0
 0000024,0.00000088,0.00000042,0.00000261,-0.00010229,0.00000943,-0.000
 16281,-0.00010381,-0.00021194,0.00043964,0.00104388,-0.00050965,0.0000
 1940,-0.00115674,-0.00000770,0.00227815,-0.14722186,0.15166454,0.00008
 167,0.00011480,-0.00016015,-0.00000717,-0.00001120,0.00001832,0.000002
 36,0.00000238,-0.00002718,0.00022764,-0.00005205,-0.00014003,-0.000043
 00,-0.00000531,0.00004280,-0.00004227,0.00000593,0.00002703,0.00012122
 ,-0.00006556,-0.00007819,0.00001995,0.00010767,-0.00000055,-0.00020765
 ,0.00006848,-0.00000244,0.00006364,-0.00003488,-0.00002518,-0.00003783
 ,0.00008012,-0.00003004,0.00005262,-0.00006522,-0.00001805,0.00003442,
 0.00018624,-0.00010691,0.00010680,-0.00030242,0.00033899,-0.00020573,-
 0.00051917,-0.00065749,0.00080202,0.00126868,-0.00147378,0.00037110,0.
 00033892,-0.00003878,0.00002686,-0.00025779,0.00008477,-0.00004226,0.0
 0007815,-0.00007623,0.00008546,0.00007782,0.00011211,-0.00001959,-0.00
 001877,-0.00002063,-0.00002938,-0.00001830,-0.00002197,-0.00002509,-0.
 00000558,-0.00001906,0.00000150,-0.00000437,-0.00000624,0.00000430,-0.
 00001337,0.00000861,-0.00060811,0.00064298,0.00017415,-0.00328921,-0.0
 0342823,0.00177060,-0.00010769,-0.00023642,-0.00077114,-0.00249495,-0.
 00512070,0.00394516,0.01276245,-0.00939146,0.00482688,-0.02066313,0.00
 224592,-0.04488518,-0.01266393,0.01040615,0.00290970,0.00009449,-0.001
 38499,-0.00059542,0.00014730,0.00054851,-0.00018955,-0.00004200,-0.000
 04988,0.00000207,0.00007794,-0.00016731,0.00024436,-0.00008135,0.00000
 870,0.00001525,0.00000384,0.00004476,-0.00003046,-0.00002095,0.0000036
 6,0.00000585,0.00000014,-0.00000116,0.00000526,-0.00001390,-0.00001787
 ,0.00000290,-0.00000571,-0.00000086,0.00001717,-0.00000026,0.00000672,
 -0.00000137,0.00000225,0.00000416,-0.00002696,0.00000331,0.00000209,-0
 .00000438,0.00000555,-0.00000052,-0.00000260,-0.00001324,0.00000465,0.
 00000020,-0.00000975,0.00003124,-0.00001054,-0.00000777,0.00000642,0.0
 0000400,0.00000676,0.00000963,-0.00000160,0.00001307,0.00001206,-0.000
 00622,0.00005062,0.00002143,-0.00000100,-0.00011594,-0.00000354,-0.000
 04962,0.00000210,-0.00000222,-0.00001187,-0.00000106,0.00000262,0.0000
 0508,0.00000124,-0.00000315,-0.00000299,0.00001308,0.00000057,-0.00000
 712,0.00000904,-0.00000563,0.00000966,-0.00000825,-0.00000054,-0.00000
 491,0.00000036,-0.00000629,-0.00000298,-0.00000665,-0.00000646,0.00000
 156,0.00000891,-0.00000086,0.00000017,-0.00000466,0.00001447,-0.000000
 30,0.00000226,0.00000066,-0.00000044,-0.00000766,-0.00000512,-0.000000
 17,-0.00000034,0.00000168,-0.00000199,-0.00026191,-0.00014266,-0.00001
 004,0.00033237,0.00043729,-0.00069313,0.00049507,-0.00048190,0.0002210
 1,0.00163183,0.00242952,-0.00293348,0.02389426,0.00265263,0.03881472,-
 0.00002239,-0.00009989,0.00003034,-0.00011506,0.00001330,-0.00009974,-
 0.00002713,-0.00002667,0.00000855,-0.00036587,-0.00010165,0.00015179,0
 .00006827,0.00006194,-0.00014758,0.00008510,-0.00005447,-0.00002934,0.
 00260240,-0.00195771,0.00107611,0.00025629,0.00088349,0.00005490,-0.00
 027409,-0.00073763,0.00040002,-0.00004307,0.00053212,-0.00029716,-0.00
 035560,-0.00027923,0.00030451,0.00014625,-0.00021191,0.00011370,0.0003
 0985,-0.00035670,-0.00004091,-0.00081386,0.00088567,-0.00008786,-0.001
 36555,-0.00647168,0.00359881,0.00515814,-0.00062719,-0.00228586,-0.003
 01699,-0.00196923,-0.00285633,-0.00038302,0.00238183,0.00103752,-0.000
 02128,-0.00040739,-0.00021528,-0.00079719,-0.00041537,-0.00036476,0.00
 018601,0.00010934,0.00013115,0.00020551,0.00006293,0.00008456,0.000148
 79,0.00004861,0.00006770,-0.00001544,0.00002494,0.00002591,-0.00003346
 ,0.00005570,-0.00006647,0.00045781,-0.00012256,0.00041361,0.00006181,0
 .00020694,0.00004135,-0.00006818,0.00049465,0.00014982,-0.00032019,-0.
 00003990,-0.00018201,-0.00029773,-0.00061893,-0.00024852,0.00046607,-0
 .00009957,0.00089057,-0.00079321,0.00316370,0.00288201,0.00054728,0.00
 981803,-0.00632770,-0.34992335,0.18271016,0.05019041,0.00000054,0.0000
 3374,-0.00001737,0.00001810,0.00005424,-0.00010312,0.00006041,-0.00001
 739,0.00001405,-0.00026741,-0.00004572,0.00009477,0.00003625,-0.000013
 62,0.00000115,0.00000124,0.00000831,-0.00001341,0.00000358,0.00002637,
 -0.00000025,0.00002134,0.00000414,-0.00002441,0.00000556,-0.00003860,0
 .00001368,-0.00007947,0.00000795,0.00017657,-0.00000360,-0.00001012,0.
 00000238,-0.00000941,0.00000582,0.00000442,0.00002139,-0.00000052,-0.0
 0000285,0.00005278,-0.00008077,-0.00006311,0.00002655,-0.00001411,-0.0
 0000116,-0.00002242,0.00000032,0.00000997,-0.00002581,-0.00003824,0.00
 003821,-0.00014107,-0.00002635,0.00011596,0.00081017,-0.00022861,0.000
 43350,0.00002387,0.00001557,0.00006895,-0.00002059,-0.00000133,-0.0000
 6058,-0.00002643,-0.00003045,-0.00005965,-0.00003583,-0.00000260,0.000
 00243,-0.00004731,0.00003224,-0.00002121,0.00005868,-0.00001929,0.0000
 0855,-0.00002581,-0.00003335,-0.00000121,0.00004634,0.00005476,-0.0000
 1827,-0.00001653,-0.00000602,-0.00000324,0.00001241,-0.00006459,0.0000
 4986,0.00000702,-0.00000929,0.00000352,0.00004814,0.00004378,-0.000002
 52,-0.00000471,-0.00001205,0.00000833,0.00002567,-0.00001287,-0.000052
 55,0.00001634,-0.00003547,-0.00000093,-0.00003370,-0.00000881,-0.00004
 744,-0.00003451,-0.00007611,-0.00007258,-0.00033886,0.00015442,-0.0004
 7140,0.34819016,-0.00000924,-0.00006094,0.00009521,-0.00049707,-0.0001
 6211,0.00000759,-0.00000054,-0.00003138,-0.00017092,0.00144484,-0.0008
 7596,-0.00000308,-0.00029621,-0.00005183,0.00018817,-0.00008655,-0.000
 03746,-0.00000595,-0.00176807,-0.00329753,0.00430485,0.00188711,0.0000
 8009,0.00003615,-0.00032225,0.00025616,-0.00005190,0.00002395,-0.00002
 909,-0.00005001,-0.00013498,0.00014770,-0.00002526,0.00015917,-0.00016
 972,0.00008020,0.00007515,0.00059448,-0.00038269,0.00058794,-0.0012240
 2,0.00000087,0.00109577,0.00164747,-0.00161961,-0.00000015,0.00169915,
 -0.00048348,-0.00072907,-0.00016883,-0.00090337,0.00020410,0.00028627,
 0.00009407,-0.00024702,-0.00017343,-0.00019042,-0.00008180,0.00014438,
 -0.00006250,-0.00000417,-0.00000321,0.00002781,0.00004779,-0.00001580,
 0.00002720,0.00000514,0.00002080,0.00000832,-0.00002729,-0.00002931,-0
 .00001648,-0.00000078,-0.00001734,-0.00000098,0.00040782,-0.00042251,0
 .00002596,0.00093686,-0.00050328,0.00023128,-0.00002431,0.00004668,0.0
 0002506,0.00002617,-0.00020180,-0.00009148,-0.00028751,-0.00017052,0.0
 0001973,-0.00089483,-0.00053800,-0.00042556,0.00019721,0.00145266,0.00
 174629,0.03814527,-0.02829905,-0.00160760,0.14701769,-0.12046116,-0.00
 210496,-0.00007848,-0.00005046,-0.00007090,0.00001517,0.00007086,0.000
 05823,0.00002811,-0.00001509,-0.00001269,0.00006092,0.00035350,0.00003
 114,-0.00002486,-0.00001525,0.00001300,0.00000798,0.00002517,0.0000111
 4,-0.00008632,-0.00005125,-0.00001229,-0.00008250,0.00006413,0.0000935
 4,0.00000115,0.00000161,0.00002130,0.00008617,0.00011690,-0.00030857,0
 .00000895,-0.00000339,-0.00000403,-0.00000888,0.00001999,-0.00001024,-
 0.00003302,0.00002048,0.00000607,-0.00012682,-0.00035297,0.00006843,-0
 .00002410,0.00004046,-0.00001094,-0.00000421,0.00001909,-0.00000735,0.
 00002256,0.00004192,-0.00002133,-0.00000713,-0.00001036,0.00000347,-0.
 00022951,-0.00031253,0.00010491,0.00001263,-0.00001529,0.00000020,0.00
 000692,-0.00001013,0.00002701,-0.00001053,-0.00001624,-0.00004660,-0.0
 0001068,0.00000381,0.00000210,0.00000494,-0.00001328,-0.00000211,0.000
 00971,-0.00000664,0.00000056,-0.00001214,-0.00004689,-0.00001247,-0.00
 000473,0.00000007,0.00000721,0.00002067,-0.00000509,-0.00000094,0.0000
 0419,0.00002267,0.00002403,0.00001404,-0.00000162,-0.00000226,-0.00000
 353,0.00000113,-0.00000146,0.00000253,0.00000472,0.00000762,-0.0000081
 2,-0.00001990,-0.00005672,0.00001144,0.00000242,-0.00001945,0.00000209
 ,0.00000605,-0.00002545,0.00000911,0.00001625,-0.00006035,0.00004710,0
 .00015965,-0.00003596,-0.18647099,0.15052393,-0.00010360,-0.00008794,0
 .00010279,0.00013647,-0.00007343,-0.00003367,-0.00000403,0.00001001,-0
 .00000726,-0.00040355,0.00042110,-0.00010478,0.00008207,-0.00008000,-0
 .00034329,-0.00004125,-0.00001924,-0.00007406,0.00115618,0.00469275,-0
 .00026597,-0.00066190,0.00050707,0.00142406,0.00016893,0.00008968,-0.0
 0021016,-0.00000482,-0.00025365,0.00006809,0.00020584,0.00004649,-0.00
 013631,-0.00009011,0.00022945,0.00002628,-0.00017824,-0.00016213,0.000
 07078,-0.00011816,-0.00017941,-0.00051692,-0.00017553,0.00148944,-0.00
 138068,-0.00035154,0.00102051,-0.00038643,0.00102118,0.00125967,0.0018
 8697,0.00016623,-0.00178728,-0.00139990,-0.00058580,0.00032797,-0.0003
 9158,0.00054570,0.00027460,0.00078586,-0.00007920,-0.00006417,-0.00016
 823,-0.00013670,-0.00005386,-0.00016222,-0.00012178,-0.00003340,-0.000
 13788,0.00004261,0.00002637,-0.00000279,0.00001827,-0.00005372,0.00004
 575,-0.00036227,-0.00001807,-0.00020036,0.00089663,-0.00094032,0.00016
 025,0.00006443,0.00048320,0.00021860,-0.00034446,0.00006346,-0.0002481
 4,0.00001527,-0.00060876,0.00007014,-0.00052187,-0.00041326,-0.0008784
 9,0.00069055,-0.00025517,-0.00055737,-0.02296192,0.01070621,0.00262034
 ,0.07099117,-0.01834205,-0.02983850,-0.00003049,-0.00002155,-0.0000263
 9,0.00003514,0.00010561,-0.00003317,0.00006591,0.00000197,-0.00002665,
 -0.00010722,-0.00004852,0.00005468,0.00000079,0.00000954,-0.00000604,0
 .00003270,0.00000092,-0.00004032,0.00000428,-0.00000627,0.00000623,0.0
 0000559,-0.00006847,-0.00006794,0.00004423,-0.00002807,-0.00006164,0.0
 0022588,-0.00011230,0.00016155,0.00001694,-0.00001763,0.00000314,-0.00
 001509,0.00001983,-0.00000959,0.00000603,-0.00000130,0.00000798,-0.000
 06656,0.00012109,-0.00031383,0.00000272,-0.00001899,0.00000956,0.00001
 378,-0.00000621,0.00000212,0.00001001,0.00000764,0.00000975,0.00004982
 ,0.00001162,-0.00004962,-0.00043293,-0.00010380,0.00023886,0.00003840,
 0.00000227,-0.00008335,-0.00005657,0.00006254,-0.00001999,-0.00001131,
 -0.00007168,0.00003225,0.00005869,-0.00001435,-0.00001927,0.00001324,-
 0.00000188,0.00003014,-0.00005197,0.00002124,-0.00000274,0.00001575,0.
 00000144,0.00000872,-0.00002231,-0.00002527,-0.00001087,0.00001285,0.0
 0000286,-0.00000273,-0.00002069,0.00003264,-0.00003979,-0.00000258,0.0
 0000342,-0.00000149,-0.00003195,-0.00001926,-0.00000423,-0.00000954,-0
 .00000082,-0.00002125,-0.00007423,0.00001107,0.00000083,-0.00006825,0.
 00003751,0.00003651,-0.00003607,0.00006727,0.00003231,0.00004339,0.000
 07530,0.00001647,-0.00020032,0.00022884,-0.00046005,-0.04841288,0.0015
 1964,0.03061492\\-0.00000002,0.00000084,-0.00000077,0.00000333,-0.0000
 0380,-0.00000525,-0.00000002,0.00000105,-0.00000070,-0.00000305,0.0000
 0567,0.00000249,-0.00000446,-0.00000604,-0.00000061,0.00000335,0.00000
 502,0.00000226,0.00000540,-0.00000355,0.00000318,0.00000006,-0.0000002
 0,-0.00000195,-0.00000152,-0.00000043,-0.00000075,-0.00000123,-0.00000
 129,0.00000045,0.00000183,-0.00000253,-0.00000004,-0.00000103,0.000002
 03,0.00000048,-0.00000336,-0.00000271,0.00000141,0.00000582,0.00000287
 ,-0.00000196,-0.00000493,0.00000045,0.00000025,0.00000792,0.00000312,0
 .00000108,0.00000085,-0.00000232,-0.00000169,0.00000164,0.00000103,0.0
 0000126,-0.00000536,0.00000384,0.00000242,0.00000245,-0.00000641,0.000
 00353,0.00000426,0.00000679,-0.00000031,-0.00000351,-0.00000517,0.0000
 0228,-0.00000294,0.00000290,-0.00000584,-0.00000013,-0.00000066,-0.000
 00095,-0.00000036,-0.00000087,-0.00000013,0.00000068,0.00000073,-0.000
 00337,0.00000160,-0.00000021,-0.00000020,0.00000126,0.00000113,0.00000
 063,-0.00000184,0.00000258,0.00000012,0.00000077,-0.00000214,0.0000008
 7,0.00000298,0.00000240,-0.00000060,-0.00000451,-0.00000310,-0.0000033
 5,-0.00000448,-0.00000106,-0.00000546,-0.00000206,0.00000121,0.0000056
 2,-0.00000053,-0.00000118,-0.00000022,0.00000050,0.00000003,0.00000062
 ,-0.00000105,0.00000078,0.00000019,0.00000069,0.00000231,0.00000062,-0
 .00000106,0.00000078,-0.00000061,0.00000085,0.00000016,0.00000123,-0.0
 0000108,-0.00000083,-0.00000019,-0.00000011,0.00000034,0.00000123,-0.0
 0000010,0.00000384,-0.00000117,0.00000154,0.00000074,0.00000051,0.0000
 0109,0.00000008,-0.00000127,-0.00000249,-0.00000034,-0.00000098,0.0000
 0048,-0.00000354,0.00000197,-0.00000098,0.00000058,0.00000117,-0.00000
 009,0.00000069,-0.00000005,-0.00000006,0.00000091,-0.00000019,0.000000
 26,-0.00000018,-0.00000040,0.00000115,-0.00000041,0.00000006,-0.000000
 98,0.00000151,0.00000036,0.00000061,-0.00000039,0.00000103,0.00000033,
 -0.00000374,-0.00000093,-0.00000102,-0.00000140,0.00000036,0.00000290,
 0.00000045,-0.00000088,-0.00000127,-0.00000007,-0.00000159,-0.00000060
 ,0.00000353,0.00000216,-0.00000141,-0.00000168,0.00000104,0.00000060,0
 .00000116,-0.00000030,0.00000105,-0.00000071,0.00000017,-0.00000099,-0
 .00000046,0.00000013,0.00000088,-0.00000080,-0.00000063,0.00000106,0.0
 0000077,-0.00000035,-0.00000079,-0.00000005,0.00000115,0.00000102,-0.0
 0000054,0.00000109,0.00000009,-0.00000070,-0.00000006,0.00000010,-0.00
 000089,-0.00000026,-0.00000033,0.00000011,-0.00000022,-0.00000035,-0.0
 0000030,-0.00000061,0.00000069,-0.00000175,0.00000148\\\@
 The archive entry for this job was punched.


 SLITHERY-DITHERY
 FRIEDRICH A. KEKULE
 DREAMT ON A BUS OF THINGS
 FREUD WOULD THINK KEEN.
 MOST OF THE TIME THEY WERE
 HERPETOLOGICAL
 BITING THEIR TAILS IN THE
 SHAPE OF BENZENE.
 Job cpu time:       0 days  8 hours 15 minutes 43.2 seconds.
 Elapsed time:       0 days  0 hours 15 minutes 38.5 seconds.
 File lengths (MBytes):  RWF=   2513 Int=      0 D2E=      0 Chk=     29 Scr=      1
 Normal termination of Gaussian 16 at Thu Jan 23 09:41:57 2025.
