 Entering Gaussian System, Link 0=g16
 Initial command:
 /public/software/apps/Gaussian/g16/l1.exe "/tmp/Gau-119996.inp" -scrdir="/tmp/"
 Entering Link 1 = /public/software/apps/Gaussian/g16/l1.exe PID=    119997.
  
 Copyright (c) 1988-2019, Gaussian, Inc.  All Rights Reserved.
  
 This is part of the Gaussian(R) 16 program.  It is based on
 the Gaussian(R) 09 system (copyright 2009, Gaussian, Inc.),
 the Gaussian(R) 03 system (copyright 2003, Gaussian, Inc.),
 the Gaussian(R) 98 system (copyright 1998, Gaussian, Inc.),
 the Gaussian(R) 94 system (copyright 1995, Gaussian, Inc.),
 the Gaussian 92(TM) system (copyright 1992, Gaussian, Inc.),
 the Gaussian 90(TM) system (copyright 1990, Gaussian, Inc.),
 the Gaussian 88(TM) system (copyright 1988, Gaussian, Inc.),
 the Gaussian 86(TM) system (copyright 1986, Carnegie Mellon
 University), and the Gaussian 82(TM) system (copyright 1983,
 Carnegie Mellon University). Gaussian is a federally registered
 trademark of Gaussian, Inc.
  
 This software contains proprietary and confidential information,
 including trade secrets, belonging to Gaussian, Inc.
  
 This software is provided under written license and may be
 used, copied, transmitted, or stored only in accord with that
 written license.
  
 The following legend is applicable only to US Government
 contracts under FAR:
  
                    RESTRICTED RIGHTS LEGEND
  
 Use, reproduction and disclosure by the US Government is
 subject to restrictions as set forth in subparagraphs (a)
 and (c) of the Commercial Computer Software - Restricted
 Rights clause in FAR 52.227-19.
  
 Gaussian, Inc.
 340 Quinnipiac St., Bldg. 40, Wallingford CT 06492
  
  
 ---------------------------------------------------------------
 Warning -- This program may not be used in any manner that
 competes with the business of Gaussian, Inc. or will provide
 assistance to any competitor of Gaussian, Inc.  The licensee
 of this program is prohibited from giving any competitor of
 Gaussian, Inc. access to this program.  By using this program,
 the user acknowledges that Gaussian, Inc. is engaged in the
 business of creating and licensing software in the field of
 computational chemistry and represents and warrants to the
 licensee that it is not a competitor of Gaussian, Inc. and that
 it will not use this program in any manner prohibited above.
 ---------------------------------------------------------------
  

 Cite this work as:
 Gaussian 16, Revision C.01,
 M. J. Frisch, G. W. Trucks, H. B. Schlegel, G. E. Scuseria, 
 M. A. Robb, J. R. Cheeseman, G. Scalmani, V. Barone, 
 G. A. Petersson, H. Nakatsuji, X. Li, M. Caricato, A. V. Marenich, 
 J. Bloino, B. G. Janesko, R. Gomperts, B. Mennucci, H. P. Hratchian, 
 J. V. Ortiz, A. F. Izmaylov, J. L. Sonnenberg, D. Williams-Young, 
 F. Ding, F. Lipparini, F. Egidi, J. Goings, B. Peng, A. Petrone, 
 T. Henderson, D. Ranasinghe, V. G. Zakrzewski, J. Gao, N. Rega, 
 G. Zheng, W. Liang, M. Hada, M. Ehara, K. Toyota, R. Fukuda, 
 J. Hasegawa, M. Ishida, T. Nakajima, Y. Honda, O. Kitao, H. Nakai, 
 T. Vreven, K. Throssell, J. A. Montgomery, Jr., J. E. Peralta, 
 F. Ogliaro, M. J. Bearpark, J. J. Heyd, E. N. Brothers, K. N. Kudin, 
 V. N. Staroverov, T. A. Keith, R. Kobayashi, J. Normand, 
 K. Raghavachari, A. P. Rendell, J. C. Burant, S. S. Iyengar, 
 J. Tomasi, M. Cossi, J. M. Millam, M. Klene, C. Adamo, R. Cammi, 
 J. W. Ochterski, R. L. Martin, K. Morokuma, O. Farkas, 
 J. B. Foresman, and D. J. Fox, Gaussian, Inc., Wallingford CT, 2019.
 
 ******************************************
 Gaussian 16:  ES64L-G16RevC.01  3-Jul-2019
                23-Jan-2025 
 ******************************************
 %nprocshared=32
 Will use up to   32 processors via shared memory.
 %mem=100GB
 ------------------------------------------
 #p opt freq b3lyp/def2svpp em=gd3bj nosymm
 ------------------------------------------
 1/18=20,19=15,26=3,38=1/1,3;
 2/9=110,12=2,15=1,17=6,18=5,40=1/2;
 3/5=43,7=202,11=2,25=1,30=1,71=1,74=-5,124=41/1,2,3;
 4//1;
 5/5=2,38=5/2;
 6/7=2,8=2,9=2,10=2,28=1/1;
 7/30=1/1,2,3,16;
 1/18=20,19=15,26=3/3(2);
 2/9=110,15=1/2;
 99//99;
 2/9=110,15=1/2;
 3/5=43,7=202,11=2,25=1,30=1,71=1,74=-5,124=41/1,2,3;
 4/5=5,16=3,69=1/1;
 5/5=2,38=5/2;
 7/30=1/1,2,3,16;
 1/18=20,19=15,26=3/3(-5);
 2/9=110,15=1/2;
 6/7=2,8=2,9=2,10=2,19=2,28=1/1;
 99/9=1/99;
 Leave Link    1 at Thu Jan 23 09:15:26 2025, MaxMem= 13421772800 cpu:               2.0 elap:               0.1
 (Enter /public/software/apps/Gaussian/g16/l101.exe)
 ----------------------
 $$$$Singlemol####0????
 ----------------------
 Symbolic Z-matrix:
 Charge =  0 Multiplicity = 1
 C                     4.99943   1.4046    0.56889 
 C                     4.71161   1.38829  -0.93129 
 C                     5.92908   1.89308  -1.70107 
 Si                    4.1629   -0.3559   -1.52726 
 C                     3.53889  -0.31219  -3.32801 
 C                     5.62319  -1.5806   -1.41676 
 C                     2.78767  -0.96029  -0.36686 
 C                     2.87566  -2.07825   0.41734 
 C                     1.84664  -2.45671   1.30407 
 C                     1.94522  -3.60725   2.11267 
 C                     0.94467  -3.94263   2.9815 
 C                    -0.19614  -3.13329   3.08639 
 C                    -0.32532  -2.01204   2.31489 
 C                     0.68294  -1.64929   1.39596 
 C                     0.58012  -0.4967    0.57285 
 C                    -0.6345    0.35826   0.60667 
 C                    -1.82414  -0.12105   0.09701 
 O                    -1.92839  -1.36908  -0.43247 
 C                    -3.00075   0.65988   0.07817 
 Si                   -4.57062  -0.13348  -0.63503 
 C                    -5.99958   1.12291  -0.47855 
 C                    -5.01621  -1.69161   0.37 
 C                    -4.26229  -0.55898  -2.48408 
 C                    -5.54173  -1.02058  -3.17657 
 C                    -3.65698   0.62232  -3.24007 
 C                    -2.93812   1.93501   0.57089 
 C                    -1.7501    2.47763   1.1023 
 C                    -1.6928    3.79069   1.61209 
 C                    -0.53365   4.29044   2.1366 
 C                     0.61855   3.4919    2.18356 
 C                     0.59799   2.21504   1.69571 
 C                    -0.57874   1.67674   1.13171 
 C                     1.61479  -0.17797  -0.28323 
 O                     1.56032   0.90404  -1.1049 
 H                     4.13257   1.0675    1.13313 
 H                     5.83427   0.74895   0.80738 
 H                     5.25433   2.41049   0.90108 
 H                     3.89006   2.0854   -1.11776 
 H                     5.72775   1.91914  -2.76906 
 H                     6.19582   2.89961  -1.38023 
 H                     6.78673   1.24666  -1.52898 
 H                     3.15507  -1.28165  -3.63049 
 H                     2.74246   0.41308  -3.45019 
 H                     4.34     -0.04866  -4.01115 
 H                     6.4217   -1.28152  -2.08779 
 H                     5.32135  -2.58373  -1.70124 
 H                     6.03799  -1.63006  -0.41495 
 H                     3.76027  -2.69479   0.36981 
 H                     2.83322  -4.21801   2.03247 
 H                     1.02804  -4.82599   3.59728 
 H                    -0.97425  -3.40049   3.78617 
 H                    -1.20127  -1.3859    2.40724 
 H                    -1.08489  -1.83359  -0.33772 
 H                    -5.81588   2.02289  -1.05694 
 H                    -6.92804   0.6888   -0.8347 
 H                    -6.15616   1.41801   0.55425 
 H                    -5.1062   -1.45939   1.42677 
 H                    -5.96347  -2.10926   0.04404 
 H                    -4.25774  -2.45879   0.26223 
 H                    -3.54507  -1.38302  -2.52929 
 H                    -6.28115  -0.22304  -3.18644 
 H                    -5.97015  -1.87921  -2.66567 
 H                    -5.33877  -1.30483  -4.20861 
 H                    -4.33996   1.46924  -3.24093 
 H                    -3.45253   0.35249  -4.27565 
 H                    -2.72397   0.93826  -2.77857 
 H                    -3.82201   2.55429   0.5619 
 H                    -2.58892   4.39407   1.58164 
 H                    -0.49834   5.29774   2.52465 
 H                     1.52549   3.89197   2.61231 
 H                     1.4852    1.60022   1.74509 
 H                     0.7476    1.40076  -0.93453 
 
 ITRead=  0  0  0  0  0  0  0  0  0  0  0  0  0  0  0  0  0  0  0  0
 ITRead=  0  0  0  0  0  0  0  0  0  0  0  0  0  0  0  0  0  0  0  0
 ITRead=  0  0  0  0  0  0  0  0  0  0  0  0  0  0  0  0  0  0  0  0
 ITRead=  0  0  0  0  0  0  0  0  0  0  0  0
 MicOpt= -1 -1 -1 -1 -1 -1 -1 -1 -1 -1 -1 -1 -1 -1 -1 -1 -1 -1 -1 -1
 MicOpt= -1 -1 -1 -1 -1 -1 -1 -1 -1 -1 -1 -1 -1 -1 -1 -1 -1 -1 -1 -1
 MicOpt= -1 -1 -1 -1 -1 -1 -1 -1 -1 -1 -1 -1 -1 -1 -1 -1 -1 -1 -1 -1
 MicOpt= -1 -1 -1 -1 -1 -1 -1 -1 -1 -1 -1 -1
 NAtoms=     72 NQM=       72 NQMF=       0 NMMI=      0 NMMIF=      0
                NMic=       0 NMicF=      0.
                    Isotopes and Nuclear Properties:
 (Nuclear quadrupole moments (NQMom) in fm**2, nuclear magnetic moments (NMagM)
  in nuclear magnetons)

  Atom         1           2           3           4           5           6           7           8           9          10
 IAtWgt=          12          12          12          28          12          12          12          12          12          12
 AtmWgt=  12.0000000  12.0000000  12.0000000  27.9769284  12.0000000  12.0000000  12.0000000  12.0000000  12.0000000  12.0000000
 NucSpn=           0           0           0           0           0           0           0           0           0           0
 AtZEff=  -0.0000000  -0.0000000  -0.0000000  -0.0000000  -0.0000000  -0.0000000  -0.0000000  -0.0000000  -0.0000000  -0.0000000
 NQMom=    0.0000000   0.0000000   0.0000000   0.0000000   0.0000000   0.0000000   0.0000000   0.0000000   0.0000000   0.0000000
 NMagM=    0.0000000   0.0000000   0.0000000   0.0000000   0.0000000   0.0000000   0.0000000   0.0000000   0.0000000   0.0000000
 AtZNuc=   6.0000000   6.0000000   6.0000000  14.0000000   6.0000000   6.0000000   6.0000000   6.0000000   6.0000000   6.0000000

  Atom        11          12          13          14          15          16          17          18          19          20
 IAtWgt=          12          12          12          12          12          12          12          16          12          28
 AtmWgt=  12.0000000  12.0000000  12.0000000  12.0000000  12.0000000  12.0000000  12.0000000  15.9949146  12.0000000  27.9769284
 NucSpn=           0           0           0           0           0           0           0           0           0           0
 AtZEff=  -0.0000000  -0.0000000  -0.0000000  -0.0000000  -0.0000000  -0.0000000  -0.0000000  -0.0000000  -0.0000000  -0.0000000
 NQMom=    0.0000000   0.0000000   0.0000000   0.0000000   0.0000000   0.0000000   0.0000000   0.0000000   0.0000000   0.0000000
 NMagM=    0.0000000   0.0000000   0.0000000   0.0000000   0.0000000   0.0000000   0.0000000   0.0000000   0.0000000   0.0000000
 AtZNuc=   6.0000000   6.0000000   6.0000000   6.0000000   6.0000000   6.0000000   6.0000000   8.0000000   6.0000000  14.0000000

  Atom        21          22          23          24          25          26          27          28          29          30
 IAtWgt=          12          12          12          12          12          12          12          12          12          12
 AtmWgt=  12.0000000  12.0000000  12.0000000  12.0000000  12.0000000  12.0000000  12.0000000  12.0000000  12.0000000  12.0000000
 NucSpn=           0           0           0           0           0           0           0           0           0           0
 AtZEff=  -0.0000000  -0.0000000  -0.0000000  -0.0000000  -0.0000000  -0.0000000  -0.0000000  -0.0000000  -0.0000000  -0.0000000
 NQMom=    0.0000000   0.0000000   0.0000000   0.0000000   0.0000000   0.0000000   0.0000000   0.0000000   0.0000000   0.0000000
 NMagM=    0.0000000   0.0000000   0.0000000   0.0000000   0.0000000   0.0000000   0.0000000   0.0000000   0.0000000   0.0000000
 AtZNuc=   6.0000000   6.0000000   6.0000000   6.0000000   6.0000000   6.0000000   6.0000000   6.0000000   6.0000000   6.0000000

  Atom        31          32          33          34          35          36          37          38          39          40
 IAtWgt=          12          12          12          16           1           1           1           1           1           1
 AtmWgt=  12.0000000  12.0000000  12.0000000  15.9949146   1.0078250   1.0078250   1.0078250   1.0078250   1.0078250   1.0078250
 NucSpn=           0           0           0           0           1           1           1           1           1           1
 AtZEff=  -0.0000000  -0.0000000  -0.0000000  -0.0000000  -0.0000000  -0.0000000  -0.0000000  -0.0000000  -0.0000000  -0.0000000
 NQMom=    0.0000000   0.0000000   0.0000000   0.0000000   0.0000000   0.0000000   0.0000000   0.0000000   0.0000000   0.0000000
 NMagM=    0.0000000   0.0000000   0.0000000   0.0000000   2.7928460   2.7928460   2.7928460   2.7928460   2.7928460   2.7928460
 AtZNuc=   6.0000000   6.0000000   6.0000000   8.0000000   1.0000000   1.0000000   1.0000000   1.0000000   1.0000000   1.0000000

  Atom        41          42          43          44          45          46          47          48          49          50
 IAtWgt=           1           1           1           1           1           1           1           1           1           1
 AtmWgt=   1.0078250   1.0078250   1.0078250   1.0078250   1.0078250   1.0078250   1.0078250   1.0078250   1.0078250   1.0078250
 NucSpn=           1           1           1           1           1           1           1           1           1           1
 AtZEff=  -0.0000000  -0.0000000  -0.0000000  -0.0000000  -0.0000000  -0.0000000  -0.0000000  -0.0000000  -0.0000000  -0.0000000
 NQMom=    0.0000000   0.0000000   0.0000000   0.0000000   0.0000000   0.0000000   0.0000000   0.0000000   0.0000000   0.0000000
 NMagM=    2.7928460   2.7928460   2.7928460   2.7928460   2.7928460   2.7928460   2.7928460   2.7928460   2.7928460   2.7928460
 AtZNuc=   1.0000000   1.0000000   1.0000000   1.0000000   1.0000000   1.0000000   1.0000000   1.0000000   1.0000000   1.0000000

  Atom        51          52          53          54          55          56          57          58          59          60
 IAtWgt=           1           1           1           1           1           1           1           1           1           1
 AtmWgt=   1.0078250   1.0078250   1.0078250   1.0078250   1.0078250   1.0078250   1.0078250   1.0078250   1.0078250   1.0078250
 NucSpn=           1           1           1           1           1           1           1           1           1           1
 AtZEff=  -0.0000000  -0.0000000  -0.0000000  -0.0000000  -0.0000000  -0.0000000  -0.0000000  -0.0000000  -0.0000000  -0.0000000
 NQMom=    0.0000000   0.0000000   0.0000000   0.0000000   0.0000000   0.0000000   0.0000000   0.0000000   0.0000000   0.0000000
 NMagM=    2.7928460   2.7928460   2.7928460   2.7928460   2.7928460   2.7928460   2.7928460   2.7928460   2.7928460   2.7928460
 AtZNuc=   1.0000000   1.0000000   1.0000000   1.0000000   1.0000000   1.0000000   1.0000000   1.0000000   1.0000000   1.0000000

  Atom        61          62          63          64          65          66          67          68          69          70
 IAtWgt=           1           1           1           1           1           1           1           1           1           1
 AtmWgt=   1.0078250   1.0078250   1.0078250   1.0078250   1.0078250   1.0078250   1.0078250   1.0078250   1.0078250   1.0078250
 NucSpn=           1           1           1           1           1           1           1           1           1           1
 AtZEff=  -0.0000000  -0.0000000  -0.0000000  -0.0000000  -0.0000000  -0.0000000  -0.0000000  -0.0000000  -0.0000000  -0.0000000
 NQMom=    0.0000000   0.0000000   0.0000000   0.0000000   0.0000000   0.0000000   0.0000000   0.0000000   0.0000000   0.0000000
 NMagM=    2.7928460   2.7928460   2.7928460   2.7928460   2.7928460   2.7928460   2.7928460   2.7928460   2.7928460   2.7928460
 AtZNuc=   1.0000000   1.0000000   1.0000000   1.0000000   1.0000000   1.0000000   1.0000000   1.0000000   1.0000000   1.0000000

  Atom        71          72
 IAtWgt=           1           1
 AtmWgt=   1.0078250   1.0078250
 NucSpn=           1           1
 AtZEff=  -0.0000000  -0.0000000
 NQMom=    0.0000000   0.0000000
 NMagM=    2.7928460   2.7928460
 AtZNuc=   1.0000000   1.0000000
 Leave Link  101 at Thu Jan 23 09:15:26 2025, MaxMem= 13421772800 cpu:               6.8 elap:               0.2
 (Enter /public/software/apps/Gaussian/g16/l103.exe)

 GradGradGradGradGradGradGradGradGradGradGradGradGradGradGradGradGradGrad
 Berny optimization.
 Initialization pass.
                           ----------------------------
                           !    Initial Parameters    !
                           ! (Angstroms and Degrees)  !
 --------------------------                            --------------------------
 ! Name  Definition              Value          Derivative Info.                !
 --------------------------------------------------------------------------------
 ! R1    R(1,2)                  1.5276         estimate D2E/DX2                !
 ! R2    R(1,35)                 1.0879         estimate D2E/DX2                !
 ! R3    R(1,36)                 1.088          estimate D2E/DX2                !
 ! R4    R(1,37)                 1.0896         estimate D2E/DX2                !
 ! R5    R(2,3)                  1.5263         estimate D2E/DX2                !
 ! R6    R(2,4)                  1.9231         estimate D2E/DX2                !
 ! R7    R(2,38)                 1.0935         estimate D2E/DX2                !
 ! R8    R(3,39)                 1.0871         estimate D2E/DX2                !
 ! R9    R(3,40)                 1.0896         estimate D2E/DX2                !
 ! R10   R(3,41)                 1.0877         estimate D2E/DX2                !
 ! R11   R(4,5)                  1.9063         estimate D2E/DX2                !
 ! R12   R(4,6)                  1.9091         estimate D2E/DX2                !
 ! R13   R(4,7)                  1.8982         estimate D2E/DX2                !
 ! R14   R(5,42)                 1.0857         estimate D2E/DX2                !
 ! R15   R(5,43)                 1.0841         estimate D2E/DX2                !
 ! R16   R(5,44)                 1.0853         estimate D2E/DX2                !
 ! R17   R(6,45)                 1.0851         estimate D2E/DX2                !
 ! R18   R(6,46)                 1.0855         estimate D2E/DX2                !
 ! R19   R(6,47)                 1.0854         estimate D2E/DX2                !
 ! R20   R(7,8)                  1.3684         estimate D2E/DX2                !
 ! R21   R(7,33)                 1.4123         estimate D2E/DX2                !
 ! R22   R(8,9)                  1.4101         estimate D2E/DX2                !
 ! R23   R(8,48)                 1.0793         estimate D2E/DX2                !
 ! R24   R(9,10)                 1.4097         estimate D2E/DX2                !
 ! R25   R(9,14)                 1.4194         estimate D2E/DX2                !
 ! R26   R(10,11)                1.3669         estimate D2E/DX2                !
 ! R27   R(10,49)                1.0807         estimate D2E/DX2                !
 ! R28   R(11,12)                1.4027         estimate D2E/DX2                !
 ! R29   R(11,50)                1.08           estimate D2E/DX2                !
 ! R30   R(12,13)                1.3671         estimate D2E/DX2                !
 ! R31   R(12,51)                1.0801         estimate D2E/DX2                !
 ! R32   R(13,14)                1.4116         estimate D2E/DX2                !
 ! R33   R(13,52)                1.0807         estimate D2E/DX2                !
 ! R34   R(14,15)                1.4201         estimate D2E/DX2                !
 ! R35   R(15,16)                1.4857         estimate D2E/DX2                !
 ! R36   R(15,33)                1.3802         estimate D2E/DX2                !
 ! R37   R(16,17)                1.3801         estimate D2E/DX2                !
 ! R38   R(16,32)                1.4203         estimate D2E/DX2                !
 ! R39   R(17,18)                1.3597         estimate D2E/DX2                !
 ! R40   R(17,19)                1.4123         estimate D2E/DX2                !
 ! R41   R(18,53)                0.9676         estimate D2E/DX2                !
 ! R42   R(19,20)                1.8981         estimate D2E/DX2                !
 ! R43   R(19,26)                1.3684         estimate D2E/DX2                !
 ! R44   R(20,21)                1.9092         estimate D2E/DX2                !
 ! R45   R(20,22)                1.9069         estimate D2E/DX2                !
 ! R46   R(20,23)                1.9223         estimate D2E/DX2                !
 ! R47   R(21,54)                1.0855         estimate D2E/DX2                !
 ! R48   R(21,55)                1.085          estimate D2E/DX2                !
 ! R49   R(21,56)                1.0855         estimate D2E/DX2                !
 ! R50   R(22,57)                1.0857         estimate D2E/DX2                !
 ! R51   R(22,58)                1.0854         estimate D2E/DX2                !
 ! R52   R(22,59)                1.0842         estimate D2E/DX2                !
 ! R53   R(23,24)                1.5263         estimate D2E/DX2                !
 ! R54   R(23,25)                1.5275         estimate D2E/DX2                !
 ! R55   R(23,60)                1.0934         estimate D2E/DX2                !
 ! R56   R(24,61)                1.0876         estimate D2E/DX2                !
 ! R57   R(24,62)                1.0871         estimate D2E/DX2                !
 ! R58   R(24,63)                1.0895         estimate D2E/DX2                !
 ! R59   R(25,64)                1.088          estimate D2E/DX2                !
 ! R60   R(25,65)                1.0895         estimate D2E/DX2                !
 ! R61   R(25,66)                1.0878         estimate D2E/DX2                !
 ! R62   R(26,27)                1.41           estimate D2E/DX2                !
 ! R63   R(26,67)                1.0793         estimate D2E/DX2                !
 ! R64   R(27,28)                1.4097         estimate D2E/DX2                !
 ! R65   R(27,32)                1.4193         estimate D2E/DX2                !
 ! R66   R(28,29)                1.3669         estimate D2E/DX2                !
 ! R67   R(28,68)                1.0807         estimate D2E/DX2                !
 ! R68   R(29,30)                1.4027         estimate D2E/DX2                !
 ! R69   R(29,69)                1.08           estimate D2E/DX2                !
 ! R70   R(30,31)                1.367          estimate D2E/DX2                !
 ! R71   R(30,70)                1.08           estimate D2E/DX2                !
 ! R72   R(31,32)                1.4116         estimate D2E/DX2                !
 ! R73   R(31,71)                1.0805         estimate D2E/DX2                !
 ! R74   R(33,34)                1.3597         estimate D2E/DX2                !
 ! R75   R(34,72)                0.9676         estimate D2E/DX2                !
 ! A1    A(2,1,35)             110.8491         estimate D2E/DX2                !
 ! A2    A(2,1,36)             110.6954         estimate D2E/DX2                !
 ! A3    A(2,1,37)             110.6917         estimate D2E/DX2                !
 ! A4    A(35,1,36)            108.1204         estimate D2E/DX2                !
 ! A5    A(35,1,37)            108.3225         estimate D2E/DX2                !
 ! A6    A(36,1,37)            108.0594         estimate D2E/DX2                !
 ! A7    A(1,2,3)              109.9663         estimate D2E/DX2                !
 ! A8    A(1,2,4)              111.5778         estimate D2E/DX2                !
 ! A9    A(1,2,38)             107.5909         estimate D2E/DX2                !
 ! A10   A(3,2,4)              111.7927         estimate D2E/DX2                !
 ! A11   A(3,2,38)             107.6048         estimate D2E/DX2                !
 ! A12   A(4,2,38)             108.1181         estimate D2E/DX2                !
 ! A13   A(2,3,39)             110.8355         estimate D2E/DX2                !
 ! A14   A(2,3,40)             110.6272         estimate D2E/DX2                !
 ! A15   A(2,3,41)             110.6472         estimate D2E/DX2                !
 ! A16   A(39,3,40)            108.2083         estimate D2E/DX2                !
 ! A17   A(39,3,41)            108.4033         estimate D2E/DX2                !
 ! A18   A(40,3,41)            108.022          estimate D2E/DX2                !
 ! A19   A(2,4,5)              111.4282         estimate D2E/DX2                !
 ! A20   A(2,4,6)              110.2206         estimate D2E/DX2                !
 ! A21   A(2,4,7)              107.8212         estimate D2E/DX2                !
 ! A22   A(5,4,6)              108.6493         estimate D2E/DX2                !
 ! A23   A(5,4,7)              110.3417         estimate D2E/DX2                !
 ! A24   A(6,4,7)              108.3332         estimate D2E/DX2                !
 ! A25   A(4,5,42)             111.0043         estimate D2E/DX2                !
 ! A26   A(4,5,43)             111.2407         estimate D2E/DX2                !
 ! A27   A(4,5,44)             111.0104         estimate D2E/DX2                !
 ! A28   A(42,5,43)            107.8347         estimate D2E/DX2                !
 ! A29   A(42,5,44)            107.6023         estimate D2E/DX2                !
 ! A30   A(43,5,44)            107.9926         estimate D2E/DX2                !
 ! A31   A(4,6,45)             110.5059         estimate D2E/DX2                !
 ! A32   A(4,6,46)             111.4061         estimate D2E/DX2                !
 ! A33   A(4,6,47)             112.023          estimate D2E/DX2                !
 ! A34   A(45,6,46)            107.2941         estimate D2E/DX2                !
 ! A35   A(45,6,47)            107.5846         estimate D2E/DX2                !
 ! A36   A(46,6,47)            107.8202         estimate D2E/DX2                !
 ! A37   A(4,7,8)              124.3241         estimate D2E/DX2                !
 ! A38   A(4,7,33)             117.4835         estimate D2E/DX2                !
 ! A39   A(8,7,33)             118.1651         estimate D2E/DX2                !
 ! A40   A(7,8,9)              122.1893         estimate D2E/DX2                !
 ! A41   A(7,8,48)             119.6138         estimate D2E/DX2                !
 ! A42   A(9,8,48)             118.1953         estimate D2E/DX2                !
 ! A43   A(8,9,10)             121.9189         estimate D2E/DX2                !
 ! A44   A(8,9,14)             119.0999         estimate D2E/DX2                !
 ! A45   A(10,9,14)            118.9781         estimate D2E/DX2                !
 ! A46   A(9,10,11)            120.9069         estimate D2E/DX2                !
 ! A47   A(9,10,49)            118.4324         estimate D2E/DX2                !
 ! A48   A(11,10,49)           120.6604         estimate D2E/DX2                !
 ! A49   A(10,11,12)           120.0855         estimate D2E/DX2                !
 ! A50   A(10,11,50)           120.436          estimate D2E/DX2                !
 ! A51   A(12,11,50)           119.4767         estimate D2E/DX2                !
 ! A52   A(11,12,13)           120.5218         estimate D2E/DX2                !
 ! A53   A(11,12,51)           119.4485         estimate D2E/DX2                !
 ! A54   A(13,12,51)           120.0294         estimate D2E/DX2                !
 ! A55   A(12,13,14)           120.7054         estimate D2E/DX2                !
 ! A56   A(12,13,52)           120.2351         estimate D2E/DX2                !
 ! A57   A(14,13,52)           119.0579         estimate D2E/DX2                !
 ! A58   A(9,14,13)            118.7885         estimate D2E/DX2                !
 ! A59   A(9,14,15)            118.9183         estimate D2E/DX2                !
 ! A60   A(13,14,15)           122.2888         estimate D2E/DX2                !
 ! A61   A(14,15,16)           120.8682         estimate D2E/DX2                !
 ! A62   A(14,15,33)           119.5158         estimate D2E/DX2                !
 ! A63   A(16,15,33)           119.6096         estimate D2E/DX2                !
 ! A64   A(15,16,17)           119.7643         estimate D2E/DX2                !
 ! A65   A(15,16,32)           120.6988         estimate D2E/DX2                !
 ! A66   A(17,16,32)           119.5223         estimate D2E/DX2                !
 ! A67   A(16,17,18)           121.9152         estimate D2E/DX2                !
 ! A68   A(16,17,19)           122.0739         estimate D2E/DX2                !
 ! A69   A(18,17,19)           116.0061         estimate D2E/DX2                !
 ! A70   A(17,18,53)           109.6128         estimate D2E/DX2                !
 ! A71   A(17,19,20)           117.5774         estimate D2E/DX2                !
 ! A72   A(17,19,26)           118.1846         estimate D2E/DX2                !
 ! A73   A(20,19,26)           124.2379         estimate D2E/DX2                !
 ! A74   A(19,20,21)           108.2515         estimate D2E/DX2                !
 ! A75   A(19,20,22)           109.6795         estimate D2E/DX2                !
 ! A76   A(19,20,23)           108.7416         estimate D2E/DX2                !
 ! A77   A(21,20,22)           108.6401         estimate D2E/DX2                !
 ! A78   A(21,20,23)           110.1551         estimate D2E/DX2                !
 ! A79   A(22,20,23)           111.3204         estimate D2E/DX2                !
 ! A80   A(20,21,54)           112.0417         estimate D2E/DX2                !
 ! A81   A(20,21,55)           110.503          estimate D2E/DX2                !
 ! A82   A(20,21,56)           111.3984         estimate D2E/DX2                !
 ! A83   A(54,21,55)           107.5561         estimate D2E/DX2                !
 ! A84   A(54,21,56)           107.8181         estimate D2E/DX2                !
 ! A85   A(55,21,56)           107.3162         estimate D2E/DX2                !
 ! A86   A(20,22,57)           110.9527         estimate D2E/DX2                !
 ! A87   A(20,22,58)           111.105          estimate D2E/DX2                !
 ! A88   A(20,22,59)           111.2432         estimate D2E/DX2                !
 ! A89   A(57,22,58)           107.5941         estimate D2E/DX2                !
 ! A90   A(57,22,59)           107.8235         estimate D2E/DX2                !
 ! A91   A(58,22,59)           107.9638         estimate D2E/DX2                !
 ! A92   A(20,23,24)           111.6484         estimate D2E/DX2                !
 ! A93   A(20,23,25)           111.6192         estimate D2E/DX2                !
 ! A94   A(20,23,60)           108.1685         estimate D2E/DX2                !
 ! A95   A(24,23,25)           109.9693         estimate D2E/DX2                !
 ! A96   A(24,23,60)           107.649          estimate D2E/DX2                !
 ! A97   A(25,23,60)           107.6034         estimate D2E/DX2                !
 ! A98   A(23,24,61)           110.6248         estimate D2E/DX2                !
 ! A99   A(23,24,62)           110.8547         estimate D2E/DX2                !
 ! A100  A(23,24,63)           110.641          estimate D2E/DX2                !
 ! A101  A(61,24,62)           108.3916         estimate D2E/DX2                !
 ! A102  A(61,24,63)           108.0202         estimate D2E/DX2                !
 ! A103  A(62,24,63)           108.2109         estimate D2E/DX2                !
 ! A104  A(23,25,64)           110.7088         estimate D2E/DX2                !
 ! A105  A(23,25,65)           110.6859         estimate D2E/DX2                !
 ! A106  A(23,25,66)           110.7641         estimate D2E/DX2                !
 ! A107  A(64,25,65)           108.0487         estimate D2E/DX2                !
 ! A108  A(64,25,66)           108.22           estimate D2E/DX2                !
 ! A109  A(65,25,66)           108.3145         estimate D2E/DX2                !
 ! A110  A(19,26,27)           122.1973         estimate D2E/DX2                !
 ! A111  A(19,26,67)           119.6162         estimate D2E/DX2                !
 ! A112  A(27,26,67)           118.186          estimate D2E/DX2                !
 ! A113  A(26,27,28)           121.936          estimate D2E/DX2                !
 ! A114  A(26,27,32)           119.0798         estimate D2E/DX2                !
 ! A115  A(28,27,32)           118.9833         estimate D2E/DX2                !
 ! A116  A(27,28,29)           120.9145         estimate D2E/DX2                !
 ! A117  A(27,28,68)           118.4325         estimate D2E/DX2                !
 ! A118  A(29,28,68)           120.6528         estimate D2E/DX2                !
 ! A119  A(28,29,30)           120.0855         estimate D2E/DX2                !
 ! A120  A(28,29,69)           120.4352         estimate D2E/DX2                !
 ! A121  A(30,29,69)           119.4775         estimate D2E/DX2                !
 ! A122  A(29,30,31)           120.4941         estimate D2E/DX2                !
 ! A123  A(29,30,70)           119.4856         estimate D2E/DX2                !
 ! A124  A(31,30,70)           120.02           estimate D2E/DX2                !
 ! A125  A(30,31,32)           120.7514         estimate D2E/DX2                !
 ! A126  A(30,31,71)           120.1851         estimate D2E/DX2                !
 ! A127  A(32,31,71)           119.0616         estimate D2E/DX2                !
 ! A128  A(16,32,27)           118.9326         estimate D2E/DX2                !
 ! A129  A(16,32,31)           122.3064         estimate D2E/DX2                !
 ! A130  A(27,32,31)           118.7575         estimate D2E/DX2                !
 ! A131  A(7,33,15)            122.0975         estimate D2E/DX2                !
 ! A132  A(7,33,34)            115.9941         estimate D2E/DX2                !
 ! A133  A(15,33,34)           121.9065         estimate D2E/DX2                !
 ! A134  A(33,34,72)           109.6183         estimate D2E/DX2                !
 ! D1    D(35,1,2,3)           178.7722         estimate D2E/DX2                !
 ! D2    D(35,1,2,4)           -56.5863         estimate D2E/DX2                !
 ! D3    D(35,1,2,38)           61.8513         estimate D2E/DX2                !
 ! D4    D(36,1,2,3)           -61.2518         estimate D2E/DX2                !
 ! D5    D(36,1,2,4)            63.3896         estimate D2E/DX2                !
 ! D6    D(36,1,2,38)         -178.1727         estimate D2E/DX2                !
 ! D7    D(37,1,2,3)            58.5449         estimate D2E/DX2                !
 ! D8    D(37,1,2,4)          -176.8137         estimate D2E/DX2                !
 ! D9    D(37,1,2,38)          -58.376          estimate D2E/DX2                !
 ! D10   D(1,2,3,39)          -178.0852         estimate D2E/DX2                !
 ! D11   D(1,2,3,40)           -58.0526         estimate D2E/DX2                !
 ! D12   D(1,2,3,41)            61.6242         estimate D2E/DX2                !
 ! D13   D(4,2,3,39)            57.3973         estimate D2E/DX2                !
 ! D14   D(4,2,3,40)           177.43           estimate D2E/DX2                !
 ! D15   D(4,2,3,41)           -62.8933         estimate D2E/DX2                !
 ! D16   D(38,2,3,39)          -61.173          estimate D2E/DX2                !
 ! D17   D(38,2,3,40)           58.8596         estimate D2E/DX2                !
 ! D18   D(38,2,3,41)          178.5364         estimate D2E/DX2                !
 ! D19   D(1,2,4,5)            170.8931         estimate D2E/DX2                !
 ! D20   D(1,2,4,6)            -68.4004         estimate D2E/DX2                !
 ! D21   D(1,2,4,7)             49.6668         estimate D2E/DX2                !
 ! D22   D(3,2,4,5)            -65.4935         estimate D2E/DX2                !
 ! D23   D(3,2,4,6)             55.213          estimate D2E/DX2                !
 ! D24   D(3,2,4,7)            173.2802         estimate D2E/DX2                !
 ! D25   D(38,2,4,5)            52.7711         estimate D2E/DX2                !
 ! D26   D(38,2,4,6)           173.4777         estimate D2E/DX2                !
 ! D27   D(38,2,4,7)           -68.4552         estimate D2E/DX2                !
 ! D28   D(2,4,5,42)          -175.3291         estimate D2E/DX2                !
 ! D29   D(2,4,5,43)           -55.2483         estimate D2E/DX2                !
 ! D30   D(2,4,5,44)            65.0363         estimate D2E/DX2                !
 ! D31   D(6,4,5,42)            63.0476         estimate D2E/DX2                !
 ! D32   D(6,4,5,43)          -176.8716         estimate D2E/DX2                !
 ! D33   D(6,4,5,44)           -56.587          estimate D2E/DX2                !
 ! D34   D(7,4,5,42)           -55.584          estimate D2E/DX2                !
 ! D35   D(7,4,5,43)            64.4968         estimate D2E/DX2                !
 ! D36   D(7,4,5,44)          -175.2186         estimate D2E/DX2                !
 ! D37   D(2,4,6,45)           -63.702          estimate D2E/DX2                !
 ! D38   D(2,4,6,46)           177.1202         estimate D2E/DX2                !
 ! D39   D(2,4,6,47)            56.2465         estimate D2E/DX2                !
 ! D40   D(5,4,6,45)            58.6565         estimate D2E/DX2                !
 ! D41   D(5,4,6,46)           -60.5212         estimate D2E/DX2                !
 ! D42   D(5,4,6,47)           178.6051         estimate D2E/DX2                !
 ! D43   D(7,4,6,45)           178.5463         estimate D2E/DX2                !
 ! D44   D(7,4,6,46)            59.3686         estimate D2E/DX2                !
 ! D45   D(7,4,6,47)           -61.5052         estimate D2E/DX2                !
 ! D46   D(2,4,7,8)           -118.2754         estimate D2E/DX2                !
 ! D47   D(2,4,7,33)            59.7857         estimate D2E/DX2                !
 ! D48   D(5,4,7,8)            119.8235         estimate D2E/DX2                !
 ! D49   D(5,4,7,33)           -62.1154         estimate D2E/DX2                !
 ! D50   D(6,4,7,8)              0.999          estimate D2E/DX2                !
 ! D51   D(6,4,7,33)           179.0602         estimate D2E/DX2                !
 ! D52   D(4,7,8,9)            177.3927         estimate D2E/DX2                !
 ! D53   D(4,7,8,48)            -2.1399         estimate D2E/DX2                !
 ! D54   D(33,7,8,9)            -0.6562         estimate D2E/DX2                !
 ! D55   D(33,7,8,48)          179.8112         estimate D2E/DX2                !
 ! D56   D(4,7,33,15)         -177.1313         estimate D2E/DX2                !
 ! D57   D(4,7,33,34)            3.3622         estimate D2E/DX2                !
 ! D58   D(8,7,33,15)            1.0525         estimate D2E/DX2                !
 ! D59   D(8,7,33,34)         -178.4541         estimate D2E/DX2                !
 ! D60   D(7,8,9,10)          -179.7831         estimate D2E/DX2                !
 ! D61   D(7,8,9,14)            -0.4267         estimate D2E/DX2                !
 ! D62   D(48,8,9,10)           -0.2442         estimate D2E/DX2                !
 ! D63   D(48,8,9,14)          179.1122         estimate D2E/DX2                !
 ! D64   D(8,9,10,11)          178.897          estimate D2E/DX2                !
 ! D65   D(8,9,10,49)           -0.9044         estimate D2E/DX2                !
 ! D66   D(14,9,10,11)          -0.4602         estimate D2E/DX2                !
 ! D67   D(14,9,10,49)         179.7384         estimate D2E/DX2                !
 ! D68   D(8,9,14,13)         -178.1127         estimate D2E/DX2                !
 ! D69   D(8,9,14,15)            1.1394         estimate D2E/DX2                !
 ! D70   D(10,9,14,13)           1.2629         estimate D2E/DX2                !
 ! D71   D(10,9,14,15)        -179.485          estimate D2E/DX2                !
 ! D72   D(9,10,11,12)          -0.4938         estimate D2E/DX2                !
 ! D73   D(9,10,11,50)         179.986          estimate D2E/DX2                !
 ! D74   D(49,10,11,12)        179.3032         estimate D2E/DX2                !
 ! D75   D(49,10,11,50)         -0.217          estimate D2E/DX2                !
 ! D76   D(10,11,12,13)          0.6335         estimate D2E/DX2                !
 ! D77   D(10,11,12,51)       -179.1522         estimate D2E/DX2                !
 ! D78   D(50,11,12,13)       -179.8416         estimate D2E/DX2                !
 ! D79   D(50,11,12,51)          0.3727         estimate D2E/DX2                !
 ! D80   D(11,12,13,14)          0.2017         estimate D2E/DX2                !
 ! D81   D(11,12,13,52)       -179.3285         estimate D2E/DX2                !
 ! D82   D(51,12,13,14)        179.9862         estimate D2E/DX2                !
 ! D83   D(51,12,13,52)          0.456          estimate D2E/DX2                !
 ! D84   D(12,13,14,9)          -1.1454         estimate D2E/DX2                !
 ! D85   D(12,13,14,15)        179.629          estimate D2E/DX2                !
 ! D86   D(52,13,14,9)         178.3903         estimate D2E/DX2                !
 ! D87   D(52,13,14,15)         -0.8353         estimate D2E/DX2                !
 ! D88   D(9,14,15,16)         178.3111         estimate D2E/DX2                !
 ! D89   D(9,14,15,33)          -0.767          estimate D2E/DX2                !
 ! D90   D(13,14,15,16)         -2.4643         estimate D2E/DX2                !
 ! D91   D(13,14,15,33)        178.4576         estimate D2E/DX2                !
 ! D92   D(14,15,16,17)        -69.5679         estimate D2E/DX2                !
 ! D93   D(14,15,16,32)        111.8283         estimate D2E/DX2                !
 ! D94   D(33,15,16,17)        109.5093         estimate D2E/DX2                !
 ! D95   D(33,15,16,32)        -69.0945         estimate D2E/DX2                !
 ! D96   D(14,15,33,7)          -0.3368         estimate D2E/DX2                !
 ! D97   D(14,15,33,34)        179.1407         estimate D2E/DX2                !
 ! D98   D(16,15,33,7)        -179.4266         estimate D2E/DX2                !
 ! D99   D(16,15,33,34)          0.0509         estimate D2E/DX2                !
 ! D100  D(15,16,17,18)          0.5512         estimate D2E/DX2                !
 ! D101  D(15,16,17,19)       -178.6187         estimate D2E/DX2                !
 ! D102  D(32,16,17,18)        179.1716         estimate D2E/DX2                !
 ! D103  D(32,16,17,19)          0.0017         estimate D2E/DX2                !
 ! D104  D(15,16,32,27)        177.7829         estimate D2E/DX2                !
 ! D105  D(15,16,32,31)         -2.9143         estimate D2E/DX2                !
 ! D106  D(17,16,32,27)         -0.8243         estimate D2E/DX2                !
 ! D107  D(17,16,32,31)        178.4786         estimate D2E/DX2                !
 ! D108  D(16,17,18,53)          3.2137         estimate D2E/DX2                !
 ! D109  D(19,17,18,53)       -177.5689         estimate D2E/DX2                !
 ! D110  D(16,17,19,20)       -179.3364         estimate D2E/DX2                !
 ! D111  D(16,17,19,26)          0.7468         estimate D2E/DX2                !
 ! D112  D(18,17,19,20)          1.4476         estimate D2E/DX2                !
 ! D113  D(18,17,19,26)       -178.4692         estimate D2E/DX2                !
 ! D114  D(17,19,20,21)        178.1648         estimate D2E/DX2                !
 ! D115  D(17,19,20,22)         59.781          estimate D2E/DX2                !
 ! D116  D(17,19,20,23)        -62.1639         estimate D2E/DX2                !
 ! D117  D(26,19,20,21)         -1.9238         estimate D2E/DX2                !
 ! D118  D(26,19,20,22)       -120.3077         estimate D2E/DX2                !
 ! D119  D(26,19,20,23)        117.7474         estimate D2E/DX2                !
 ! D120  D(17,19,26,27)         -0.6675         estimate D2E/DX2                !
 ! D121  D(17,19,26,67)        179.6091         estimate D2E/DX2                !
 ! D122  D(20,19,26,27)        179.4217         estimate D2E/DX2                !
 ! D123  D(20,19,26,67)         -0.3017         estimate D2E/DX2                !
 ! D124  D(19,20,21,54)         62.6914         estimate D2E/DX2                !
 ! D125  D(19,20,21,55)       -177.3857         estimate D2E/DX2                !
 ! D126  D(19,20,21,56)        -58.1873         estimate D2E/DX2                !
 ! D127  D(22,20,21,54)       -178.2654         estimate D2E/DX2                !
 ! D128  D(22,20,21,55)        -58.3426         estimate D2E/DX2                !
 ! D129  D(22,20,21,56)         60.8559         estimate D2E/DX2                !
 ! D130  D(23,20,21,54)        -56.0876         estimate D2E/DX2                !
 ! D131  D(23,20,21,55)         63.8352         estimate D2E/DX2                !
 ! D132  D(23,20,21,56)       -176.9663         estimate D2E/DX2                !
 ! D133  D(19,20,22,57)         54.7898         estimate D2E/DX2                !
 ! D134  D(19,20,22,58)        174.4424         estimate D2E/DX2                !
 ! D135  D(19,20,22,59)        -65.2439         estimate D2E/DX2                !
 ! D136  D(21,20,22,57)        -63.353          estimate D2E/DX2                !
 ! D137  D(21,20,22,58)         56.2996         estimate D2E/DX2                !
 ! D138  D(21,20,22,59)        176.6133         estimate D2E/DX2                !
 ! D139  D(23,20,22,57)        175.1802         estimate D2E/DX2                !
 ! D140  D(23,20,22,58)        -65.1673         estimate D2E/DX2                !
 ! D141  D(23,20,22,59)         55.1464         estimate D2E/DX2                !
 ! D142  D(19,20,23,24)       -172.0354         estimate D2E/DX2                !
 ! D143  D(19,20,23,25)        -48.4942         estimate D2E/DX2                !
 ! D144  D(19,20,23,60)         69.6987         estimate D2E/DX2                !
 ! D145  D(21,20,23,24)        -53.5567         estimate D2E/DX2                !
 ! D146  D(21,20,23,25)         69.9845         estimate D2E/DX2                !
 ! D147  D(21,20,23,60)       -171.8226         estimate D2E/DX2                !
 ! D148  D(22,20,23,24)         67.0231         estimate D2E/DX2                !
 ! D149  D(22,20,23,25)       -169.4357         estimate D2E/DX2                !
 ! D150  D(22,20,23,60)        -51.2427         estimate D2E/DX2                !
 ! D151  D(20,23,24,61)         63.1732         estimate D2E/DX2                !
 ! D152  D(20,23,24,62)        -57.1005         estimate D2E/DX2                !
 ! D153  D(20,23,24,63)       -177.1579         estimate D2E/DX2                !
 ! D154  D(25,23,24,61)        -61.2968         estimate D2E/DX2                !
 ! D155  D(25,23,24,62)        178.4295         estimate D2E/DX2                !
 ! D156  D(25,23,24,63)         58.3721         estimate D2E/DX2                !
 ! D157  D(60,23,24,61)       -178.2507         estimate D2E/DX2                !
 ! D158  D(60,23,24,62)         61.4756         estimate D2E/DX2                !
 ! D159  D(60,23,24,63)        -58.5819         estimate D2E/DX2                !
 ! D160  D(20,23,25,64)        -62.4265         estimate D2E/DX2                !
 ! D161  D(20,23,25,65)        177.7852         estimate D2E/DX2                !
 ! D162  D(20,23,25,66)         57.6276         estimate D2E/DX2                !
 ! D163  D(24,23,25,64)         62.0603         estimate D2E/DX2                !
 ! D164  D(24,23,25,65)        -57.7279         estimate D2E/DX2                !
 ! D165  D(24,23,25,66)       -177.8856         estimate D2E/DX2                !
 ! D166  D(60,23,25,64)        179.0428         estimate D2E/DX2                !
 ! D167  D(60,23,25,65)         59.2545         estimate D2E/DX2                !
 ! D168  D(60,23,25,66)        -60.9031         estimate D2E/DX2                !
 ! D169  D(19,26,27,28)       -179.8084         estimate D2E/DX2                !
 ! D170  D(19,26,27,32)         -0.146          estimate D2E/DX2                !
 ! D171  D(67,26,27,28)         -0.0813         estimate D2E/DX2                !
 ! D172  D(67,26,27,32)        179.5811         estimate D2E/DX2                !
 ! D173  D(26,27,28,29)        179.2393         estimate D2E/DX2                !
 ! D174  D(26,27,28,68)         -0.58           estimate D2E/DX2                !
 ! D175  D(32,27,28,29)         -0.4234         estimate D2E/DX2                !
 ! D176  D(32,27,28,68)        179.7573         estimate D2E/DX2                !
 ! D177  D(26,27,32,16)          0.8966         estimate D2E/DX2                !
 ! D178  D(26,27,32,31)       -178.4312         estimate D2E/DX2                !
 ! D179  D(28,27,32,16)       -179.4309         estimate D2E/DX2                !
 ! D180  D(28,27,32,31)          1.2413         estimate D2E/DX2                !
 ! D181  D(27,28,29,30)         -0.5151         estimate D2E/DX2                !
 ! D182  D(27,28,29,69)        179.9714         estimate D2E/DX2                !
 ! D183  D(68,28,29,30)        179.3001         estimate D2E/DX2                !
 ! D184  D(68,28,29,69)         -0.2133         estimate D2E/DX2                !
 ! D185  D(28,29,30,31)          0.623          estimate D2E/DX2                !
 ! D186  D(28,29,30,70)       -179.1699         estimate D2E/DX2                !
 ! D187  D(69,29,30,31)       -179.8589         estimate D2E/DX2                !
 ! D188  D(69,29,30,70)          0.3482         estimate D2E/DX2                !
 ! D189  D(29,30,31,32)          0.228          estimate D2E/DX2                !
 ! D190  D(29,30,31,71)       -179.2714         estimate D2E/DX2                !
 ! D191  D(70,30,31,32)       -179.9803         estimate D2E/DX2                !
 ! D192  D(70,30,31,71)          0.5203         estimate D2E/DX2                !
 ! D193  D(30,31,32,16)        179.5408         estimate D2E/DX2                !
 ! D194  D(30,31,32,27)         -1.1551         estimate D2E/DX2                !
 ! D195  D(71,31,32,16)         -0.9542         estimate D2E/DX2                !
 ! D196  D(71,31,32,27)        178.3498         estimate D2E/DX2                !
 ! D197  D(7,33,34,72)        -176.5765         estimate D2E/DX2                !
 ! D198  D(15,33,34,72)          3.9159         estimate D2E/DX2                !
 --------------------------------------------------------------------------------
 Trust Radius=3.00D-01 FncErr=1.00D-07 GrdErr=1.00D-06 EigMax=2.50D+02 EigMin=1.00D-04
 Number of steps in this run=    417 maximum allowed number of steps=    432.
 GradGradGradGradGradGradGradGradGradGradGradGradGradGradGradGradGradGrad

 Leave Link  103 at Thu Jan 23 09:15:26 2025, MaxMem= 13421772800 cpu:               0.8 elap:               0.0
 (Enter /public/software/apps/Gaussian/g16/l202.exe)
 Symmetry turned off by external request.
 Stoichiometry    C30H38O2Si2
 Framework group  C1[X(C30H38O2Si2)]
 Deg. of freedom   210
 Full point group                 C1      NOp   1
                          Input orientation:                          
 ---------------------------------------------------------------------
 Center     Atomic      Atomic             Coordinates (Angstroms)
 Number     Number       Type             X           Y           Z
 ---------------------------------------------------------------------
      1          6           0        4.999430    1.404598    0.568889
      2          6           0        4.711613    1.388290   -0.931290
      3          6           0        5.929075    1.893080   -1.701071
      4         14           0        4.162898   -0.355899   -1.527258
      5          6           0        3.538891   -0.312186   -3.328009
      6          6           0        5.623188   -1.580597   -1.416760
      7          6           0        2.787666   -0.960287   -0.366856
      8          6           0        2.875660   -2.078248    0.417342
      9          6           0        1.846644   -2.456713    1.304074
     10          6           0        1.945219   -3.607252    2.112668
     11          6           0        0.944674   -3.942625    2.981498
     12          6           0       -0.196140   -3.133288    3.086387
     13          6           0       -0.325315   -2.012035    2.314892
     14          6           0        0.682942   -1.649293    1.395964
     15          6           0        0.580115   -0.496696    0.572851
     16          6           0       -0.634495    0.358257    0.606673
     17          6           0       -1.824143   -0.121054    0.097005
     18          8           0       -1.928393   -1.369084   -0.432473
     19          6           0       -3.000748    0.659880    0.078174
     20         14           0       -4.570623   -0.133484   -0.635031
     21          6           0       -5.999584    1.122914   -0.478551
     22          6           0       -5.016205   -1.691608    0.369996
     23          6           0       -4.262291   -0.558982   -2.484083
     24          6           0       -5.541729   -1.020583   -3.176570
     25          6           0       -3.656977    0.622319   -3.240071
     26          6           0       -2.938122    1.935006    0.570891
     27          6           0       -1.750102    2.477625    1.102296
     28          6           0       -1.692804    3.790694    1.612093
     29          6           0       -0.533648    4.290440    2.136596
     30          6           0        0.618550    3.491897    2.183560
     31          6           0        0.597988    2.215036    1.695710
     32          6           0       -0.578736    1.676741    1.131714
     33          6           0        1.614794   -0.177971   -0.283232
     34          8           0        1.560321    0.904044   -1.104898
     35          1           0        4.132574    1.067499    1.133125
     36          1           0        5.834275    0.748950    0.807376
     37          1           0        5.254329    2.410488    0.901078
     38          1           0        3.890055    2.085398   -1.117762
     39          1           0        5.727754    1.919143   -2.769062
     40          1           0        6.195823    2.899608   -1.380230
     41          1           0        6.786728    1.246655   -1.528984
     42          1           0        3.155069   -1.281648   -3.630492
     43          1           0        2.742457    0.413078   -3.450191
     44          1           0        4.340002   -0.048658   -4.011153
     45          1           0        6.421704   -1.281519   -2.087787
     46          1           0        5.321354   -2.583734   -1.701239
     47          1           0        6.037987   -1.630064   -0.414950
     48          1           0        3.760267   -2.694790    0.369807
     49          1           0        2.833215   -4.218008    2.032467
     50          1           0        1.028037   -4.825991    3.597283
     51          1           0       -0.974248   -3.400485    3.786169
     52          1           0       -1.201266   -1.385895    2.407237
     53          1           0       -1.084885   -1.833594   -0.337716
     54          1           0       -5.815876    2.022893   -1.056936
     55          1           0       -6.928038    0.688798   -0.834703
     56          1           0       -6.156160    1.418008    0.554250
     57          1           0       -5.106202   -1.459393    1.426765
     58          1           0       -5.963468   -2.109263    0.044043
     59          1           0       -4.257739   -2.458794    0.262225
     60          1           0       -3.545068   -1.383016   -2.529290
     61          1           0       -6.281153   -0.223041   -3.186445
     62          1           0       -5.970154   -1.879209   -2.665666
     63          1           0       -5.338771   -1.304834   -4.208605
     64          1           0       -4.339958    1.469240   -3.240932
     65          1           0       -3.452530    0.352494   -4.275651
     66          1           0       -2.723974    0.938257   -2.778573
     67          1           0       -3.822005    2.554293    0.561895
     68          1           0       -2.588920    4.394068    1.581637
     69          1           0       -0.498339    5.297737    2.524651
     70          1           0        1.525491    3.891974    2.612309
     71          1           0        1.485195    1.600220    1.745091
     72          1           0        0.747600    1.400764   -0.934530
 ---------------------------------------------------------------------
 Rotational constants (GHZ):           0.1522958           0.0716699           0.0673364
 Leave Link  202 at Thu Jan 23 09:15:26 2025, MaxMem= 13421772800 cpu:               1.5 elap:               0.1
 (Enter /public/software/apps/Gaussian/g16/l301.exe)
 Standard basis: def2SVPP (5D, 7F)
 Ernie: Thresh=  0.10000D-02 Tol=  0.10000D-05 Strict=F.
   560 basis functions,  1026 primitive gaussians,   594 cartesian basis functions
   131 alpha electrons      131 beta electrons
       nuclear repulsion energy      4001.4232843426 Hartrees.
 IExCor=  402 DFT=T Ex+Corr=B3LYP ExCW=0 ScaHFX=  0.200000
 ScaDFX=  0.800000  0.720000  1.000000  0.810000 ScalE2=  1.000000  1.000000
 IRadAn=      5 IRanWt=     -1 IRanGd=            0 ICorTp=0 IEmpDi=141
 NAtoms=   72 NActive=   72 NUniq=   72 SFac= 1.00D+00 NAtFMM=   60 NAOKFM=T Big=T
 Integral buffers will be    131072 words long.
 Raffenetti 2 integral format.
 Two-electron integral symmetry is turned off.
 R6Disp:  Grimme-D3(BJ) Dispersion energy=       -0.1805132410 Hartrees.
 Nuclear repulsion after empirical dispersion term =     4001.2427711016 Hartrees.
 Leave Link  301 at Thu Jan 23 09:15:27 2025, MaxMem= 13421772800 cpu:               1.4 elap:               0.1
 (Enter /public/software/apps/Gaussian/g16/l302.exe)
 NPDir=0 NMtPBC=     1 NCelOv=     1 NCel=       1 NClECP=     1 NCelD=      1
         NCelK=      1 NCelE2=     1 NClLst=     1 CellRange=     0.0.
 One-electron integrals computed using PRISM.
   1 Symmetry operations used in ECPInt.
 ECPInt:  NShTT=   40470 NPrTT=  164454 LenC2=   34951 LenP2D=   88971.
 LDataN:  DoStor=T MaxTD1= 4 Len=   56
 NBasis=   560 RedAO= T EigKep=  1.45D-04  NBF=   560
 NBsUse=   560 1.00D-06 EigRej= -1.00D+00 NBFU=   560
 Precomputing XC quadrature grid using
 IXCGrd= 4 IRadAn=           5 IRanWt=          -1 IRanGd=           0 AccXCQ= 0.00D+00.
 Generated NRdTot=       0 NPtTot=           0 NUsed=           0 NTot=          32
 NSgBfM=   585   585   585   585   585 MxSgAt=    72 MxSgA2=    72.
 Leave Link  302 at Thu Jan 23 09:15:28 2025, MaxMem= 13421772800 cpu:              43.3 elap:               1.4
 (Enter /public/software/apps/Gaussian/g16/l303.exe)
 DipDrv:  MaxL=1.
 Leave Link  303 at Thu Jan 23 09:15:28 2025, MaxMem= 13421772800 cpu:               5.0 elap:               0.2
 (Enter /public/software/apps/Gaussian/g16/l401.exe)
 ExpMin= 7.80D-02 ExpMax= 6.90D+03 ExpMxC= 1.04D+03 IAcc=3 IRadAn=         5 AccDes= 0.00D+00
 Harris functional with IExCor=  402 and IRadAn=       5 diagonalized for initial guess.
 HarFok:  IExCor=  402 AccDes= 0.00D+00 IRadAn=         5 IDoV= 1 UseB2=F ITyADJ=14
 ICtDFT=  3500011 ScaDFX=  1.000000  1.000000  1.000000  1.000000
 FoFCou: FMM=F IPFlag=           0 FMFlag=      100000 FMFlg1=        2001
         NFxFlg=           0 DoJE=T BraDBF=F KetDBF=T FulRan=T
         wScrn=  0.000000 ICntrl=       500 IOpCl=  0 I1Cent=   200000004 NGrid=           0
         NMat0=    1 NMatS0=      1 NMatT0=    0 NMatD0=    1 NMtDS0=    0 NMtDT0=    0
 Symmetry not used in FoFCou.
 Harris En= -1894.68537211291    
 JPrj=0 DoOrth=F DoCkMO=F.
 Leave Link  401 at Thu Jan 23 09:15:30 2025, MaxMem= 13421772800 cpu:              55.0 elap:               1.7
 (Enter /public/software/apps/Gaussian/g16/l502.exe)
 Two-electron integral symmetry not used.
 Closed shell SCF:
 Using DIIS extrapolation, IDIIS=  1040.
 NGot= 13421772800 LenX= 13421041096 LenY= 13420687666
 Requested convergence on RMS density matrix=1.00D-08 within 128 cycles.
 Requested convergence on MAX density matrix=1.00D-06.
 Requested convergence on             energy=1.00D-06.
 No special actions if energy rises.
 Fock matrices will be formed incrementally for  20 cycles.
 Integral accuracy reduced to 1.0D-05 until final iterations.

 Cycle   1  Pass 0  IDiag  1:
 FoFJK:  IHMeth= 1 ICntrl=       0 DoSepK=F KAlg= 0 I1Cent=           0 FoldK=F
 IRaf= 990000000 NMat=       1 IRICut=       1 DoRegI=T DoRafI=F ISym2E= 0 IDoP0=0 IntGTp=1.
 FoFCou: FMM=T IPFlag=           0 FMFlag=      100000 FMFlg1=        2001
         NFxFlg=           0 DoJE=F BraDBF=F KetDBF=F FulRan=T
         wScrn=  0.000000 ICntrl=         0 IOpCl=  0 I1Cent=           0 NGrid=           0
         NMat0=    1 NMatS0=      1 NMatT0=    0 NMatD0=    1 NMtDS0=    0 NMtDT0=    0
 Symmetry not used in FoFCou.
 FMM levels:  10  Number of levels for PrismC:   9
 E= -1893.53231296938    
 DIIS: error= 3.63D-02 at cycle   1 NSaved=   1.
 NSaved= 1 IEnMin= 1 EnMin= -1893.53231296938     IErMin= 1 ErrMin= 3.63D-02
 ErrMax= 3.63D-02  0.00D+00 EMaxC= 1.00D-01 BMatC= 9.64D-01 BMatP= 9.64D-01
 IDIUse=3 WtCom= 6.37D-01 WtEn= 3.63D-01
 Coeff-Com:  0.100D+01
 Coeff-En:   0.100D+01
 Coeff:      0.100D+01
 Gap=     0.178 Goal=   None    Shift=    0.000
 GapD=    0.178 DampG=1.000 DampE=0.500 DampFc=0.5000 IDamp=-1.
 Damping current iteration by 5.00D-01
 RMSDP=5.31D-03 MaxDP=2.07D-01              OVMax= 2.00D-01

 Cycle   2  Pass 0  IDiag  1:
 RMSU=  2.50D-03    CP:  9.51D-01
 E= -1894.01716129765     Delta-E=       -0.484848328270 Rises=F Damp=T
 DIIS: error= 5.60D-03 at cycle   2 NSaved=   2.
 NSaved= 2 IEnMin= 2 EnMin= -1894.01716129765     IErMin= 2 ErrMin= 5.60D-03
 ErrMax= 5.60D-03  0.00D+00 EMaxC= 1.00D-01 BMatC= 3.51D-02 BMatP= 9.64D-01
 IDIUse=3 WtCom= 9.44D-01 WtEn= 5.60D-02
 Coeff-Com:  0.592D-01 0.941D+00
 Coeff-En:   0.991D-01 0.901D+00
 Coeff:      0.614D-01 0.939D+00
 Gap=     0.176 Goal=   None    Shift=    0.000
 RMSDP=1.69D-03 MaxDP=1.01D-01 DE=-4.85D-01 OVMax= 1.38D-01

 Cycle   3  Pass 0  IDiag  1:
 RMSU=  1.57D-03    CP:  9.17D-01  1.04D+00
 E= -1894.56834586863     Delta-E=       -0.551184570981 Rises=F Damp=F
 DIIS: error= 6.80D-03 at cycle   3 NSaved=   3.
 NSaved= 3 IEnMin= 3 EnMin= -1894.56834586863     IErMin= 2 ErrMin= 5.60D-03
 ErrMax= 6.80D-03  0.00D+00 EMaxC= 1.00D-01 BMatC= 2.88D-02 BMatP= 3.51D-02
 IDIUse=3 WtCom= 9.32D-01 WtEn= 6.80D-02
 Coeff-Com:  0.530D-02 0.470D+00 0.525D+00
 Coeff-En:   0.000D+00 0.000D+00 0.100D+01
 Coeff:      0.494D-02 0.438D+00 0.557D+00
 Gap=     0.167 Goal=   None    Shift=    0.000
 RMSDP=7.68D-04 MaxDP=3.15D-02 DE=-5.51D-01 OVMax= 8.47D-02

 Cycle   4  Pass 0  IDiag  1:
 RMSU=  6.58D-04    CP:  9.18D-01  1.09D+00  7.61D-01
 E= -1894.58706070467     Delta-E=       -0.018714836040 Rises=F Damp=F
 DIIS: error= 5.46D-03 at cycle   4 NSaved=   4.
 NSaved= 4 IEnMin= 4 EnMin= -1894.58706070467     IErMin= 4 ErrMin= 5.46D-03
 ErrMax= 5.46D-03  0.00D+00 EMaxC= 1.00D-01 BMatC= 1.19D-02 BMatP= 2.88D-02
 IDIUse=3 WtCom= 9.45D-01 WtEn= 5.46D-02
 Coeff-Com: -0.544D-02 0.129D+00 0.389D+00 0.487D+00
 Coeff-En:   0.000D+00 0.000D+00 0.337D+00 0.663D+00
 Coeff:     -0.514D-02 0.122D+00 0.386D+00 0.497D+00
 Gap=     0.159 Goal=   None    Shift=    0.000
 RMSDP=3.89D-04 MaxDP=2.05D-02 DE=-1.87D-02 OVMax= 4.48D-02

 Cycle   5  Pass 0  IDiag  1:
 RMSU=  1.85D-04    CP:  9.17D-01  1.07D+00  8.47D-01  5.30D-01
 E= -1894.60033934464     Delta-E=       -0.013278639968 Rises=F Damp=F
 DIIS: error= 1.31D-03 at cycle   5 NSaved=   5.
 NSaved= 5 IEnMin= 5 EnMin= -1894.60033934464     IErMin= 5 ErrMin= 1.31D-03
 ErrMax= 1.31D-03  0.00D+00 EMaxC= 1.00D-01 BMatC= 9.43D-04 BMatP= 1.19D-02
 IDIUse=3 WtCom= 9.87D-01 WtEn= 1.31D-02
 Coeff-Com: -0.346D-02 0.306D-01 0.181D+00 0.304D+00 0.488D+00
 Coeff-En:   0.000D+00 0.000D+00 0.000D+00 0.197D-01 0.980D+00
 Coeff:     -0.341D-02 0.302D-01 0.179D+00 0.300D+00 0.494D+00
 Gap=     0.158 Goal=   None    Shift=    0.000
 RMSDP=1.01D-04 MaxDP=3.67D-03 DE=-1.33D-02 OVMax= 1.33D-02

 Cycle   6  Pass 0  IDiag  1:
 RMSU=  6.65D-05    CP:  9.16D-01  1.08D+00  8.44D-01  5.78D-01  6.35D-01
 E= -1894.60131990808     Delta-E=       -0.000980563436 Rises=F Damp=F
 DIIS: error= 4.45D-04 at cycle   6 NSaved=   6.
 NSaved= 6 IEnMin= 6 EnMin= -1894.60131990808     IErMin= 6 ErrMin= 4.45D-04
 ErrMax= 4.45D-04  0.00D+00 EMaxC= 1.00D-01 BMatC= 1.17D-04 BMatP= 9.43D-04
 IDIUse=3 WtCom= 9.96D-01 WtEn= 4.45D-03
 Coeff-Com: -0.134D-02 0.227D-02 0.598D-01 0.122D+00 0.308D+00 0.510D+00
 Coeff-En:   0.000D+00 0.000D+00 0.000D+00 0.000D+00 0.773D-01 0.923D+00
 Coeff:     -0.133D-02 0.226D-02 0.595D-01 0.121D+00 0.307D+00 0.511D+00
 Gap=     0.158 Goal=   None    Shift=    0.000
 RMSDP=3.60D-05 MaxDP=1.31D-03 DE=-9.81D-04 OVMax= 4.97D-03

 Cycle   7  Pass 0  IDiag  1:
 RMSU=  2.52D-05    CP:  9.16D-01  1.08D+00  8.44D-01  5.78D-01  6.97D-01
                    CP:  6.55D-01
 E= -1894.60146089337     Delta-E=       -0.000140985290 Rises=F Damp=F
 DIIS: error= 1.41D-04 at cycle   7 NSaved=   7.
 NSaved= 7 IEnMin= 7 EnMin= -1894.60146089337     IErMin= 7 ErrMin= 1.41D-04
 ErrMax= 1.41D-04  0.00D+00 EMaxC= 1.00D-01 BMatC= 1.53D-05 BMatP= 1.17D-04
 IDIUse=3 WtCom= 9.99D-01 WtEn= 1.41D-03
 Coeff-Com: -0.524D-03-0.123D-02 0.202D-01 0.469D-01 0.145D+00 0.329D+00
 Coeff-Com:  0.461D+00
 Coeff-En:   0.000D+00 0.000D+00 0.000D+00 0.000D+00 0.000D+00 0.155D-01
 Coeff-En:   0.984D+00
 Coeff:     -0.524D-03-0.123D-02 0.202D-01 0.468D-01 0.145D+00 0.329D+00
 Coeff:      0.461D+00
 Gap=     0.158 Goal=   None    Shift=    0.000
 RMSDP=1.51D-05 MaxDP=7.24D-04 DE=-1.41D-04 OVMax= 1.22D-03

 Cycle   8  Pass 0  IDiag  1:
 RMSU=  1.15D-05    CP:  9.16D-01  1.08D+00  8.44D-01  5.79D-01  6.66D-01
                    CP:  6.77D-01  7.01D-01
 E= -1894.60149217014     Delta-E=       -0.000031276775 Rises=F Damp=F
 DIIS: error= 3.83D-05 at cycle   8 NSaved=   8.
 NSaved= 8 IEnMin= 8 EnMin= -1894.60149217014     IErMin= 8 ErrMin= 3.83D-05
 ErrMax= 3.83D-05  0.00D+00 EMaxC= 1.00D-01 BMatC= 5.07D-07 BMatP= 1.53D-05
 IDIUse=1 WtCom= 1.00D+00 WtEn= 0.00D+00
 Coeff-Com: -0.167D-03-0.760D-03 0.648D-02 0.157D-01 0.541D-01 0.135D+00
 Coeff-Com:  0.230D+00 0.560D+00
 Coeff:     -0.167D-03-0.760D-03 0.648D-02 0.157D-01 0.541D-01 0.135D+00
 Coeff:      0.230D+00 0.560D+00
 Gap=     0.158 Goal=   None    Shift=    0.000
 RMSDP=7.93D-06 MaxDP=2.74D-04 DE=-3.13D-05 OVMax= 1.67D-04

 Initial convergence to 1.0D-05 achieved.  Increase integral accuracy.
 Cycle   9  Pass 1  IDiag  1:
 E= -1894.60122829468     Delta-E=        0.000263875460 Rises=F Damp=F
 DIIS: error= 6.68D-04 at cycle   1 NSaved=   1.
 NSaved= 1 IEnMin= 1 EnMin= -1894.60122829468     IErMin= 1 ErrMin= 6.68D-04
 ErrMax= 6.68D-04  0.00D+00 EMaxC= 1.00D-01 BMatC= 7.81D-05 BMatP= 7.81D-05
 IDIUse=3 WtCom= 9.93D-01 WtEn= 6.68D-03
 Coeff-Com:  0.100D+01
 Coeff-En:   0.100D+01
 Coeff:      0.100D+01
 Gap=     0.158 Goal=   None    Shift=    0.000
 RMSDP=7.93D-06 MaxDP=2.74D-04 DE= 2.64D-04 OVMax= 1.11D-03

 Cycle  10  Pass 1  IDiag  1:
 RMSU=  5.44D-04    CP:  9.98D-01
 E= -1894.60131152622     Delta-E=       -0.000083231544 Rises=F Damp=F
 DIIS: error= 3.08D-05 at cycle   2 NSaved=   2.
 NSaved= 2 IEnMin= 2 EnMin= -1894.60131152622     IErMin= 2 ErrMin= 3.08D-05
 ErrMax= 3.08D-05  0.00D+00 EMaxC= 1.00D-01 BMatC= 2.89D-07 BMatP= 7.81D-05
 IDIUse=1 WtCom= 1.00D+00 WtEn= 0.00D+00
 Coeff-Com: -0.414D-02 0.100D+01
 Coeff:     -0.414D-02 0.100D+01
 Gap=     0.158 Goal=   None    Shift=    0.000
 RMSDP=8.56D-06 MaxDP=3.34D-04 DE=-8.32D-05 OVMax= 3.49D-04

 Cycle  11  Pass 1  IDiag  1:
 RMSU=  4.58D-06    CP:  9.98D-01  1.01D+00
 E= -1894.60131081168     Delta-E=        0.000000714542 Rises=F Damp=F
 DIIS: error= 5.76D-05 at cycle   3 NSaved=   3.
 NSaved= 3 IEnMin= 2 EnMin= -1894.60131152622     IErMin= 2 ErrMin= 3.08D-05
 ErrMax= 5.76D-05  0.00D+00 EMaxC= 1.00D-01 BMatC= 1.01D-06 BMatP= 2.89D-07
 IDIUse=1 WtCom= 1.00D+00 WtEn= 0.00D+00
 Coeff-Com: -0.635D-02 0.659D+00 0.347D+00
 Coeff:     -0.635D-02 0.659D+00 0.347D+00
 Gap=     0.158 Goal=   None    Shift=    0.000
 RMSDP=2.68D-06 MaxDP=1.35D-04 DE= 7.15D-07 OVMax= 2.44D-04

 Cycle  12  Pass 1  IDiag  1:
 RMSU=  1.47D-06    CP:  9.98D-01  1.01D+00  5.15D-01
 E= -1894.60131180831     Delta-E=       -0.000000996628 Rises=F Damp=F
 DIIS: error= 3.02D-06 at cycle   4 NSaved=   4.
 NSaved= 4 IEnMin= 4 EnMin= -1894.60131180831     IErMin= 4 ErrMin= 3.02D-06
 ErrMax= 3.02D-06  0.00D+00 EMaxC= 1.00D-01 BMatC= 6.65D-09 BMatP= 2.89D-07
 IDIUse=1 WtCom= 1.00D+00 WtEn= 0.00D+00
 Coeff-Com: -0.353D-02 0.359D+00 0.196D+00 0.448D+00
 Coeff:     -0.353D-02 0.359D+00 0.196D+00 0.448D+00
 Gap=     0.158 Goal=   None    Shift=    0.000
 RMSDP=2.71D-07 MaxDP=9.18D-06 DE=-9.97D-07 OVMax= 2.74D-05

 Cycle  13  Pass 1  IDiag  1:
 RMSU=  2.51D-07    CP:  9.98D-01  1.01D+00  5.33D-01  9.60D-01
 E= -1894.60131181520     Delta-E=       -0.000000006885 Rises=F Damp=F
 DIIS: error= 1.08D-06 at cycle   5 NSaved=   5.
 NSaved= 5 IEnMin= 5 EnMin= -1894.60131181520     IErMin= 5 ErrMin= 1.08D-06
 ErrMax= 1.08D-06  0.00D+00 EMaxC= 1.00D-01 BMatC= 5.33D-10 BMatP= 6.65D-09
 IDIUse=1 WtCom= 1.00D+00 WtEn= 0.00D+00
 Coeff-Com: -0.808D-03 0.801D-01 0.461D-01 0.235D+00 0.640D+00
 Coeff:     -0.808D-03 0.801D-01 0.461D-01 0.235D+00 0.640D+00
 Gap=     0.158 Goal=   None    Shift=    0.000
 RMSDP=1.00D-07 MaxDP=7.44D-06 DE=-6.88D-09 OVMax= 9.78D-06

 Cycle  14  Pass 1  IDiag  1:
 RMSU=  8.13D-08    CP:  9.98D-01  1.01D+00  5.34D-01  9.72D-01  7.95D-01
 E= -1894.60131181563     Delta-E=       -0.000000000439 Rises=F Damp=F
 DIIS: error= 5.76D-07 at cycle   6 NSaved=   6.
 NSaved= 6 IEnMin= 6 EnMin= -1894.60131181563     IErMin= 6 ErrMin= 5.76D-07
 ErrMax= 5.76D-07  0.00D+00 EMaxC= 1.00D-01 BMatC= 1.60D-10 BMatP= 5.33D-10
 IDIUse=1 WtCom= 1.00D+00 WtEn= 0.00D+00
 Coeff-Com: -0.688D-04 0.563D-02 0.446D-02 0.935D-01 0.423D+00 0.474D+00
 Coeff:     -0.688D-04 0.563D-02 0.446D-02 0.935D-01 0.423D+00 0.474D+00
 Gap=     0.158 Goal=   None    Shift=    0.000
 RMSDP=4.54D-08 MaxDP=2.79D-06 DE=-4.39D-10 OVMax= 5.11D-06

 Cycle  15  Pass 1  IDiag  1:
 RMSU=  1.89D-08    CP:  9.98D-01  1.01D+00  5.35D-01  9.80D-01  8.34D-01
                    CP:  5.39D-01
 E= -1894.60131181579     Delta-E=       -0.000000000158 Rises=F Damp=F
 DIIS: error= 1.58D-07 at cycle   7 NSaved=   7.
 NSaved= 7 IEnMin= 7 EnMin= -1894.60131181579     IErMin= 7 ErrMin= 1.58D-07
 ErrMax= 1.58D-07  0.00D+00 EMaxC= 1.00D-01 BMatC= 1.53D-11 BMatP= 1.60D-10
 IDIUse=1 WtCom= 1.00D+00 WtEn= 0.00D+00
 Coeff-Com:  0.153D-04-0.231D-02-0.460D-03 0.440D-01 0.231D+00 0.309D+00
 Coeff-Com:  0.419D+00
 Coeff:      0.153D-04-0.231D-02-0.460D-03 0.440D-01 0.231D+00 0.309D+00
 Coeff:      0.419D+00
 Gap=     0.158 Goal=   None    Shift=    0.000
 RMSDP=1.08D-08 MaxDP=4.31D-07 DE=-1.58D-10 OVMax= 1.40D-06

 Cycle  16  Pass 1  IDiag  1:
 RMSU=  6.70D-09    CP:  9.98D-01  1.01D+00  5.35D-01  9.80D-01  8.32D-01
                    CP:  5.90D-01  6.14D-01
 E= -1894.60131181578     Delta-E=        0.000000000011 Rises=F Damp=F
 DIIS: error= 3.23D-08 at cycle   8 NSaved=   8.
 NSaved= 8 IEnMin= 7 EnMin= -1894.60131181579     IErMin= 8 ErrMin= 3.23D-08
 ErrMax= 3.23D-08  0.00D+00 EMaxC= 1.00D-01 BMatC= 7.72D-13 BMatP= 1.53D-11
 IDIUse=1 WtCom= 1.00D+00 WtEn= 0.00D+00
 Coeff-Com:  0.161D-04-0.190D-02-0.745D-03 0.126D-01 0.760D-01 0.112D+00
 Coeff-Com:  0.232D+00 0.570D+00
 Coeff:      0.161D-04-0.190D-02-0.745D-03 0.126D-01 0.760D-01 0.112D+00
 Coeff:      0.232D+00 0.570D+00
 Gap=     0.158 Goal=   None    Shift=    0.000
 RMSDP=2.91D-09 MaxDP=1.12D-07 DE= 1.09D-11 OVMax= 3.17D-07

 SCF Done:  E(RB3LYP) =  -1894.60131182     A.U. after   16 cycles
            NFock= 16  Conv=0.29D-08     -V/T= 2.0078
 KE= 1.879882609290D+03 PE=-1.242981720560D+04 EE= 4.654090513396D+03
 Leave Link  502 at Thu Jan 23 09:16:23 2025, MaxMem= 13421772800 cpu:            1662.0 elap:              52.8
 (Enter /public/software/apps/Gaussian/g16/l601.exe)
 Copying SCF densities to generalized density rwf, IOpCl= 0 IROHF=0.

 **********************************************************************

            Population analysis using the SCF Density.

 **********************************************************************

 Alpha  occ. eigenvalues --  -66.09811 -66.09808 -19.16835 -19.16815 -10.25458
 Alpha  occ. eigenvalues --  -10.25442 -10.20226 -10.20216 -10.19673 -10.19653
 Alpha  occ. eigenvalues --  -10.19419 -10.19408 -10.19324 -10.19316 -10.18908
 Alpha  occ. eigenvalues --  -10.18897 -10.18876 -10.18867 -10.18604 -10.18577
 Alpha  occ. eigenvalues --  -10.18574 -10.18567 -10.17448 -10.17434 -10.16236
 Alpha  occ. eigenvalues --  -10.16224 -10.16175 -10.16082 -10.15963 -10.15951
 Alpha  occ. eigenvalues --  -10.15247 -10.15238 -10.14629 -10.14610  -5.26262
 Alpha  occ. eigenvalues --   -5.26260  -3.62503  -3.62500  -3.62438  -3.62436
 Alpha  occ. eigenvalues --   -3.62389  -3.62386  -1.06327  -1.06059  -0.88411
 Alpha  occ. eigenvalues --   -0.87403  -0.82567  -0.81872  -0.79621  -0.77156
 Alpha  occ. eigenvalues --   -0.77121  -0.76332  -0.74082  -0.73959  -0.72798
 Alpha  occ. eigenvalues --   -0.70853  -0.69196  -0.69063  -0.67276  -0.67227
 Alpha  occ. eigenvalues --   -0.66996  -0.66924  -0.65434  -0.63746  -0.61664
 Alpha  occ. eigenvalues --   -0.61387  -0.61064  -0.58637  -0.56880  -0.56719
 Alpha  occ. eigenvalues --   -0.55854  -0.55550  -0.52867  -0.52752  -0.51221
 Alpha  occ. eigenvalues --   -0.49813  -0.47431  -0.47224  -0.46494  -0.46253
 Alpha  occ. eigenvalues --   -0.45481  -0.45414  -0.44902  -0.44413  -0.44346
 Alpha  occ. eigenvalues --   -0.43875  -0.43558  -0.42670  -0.42554  -0.41856
 Alpha  occ. eigenvalues --   -0.41705  -0.41463  -0.41143  -0.40289  -0.40171
 Alpha  occ. eigenvalues --   -0.39835  -0.39774  -0.39616  -0.39448  -0.39265
 Alpha  occ. eigenvalues --   -0.38938  -0.38895  -0.38649  -0.38612  -0.38218
 Alpha  occ. eigenvalues --   -0.37993  -0.37892  -0.37817  -0.37761  -0.36519
 Alpha  occ. eigenvalues --   -0.36308  -0.35240  -0.34117  -0.33433  -0.33357
 Alpha  occ. eigenvalues --   -0.33317  -0.33287  -0.32079  -0.31799  -0.30511
 Alpha  occ. eigenvalues --   -0.30354  -0.29661  -0.29589  -0.29257  -0.28491
 Alpha  occ. eigenvalues --   -0.27190  -0.27124  -0.24118  -0.24098  -0.22473
 Alpha  occ. eigenvalues --   -0.21277
 Alpha virt. eigenvalues --   -0.05479  -0.04484  -0.01941  -0.01531   0.01241
 Alpha virt. eigenvalues --    0.02550   0.04367   0.04618   0.05620   0.06234
 Alpha virt. eigenvalues --    0.06601   0.07085   0.07446   0.07638   0.08235
 Alpha virt. eigenvalues --    0.08553   0.08917   0.08982   0.09426   0.10105
 Alpha virt. eigenvalues --    0.10365   0.10523   0.10966   0.11136   0.11354
 Alpha virt. eigenvalues --    0.11529   0.11871   0.12379   0.12511   0.12928
 Alpha virt. eigenvalues --    0.13630   0.13935   0.14030   0.14605   0.14792
 Alpha virt. eigenvalues --    0.15030   0.15196   0.15266   0.15686   0.15853
 Alpha virt. eigenvalues --    0.16005   0.16336   0.16695   0.17243   0.17424
 Alpha virt. eigenvalues --    0.17803   0.18421   0.18762   0.19071   0.19488
 Alpha virt. eigenvalues --    0.19542   0.19801   0.20141   0.20521   0.20884
 Alpha virt. eigenvalues --    0.21716   0.21950   0.22271   0.23166   0.24195
 Alpha virt. eigenvalues --    0.24284   0.24840   0.26024   0.26427   0.27309
 Alpha virt. eigenvalues --    0.27777   0.28710   0.28849   0.30075   0.30224
 Alpha virt. eigenvalues --    0.30864   0.31184   0.31482   0.32342   0.32715
 Alpha virt. eigenvalues --    0.34080   0.34426   0.35524   0.35927   0.36906
 Alpha virt. eigenvalues --    0.36982   0.37109   0.37685   0.37739   0.38281
 Alpha virt. eigenvalues --    0.38338   0.39447   0.40256   0.40960   0.41198
 Alpha virt. eigenvalues --    0.41805   0.41943   0.42702   0.43027   0.43469
 Alpha virt. eigenvalues --    0.43785   0.44610   0.45097   0.45337   0.45561
 Alpha virt. eigenvalues --    0.45945   0.46396   0.46584   0.46844   0.47744
 Alpha virt. eigenvalues --    0.47853   0.48201   0.48554   0.48848   0.49574
 Alpha virt. eigenvalues --    0.50110   0.50384   0.50570   0.51154   0.51598
 Alpha virt. eigenvalues --    0.51886   0.53194   0.53627   0.54233   0.54962
 Alpha virt. eigenvalues --    0.55363   0.55579   0.56078   0.56700   0.56770
 Alpha virt. eigenvalues --    0.57457   0.58035   0.58344   0.58888   0.58979
 Alpha virt. eigenvalues --    0.59334   0.59717   0.60114   0.60774   0.61118
 Alpha virt. eigenvalues --    0.61277   0.62116   0.62494   0.63234   0.63447
 Alpha virt. eigenvalues --    0.63846   0.64195   0.65021   0.65259   0.65581
 Alpha virt. eigenvalues --    0.66210   0.66236   0.66404   0.66560   0.67063
 Alpha virt. eigenvalues --    0.67248   0.67692   0.68143   0.68276   0.68568
 Alpha virt. eigenvalues --    0.68947   0.69276   0.69463   0.69578   0.69916
 Alpha virt. eigenvalues --    0.70047   0.70371   0.70718   0.70835   0.71214
 Alpha virt. eigenvalues --    0.71376   0.71470   0.71786   0.71988   0.72068
 Alpha virt. eigenvalues --    0.72346   0.72608   0.72702   0.73284   0.73442
 Alpha virt. eigenvalues --    0.73721   0.73906   0.74188   0.74587   0.74622
 Alpha virt. eigenvalues --    0.74811   0.75010   0.75077   0.75769   0.75913
 Alpha virt. eigenvalues --    0.76122   0.76253   0.76743   0.77180   0.77620
 Alpha virt. eigenvalues --    0.77869   0.77944   0.78432   0.78782   0.79042
 Alpha virt. eigenvalues --    0.79438   0.79896   0.80637   0.80886   0.81184
 Alpha virt. eigenvalues --    0.81667   0.81939   0.82312   0.82469   0.82633
 Alpha virt. eigenvalues --    0.83128   0.83469   0.84483   0.84759   0.85280
 Alpha virt. eigenvalues --    0.86329   0.87104   0.87560   0.87765   0.88997
 Alpha virt. eigenvalues --    0.89346   0.89527   0.90042   0.90697   0.90981
 Alpha virt. eigenvalues --    0.91756   0.92760   0.93196   0.93613   0.94941
 Alpha virt. eigenvalues --    0.96165   0.96675   0.97535   0.98683   1.00803
 Alpha virt. eigenvalues --    1.00966   1.02687   1.02953   1.04360   1.05312
 Alpha virt. eigenvalues --    1.07054   1.07490   1.07930   1.09203   1.10310
 Alpha virt. eigenvalues --    1.11619   1.12523   1.12967   1.13521   1.15038
 Alpha virt. eigenvalues --    1.15606   1.17267   1.17534   1.18985   1.19519
 Alpha virt. eigenvalues --    1.20029   1.23009   1.23145   1.24409   1.24723
 Alpha virt. eigenvalues --    1.25975   1.26532   1.28239   1.28771   1.31047
 Alpha virt. eigenvalues --    1.31261   1.33081   1.36953   1.37356   1.38496
 Alpha virt. eigenvalues --    1.40178   1.41745   1.43790   1.44234   1.46326
 Alpha virt. eigenvalues --    1.46788   1.47507   1.47583   1.48593   1.48672
 Alpha virt. eigenvalues --    1.48826   1.49366   1.50157   1.50214   1.51988
 Alpha virt. eigenvalues --    1.52679   1.53924   1.54945   1.55575   1.55919
 Alpha virt. eigenvalues --    1.60241   1.61267   1.62640   1.64637   1.67725
 Alpha virt. eigenvalues --    1.71697   1.72879   1.74028   1.74222   1.74802
 Alpha virt. eigenvalues --    1.75618   1.76907   1.77789   1.78139   1.78652
 Alpha virt. eigenvalues --    1.79998   1.80936   1.81555   1.82955   1.83233
 Alpha virt. eigenvalues --    1.83829   1.83969   1.84083   1.85146   1.86189
 Alpha virt. eigenvalues --    1.86484   1.87051   1.87294   1.88609   1.89298
 Alpha virt. eigenvalues --    1.89763   1.90405   1.90540   1.92317   1.92585
 Alpha virt. eigenvalues --    1.93012   1.93539   1.96359   1.97443   1.98267
 Alpha virt. eigenvalues --    1.98427   1.99023   1.99924   2.01420   2.02888
[...]
 01283,0.00007662,-0.00001673,-0.00000435,-0.00001188,-0.00002347,-0.00
 001207,-0.00001747,-0.00000095,-0.00000280,-0.00000298,0.00000551,0.00
 000166,-0.00000206,-0.00000010,-0.00000301,0.00000002,0.00016533,0.000
 29033,-0.00061478,0.00048335,0.00019148,-0.00041268,-0.00100665,-0.001
 28889,0.00455580,0.00059404,-0.00104427,0.00338083,-0.09887455,-0.0479
 3647,-0.08796928,-0.01070650,-0.00390947,-0.00049265,-0.00107294,-0.00
 453570,0.00639893,-0.00003786,-0.00021942,0.00004657,0.00003472,0.0001
 9984,-0.00003898,-0.00004167,-0.00007754,0.00000467,-0.00003208,0.0000
 3694,0.00002708,0.00008771,0.00005095,0.00000616,-0.00001603,-0.000009
 20,-0.00002196,-0.00000614,-0.00000282,0.00001334,0.00001662,0.0000108
 7,-0.00000659,-0.00000843,0.00000396,-0.00000190,0.00000338,0.00000454
 ,0.00001550,-0.00000483,-0.00000613,0.00000143,-0.00000144,-0.00000344
 ,-0.00001369,0.00000818,-0.00000762,-0.00000174,-0.00001012,0.00001327
 ,0.00000334,0.00000041,-0.00000889,0.00000114,0.00000004,-0.00000462,0
 .00000333,0.00000134,-0.00000396,0.00000012,0.00000142,-0.00000114,0.0
 0000055,0.00000152,0.00000356,0.00000068,0.00000835,0.00001037,-0.0000
 0574,-0.00002980,0.00001422,0.00001301,0.00000150,0.00000052,0.0000021
 6,-0.00000519,0.00000125,-0.00000066,0.00000626,-0.00000155,-0.0000013
 7,0.00000370,0.00000404,-0.00000177,-0.00000673,-0.00000731,0.00000319
 ,0.00000429,0.00000646,-0.00000040,0.00000022,0.00000368,0.00000061,-0
 .00000167,0.00000045,0.00000092,0.00000076,0.00000110,0.00000109,-0.00
 000117,-0.00000175,-0.00000451,-0.00000167,0.00000125,0.00000121,0.000
 00017,-0.00000106,-0.00000659,-0.00000169,-0.00000186,0.00000476,-0.00
 002573,-0.00001101,0.00003413,0.00001452,-0.00009447,0.00010693,0.0007
 3584,0.00131445,-0.00232012,0.10865153,0.05507221,0.08131435,-0.000374
 07,-0.00001730,0.00010790,0.00008894,-0.00000736,0.00000837,-0.0000368
 1,-0.00004113,-0.00008761,0.00024586,0.00016894,-0.00010786,-0.0000493
 7,-0.00005275,0.00002915,-0.00005142,-0.00004143,0.00002793,0.00009836
 ,-0.00027059,-0.00003327,-0.00004627,0.00016482,-0.00017710,-0.0001601
 8,-0.00009324,0.00009368,0.00004401,0.00002582,-0.00004306,-0.00008104
 ,0.00002293,0.00002291,0.00009060,-0.00009179,0.00003740,-0.00000655,0
 .00009600,-0.00008095,0.00026088,-0.00042453,0.00045101,0.00013790,0.0
 0042954,0.00026955,0.00006301,0.00120276,0.00126486,-0.00026347,0.0001
 6771,0.00012701,0.00021941,-0.00019044,-0.00009763,0.00005268,-0.00018
 777,-0.00003944,0.00019454,0.00016837,0.00011689,-0.00005809,-0.000033
 32,-0.00002779,-0.00004516,-0.00003594,-0.00003010,-0.00004904,-0.0000
 1611,-0.00001039,0.00002128,-0.00000505,-0.00002103,-0.00000066,-0.000
 01013,0.00000014,-0.00068127,0.00119296,0.00028386,-0.00174106,-0.0028
 6652,-0.00338979,0.00023110,-0.00089167,-0.00012394,0.00204994,0.00029
 906,-0.00172499,0.00415569,-0.00217307,-0.00094289,-0.25103786,0.12983
 511,-0.01383376,-0.01748425,0.01525676,-0.00018568,0.00067899,0.000527
 01,0.00052468,0.00012230,0.00020005,0.00013563,-0.00009072,0.00001310,
 0.00013030,0.00005114,-0.00000325,-0.00002492,0.00003066,0.00000266,-0
 .00002649,0.00000478,0.00001458,-0.00002819,0.00002436,0.00001095,-0.0
 0001915,-0.00001297,-0.00000999,0.00000995,0.00000169,-0.00000089,0.00
 000780,-0.00000408,0.00000005,-0.00002024,0.00000138,0.00000552,-0.000
 02080,-0.00000003,0.00000385,0.00002415,-0.00001678,0.00000823,0.00000
 167,0.00001381,-0.00001498,-0.00000930,0.00000186,0.00001140,-0.000002
 77,-0.00000027,0.00002193,-0.00000356,-0.00000777,0.00000741,0.0000025
 4,-0.00000231,0.00000693,-0.00000655,0.00000211,0.00000442,-0.00001130
 ,-0.00002414,-0.00000794,-0.00003678,-0.00015817,-0.00001686,-0.000036
 13,0.00001228,-0.00000804,0.00001465,-0.00001562,-0.00000019,-0.000005
 47,0.00002204,0.00000021,-0.00000883,0.00000272,0.00001072,-0.00000206
 ,-0.00000663,-0.00002129,0.00000998,0.00000190,-0.00000552,-0.00000160
 ,0.00000246,-0.00000828,-0.00000556,0.00000103,0.00000011,0.00000344,-
 0.00000189,0.00000006,0.00000344,-0.00000877,-0.00000360,-0.00001302,0
 .00000566,-0.00000203,0.00000614,-0.00000328,-0.00000307,-0.00001389,-
 0.00001163,0.00000672,0.00001165,-0.00029844,-0.00011895,-0.00017147,-
 0.00013472,-0.00002822,0.00028845,0.00010586,-0.00015470,-0.00011601,0
 .00039891,-0.00031095,0.00157394,0.26391520,-0.00014888,-0.00030400,0.
 00013989,0.00001016,-0.00003975,0.00004706,-0.00002247,-0.00004856,-0.
 00007191,0.00030722,0.00037397,-0.00007364,-0.00007845,-0.00009260,0.0
 0002263,-0.00006954,-0.00008702,0.00002714,0.00003820,-0.00000518,0.00
 013361,-0.00004770,0.00006916,-0.00010204,-0.00005696,-0.00001814,0.00
 012514,0.00002895,0.00001003,-0.00004804,-0.00006574,0.00002874,0.0000
 1894,0.00006870,-0.00007418,0.00004326,0.00003530,0.00016039,-0.000018
 64,-0.00007392,-0.00052029,0.00003422,-0.00054669,-0.00071055,-0.00040
 455,-0.00020433,-0.00054142,0.00046147,0.00012714,0.00008093,0.0002531
 1,0.00007607,0.00003962,-0.00005878,-0.00008676,0.00010380,0.00007939,
 -0.00003148,0.00002468,-0.00003043,0.00000105,-0.00000688,0.00000082,0
 .00000710,-0.00000217,0.00000755,0.00000165,-0.00000116,0.00000259,-0.
 00000210,-0.00000194,-0.00000025,-0.00000175,0.00000052,-0.00000184,-0
 .00054561,0.00039108,0.00001133,-0.00150392,-0.00022497,-0.00253551,-0
 .00076872,-0.00026241,-0.00009090,-0.00088728,-0.00292265,-0.00470774,
 0.02535634,-0.01133310,0.00152529,0.13035692,-0.13892910,-0.00127792,-
 0.01006659,0.01033878,0.00002331,0.00004321,-0.00022284,-0.00215142,0.
 00006726,-0.00105706,0.00061855,0.00015720,0.00035618,-0.00010281,0.00
 012383,-0.00002771,-0.00006971,-0.00012559,-0.00003950,0.00002728,0.00
 001009,0.00000188,0.00002920,0.00002268,0.00001244,-0.00003368,-0.0000
 1924,-0.00001230,0.00001454,0.00001276,0.00000144,0.00000445,-0.000007
 52,-0.00000531,-0.00003389,0.00000889,0.00000787,-0.00000909,0.0000058
 8,0.00000371,0.00003403,-0.00002112,0.00001487,0.00000387,0.00002374,-
 0.00002694,-0.00001064,0.00000117,0.00001887,-0.00000406,-0.00000236,0
 .00002284,0.00000051,-0.00000930,0.00001081,-0.00000144,-0.00000143,0.
 00000818,-0.00000645,0.00000263,0.00000131,-0.00001353,0.00000137,-0.0
 0000159,-0.00001475,-0.00004232,-0.00001475,-0.00001114,0.00000192,-0.
 00000460,0.00000395,0.00000066,-0.00000377,-0.00000061,0.00000332,0.00
 000129,-0.00000223,-0.00000211,0.00000010,0.00000030,0.00000302,0.0000
 0117,0.00000011,-0.00000388,-0.00000692,-0.00000047,-0.00000047,-0.000
 00465,-0.00000468,0.00000212,-0.00000113,0.00000054,-0.00000082,-0.000
 00011,-0.00000053,0.00000033,0.00000089,0.00000199,0.00000303,-0.00000
 224,0.00000107,-0.00000007,0.00000048,0.00000269,0.00000105,0.00000418
 ,-0.00000182,-0.00014992,-0.00003092,-0.00015355,-0.00002754,-0.000121
 42,0.00038616,0.00110978,-0.00053403,-0.00001184,-0.00076485,0.0004460
 5,0.00201662,-0.14172803,0.14552890,0.00016486,0.00015010,-0.00022685,
 -0.00003220,-0.00000281,0.00001775,0.00001245,0.00001123,-0.00000107,0
 .00013653,-0.00012955,-0.00014782,-0.00001989,0.00001798,0.00004385,-0
 .00002486,0.00002518,0.00002687,0.00011388,-0.00003357,-0.00007644,0.0
 0001750,0.00008292,0.00000931,-0.00019259,0.00006530,0.00000102,0.0000
 5501,-0.00003776,-0.00001926,-0.00003157,0.00006852,-0.00003715,0.0000
 4111,-0.00004920,-0.00002816,0.00000433,0.00014511,-0.00012601,0.00015
 077,-0.00016970,0.00030519,-0.00022559,-0.00057306,-0.00054178,0.00059
 518,0.00100538,-0.00192722,0.00038676,0.00032565,-0.00015791,0.0000125
 4,-0.00024071,0.00012862,-0.00006096,0.00007725,-0.00008126,0.00007681
 ,0.00006745,0.00010190,-0.00002483,-0.00001556,-0.00001312,-0.00002465
 ,-0.00001734,-0.00002213,-0.00001764,-0.00000633,-0.00000795,0.0000102
 3,-0.00000042,-0.00000978,-0.00000244,-0.00000723,-0.00000221,-0.00046
 586,0.00047458,0.00012767,-0.00264566,-0.00299952,0.00314292,-0.000116
 81,-0.00017073,-0.00069306,-0.00208882,-0.00443967,0.00549404,0.010316
 24,-0.00714920,0.00442708,-0.01377246,-0.00113817,-0.04134297,-0.00977
 997,0.00777747,0.00328266,0.00000957,-0.00130308,-0.00029512,0.0000848
 9,0.00056618,-0.00025160,0.00012601,-0.00018398,0.00021958,-0.00010940
 ,0.00001541,0.00003988,-0.00002948,-0.00004938,0.00001633,0.00000049,0
 .00003800,-0.00003384,-0.00000804,-0.00000389,0.00001436,-0.00000888,-
 0.00001556,0.00000278,-0.00002212,0.00000425,0.00000564,0.00000114,0.0
 0000714,0.00000505,-0.00000254,-0.00000078,-0.00002319,-0.00000398,-0.
 00000035,0.00001071,-0.00000894,0.00000111,0.00000096,-0.00000188,0.00
 000707,-0.00000254,0.00000598,-0.00000521,-0.00000218,-0.00001094,0.00
 002472,-0.00001059,-0.00000562,0.00000434,0.00000419,0.00000654,0.0000
 0820,-0.00000232,0.00001157,0.00001137,-0.00000666,0.00004446,0.000017
 98,-0.00000657,-0.00010656,-0.00000848,-0.00002930,0.00000567,0.000000
 40,0.00000655,-0.00000636,-0.00000013,-0.00000487,0.00001224,-0.000003
 26,-0.00000901,0.00000402,0.00000716,-0.00000330,-0.00000457,-0.000011
 23,0.00000476,0.00000158,-0.00000083,0.,0.00000178,-0.00000452,-0.0000
 0244,0.00000063,-0.00000062,0.00000226,0.00000085,0.00000169,0.0000019
 4,-0.00000415,-0.00000225,-0.00000745,0.00000344,-0.00000120,0.0000033
 8,-0.00000183,-0.00000104,-0.00001007,-0.00000283,0.00000385,0.0000095
 5,-0.00020867,-0.00012418,0.00006487,0.00026889,0.00038213,-0.00085205
 ,0.00039827,-0.00037200,0.00023569,0.00130868,0.00213080,-0.00378785,0
 .01614238,0.00584028,0.03339277,-0.00002835,-0.00010725,0.00006050,-0.
 00008074,0.00000003,-0.00009567,-0.00002401,-0.00002308,0.00002426,-0.
 00049496,0.00000916,0.00020970,0.00006604,0.00003233,-0.00022222,0.000
 08298,-0.00005688,-0.00004427,0.00298807,-0.00095111,0.00057134,0.0000
 5311,0.00097628,0.00010815,-0.00014875,-0.00069291,0.00049493,-0.00010
 980,0.00045984,-0.00033086,-0.00026422,-0.00025624,0.00035876,0.000148
 89,-0.00015181,0.00011073,0.00030116,-0.00039412,0.00000247,-0.0009207
 6,0.00085980,-0.00014950,-0.00071809,-0.00582307,0.00432090,0.00480282
 ,-0.00075330,-0.00281816,-0.00308672,-0.00220758,-0.00198778,-0.000373
 27,0.00223018,0.00067765,-0.00015588,-0.00035731,-0.00020113,-0.000699
 22,-0.00037149,-0.00017643,0.00018533,0.00005113,0.00004088,0.00016154
 ,0.00011008,0.00002561,0.00017821,0.00001912,0.00010740,-0.00004768,0.
 00003980,-0.00000817,-0.00022639,-0.00003756,-0.00014749,0.00037884,-0
 .00007377,0.00035780,0.00015381,0.00010598,0.00008167,-0.00004882,0.00
 056927,0.00011512,-0.00038201,-0.00005433,-0.00016280,-0.00027507,-0.0
 0070212,-0.00014085,0.00045494,-0.00005097,0.00065994,-0.00046364,0.00
 334117,0.00243209,-0.00592581,0.01192117,-0.00672922,-0.34268048,0.176
 23676,0.07319377,0.00000109,0.00005410,-0.00012836,0.00007238,-0.00001
 247,0.00000345,-0.00000157,0.00003271,-0.00002114,-0.00025778,-0.00006
 774,0.00015130,0.00000264,0.00000457,-0.00002147,0.00000826,0.00002937
 ,-0.00000302,0.00003880,-0.00001017,-0.00000426,0.00001423,-0.00004173
 ,0.00000699,-0.00002233,0.00000777,0.00022283,0.00002255,-0.00001275,-
 0.00004153,0.00002408,-0.00000133,-0.00000536,-0.00000093,-0.00001210,
 0.00000473,-0.00001099,0.00000744,0.00000449,0.00003748,-0.00005863,-0
 .00010846,0.00002964,-0.00001748,-0.00000165,-0.00001866,-0.00000147,0
 .00001374,-0.00001878,-0.00003456,0.00004720,-0.00011930,-0.00002436,0
 .00012513,0.00082817,-0.00016265,0.00039611,-0.00004198,0.00002753,-0.
 00001518,0.00004886,-0.00001390,0.00001030,-0.00003353,0.00000081,0.00
 000241,-0.00000395,-0.00002246,-0.00000664,0.00003286,0.00004828,-0.00
 001705,-0.00003846,-0.00003528,0.00001831,-0.00001764,-0.00000866,-0.0
 0003338,0.00000791,-0.00000980,0.00000038,0.00003625,0.00002014,-0.000
 00353,0.00001558,0.00000675,0.00004747,0.00003380,-0.00000243,0.000000
 85,0.00006450,0.00004276,0.00007874,0.00014494,0.00001719,-0.00000142,
 0.00001234,-0.00001693,-0.00004572,0.00000896,-0.00002920,0.00000823,-
 0.00004146,-0.00000797,-0.00003738,-0.00003478,-0.00007160,-0.00005366
 ,-0.00039053,0.00009475,-0.00045968,0.34676624,-0.00000736,-0.00006237
 ,0.00011676,-0.00046584,-0.00017682,0.00008500,-0.00002171,-0.00005330
 ,-0.00016259,0.00139914,-0.00077049,-0.00010237,-0.00025621,-0.0000513
 4,0.00018133,-0.00008558,-0.00004638,0.00000077,-0.00079394,-0.0023175
 8,0.00472702,0.00180356,0.00026381,-0.00007392,-0.00032660,0.00021544,
 -0.00003550,0.00001556,-0.00004111,-0.00005356,-0.00013503,0.00013201,
 -0.00002554,0.00017095,-0.00013455,0.00008112,-0.00001197,0.00051229,-
 0.00043839,0.00058296,-0.00118675,-0.00000744,0.00075210,0.00138639,-0
 .00188124,-0.00000754,0.00171037,-0.00079294,-0.00073896,-0.00015602,-
 0.00071864,0.00018293,0.00016439,-0.00006219,-0.00035841,-0.00016196,-
 0.00017181,-0.00006009,0.00016094,-0.00000331,0.00003978,-0.00001674,0
 .00000987,0.00000651,-0.00000712,-0.00001067,-0.00001725,0.00000216,0.
 00000081,-0.00000684,-0.00002988,0.00000012,-0.00005642,-0.00007391,-0
 .00002887,0.00039954,-0.00043540,-0.00000311,0.00110782,-0.00056745,0.
 00025041,-0.00003132,0.00007430,0.00002484,0.00001356,-0.00020840,-0.0
 0008801,-0.00029631,-0.00018690,0.00006639,-0.00096886,-0.00068267,-0.
 00030188,0.00035794,0.00170024,0.00148013,0.03590783,-0.02524456,-0.00
 357504,0.14599457,-0.11023822,-0.01108121,0.00002225,0.00009299,0.0000
 3855,0.00003815,-0.00001636,-0.00001810,-0.00008793,-0.00006228,-0.000
 05632,0.00001881,0.00034447,0.00000687,0.00001167,0.00002587,0.0000004
 3,-0.00008311,-0.00005390,0.00000608,-0.00001992,-0.00001335,0.0000162
 7,0.00000800,-0.00000088,0.00001373,0.00006557,0.00007351,-0.00030265,
 -0.00007065,0.00006217,0.00008714,-0.00003077,0.00001961,0.00000869,0.
 00001039,-0.00000580,-0.00000420,-0.00001366,0.00002063,-0.00001205,-0
 .00010837,-0.00033695,0.00008616,-0.00002543,0.00003486,-0.00001059,-0
 .00000538,0.00001712,-0.00000805,0.00001819,0.00003860,-0.00002562,-0.
 00000294,-0.00000688,0.00000738,-0.00023195,-0.00035402,0.00023086,0.0
 0000706,-0.00001025,0.00000463,0.00000507,-0.00000751,0.00000350,-0.00
 000534,0.00000138,-0.00000106,-0.00000040,0.00000293,-0.00000241,0.000
 01079,-0.00001226,0.00000592,-0.00002209,-0.00004191,0.00000648,-0.000
 01741,-0.00006580,-0.00002831,0.00001986,-0.00000444,0.00000442,-0.000
 00647,-0.00000188,-0.00000001,-0.00000253,0.00000665,0.00000296,0.0000
 8734,-0.00001974,0.00002158,-0.00001615,0.00000261,-0.00000394,-0.0000
 4164,0.00014439,-0.00001432,-0.00001945,-0.00002605,-0.00005556,0.0000
 0375,0.00000559,-0.00001766,-0.00000371,0.00000947,-0.00002367,0.00000
 531,0.00001686,-0.00005799,0.00001025,0.00017867,-0.00009368,-0.183615
 67,0.13646948,-0.00008775,-0.00005757,0.00010669,0.00020435,-0.0000516
 7,-0.00003687,-0.00000076,0.00001793,0.00000578,-0.00053091,0.00048145
 ,-0.00013260,0.00006258,-0.00011445,-0.00033266,-0.00005068,-0.0000174
 7,-0.00005483,0.00057348,0.00516650,-0.00160586,-0.00072787,0.00049832
 ,0.00144334,0.00019873,0.00013778,-0.00030239,0.00003014,-0.00030250,0
 .00014619,0.00023629,0.00005621,-0.00021310,-0.00013792,0.00026649,-0.
 00001273,-0.00020210,-0.00016303,0.00017098,-0.00013062,-0.00022375,-0
 .00047662,-0.00038598,0.00203197,-0.00190619,-0.00120069,0.00091482,0.
 00012461,0.00181031,0.00186851,0.00201639,0.00008269,-0.00235552,-0.00
 133238,-0.00060738,0.00036287,-0.00034113,0.00075013,0.00042420,0.0009
 4256,-0.00018546,-0.00009716,-0.00019178,-0.00017743,-0.00012234,-0.00
 022619,-0.00006420,-0.00010239,-0.00000820,0.00010539,0.00008158,-0.00
 016248,-0.00026849,-0.00013364,-0.00024436,-0.00050213,0.00001687,-0.0
 0022420,0.00081716,-0.00086619,0.00014695,0.00007738,0.00039064,0.0001
 3214,-0.00028990,0.00005640,-0.00017992,0.00011911,-0.00044180,0.00015
 806,-0.00062491,-0.00043260,-0.00079842,0.00067309,-0.00105792,-0.0011
 7317,-0.02678422,0.01171214,0.00605553,0.09846000,-0.03104498,-0.04680
 810,0.00002033,0.00008648,-0.00003753,0.00004997,0.00000442,-0.0000342
 9,-0.00002065,-0.00002243,-0.00001030,-0.00006841,-0.00007127,0.000060
 64,0.00002567,-0.00000635,-0.00004119,0.00001372,-0.00000284,0.0000064
 0,-0.00000342,0.00001152,-0.00000787,0.00003358,-0.00002710,-0.0000664
 8,0.00024793,-0.00009684,0.00014711,0.00000766,-0.00008267,-0.00006417
 ,0.00000661,-0.00000162,0.00000661,0.00001680,-0.00001414,0.00000222,-
 0.00001340,0.00001415,-0.00000854,-0.00010813,0.00013166,-0.00031467,0
 .00000426,-0.00001957,0.00001288,0.00001780,-0.00000777,0.00000011,0.0
 0001121,0.00000918,0.00000514,0.00006232,0.00000966,-0.00007706,-0.000
 50112,-0.00003158,0.00021076,0.00000648,0.00001885,0.00003338,-0.00006
 630,0.00003256,-0.00000492,0.00008089,-0.00002674,-0.00002927,0.000035
 03,0.00006027,-0.00003380,-0.00004955,-0.00007605,0.00004076,0.0000367
 9,0.00003939,0.00000585,0.00000933,0.00001945,0.00002494,-0.00001159,-
 0.00000790,0.00001592,0.00005565,0.00003880,0.00002478,-0.00004851,-0.
 00003194,-0.00005711,0.00008172,0.00000491,0.00003384,0.00000657,0.000
 00813,-0.00009646,0.00000088,0.00001720,0.00020141,-0.00007132,0.00002
 223,0.00001713,-0.00006849,0.00004642,0.00004083,-0.00002592,0.0000683
 1,0.00003717,0.00004712,0.00008775,0.00001429,-0.00019008,0.00011763,-
 0.00034697,-0.07087288,0.01277821,0.04560345\\0.00000165,0.00000048,0.
 00000888,-0.00000424,0.00001143,0.00000006,0.00000600,0.00000265,-0.00
 000313,0.00000604,-0.00001044,0.00000264,0.00000026,0.00000247,-0.0000
 0957,0.00000114,-0.00000985,-0.00000022,-0.00000801,0.00000236,0.00000
 587,0.00000716,-0.00000278,0.00000015,0.00000112,0.00000275,-0.0000030
 5,0.00000424,-0.00000481,0.00000101,0.00000004,-0.00000202,0.00000124,
 -0.00000329,-0.00000271,0.00000458,-0.00000345,0.00000368,-0.00000012,
 -0.00000436,-0.00000208,0.00000227,0.00000970,0.00000067,-0.00000237,-
 0.00000965,-0.00000084,-0.00000161,-0.00000536,-0.00000258,0.00000237,
 0.00000692,-0.00000877,-0.00000444,0.00000764,0.00000195,0.00000158,-0
 .00000231,0.00001051,-0.00000044,-0.00000474,0.00000528,0.00000617,-0.
 00000459,-0.00000986,0.00000059,0.00000609,-0.00000668,-0.00000474,-0.
 00000792,-0.00000202,-0.00000333,0.00000324,0.00000623,-0.00000402,-0.
 00000641,0.00000309,-0.00000047,-0.00000123,-0.00000419,-0.00000123,-0
 .00000428,0.00000487,0.00000119,0.00000013,0.00000180,0.00000145,0.000
 00435,0.00000316,0.00000389,0.00000256,-0.00000421,-0.00000066,0.00000
 444,0.00000239,0.00000205,0.00000534,-0.00000017,-0.00000105,-0.000008
 69,0.00000942,-0.00000224,0.00000314,-0.00000010,-0.00000155,-0.000003
 07,0.00000167,-0.00000109,-0.00000209,-0.00000341,-0.00000193,0.000002
 00,-0.00000133,0.00000042,0.00000034,0.00000013,0.00000395,-0.00000189
 ,-0.00000356,0.00000031,-0.00000286,0.00000137,-0.00000042,0.00000235,
 0.00000334,0.00000015,0.00000376,-0.00000298,0.00000228,-0.00000515,0.
 00000042,0.00000153,-0.00000359,0.00000241,0.00000152,0.00000213,0.000
 00531,0.00000120,-0.00000077,0.00000106,-0.00000361,-0.00000113,0.0000
 0153,-0.00000166,-0.00000143,0.00000045,0.00000002,-0.00000031,0.00000
 026,-0.00000083,0.00000137,-0.00000053,-0.00000108,0.00000120,-0.00000
 194,-0.00000017,-0.00000758,0.00000526,-0.00000118,-0.00000083,-0.0000
 0402,0.00000030,0.00000404,-0.00000194,0.00000069,0.00000009,-0.000000
 30,-0.00000611,0.00000239,-0.00000107,-0.00000316,0.00000347,-0.000000
 05,0.00000406,-0.00000291,0.00000374,-0.00000178,-0.00000159,0.0000013
 4,-0.00000020,0.00000250,-0.00000221,0.00000095,0.00000219,0.00000306,
 -0.00000153,0.00000054,0.00000171,0.00000386,0.00000176,-0.00000327,0.
 00000036,-0.00000043,-0.00000030,0.00000432,-0.00000247,-0.00000013,-0
 .00000074,0.00000066,-0.00000194,-0.00000150,0.00000123,-0.00000088,0.
 00000043,-0.00000011,-0.00000095,0.00000015,-0.00000175,-0.00000023,-0
 .00000015,-0.00000154,0.00000164,0.00000032,0.00000683,-0.00000476,-0.
 00000139\\\@
 The archive entry for this job was punched.


 DEFINE YOUR TERMS, YOU WILL PERMIT ME AGAIN TO SAY, 
 OR WE SHALL NEVER UNDERSTAND ONE ANOTHER.

                                    -- VOLTAIRE
 Job cpu time:       0 days  8 hours  3 minutes 55.9 seconds.
 Elapsed time:       0 days  0 hours 15 minutes 19.9 seconds.
 File lengths (MBytes):  RWF=   2513 Int=      0 D2E=      0 Chk=     29 Scr=      1
 Normal termination of Gaussian 16 at Thu Jan 23 09:46:33 2025.
