 Entering Gaussian System, Link 0=g16
 Initial command:
 /public/software/apps/Gaussian/g16/l1.exe "/tmp/Gau-118999.inp" -scrdir="/tmp/"
 Entering Link 1 = /public/software/apps/Gaussian/g16/l1.exe PID=    119000.
  
 Copyright (c) 1988-2019, Gaussian, Inc.  All Rights Reserved.
  
 This is part of the Gaussian(R) 16 program.  It is based on
 the Gaussian(R) 09 system (copyright 2009, Gaussian, Inc.),
 the Gaussian(R) 03 system (copyright 2003, Gaussian, Inc.),
 the Gaussian(R) 98 system (copyright 1998, Gaussian, Inc.),
 the Gaussian(R) 94 system (copyright 1995, Gaussian, Inc.),
 the Gaussian 92(TM) system (copyright 1992, Gaussian, Inc.),
 the Gaussian 90(TM) system (copyright 1990, Gaussian, Inc.),
 the Gaussian 88(TM) system (copyright 1988, Gaussian, Inc.),
 the Gaussian 86(TM) system (copyright 1986, Carnegie Mellon
 University), and the Gaussian 82(TM) system (copyright 1983,
 Carnegie Mellon University). Gaussian is a federally registered
 trademark of Gaussian, Inc.
  
 This software contains proprietary and confidential information,
 including trade secrets, belonging to Gaussian, Inc.
  
 This software is provided under written license and may be
 used, copied, transmitted, or stored only in accord with that
 written license.
  
 The following legend is applicable only to US Government
 contracts under FAR:
  
                    RESTRICTED RIGHTS LEGEND
  
 Use, reproduction and disclosure by the US Government is
 subject to restrictions as set forth in subparagraphs (a)
 and (c) of the Commercial Computer Software - Restricted
 Rights clause in FAR 52.227-19.
  
 Gaussian, Inc.
 340 Quinnipiac St., Bldg. 40, Wallingford CT 06492
  
  
 ---------------------------------------------------------------
 Warning -- This program may not be used in any manner that
 competes with the business of Gaussian, Inc. or will provide
 assistance to any competitor of Gaussian, Inc.  The licensee
 of this program is prohibited from giving any competitor of
 Gaussian, Inc. access to this program.  By using this program,
 the user acknowledges that Gaussian, Inc. is engaged in the
 business of creating and licensing software in the field of
 computational chemistry and represents and warrants to the
 licensee that it is not a competitor of Gaussian, Inc. and that
 it will not use this program in any manner prohibited above.
 ---------------------------------------------------------------
  

 Cite this work as:
 Gaussian 16, Revision C.01,
 M. J. Frisch, G. W. Trucks, H. B. Schlegel, G. E. Scuseria, 
 M. A. Robb, J. R. Cheeseman, G. Scalmani, V. Barone, 
 G. A. Petersson, H. Nakatsuji, X. Li, M. Caricato, A. V. Marenich, 
 J. Bloino, B. G. Janesko, R. Gomperts, B. Mennucci, H. P. Hratchian, 
 J. V. Ortiz, A. F. Izmaylov, J. L. Sonnenberg, D. Williams-Young, 
 F. Ding, F. Lipparini, F. Egidi, J. Goings, B. Peng, A. Petrone, 
 T. Henderson, D. Ranasinghe, V. G. Zakrzewski, J. Gao, N. Rega, 
 G. Zheng, W. Liang, M. Hada, M. Ehara, K. Toyota, R. Fukuda, 
 J. Hasegawa, M. Ishida, T. Nakajima, Y. Honda, O. Kitao, H. Nakai, 
 T. Vreven, K. Throssell, J. A. Montgomery, Jr., J. E. Peralta, 
 F. Ogliaro, M. J. Bearpark, J. J. Heyd, E. N. Brothers, K. N. Kudin, 
 V. N. Staroverov, T. A. Keith, R. Kobayashi, J. Normand, 
 K. Raghavachari, A. P. Rendell, J. C. Burant, S. S. Iyengar, 
 J. Tomasi, M. Cossi, J. M. Millam, M. Klene, C. Adamo, R. Cammi, 
 J. W. Ochterski, R. L. Martin, K. Morokuma, O. Farkas, 
 J. B. Foresman, and D. J. Fox, Gaussian, Inc., Wallingford CT, 2019.
 
 ******************************************
 Gaussian 16:  ES64L-G16RevC.01  3-Jul-2019
                23-Jan-2025 
 ******************************************
 %nprocshared=32
 Will use up to   32 processors via shared memory.
 %mem=100GB
 ------------------------------------------
 #p opt freq b3lyp/def2svpp em=gd3bj nosymm
 ------------------------------------------
 1/18=20,19=15,26=3,38=1/1,3;
 2/9=110,12=2,15=1,17=6,18=5,40=1/2;
 3/5=43,7=202,11=2,25=1,30=1,71=1,74=-5,124=41/1,2,3;
 4//1;
 5/5=2,38=5/2;
 6/7=2,8=2,9=2,10=2,28=1/1;
 7/30=1/1,2,3,16;
 1/18=20,19=15,26=3/3(2);
 2/9=110,15=1/2;
 99//99;
 2/9=110,15=1/2;
 3/5=43,7=202,11=2,25=1,30=1,71=1,74=-5,124=41/1,2,3;
 4/5=5,16=3,69=1/1;
 5/5=2,38=5/2;
 7/30=1/1,2,3,16;
 1/18=20,19=15,26=3/3(-5);
 2/9=110,15=1/2;
 6/7=2,8=2,9=2,10=2,19=2,28=1/1;
 99/9=1/99;
 Leave Link    1 at Thu Jan 23 10:07:44 2025, MaxMem= 13421772800 cpu:               1.4 elap:               0.1
 (Enter /public/software/apps/Gaussian/g16/l101.exe)
 ----------------------
 $$$$Singlemol####0????
 ----------------------
 Symbolic Z-matrix:
 Charge =  0 Multiplicity = 1
 C                     1.63765   3.0261   -1.47552 
 C                     2.86963   3.0529   -0.99827 
 C                     3.21428   3.13384   0.44462 
 Si                    3.91668   1.45421   1.07686 
 C                     5.74093   1.31232   0.53508 
 C                     3.81502   1.34717   2.97576 
 C                     2.92226   0.07693   0.23574 
 C                     3.45138  -0.8408   -0.63001 
 C                     2.65282  -1.80191  -1.28406 
 C                     3.2023   -2.74552  -2.17551 
 C                     2.406    -3.65939  -2.80743 
 C                     1.02231  -3.66467  -2.57768 
 C                     0.45745  -2.76339  -1.71862 
 C                     1.25472  -1.81525  -1.0451 
 C                     0.70348  -0.87274  -0.139 
 C                    -0.75599  -0.86281   0.14602 
 C                    -1.55615   0.11253  -0.41306 
 O                    -1.05286   1.07136  -1.23403 
 C                    -2.9488    0.16487  -0.17335 
 Si                   -3.94079   1.60629  -0.90602 
 C                    -5.80237   1.22027  -0.73662 
 C                    -3.56043   1.93824  -2.74226 
 C                    -3.57543   3.14992   0.1918 
 C                    -2.12267   3.39949   0.36605 
 C                    -1.43143   3.07076   1.44405 
 C                    -3.50201  -0.79781   0.62813 
 C                    -2.73045  -1.8174    1.22227 
 C                    -3.30661  -2.8034    2.04893 
 C                    -2.53468  -3.77392   2.62383 
 C                    -1.15004  -3.79658   2.39957 
 C                    -0.55995  -2.856     1.60196 
 C                    -1.33195  -1.84825   0.98788 
 C                     1.53044   0.04124   0.47922 
 O                     1.06086   0.95995   1.36467 
 H                     1.43221   2.94125  -2.52978 
 H                     0.78204   3.10874  -0.82587 
 H                     3.71158   2.97671  -1.67504 
 H                     2.33098   3.40215   1.02072 
 H                     3.96526   3.90887   0.6005 
 H                     6.17261   0.362     0.83274 
 H                     6.33628   2.09607   0.99269 
 H                     5.85142   1.40505  -0.54075 
 H                     2.78923   1.42046   3.31854 
 H                     4.38172   2.14772   3.44109 
 H                     4.21872   0.40524   3.33393 
 H                     4.51244  -0.83777  -0.82935 
 H                     4.269    -2.73037  -2.34932 
 H                     2.83461  -4.38028  -3.48814 
 H                     0.40284  -4.38856  -3.08673 
 H                    -0.60851  -2.76871  -1.54343 
 H                    -0.09594   0.95787  -1.33731 
 H                    -6.06106   0.29255  -1.23655 
 H                    -6.1086    1.13535   0.30094 
 H                    -6.39733   2.00883  -1.18561 
 H                    -2.54666   2.29607  -2.87916 
 H                    -4.23933   2.68403  -3.1458 
 H                    -3.67304   1.03519  -3.33457 
 H                    -4.03976   2.9983    1.16707 
 H                    -4.04345   4.02051  -0.26781 
 H                    -1.62549   3.85978  -0.47703 
 H                    -1.90468   2.60697   2.29579 
 H                    -0.37537   3.26229   1.53245 
 H                    -4.56438  -0.78591   0.81997 
 H                    -4.37362  -2.77465   2.21917 
 H                    -2.98318  -4.52681   3.25531 
 H                    -0.55023  -4.56567   2.86388 
 H                     0.50646  -2.87459   1.43061 
 H                     0.09888   0.8828    1.45123 
 
 ITRead=  0  0  0  0  0  0  0  0  0  0  0  0  0  0  0  0  0  0  0  0
 ITRead=  0  0  0  0  0  0  0  0  0  0  0  0  0  0  0  0  0  0  0  0
 ITRead=  0  0  0  0  0  0  0  0  0  0  0  0  0  0  0  0  0  0  0  0
 ITRead=  0  0  0  0  0  0  0  0
 MicOpt= -1 -1 -1 -1 -1 -1 -1 -1 -1 -1 -1 -1 -1 -1 -1 -1 -1 -1 -1 -1
 MicOpt= -1 -1 -1 -1 -1 -1 -1 -1 -1 -1 -1 -1 -1 -1 -1 -1 -1 -1 -1 -1
 MicOpt= -1 -1 -1 -1 -1 -1 -1 -1 -1 -1 -1 -1 -1 -1 -1 -1 -1 -1 -1 -1
 MicOpt= -1 -1 -1 -1 -1 -1 -1 -1
 NAtoms=     68 NQM=       68 NQMF=       0 NMMI=      0 NMMIF=      0
                NMic=       0 NMicF=      0.
                    Isotopes and Nuclear Properties:
 (Nuclear quadrupole moments (NQMom) in fm**2, nuclear magnetic moments (NMagM)
  in nuclear magnetons)

  Atom         1           2           3           4           5           6           7           8           9          10
 IAtWgt=          12          12          12          28          12          12          12          12          12          12
 AtmWgt=  12.0000000  12.0000000  12.0000000  27.9769284  12.0000000  12.0000000  12.0000000  12.0000000  12.0000000  12.0000000
 NucSpn=           0           0           0           0           0           0           0           0           0           0
 AtZEff=  -0.0000000  -0.0000000  -0.0000000  -0.0000000  -0.0000000  -0.0000000  -0.0000000  -0.0000000  -0.0000000  -0.0000000
 NQMom=    0.0000000   0.0000000   0.0000000   0.0000000   0.0000000   0.0000000   0.0000000   0.0000000   0.0000000   0.0000000
 NMagM=    0.0000000   0.0000000   0.0000000   0.0000000   0.0000000   0.0000000   0.0000000   0.0000000   0.0000000   0.0000000
 AtZNuc=   6.0000000   6.0000000   6.0000000  14.0000000   6.0000000   6.0000000   6.0000000   6.0000000   6.0000000   6.0000000

  Atom        11          12          13          14          15          16          17          18          19          20
 IAtWgt=          12          12          12          12          12          12          12          16          12          28
 AtmWgt=  12.0000000  12.0000000  12.0000000  12.0000000  12.0000000  12.0000000  12.0000000  15.9949146  12.0000000  27.9769284
 NucSpn=           0           0           0           0           0           0           0           0           0           0
 AtZEff=  -0.0000000  -0.0000000  -0.0000000  -0.0000000  -0.0000000  -0.0000000  -0.0000000  -0.0000000  -0.0000000  -0.0000000
 NQMom=    0.0000000   0.0000000   0.0000000   0.0000000   0.0000000   0.0000000   0.0000000   0.0000000   0.0000000   0.0000000
 NMagM=    0.0000000   0.0000000   0.0000000   0.0000000   0.0000000   0.0000000   0.0000000   0.0000000   0.0000000   0.0000000
 AtZNuc=   6.0000000   6.0000000   6.0000000   6.0000000   6.0000000   6.0000000   6.0000000   8.0000000   6.0000000  14.0000000

  Atom        21          22          23          24          25          26          27          28          29          30
 IAtWgt=          12          12          12          12          12          12          12          12          12          12
 AtmWgt=  12.0000000  12.0000000  12.0000000  12.0000000  12.0000000  12.0000000  12.0000000  12.0000000  12.0000000  12.0000000
 NucSpn=           0           0           0           0           0           0           0           0           0           0
 AtZEff=  -0.0000000  -0.0000000  -0.0000000  -0.0000000  -0.0000000  -0.0000000  -0.0000000  -0.0000000  -0.0000000  -0.0000000
 NQMom=    0.0000000   0.0000000   0.0000000   0.0000000   0.0000000   0.0000000   0.0000000   0.0000000   0.0000000   0.0000000
 NMagM=    0.0000000   0.0000000   0.0000000   0.0000000   0.0000000   0.0000000   0.0000000   0.0000000   0.0000000   0.0000000
 AtZNuc=   6.0000000   6.0000000   6.0000000   6.0000000   6.0000000   6.0000000   6.0000000   6.0000000   6.0000000   6.0000000

  Atom        31          32          33          34          35          36          37          38          39          40
 IAtWgt=          12          12          12          16           1           1           1           1           1           1
 AtmWgt=  12.0000000  12.0000000  12.0000000  15.9949146   1.0078250   1.0078250   1.0078250   1.0078250   1.0078250   1.0078250
 NucSpn=           0           0           0           0           1           1           1           1           1           1
 AtZEff=  -0.0000000  -0.0000000  -0.0000000  -0.0000000  -0.0000000  -0.0000000  -0.0000000  -0.0000000  -0.0000000  -0.0000000
 NQMom=    0.0000000   0.0000000   0.0000000   0.0000000   0.0000000   0.0000000   0.0000000   0.0000000   0.0000000   0.0000000
 NMagM=    0.0000000   0.0000000   0.0000000   0.0000000   2.7928460   2.7928460   2.7928460   2.7928460   2.7928460   2.7928460
 AtZNuc=   6.0000000   6.0000000   6.0000000   8.0000000   1.0000000   1.0000000   1.0000000   1.0000000   1.0000000   1.0000000

  Atom        41          42          43          44          45          46          47          48          49          50
 IAtWgt=           1           1           1           1           1           1           1           1           1           1
 AtmWgt=   1.0078250   1.0078250   1.0078250   1.0078250   1.0078250   1.0078250   1.0078250   1.0078250   1.0078250   1.0078250
 NucSpn=           1           1           1           1           1           1           1           1           1           1
 AtZEff=  -0.0000000  -0.0000000  -0.0000000  -0.0000000  -0.0000000  -0.0000000  -0.0000000  -0.0000000  -0.0000000  -0.0000000
 NQMom=    0.0000000   0.0000000   0.0000000   0.0000000   0.0000000   0.0000000   0.0000000   0.0000000   0.0000000   0.0000000
 NMagM=    2.7928460   2.7928460   2.7928460   2.7928460   2.7928460   2.7928460   2.7928460   2.7928460   2.7928460   2.7928460
 AtZNuc=   1.0000000   1.0000000   1.0000000   1.0000000   1.0000000   1.0000000   1.0000000   1.0000000   1.0000000   1.0000000

  Atom        51          52          53          54          55          56          57          58          59          60
 IAtWgt=           1           1           1           1           1           1           1           1           1           1
 AtmWgt=   1.0078250   1.0078250   1.0078250   1.0078250   1.0078250   1.0078250   1.0078250   1.0078250   1.0078250   1.0078250
 NucSpn=           1           1           1           1           1           1           1           1           1           1
 AtZEff=  -0.0000000  -0.0000000  -0.0000000  -0.0000000  -0.0000000  -0.0000000  -0.0000000  -0.0000000  -0.0000000  -0.0000000
 NQMom=    0.0000000   0.0000000   0.0000000   0.0000000   0.0000000   0.0000000   0.0000000   0.0000000   0.0000000   0.0000000
 NMagM=    2.7928460   2.7928460   2.7928460   2.7928460   2.7928460   2.7928460   2.7928460   2.7928460   2.7928460   2.7928460
 AtZNuc=   1.0000000   1.0000000   1.0000000   1.0000000   1.0000000   1.0000000   1.0000000   1.0000000   1.0000000   1.0000000

  Atom        61          62          63          64          65          66          67          68
 IAtWgt=           1           1           1           1           1           1           1           1
 AtmWgt=   1.0078250   1.0078250   1.0078250   1.0078250   1.0078250   1.0078250   1.0078250   1.0078250
 NucSpn=           1           1           1           1           1           1           1           1
 AtZEff=  -0.0000000  -0.0000000  -0.0000000  -0.0000000  -0.0000000  -0.0000000  -0.0000000  -0.0000000
 NQMom=    0.0000000   0.0000000   0.0000000   0.0000000   0.0000000   0.0000000   0.0000000   0.0000000
 NMagM=    2.7928460   2.7928460   2.7928460   2.7928460   2.7928460   2.7928460   2.7928460   2.7928460
 AtZNuc=   1.0000000   1.0000000   1.0000000   1.0000000   1.0000000   1.0000000   1.0000000   1.0000000
 Leave Link  101 at Thu Jan 23 10:07:44 2025, MaxMem= 13421772800 cpu:               3.8 elap:               0.1
 (Enter /public/software/apps/Gaussian/g16/l103.exe)

 GradGradGradGradGradGradGradGradGradGradGradGradGradGradGradGradGradGrad
 Berny optimization.
 Initialization pass.
                           ----------------------------
                           !    Initial Parameters    !
                           ! (Angstroms and Degrees)  !
 --------------------------                            --------------------------
 ! Name  Definition              Value          Derivative Info.                !
 --------------------------------------------------------------------------------
 ! R1    R(1,2)                  1.3215         estimate D2E/DX2                !
 ! R2    R(1,35)                 1.0774         estimate D2E/DX2                !
 ! R3    R(1,36)                 1.0775         estimate D2E/DX2                !
 ! R4    R(2,3)                  1.4857         estimate D2E/DX2                !
 ! R5    R(2,37)                 1.0829         estimate D2E/DX2                !
 ! R6    R(3,4)                  1.9272         estimate D2E/DX2                !
 ! R7    R(3,38)                 1.0882         estimate D2E/DX2                !
 ! R8    R(3,39)                 1.0904         estimate D2E/DX2                !
 ! R9    R(4,5)                  1.9083         estimate D2E/DX2                !
 ! R10   R(4,6)                  1.9046         estimate D2E/DX2                !
 ! R11   R(4,7)                  1.8956         estimate D2E/DX2                !
 ! R12   R(5,40)                 1.0854         estimate D2E/DX2                !
 ! R13   R(5,41)                 1.0854         estimate D2E/DX2                !
 ! R14   R(5,42)                 1.0855         estimate D2E/DX2                !
 ! R15   R(6,43)                 1.084          estimate D2E/DX2                !
 ! R16   R(6,44)                 1.0856         estimate D2E/DX2                !
 ! R17   R(6,45)                 1.0856         estimate D2E/DX2                !
 ! R18   R(7,8)                  1.3681         estimate D2E/DX2                !
 ! R19   R(7,33)                 1.4134         estimate D2E/DX2                !
 ! R20   R(8,9)                  1.4104         estimate D2E/DX2                !
 ! R21   R(8,46)                 1.0796         estimate D2E/DX2                !
 ! R22   R(9,10)                 1.4096         estimate D2E/DX2                !
 ! R23   R(9,14)                 1.4184         estimate D2E/DX2                !
 ! R24   R(10,11)                1.367          estimate D2E/DX2                !
 ! R25   R(10,47)                1.0809         estimate D2E/DX2                !
 ! R26   R(11,12)                1.4026         estimate D2E/DX2                !
 ! R27   R(11,48)                1.0802         estimate D2E/DX2                !
 ! R28   R(12,13)                1.3672         estimate D2E/DX2                !
 ! R29   R(12,49)                1.0802         estimate D2E/DX2                !
 ! R30   R(13,14)                1.41           estimate D2E/DX2                !
 ! R31   R(13,50)                1.0803         estimate D2E/DX2                !
 ! R32   R(14,15)                1.4189         estimate D2E/DX2                !
 ! R33   R(15,16)                1.4871         estimate D2E/DX2                !
 ! R34   R(15,33)                1.3789         estimate D2E/DX2                !
 ! R35   R(16,17)                1.3799         estimate D2E/DX2                !
 ! R36   R(16,32)                1.4183         estimate D2E/DX2                !
 ! R37   R(17,18)                1.3589         estimate D2E/DX2                !
 ! R38   R(17,19)                1.4141         estimate D2E/DX2                !
 ! R39   R(18,51)                0.9691         estimate D2E/DX2                !
 ! R40   R(19,20)                1.897          estimate D2E/DX2                !
 ! R41   R(19,26)                1.3694         estimate D2E/DX2                !
 ! R42   R(20,21)                1.9087         estimate D2E/DX2                !
 ! R43   R(20,22)                1.9044         estimate D2E/DX2                !
 ! R44   R(20,23)                1.9291         estimate D2E/DX2                !
 ! R45   R(21,52)                1.0851         estimate D2E/DX2                !
 ! R46   R(21,53)                1.0851         estimate D2E/DX2                !
 ! R47   R(21,54)                1.0851         estimate D2E/DX2                !
 ! R48   R(22,55)                1.0837         estimate D2E/DX2                !
 ! R49   R(22,56)                1.0863         estimate D2E/DX2                !
 ! R50   R(22,57)                1.0858         estimate D2E/DX2                !
 ! R51   R(23,24)                1.4843         estimate D2E/DX2                !
 ! R52   R(23,58)                1.0908         estimate D2E/DX2                !
 ! R53   R(23,59)                1.09           estimate D2E/DX2                !
 ! R54   R(24,25)                1.3221         estimate D2E/DX2                !
 ! R55   R(24,60)                1.0816         estimate D2E/DX2                !
 ! R56   R(25,61)                1.0791         estimate D2E/DX2                !
 ! R57   R(25,62)                1.0769         estimate D2E/DX2                !
 ! R58   R(26,27)                1.4099         estimate D2E/DX2                !
 ! R59   R(26,63)                1.0796         estimate D2E/DX2                !
 ! R60   R(27,28)                1.4098         estimate D2E/DX2                !
 ! R61   R(27,32)                1.4183         estimate D2E/DX2                !
 ! R62   R(28,29)                1.3669         estimate D2E/DX2                !
 ! R63   R(28,64)                1.0809         estimate D2E/DX2                !
 ! R64   R(29,30)                1.4029         estimate D2E/DX2                !
 ! R65   R(29,65)                1.0802         estimate D2E/DX2                !
 ! R66   R(30,31)                1.3671         estimate D2E/DX2                !
 ! R67   R(30,66)                1.0802         estimate D2E/DX2                !
 ! R68   R(31,32)                1.4102         estimate D2E/DX2                !
 ! R69   R(31,67)                1.0802         estimate D2E/DX2                !
 ! R70   R(33,34)                1.3596         estimate D2E/DX2                !
 ! R71   R(34,68)                0.9689         estimate D2E/DX2                !
 ! A1    A(2,1,35)             122.1912         estimate D2E/DX2                !
 ! A2    A(2,1,36)             121.3997         estimate D2E/DX2                !
 ! A3    A(35,1,36)            116.3978         estimate D2E/DX2                !
 ! A4    A(1,2,3)              124.6201         estimate D2E/DX2                !
 ! A5    A(1,2,37)             119.8483         estimate D2E/DX2                !
 ! A6    A(3,2,37)             115.4942         estimate D2E/DX2                !
 ! A7    A(2,3,4)              110.8345         estimate D2E/DX2                !
 ! A8    A(2,3,38)             109.8338         estimate D2E/DX2                !
 ! A9    A(2,3,39)             109.7144         estimate D2E/DX2                !
 ! A10   A(4,3,38)             109.6979         estimate D2E/DX2                !
 ! A11   A(4,3,39)             108.7572         estimate D2E/DX2                !
 ! A12   A(38,3,39)            107.9461         estimate D2E/DX2                !
 ! A13   A(3,4,5)              108.6677         estimate D2E/DX2                !
 ! A14   A(3,4,6)              110.891          estimate D2E/DX2                !
 ! A15   A(3,4,7)              107.2454         estimate D2E/DX2                !
 ! A16   A(5,4,6)              109.2627         estimate D2E/DX2                !
 ! A17   A(5,4,7)              108.7533         estimate D2E/DX2                !
 ! A18   A(6,4,7)              111.9349         estimate D2E/DX2                !
 ! A19   A(4,5,40)             111.5586         estimate D2E/DX2                !
 ! A20   A(4,5,41)             110.5463         estimate D2E/DX2                !
 ! A21   A(4,5,42)             111.8605         estimate D2E/DX2                !
 ! A22   A(40,5,41)            107.3645         estimate D2E/DX2                !
 ! A23   A(40,5,42)            107.8258         estimate D2E/DX2                !
 ! A24   A(41,5,42)            107.4779         estimate D2E/DX2                !
 ! A25   A(4,6,43)             111.2209         estimate D2E/DX2                !
 ! A26   A(4,6,44)             110.9798         estimate D2E/DX2                !
 ! A27   A(4,6,45)             110.9684         estimate D2E/DX2                !
 ! A28   A(43,6,44)            107.9735         estimate D2E/DX2                !
 ! A29   A(43,6,45)            107.832          estimate D2E/DX2                !
 ! A30   A(44,6,45)            107.7157         estimate D2E/DX2                !
 ! A31   A(4,7,8)              124.4224         estimate D2E/DX2                !
 ! A32   A(4,7,33)             117.2901         estimate D2E/DX2                !
 ! A33   A(8,7,33)             118.2237         estimate D2E/DX2                !
 ! A34   A(7,8,9)              122.1133         estimate D2E/DX2                !
 ! A35   A(7,8,46)             119.6737         estimate D2E/DX2                !
 ! A36   A(9,8,46)             118.2128         estimate D2E/DX2                !
 ! A37   A(8,9,10)             121.9197         estimate D2E/DX2                !
 ! A38   A(8,9,14)             119.1017         estimate D2E/DX2                !
 ! A39   A(10,9,14)            118.9775         estimate D2E/DX2                !
 ! A40   A(9,10,11)            120.8508         estimate D2E/DX2                !
 ! A41   A(9,10,47)            118.4906         estimate D2E/DX2                !
 ! A42   A(11,10,47)           120.6586         estimate D2E/DX2                !
 ! A43   A(10,11,12)           120.0964         estimate D2E/DX2                !
 ! A44   A(10,11,48)           120.4211         estimate D2E/DX2                !
 ! A45   A(12,11,48)           119.4823         estimate D2E/DX2                !
 ! A46   A(11,12,13)           120.5298         estimate D2E/DX2                !
 ! A47   A(11,12,49)           119.4092         estimate D2E/DX2                !
 ! A48   A(13,12,49)           120.061          estimate D2E/DX2                !
 ! A49   A(12,13,14)           120.6494         estimate D2E/DX2                !
 ! A50   A(12,13,50)           120.4182         estimate D2E/DX2                !
 ! A51   A(14,13,50)           118.9323         estimate D2E/DX2                !
 ! A52   A(9,14,13)            118.8922         estimate D2E/DX2                !
 ! A53   A(9,14,15)            118.9648         estimate D2E/DX2                !
 ! A54   A(13,14,15)           122.1429         estimate D2E/DX2                !
 ! A55   A(14,15,16)           120.539          estimate D2E/DX2                !
 ! A56   A(14,15,33)           119.5782         estimate D2E/DX2                !
 ! A57   A(16,15,33)           119.8828         estimate D2E/DX2                !
 ! A58   A(15,16,17)           119.7474         estimate D2E/DX2                !
 ! A59   A(15,16,32)           120.5097         estimate D2E/DX2                !
 ! A60   A(17,16,32)           119.7429         estimate D2E/DX2                !
 ! A61   A(16,17,18)           121.9195         estimate D2E/DX2                !
 ! A62   A(16,17,19)           121.9085         estimate D2E/DX2                !
 ! A63   A(18,17,19)           116.17           estimate D2E/DX2                !
 ! A64   A(17,18,51)           110.3309         estimate D2E/DX2                !
 ! A65   A(17,19,20)           118.5326         estimate D2E/DX2                !
 ! A66   A(17,19,26)           118.1028         estimate D2E/DX2                !
 ! A67   A(20,19,26)           123.2968         estimate D2E/DX2                !
 ! A68   A(19,20,21)           108.7882         estimate D2E/DX2                !
 ! A69   A(19,20,22)           113.6041         estimate D2E/DX2                !
 ! A70   A(19,20,23)           106.8087         estimate D2E/DX2                !
 ! A71   A(21,20,22)           108.3988         estimate D2E/DX2                !
 ! A72   A(21,20,23)           107.2198         estimate D2E/DX2                !
 ! A73   A(22,20,23)           111.8024         estimate D2E/DX2                !
 ! A74   A(20,21,52)           111.3779         estimate D2E/DX2                !
 ! A75   A(20,21,53)           112.0813         estimate D2E/DX2                !
 ! A76   A(20,21,54)           110.5526         estimate D2E/DX2                !
 ! A77   A(52,21,53)           107.8384         estimate D2E/DX2                !
 ! A78   A(52,21,54)           107.4558         estimate D2E/DX2                !
 ! A79   A(53,21,54)           107.3239         estimate D2E/DX2                !
 ! A80   A(20,22,55)           111.481          estimate D2E/DX2                !
 ! A81   A(20,22,56)           110.6745         estimate D2E/DX2                !
 ! A82   A(20,22,57)           111.1181         estimate D2E/DX2                !
 ! A83   A(55,22,56)           108.1203         estimate D2E/DX2                !
 ! A84   A(55,22,57)           107.6202         estimate D2E/DX2                !
 ! A85   A(56,22,57)           107.6697         estimate D2E/DX2                !
 ! A86   A(20,23,24)           112.7502         estimate D2E/DX2                !
 ! A87   A(20,23,58)           108.4801         estimate D2E/DX2                !
 ! A88   A(20,23,59)           108.5307         estimate D2E/DX2                !
 ! A89   A(24,23,58)           109.5757         estimate D2E/DX2                !
 ! A90   A(24,23,59)           109.6            estimate D2E/DX2                !
 ! A91   A(58,23,59)           107.7726         estimate D2E/DX2                !
 ! A92   A(23,24,25)           124.4467         estimate D2E/DX2                !
 ! A93   A(23,24,60)           115.4647         estimate D2E/DX2                !
 ! A94   A(25,24,60)           120.0688         estimate D2E/DX2                !
 ! A95   A(24,25,61)           121.408          estimate D2E/DX2                !
 ! A96   A(24,25,62)           122.3725         estimate D2E/DX2                !
 ! A97   A(61,25,62)           116.2118         estimate D2E/DX2                !
 ! A98   A(19,26,27)           122.2727         estimate D2E/DX2                !
 ! A99   A(19,26,63)           119.5899         estimate D2E/DX2                !
 ! A100  A(27,26,63)           118.1373         estimate D2E/DX2                !
 ! A101  A(26,27,28)           121.9528         estimate D2E/DX2                !
 ! A102  A(26,27,32)           119.0565         estimate D2E/DX2                !
 ! A103  A(28,27,32)           118.9897         estimate D2E/DX2                !
 ! A104  A(27,28,29)           120.8253         estimate D2E/DX2                !
 ! A105  A(27,28,64)           118.5016         estimate D2E/DX2                !
 ! A106  A(29,28,64)           120.6731         estimate D2E/DX2                !
 ! A107  A(28,29,30)           120.1086         estimate D2E/DX2                !
 ! A108  A(28,29,65)           120.4183         estimate D2E/DX2                !
 ! A109  A(30,29,65)           119.4729         estimate D2E/DX2                !
 ! A110  A(29,30,31)           120.5421         estimate D2E/DX2                !
 ! A111  A(29,30,66)           119.396          estimate D2E/DX2                !
 ! A112  A(31,30,66)           120.0618         estimate D2E/DX2                !
 ! A113  A(30,31,32)           120.6246         estimate D2E/DX2                !
 ! A114  A(30,31,67)           120.4509         estimate D2E/DX2                !
 ! A115  A(32,31,67)           118.9244         estimate D2E/DX2                !
 ! A116  A(16,32,27)           118.9073         estimate D2E/DX2                !
 ! A117  A(16,32,31)           122.1871         estimate D2E/DX2                !
 ! A118  A(27,32,31)           118.9055         estimate D2E/DX2                !
 ! A119  A(7,33,15)            122.0096         estimate D2E/DX2                !
 ! A120  A(7,33,34)            115.7993         estimate D2E/DX2                !
 ! A121  A(15,33,34)           122.1905         estimate D2E/DX2                !
 ! A122  A(33,34,68)           110.3203         estimate D2E/DX2                !
 ! D1    D(35,1,2,3)          -178.387          estimate D2E/DX2                !
 ! D2    D(35,1,2,37)           -0.7169         estimate D2E/DX2                !
 ! D3    D(36,1,2,3)             2.8763         estimate D2E/DX2                !
 ! D4    D(36,1,2,37)         -179.4536         estimate D2E/DX2                !
 ! D5    D(1,2,3,4)            108.0662         estimate D2E/DX2                !
 ! D6    D(1,2,3,38)           -13.3094         estimate D2E/DX2                !
 ! D7    D(1,2,3,39)          -131.8118         estimate D2E/DX2                !
 ! D8    D(37,2,3,4)           -69.695          estimate D2E/DX2                !
 ! D9    D(37,2,3,38)          168.9293         estimate D2E/DX2                !
 ! D10   D(37,2,3,39)           50.427          estimate D2E/DX2                !
 ! D11   D(2,3,4,5)             78.8085         estimate D2E/DX2                !
 ! D12   D(2,3,4,6)           -161.0806         estimate D2E/DX2                !
 ! D13   D(2,3,4,7)            -38.5913         estimate D2E/DX2                !
 ! D14   D(38,3,4,5)          -159.7359         estimate D2E/DX2                !
 ! D15   D(38,3,4,6)           -39.6251         estimate D2E/DX2                !
 ! D16   D(38,3,4,7)            82.8643         estimate D2E/DX2                !
 ! D17   D(39,3,4,5)           -41.8827         estimate D2E/DX2                !
 ! D18   D(39,3,4,6)            78.2282         estimate D2E/DX2                !
 ! D19   D(39,3,4,7)          -159.2824         estimate D2E/DX2                !
 ! D20   D(3,4,5,40)          -177.6575         estimate D2E/DX2                !
 ! D21   D(3,4,5,41)            62.9505         estimate D2E/DX2                !
 ! D22   D(3,4,5,42)           -56.7827         estimate D2E/DX2                !
 ! D23   D(6,4,5,40)            61.2258         estimate D2E/DX2                !
 ! D24   D(6,4,5,41)           -58.1662         estimate D2E/DX2                !
 ! D25   D(6,4,5,42)          -177.8994         estimate D2E/DX2                !
 ! D26   D(7,4,5,40)           -61.2227         estimate D2E/DX2                !
 ! D27   D(7,4,5,41)           179.3853         estimate D2E/DX2                !
 ! D28   D(7,4,5,42)            59.6521         estimate D2E/DX2                !
 ! D29   D(3,4,6,43)            60.4783         estimate D2E/DX2                !
 ! D30   D(3,4,6,44)           -59.7483         estimate D2E/DX2                !
 ! D31   D(3,4,6,45)          -179.4817         estimate D2E/DX2                !
 ! D32   D(5,4,6,43)          -179.766          estimate D2E/DX2                !
 ! D33   D(5,4,6,44)            60.0075         estimate D2E/DX2                !
 ! D34   D(5,4,6,45)           -59.7259         estimate D2E/DX2                !
 ! D35   D(7,4,6,43)           -59.244          estimate D2E/DX2                !
 ! D36   D(7,4,6,44)          -179.4706         estimate D2E/DX2                !
 ! D37   D(7,4,6,45)            60.796          estimate D2E/DX2                !
 ! D38   D(3,4,7,8)            116.4084         estimate D2E/DX2                !
 ! D39   D(3,4,7,33)           -60.6271         estimate D2E/DX2                !
 ! D40   D(5,4,7,8)             -0.9353         estimate D2E/DX2                !
 ! D41   D(5,4,7,33)          -177.9709         estimate D2E/DX2                !
 ! D42   D(6,4,7,8)           -121.7532         estimate D2E/DX2                !
 ! D43   D(6,4,7,33)            61.2113         estimate D2E/DX2                !
 ! D44   D(4,7,8,9)           -176.5426         estimate D2E/DX2                !
 ! D45   D(4,7,8,46)             3.2851         estimate D2E/DX2                !
 ! D46   D(33,7,8,9)             0.4674         estimate D2E/DX2                !
 ! D47   D(33,7,8,46)         -179.7049         estimate D2E/DX2                !
 ! D48   D(4,7,33,15)          176.4163         estimate D2E/DX2                !
 ! D49   D(4,7,33,34)           -3.8636         estimate D2E/DX2                !
 ! D50   D(8,7,33,15)           -0.8086         estimate D2E/DX2                !
 ! D51   D(8,7,33,34)          178.9116         estimate D2E/DX2                !
 ! D52   D(7,8,9,10)           179.99           estimate D2E/DX2                !
 ! D53   D(7,8,9,14)             0.3862         estimate D2E/DX2                !
 ! D54   D(46,8,9,10)            0.1599         estimate D2E/DX2                !
 ! D55   D(46,8,9,14)         -179.444          estimate D2E/DX2                !
 ! D56   D(8,9,10,11)         -179.3723         estimate D2E/DX2                !
 ! D57   D(8,9,10,47)            0.5938         estimate D2E/DX2                !
 ! D58   D(14,9,10,11)           0.232          estimate D2E/DX2                !
 ! D59   D(14,9,10,47)        -179.8019         estimate D2E/DX2                !
 ! D60   D(8,9,14,13)          178.9381         estimate D2E/DX2                !
 ! D61   D(8,9,14,15)           -0.9181         estimate D2E/DX2                !
 ! D62   D(10,9,14,13)          -0.6775         estimate D2E/DX2                !
 ! D63   D(10,9,14,15)         179.4663         estimate D2E/DX2                !
 ! D64   D(9,10,11,12)           0.2458         estimate D2E/DX2                !
 ! D65   D(9,10,11,48)        -179.9127         estimate D2E/DX2                !
 ! D66   D(47,10,11,12)       -179.7195         estimate D2E/DX2                !
 ! D67   D(47,10,11,48)          0.1219         estimate D2E/DX2                !
 ! D68   D(10,11,12,13)         -0.2715         estimate D2E/DX2                !
 ! D69   D(10,11,12,49)        179.6954         estimate D2E/DX2                !
 ! D70   D(48,11,12,13)        179.8856         estimate D2E/DX2                !
 ! D71   D(48,11,12,49)         -0.1475         estimate D2E/DX2                !
 ! D72   D(11,12,13,14)         -0.1911         estimate D2E/DX2                !
 ! D73   D(11,12,13,50)        179.9663         estimate D2E/DX2                !
 ! D74   D(49,12,13,14)        179.8423         estimate D2E/DX2                !
 ! D75   D(49,12,13,50)         -0.0004         estimate D2E/DX2                !
 ! D76   D(12,13,14,9)           0.6631         estimate D2E/DX2                !
 ! D77   D(12,13,14,15)       -179.4855         estimate D2E/DX2                !
 ! D78   D(50,13,14,9)        -179.4919         estimate D2E/DX2                !
 ! D79   D(50,13,14,15)          0.3595         estimate D2E/DX2                !
 ! D80   D(9,14,15,16)        -179.4904         estimate D2E/DX2                !
 ! D81   D(9,14,15,33)           0.597          estimate D2E/DX2                !
 ! D82   D(13,14,15,16)          0.6582         estimate D2E/DX2                !
 ! D83   D(13,14,15,33)       -179.2543         estimate D2E/DX2                !
 ! D84   D(14,15,16,17)       -104.2405         estimate D2E/DX2                !
 ! D85   D(14,15,16,32)         75.7481         estimate D2E/DX2                !
 ! D86   D(33,15,16,17)         75.6718         estimate D2E/DX2                !
 ! D87   D(33,15,16,32)       -104.3395         estimate D2E/DX2                !
 ! D88   D(14,15,33,7)           0.2727         estimate D2E/DX2                !
 ! D89   D(14,15,33,34)       -179.4296         estimate D2E/DX2                !
 ! D90   D(16,15,33,7)        -179.6405         estimate D2E/DX2                !
 ! D91   D(16,15,33,34)          0.6572         estimate D2E/DX2                !
 ! D92   D(15,16,17,18)          0.5124         estimate D2E/DX2                !
 ! D93   D(15,16,17,19)        179.9753         estimate D2E/DX2                !
 ! D94   D(32,16,17,18)       -179.4764         estimate D2E/DX2                !
 ! D95   D(32,16,17,19)         -0.0135         estimate D2E/DX2                !
 ! D96   D(15,16,32,27)       -179.1567         estimate D2E/DX2                !
 ! D97   D(15,16,32,31)          0.9829         estimate D2E/DX2                !
 ! D98   D(17,16,32,27)          0.832          estimate D2E/DX2                !
 ! D99   D(17,16,32,31)       -179.0284         estimate D2E/DX2                !
 ! D100  D(16,17,18,51)         -0.6667         estimate D2E/DX2                !
 ! D101  D(19,17,18,51)        179.8413         estimate D2E/DX2                !
 ! D102  D(16,17,19,20)        176.4011         estimate D2E/DX2                !
 ! D103  D(16,17,19,26)         -0.7048         estimate D2E/DX2                !
 ! D104  D(18,17,19,20)         -4.1069         estimate D2E/DX2                !
 ! D105  D(18,17,19,26)        178.7873         estimate D2E/DX2                !
 ! D106  D(17,19,20,21)        168.2258         estimate D2E/DX2                !
 ! D107  D(17,19,20,22)         47.3958         estimate D2E/DX2                !
 ! D108  D(17,19,20,23)        -76.3431         estimate D2E/DX2                !
 ! D109  D(26,19,20,21)        -14.8287         estimate D2E/DX2                !
 ! D110  D(26,19,20,22)       -135.6587         estimate D2E/DX2                !
 ! D111  D(26,19,20,23)        100.6024         estimate D2E/DX2                !
 ! D112  D(17,19,26,27)          0.5998         estimate D2E/DX2                !
 ! D113  D(17,19,26,63)       -179.4549         estimate D2E/DX2                !
 ! D114  D(20,19,26,27)       -176.3581         estimate D2E/DX2                !
 ! D115  D(20,19,26,63)          3.5872         estimate D2E/DX2                !
 ! D116  D(19,20,21,52)        -58.2101         estimate D2E/DX2                !
 ! D117  D(19,20,21,53)         62.708          estimate D2E/DX2                !
 ! D118  D(19,20,21,54)       -177.6032         estimate D2E/DX2                !
 ! D119  D(22,20,21,52)         65.7695         estimate D2E/DX2                !
 ! D120  D(22,20,21,53)       -173.3125         estimate D2E/DX2                !
 ! D121  D(22,20,21,54)        -53.6237         estimate D2E/DX2                !
 ! D122  D(23,20,21,52)       -173.3749         estimate D2E/DX2                !
 ! D123  D(23,20,21,53)        -52.4569         estimate D2E/DX2                !
 ! D124  D(23,20,21,54)         67.2319         estimate D2E/DX2                !
 ! D125  D(19,20,22,55)        -66.7844         estimate D2E/DX2                !
 ! D126  D(19,20,22,56)        172.8354         estimate D2E/DX2                !
 ! D127  D(19,20,22,57)         53.2628         estimate D2E/DX2                !
 ! D128  D(21,20,22,55)        172.167          estimate D2E/DX2                !
 ! D129  D(21,20,22,56)         51.7869         estimate D2E/DX2                !
 ! D130  D(21,20,22,57)        -67.7858         estimate D2E/DX2                !
 ! D131  D(23,20,22,55)         54.1923         estimate D2E/DX2                !
 ! D132  D(23,20,22,56)        -66.1878         estimate D2E/DX2                !
 ! D133  D(23,20,22,57)        174.2395         estimate D2E/DX2                !
 ! D134  D(19,20,23,24)         52.1868         estimate D2E/DX2                !
 ! D135  D(19,20,23,58)        -69.3615         estimate D2E/DX2                !
 ! D136  D(19,20,23,59)        173.8012         estimate D2E/DX2                !
 ! D137  D(21,20,23,24)        168.6651         estimate D2E/DX2                !
 ! D138  D(21,20,23,58)         47.1167         estimate D2E/DX2                !
 ! D139  D(21,20,23,59)        -69.7205         estimate D2E/DX2                !
 ! D140  D(22,20,23,24)        -72.6575         estimate D2E/DX2                !
 ! D141  D(22,20,23,58)        165.7941         estimate D2E/DX2                !
 ! D142  D(22,20,23,59)         48.9569         estimate D2E/DX2                !
 ! D143  D(20,23,24,25)       -101.0172         estimate D2E/DX2                !
 ! D144  D(20,23,24,60)         77.3555         estimate D2E/DX2                !
 ! D145  D(58,23,24,25)         19.9081         estimate D2E/DX2                !
 ! D146  D(58,23,24,60)       -161.7192         estimate D2E/DX2                !
 ! D147  D(59,23,24,25)        137.976          estimate D2E/DX2                !
 ! D148  D(59,23,24,60)        -43.6514         estimate D2E/DX2                !
 ! D149  D(23,24,25,61)         -1.447          estimate D2E/DX2                !
 ! D150  D(23,24,25,62)        179.6007         estimate D2E/DX2                !
 ! D151  D(60,24,25,61)       -179.7493         estimate D2E/DX2                !
 ! D152  D(60,24,25,62)          1.2984         estimate D2E/DX2                !
 ! D153  D(19,26,27,28)        179.8473         estimate D2E/DX2                !
 ! D154  D(19,26,27,32)          0.21           estimate D2E/DX2                !
 ! D155  D(63,26,27,28)         -0.0988         estimate D2E/DX2                !
 ! D156  D(63,26,27,32)       -179.736          estimate D2E/DX2                !
 ! D157  D(26,27,28,29)       -179.3561         estimate D2E/DX2                !
 ! D158  D(26,27,28,64)          0.5931         estimate D2E/DX2                !
 ! D159  D(32,27,28,29)          0.2814         estimate D2E/DX2                !
 ! D160  D(32,27,28,64)       -179.7694         estimate D2E/DX2                !
 ! D161  D(26,27,32,16)         -0.9282         estimate D2E/DX2                !
 ! D162  D(26,27,32,31)        178.9368         estimate D2E/DX2                !
 ! D163  D(28,27,32,16)        179.4236         estimate D2E/DX2                !
 ! D164  D(28,27,32,31)         -0.7113         estimate D2E/DX2                !
 ! D165  D(27,28,29,30)          0.227          estimate D2E/DX2                !
 ! D166  D(27,28,29,65)       -179.9372         estimate D2E/DX2                !
 ! D167  D(64,28,29,30)       -179.7212         estimate D2E/DX2                !
 ! D168  D(64,28,29,65)          0.1146         estimate D2E/DX2                !
 ! D169  D(28,29,30,31)         -0.2998         estimate D2E/DX2                !
 ! D170  D(28,29,30,66)        179.6752         estimate D2E/DX2                !
 ! D171  D(65,29,30,31)        179.8629         estimate D2E/DX2                !
 ! D172  D(65,29,30,66)         -0.1622         estimate D2E/DX2                !
 ! D173  D(29,30,31,32)         -0.1474         estimate D2E/DX2                !
 ! D174  D(29,30,31,67)        179.9738         estimate D2E/DX2                !
 ! D175  D(66,30,31,32)        179.8779         estimate D2E/DX2                !
 ! D176  D(66,30,31,67)         -0.0009         estimate D2E/DX2                !
 ! D177  D(30,31,32,16)       -179.4888         estimate D2E/DX2                !
 ! D178  D(30,31,32,27)          0.6508         estimate D2E/DX2                !
 ! D179  D(67,31,32,16)          0.3918         estimate D2E/DX2                !
 ! D180  D(67,31,32,27)       -179.4686         estimate D2E/DX2                !
 ! D181  D(7,33,34,68)         178.2801         estimate D2E/DX2                !
 ! D182  D(15,33,34,68)         -2.0003         estimate D2E/DX2                !
 --------------------------------------------------------------------------------
 Trust Radius=3.00D-01 FncErr=1.00D-07 GrdErr=1.00D-06 EigMax=2.50D+02 EigMin=1.00D-04
 Number of steps in this run=    385 maximum allowed number of steps=    408.
 GradGradGradGradGradGradGradGradGradGradGradGradGradGradGradGradGradGrad

 Leave Link  103 at Thu Jan 23 10:07:44 2025, MaxMem= 13421772800 cpu:               0.8 elap:               0.0
 (Enter /public/software/apps/Gaussian/g16/l202.exe)
 Symmetry turned off by external request.
 Stoichiometry    C30H34O2Si2
 Framework group  C1[X(C30H34O2Si2)]
 Deg. of freedom   198
 Full point group                 C1      NOp   1
                          Input orientation:                          
 ---------------------------------------------------------------------
 Center     Atomic      Atomic             Coordinates (Angstroms)
 Number     Number       Type             X           Y           Z
 ---------------------------------------------------------------------
      1          6           0        1.637646    3.026099   -1.475524
      2          6           0        2.869626    3.052897   -0.998269
      3          6           0        3.214282    3.133840    0.444624
      4         14           0        3.916681    1.454214    1.076858
      5          6           0        5.740928    1.312318    0.535082
      6          6           0        3.815020    1.347174    2.975762
      7          6           0        2.922261    0.076932    0.235744
      8          6           0        3.451381   -0.840803   -0.630011
      9          6           0        2.652821   -1.801912   -1.284060
     10          6           0        3.202297   -2.745515   -2.175509
     11          6           0        2.405996   -3.659393   -2.807430
     12          6           0        1.022306   -3.664670   -2.577684
     13          6           0        0.457451   -2.763385   -1.718624
     14          6           0        1.254717   -1.815249   -1.045098
     15          6           0        0.703479   -0.872737   -0.139003
     16          6           0       -0.755988   -0.862808    0.146015
     17          6           0       -1.556152    0.112528   -0.413055
     18          8           0       -1.052858    1.071364   -1.234029
     19          6           0       -2.948796    0.164868   -0.173354
     20         14           0       -3.940794    1.606285   -0.906024
     21          6           0       -5.802373    1.220266   -0.736623
     22          6           0       -3.560429    1.938242   -2.742256
     23          6           0       -3.575430    3.149924    0.191797
     24          6           0       -2.122671    3.399487    0.366048
     25          6           0       -1.431432    3.070762    1.444045
     26          6           0       -3.502009   -0.797814    0.628129
     27          6           0       -2.730454   -1.817399    1.222266
     28          6           0       -3.306610   -2.803397    2.048934
     29          6           0       -2.534682   -3.773919    2.623831
     30          6           0       -1.150045   -3.796579    2.399566
     31          6           0       -0.559950   -2.856002    1.601956
     32          6           0       -1.331950   -1.848247    0.987879
     33          6           0        1.530438    0.041240    0.479223
     34          8           0        1.060865    0.959953    1.364668
     35          1           0        1.432209    2.941252   -2.529779
     36          1           0        0.782039    3.108742   -0.825873
     37          1           0        3.711577    2.976710   -1.675041
     38          1           0        2.330978    3.402152    1.020721
     39          1           0        3.965259    3.908872    0.600496
     40          1           0        6.172609    0.362002    0.832743
     41          1           0        6.336281    2.096069    0.992686
     42          1           0        5.851420    1.405046   -0.540753
     43          1           0        2.789228    1.420464    3.318539
     44          1           0        4.381723    2.147717    3.441091
     45          1           0        4.218717    0.405235    3.333932
     46          1           0        4.512441   -0.837774   -0.829353
     47          1           0        4.268996   -2.730372   -2.349322
     48          1           0        2.834614   -4.380284   -3.488143
     49          1           0        0.402839   -4.388565   -3.086733
     50          1           0       -0.608505   -2.768712   -1.543428
     51          1           0       -0.095941    0.957866   -1.337313
     52          1           0       -6.061056    0.292554   -1.236547
     53          1           0       -6.108603    1.135353    0.300935
     54          1           0       -6.397329    2.008832   -1.185609
     55          1           0       -2.546663    2.296072   -2.879157
     56          1           0       -4.239326    2.684029   -3.145804
     57          1           0       -3.673039    1.035192   -3.334566
     58          1           0       -4.039759    2.998303    1.167074
     59          1           0       -4.043453    4.020507   -0.267806
     60          1           0       -1.625489    3.859782   -0.477027
     61          1           0       -1.904681    2.606965    2.295786
     62          1           0       -0.375372    3.262288    1.532451
     63          1           0       -4.564383   -0.785912    0.819971
     64          1           0       -4.373618   -2.774651    2.219166
     65          1           0       -2.983175   -4.526813    3.255308
     66          1           0       -0.550231   -4.565667    2.863884
     67          1           0        0.506460   -2.874591    1.430607
     68          1           0        0.098879    0.882799    1.451233
 ---------------------------------------------------------------------
 Rotational constants (GHZ):           0.1409375           0.0948464           0.0755385
 Leave Link  202 at Thu Jan 23 10:07:44 2025, MaxMem= 13421772800 cpu:               1.4 elap:               0.1
 (Enter /public/software/apps/Gaussian/g16/l301.exe)
 Standard basis: def2SVPP (5D, 7F)
 Ernie: Thresh=  0.10000D-02 Tol=  0.10000D-05 Strict=F.
   552 basis functions,  1010 primitive gaussians,   586 cartesian basis functions
   129 alpha electrons      129 beta electrons
       nuclear repulsion energy      3998.1157896169 Hartrees.
 IExCor=  402 DFT=T Ex+Corr=B3LYP ExCW=0 ScaHFX=  0.200000
 ScaDFX=  0.800000  0.720000  1.000000  0.810000 ScalE2=  1.000000  1.000000
 IRadAn=      5 IRanWt=     -1 IRanGd=            0 ICorTp=0 IEmpDi=141
 NAtoms=   68 NActive=   68 NUniq=   68 SFac= 1.00D+00 NAtFMM=   60 NAOKFM=T Big=T
 Integral buffers will be    131072 words long.
 Raffenetti 2 integral format.
 Two-electron integral symmetry is turned off.
 R6Disp:  Grimme-D3(BJ) Dispersion energy=       -0.1795808707 Hartrees.
 Nuclear repulsion after empirical dispersion term =     3997.9362087462 Hartrees.
 Leave Link  301 at Thu Jan 23 10:07:44 2025, MaxMem= 13421772800 cpu:               1.3 elap:               0.1
 (Enter /public/software/apps/Gaussian/g16/l302.exe)
 NPDir=0 NMtPBC=     1 NCelOv=     1 NCel=       1 NClECP=     1 NCelD=      1
         NCelK=      1 NCelE2=     1 NClLst=     1 CellRange=     0.0.
 One-electron integrals computed using PRISM.
   1 Symmetry operations used in ECPInt.
 ECPInt:  NShTT=   38226 NPrTT=  155410 LenC2=   33957 LenP2D=   87395.
 LDataN:  DoStor=T MaxTD1= 4 Len=   56
 NBasis=   552 RedAO= T EigKep=  1.40D-04  NBF=   552
 NBsUse=   552 1.00D-06 EigRej= -1.00D+00 NBFU=   552
 Precomputing XC quadrature grid using
 IXCGrd= 4 IRadAn=           5 IRanWt=          -1 IRanGd=           0 AccXCQ= 0.00D+00.
 Generated NRdTot=       0 NPtTot=           0 NUsed=           0 NTot=          32
 NSgBfM=   577   577   577   577   577 MxSgAt=    68 MxSgA2=    68.
 Leave Link  302 at Thu Jan 23 10:07:45 2025, MaxMem= 13421772800 cpu:              23.4 elap:               0.8
 (Enter /public/software/apps/Gaussian/g16/l303.exe)
 DipDrv:  MaxL=1.
 Leave Link  303 at Thu Jan 23 10:07:45 2025, MaxMem= 13421772800 cpu:               5.2 elap:               0.2
 (Enter /public/software/apps/Gaussian/g16/l401.exe)
 ExpMin= 7.80D-02 ExpMax= 6.90D+03 ExpMxC= 1.04D+03 IAcc=3 IRadAn=         5 AccDes= 0.00D+00
 Harris functional with IExCor=  402 and IRadAn=       5 diagonalized for initial guess.
 HarFok:  IExCor=  402 AccDes= 0.00D+00 IRadAn=         5 IDoV= 1 UseB2=F ITyADJ=14
 ICtDFT=  3500011 ScaDFX=  1.000000  1.000000  1.000000  1.000000
 FoFCou: FMM=F IPFlag=           0 FMFlag=      100000 FMFlg1=        2001
         NFxFlg=           0 DoJE=T BraDBF=F KetDBF=T FulRan=T
         wScrn=  0.000000 ICntrl=       500 IOpCl=  0 I1Cent=   200000004 NGrid=           0
         NMat0=    1 NMatS0=      1 NMatT0=    0 NMatD0=    1 NMtDS0=    0 NMtDT0=    0
 Symmetry not used in FoFCou.
 Harris En= -1892.22532327592    
 JPrj=0 DoOrth=F DoCkMO=F.
 Leave Link  401 at Thu Jan 23 10:07:47 2025, MaxMem= 13421772800 cpu:              57.4 elap:               1.8
 (Enter /public/software/apps/Gaussian/g16/l502.exe)
 Two-electron integral symmetry not used.
 Closed shell SCF:
 Using DIIS extrapolation, IDIIS=  1040.
 NGot= 13421772800 LenX= 13421060488 LenY= 13420716506
 Requested convergence on RMS density matrix=1.00D-08 within 128 cycles.
 Requested convergence on MAX density matrix=1.00D-06.
 Requested convergence on             energy=1.00D-06.
 No special actions if energy rises.
 Fock matrices will be formed incrementally for  20 cycles.
 Integral accuracy reduced to 1.0D-05 until final iterations.

 Cycle   1  Pass 0  IDiag  1:
 FoFJK:  IHMeth= 1 ICntrl=       0 DoSepK=F KAlg= 0 I1Cent=           0 FoldK=F
 IRaf= 990000000 NMat=       1 IRICut=       1 DoRegI=T DoRafI=F ISym2E= 0 IDoP0=0 IntGTp=1.
 FoFCou: FMM=T IPFlag=           0 FMFlag=      100000 FMFlg1=        2001
         NFxFlg=           0 DoJE=F BraDBF=F KetDBF=F FulRan=T
         wScrn=  0.000000 ICntrl=         0 IOpCl=  0 I1Cent=           0 NGrid=           0
         NMat0=    1 NMatS0=      1 NMatT0=    0 NMatD0=    1 NMtDS0=    0 NMtDT0=    0
 Symmetry not used in FoFCou.
 FMM levels:  10  Number of levels for PrismC:   9
 E= -1891.12680581449    
 DIIS: error= 2.65D-02 at cycle   1 NSaved=   1.
 NSaved= 1 IEnMin= 1 EnMin= -1891.12680581449     IErMin= 1 ErrMin= 2.65D-02
 ErrMax= 2.65D-02  0.00D+00 EMaxC= 1.00D-01 BMatC= 9.17D-01 BMatP= 9.17D-01
 IDIUse=3 WtCom= 7.35D-01 WtEn= 2.65D-01
 Coeff-Com:  0.100D+01
 Coeff-En:   0.100D+01
 Coeff:      0.100D+01
 Gap=     0.185 Goal=   None    Shift=    0.000
 GapD=    0.185 DampG=1.000 DampE=0.500 DampFc=0.5000 IDamp=-1.
 Damping current iteration by 5.00D-01
 RMSDP=5.33D-03 MaxDP=2.06D-01              OVMax= 1.94D-01

 Cycle   2  Pass 0  IDiag  1:
 RMSU=  2.49D-03    CP:  9.47D-01
 E= -1891.60267435808     Delta-E=       -0.475868543586 Rises=F Damp=T
 DIIS: error= 3.93D-03 at cycle   2 NSaved=   2.
 NSaved= 2 IEnMin= 2 EnMin= -1891.60267435808     IErMin= 2 ErrMin= 3.93D-03
 ErrMax= 3.93D-03  0.00D+00 EMaxC= 1.00D-01 BMatC= 2.95D-02 BMatP= 9.17D-01
 IDIUse=3 WtCom= 9.61D-01 WtEn= 3.93D-02
 Coeff-Com:  0.416D-01 0.958D+00
 Coeff-En:   0.698D-01 0.930D+00
 Coeff:      0.427D-01 0.957D+00
 Gap=     0.189 Goal=   None    Shift=    0.000
 RMSDP=1.76D-03 MaxDP=1.00D-01 DE=-4.76D-01 OVMax= 1.46D-01

 Cycle   3  Pass 0  IDiag  1:
 RMSU=  1.62D-03    CP:  9.11D-01  1.10D+00
 E= -1892.12106191108     Delta-E=       -0.518387553002 Rises=F Damp=F
 DIIS: error= 6.81D-03 at cycle   3 NSaved=   3.
 NSaved= 3 IEnMin= 3 EnMin= -1892.12106191108     IErMin= 2 ErrMin= 3.93D-03
 ErrMax= 6.81D-03  0.00D+00 EMaxC= 1.00D-01 BMatC= 2.54D-02 BMatP= 2.95D-02
 IDIUse=3 WtCom= 9.32D-01 WtEn= 6.81D-02
 Coeff-Com: -0.206D-02 0.477D+00 0.525D+00
 Coeff-En:   0.000D+00 0.000D+00 0.100D+01
 Coeff:     -0.192D-02 0.444D+00 0.557D+00
 Gap=     0.176 Goal=   None    Shift=    0.000
 RMSDP=7.32D-04 MaxDP=3.07D-02 DE=-5.18D-01 OVMax= 7.95D-02

 Cycle   4  Pass 0  IDiag  1:
 RMSU=  6.08D-04    CP:  9.13D-01  1.14D+00  7.61D-01
 E= -1892.13735207996     Delta-E=       -0.016290168880 Rises=F Damp=F
 DIIS: error= 4.52D-03 at cycle   4 NSaved=   4.
 NSaved= 4 IEnMin= 4 EnMin= -1892.13735207996     IErMin= 2 ErrMin= 3.93D-03
 ErrMax= 4.52D-03  0.00D+00 EMaxC= 1.00D-01 BMatC= 1.09D-02 BMatP= 2.54D-02
 IDIUse=3 WtCom= 9.55D-01 WtEn= 4.52D-02
 Coeff-Com: -0.867D-02 0.109D+00 0.393D+00 0.506D+00
 Coeff-En:   0.000D+00 0.000D+00 0.346D+00 0.654D+00
 Coeff:     -0.828D-02 0.104D+00 0.391D+00 0.513D+00
 Gap=     0.166 Goal=   None    Shift=    0.000
 RMSDP=3.50D-04 MaxDP=1.72D-02 DE=-1.63D-02 OVMax= 4.03D-02

 Cycle   5  Pass 0  IDiag  1:
 RMSU=  1.60D-04    CP:  9.11D-01  1.13D+00  8.44D-01  5.45D-01
 E= -1892.15006287201     Delta-E=       -0.012710792050 Rises=F Damp=F
 DIIS: error= 7.43D-04 at cycle   5 NSaved=   5.
 NSaved= 5 IEnMin= 5 EnMin= -1892.15006287201     IErMin= 5 ErrMin= 7.43D-04
 ErrMax= 7.43D-04  0.00D+00 EMaxC= 1.00D-01 BMatC= 4.24D-04 BMatP= 1.09D-02
 IDIUse=3 WtCom= 9.93D-01 WtEn= 7.43D-03
 Coeff-Com: -0.388D-02 0.239D-01 0.167D+00 0.271D+00 0.542D+00
 Coeff-En:   0.000D+00 0.000D+00 0.000D+00 0.000D+00 0.100D+01
 Coeff:     -0.385D-02 0.237D-01 0.166D+00 0.269D+00 0.545D+00
 Gap=     0.165 Goal=   None    Shift=    0.000
 RMSDP=7.74D-05 MaxDP=2.90D-03 DE=-1.27D-02 OVMax= 8.90D-03

 Cycle   6  Pass 0  IDiag  1:
 RMSU=  5.93D-05    CP:  9.11D-01  1.13D+00  8.43D-01  5.84D-01  7.32D-01
 E= -1892.15048316767     Delta-E=       -0.000420295661 Rises=F Damp=F
 DIIS: error= 4.57D-04 at cycle   6 NSaved=   6.
 NSaved= 6 IEnMin= 6 EnMin= -1892.15048316767     IErMin= 6 ErrMin= 4.57D-04
 ErrMax= 4.57D-04  0.00D+00 EMaxC= 1.00D-01 BMatC= 1.00D-04 BMatP= 4.24D-04
 IDIUse=3 WtCom= 9.95D-01 WtEn= 4.57D-03
 Coeff-Com: -0.139D-02 0.111D-02 0.560D-01 0.108D+00 0.359D+00 0.477D+00
 Coeff-En:   0.000D+00 0.000D+00 0.000D+00 0.000D+00 0.158D+00 0.842D+00
 Coeff:     -0.138D-02 0.110D-02 0.557D-01 0.108D+00 0.358D+00 0.479D+00
 Gap=     0.165 Goal=   None    Shift=    0.000
 RMSDP=3.26D-05 MaxDP=1.15D-03 DE=-4.20D-04 OVMax= 4.43D-03

 Cycle   7  Pass 0  IDiag  1:
 RMSU=  2.59D-05    CP:  9.11D-01  1.13D+00  8.43D-01  5.84D-01  7.76D-01
                    CP:  6.90D-01
 E= -1892.15061664821     Delta-E=       -0.000133480546 Rises=F Damp=F
 DIIS: error= 1.68D-04 at cycle   7 NSaved=   7.
 NSaved= 7 IEnMin= 7 EnMin= -1892.15061664821     IErMin= 7 ErrMin= 1.68D-04
 ErrMax= 1.68D-04  0.00D+00 EMaxC= 1.00D-01 BMatC= 1.13D-05 BMatP= 1.00D-04
 IDIUse=3 WtCom= 9.98D-01 WtEn= 1.68D-03
 Coeff-Com: -0.599D-03-0.986D-03 0.223D-01 0.465D-01 0.186D+00 0.314D+00
 Coeff-Com:  0.433D+00
 Coeff-En:   0.000D+00 0.000D+00 0.000D+00 0.000D+00 0.000D+00 0.000D+00
 Coeff-En:   0.100D+01
 Coeff:     -0.598D-03-0.984D-03 0.222D-01 0.464D-01 0.186D+00 0.313D+00
 Coeff:      0.434D+00
 Gap=     0.165 Goal=   None    Shift=    0.000
 RMSDP=1.54D-05 MaxDP=7.42D-04 DE=-1.33D-04 OVMax= 1.29D-03

 Cycle   8  Pass 0  IDiag  1:
 RMSU=  1.33D-05    CP:  9.11D-01  1.13D+00  8.45D-01  5.84D-01  7.41D-01
                    CP:  7.31D-01  8.40D-01
 E= -1892.15063939180     Delta-E=       -0.000022743587 Rises=F Damp=F
 DIIS: error= 4.15D-05 at cycle   8 NSaved=   8.
 NSaved= 8 IEnMin= 8 EnMin= -1892.15063939180     IErMin= 8 ErrMin= 4.15D-05
 ErrMax= 4.15D-05  0.00D+00 EMaxC= 1.00D-01 BMatC= 7.67D-07 BMatP= 1.13D-05
 IDIUse=1 WtCom= 1.00D+00 WtEn= 0.00D+00
 Coeff-Com: -0.177D-03-0.736D-03 0.672D-02 0.147D-01 0.690D-01 0.128D+00
 Coeff-Com:  0.248D+00 0.534D+00
 Coeff:     -0.177D-03-0.736D-03 0.672D-02 0.147D-01 0.690D-01 0.128D+00
 Coeff:      0.248D+00 0.534D+00
 Gap=     0.165 Goal=   None    Shift=    0.000
 RMSDP=7.94D-06 MaxDP=5.02D-04 DE=-2.27D-05 OVMax= 2.44D-04

 Initial convergence to 1.0D-05 achieved.  Increase integral accuracy.
 Cycle   9  Pass 1  IDiag  1:
 E= -1892.15028050607     Delta-E=        0.000358885736 Rises=F Damp=F
 DIIS: error= 6.07D-04 at cycle   1 NSaved=   1.
 NSaved= 1 IEnMin= 1 EnMin= -1892.15028050607     IErMin= 1 ErrMin= 6.07D-04
 ErrMax= 6.07D-04  0.00D+00 EMaxC= 1.00D-01 BMatC= 8.34D-05 BMatP= 8.34D-05
 IDIUse=3 WtCom= 9.94D-01 WtEn= 6.07D-03
 Coeff-Com:  0.100D+01
 Coeff-En:   0.100D+01
 Coeff:      0.100D+01
 Gap=     0.165 Goal=   None    Shift=    0.000
 RMSDP=7.94D-06 MaxDP=5.02D-04 DE= 3.59D-04 OVMax= 1.48D-03

 Cycle  10  Pass 1  IDiag  1:
 RMSU=  5.69D-04    CP:  9.98D-01
 E= -1892.15036939261     Delta-E=       -0.000088886542 Rises=F Damp=F
 DIIS: error= 2.47D-05 at cycle   2 NSaved=   2.
 NSaved= 2 IEnMin= 2 EnMin= -1892.15036939261     IErMin= 2 ErrMin= 2.47D-05
 ErrMax= 2.47D-05  0.00D+00 EMaxC= 1.00D-01 BMatC= 2.65D-07 BMatP= 8.34D-05
 IDIUse=1 WtCom= 1.00D+00 WtEn= 0.00D+00
 Coeff-Com: -0.496D-02 0.100D+01
 Coeff:     -0.496D-02 0.100D+01
 Gap=     0.165 Goal=   None    Shift=    0.000
 RMSDP=8.84D-06 MaxDP=3.11D-04 DE=-8.89D-05 OVMax= 3.27D-04

 Cycle  11  Pass 1  IDiag  1:
 RMSU=  4.27D-06    CP:  9.98D-01  1.01D+00
 E= -1892.15036875511     Delta-E=        0.000000637499 Rises=F Damp=F
 DIIS: error= 4.84D-05 at cycle   3 NSaved=   3.
 NSaved= 3 IEnMin= 2 EnMin= -1892.15036939261     IErMin= 2 ErrMin= 2.47D-05
 ErrMax= 4.84D-05  0.00D+00 EMaxC= 1.00D-01 BMatC= 9.50D-07 BMatP= 2.65D-07
 IDIUse=1 WtCom= 1.00D+00 WtEn= 0.00D+00
 Coeff-Com: -0.636D-02 0.663D+00 0.344D+00
 Coeff:     -0.636D-02 0.663D+00 0.344D+00
 Gap=     0.165 Goal=   None    Shift=    0.000
 RMSDP=2.53D-06 MaxDP=1.52D-04 DE= 6.37D-07 OVMax= 2.36D-04

 Cycle  12  Pass 1  IDiag  1:
 RMSU=  1.46D-06    CP:  9.98D-01  1.01D+00  5.17D-01
 E= -1892.15036963976     Delta-E=       -0.000000884648 Rises=F Damp=F
 DIIS: error= 4.15D-06 at cycle   4 NSaved=   4.
 NSaved= 4 IEnMin= 4 EnMin= -1892.15036963976     IErMin= 4 ErrMin= 4.15D-06
 ErrMax= 4.15D-06  0.00D+00 EMaxC= 1.00D-01 BMatC= 9.69D-09 BMatP= 2.65D-07
 IDIUse=1 WtCom= 1.00D+00 WtEn= 0.00D+00
 Coeff-Com: -0.363D-02 0.370D+00 0.204D+00 0.430D+00
 Coeff:     -0.363D-02 0.370D+00 0.204D+00 0.430D+00
 Gap=     0.165 Goal=   None    Shift=    0.000
 RMSDP=3.67D-07 MaxDP=1.31D-05 DE=-8.85D-07 OVMax= 3.51D-05

 Cycle  13  Pass 1  IDiag  1:
 RMSU=  3.09D-07    CP:  9.98D-01  1.01D+00  5.40D-01  8.85D-01
 E= -1892.15036964996     Delta-E=       -0.000000010204 Rises=F Damp=F
 DIIS: error= 1.45D-06 at cycle   5 NSaved=   5.
 NSaved= 5 IEnMin= 5 EnMin= -1892.15036964996     IErMin= 5 ErrMin= 1.45D-06
 ErrMax= 1.45D-06  0.00D+00 EMaxC= 1.00D-01 BMatC= 8.62D-10 BMatP= 9.69D-09
 IDIUse=1 WtCom= 1.00D+00 WtEn= 0.00D+00
 Coeff-Com: -0.118D-02 0.118D+00 0.679D-01 0.250D+00 0.566D+00
 Coeff:     -0.118D-02 0.118D+00 0.679D-01 0.250D+00 0.566D+00
 Gap=     0.165 Goal=   None    Shift=    0.000
 RMSDP=1.09D-07 MaxDP=3.83D-06 DE=-1.02D-08 OVMax= 1.46D-05

 Cycle  14  Pass 1  IDiag  1:
 RMSU=  8.21D-08    CP:  9.98D-01  1.01D+00  5.43D-01  9.08D-01  8.13D-01
 E= -1892.15036965067     Delta-E=       -0.000000000707 Rises=F Damp=F
 DIIS: error= 5.65D-07 at cycle   6 NSaved=   6.
 NSaved= 6 IEnMin= 6 EnMin= -1892.15036965067     IErMin= 6 ErrMin= 5.65D-07
 ErrMax= 5.65D-07  0.00D+00 EMaxC= 1.00D-01 BMatC= 2.13D-10 BMatP= 8.62D-10
 IDIUse=1 WtCom= 1.00D+00 WtEn= 0.00D+00
 Coeff-Com: -0.925D-04 0.794D-02 0.618D-02 0.847D-01 0.376D+00 0.525D+00
 Coeff:     -0.925D-04 0.794D-02 0.618D-02 0.847D-01 0.376D+00 0.525D+00
 Gap=     0.165 Goal=   None    Shift=    0.000
 RMSDP=4.41D-08 MaxDP=1.70D-06 DE=-7.07D-10 OVMax= 6.16D-06

 Cycle  15  Pass 1  IDiag  1:
 RMSU=  2.27D-08    CP:  9.98D-01  1.01D+00  5.43D-01  9.09D-01  8.53D-01
                    CP:  5.71D-01
 E= -1892.15036965090     Delta-E=       -0.000000000228 Rises=F Damp=F
 DIIS: error= 1.74D-07 at cycle   7 NSaved=   7.
 NSaved= 7 IEnMin= 7 EnMin= -1892.15036965090     IErMin= 7 ErrMin= 1.74D-07
 ErrMax= 1.74D-07  0.00D+00 EMaxC= 1.00D-01 BMatC= 2.17D-11 BMatP= 2.13D-10
 IDIUse=1 WtCom= 1.00D+00 WtEn= 0.00D+00
 Coeff-Com:  0.159D-04-0.244D-02-0.401D-03 0.400D-01 0.211D+00 0.347D+00
 Coeff-Com:  0.405D+00
 Coeff:      0.159D-04-0.244D-02-0.401D-03 0.400D-01 0.211D+00 0.347D+00
 Coeff:      0.405D+00
 Gap=     0.165 Goal=   None    Shift=    0.000
 RMSDP=1.44D-08 MaxDP=9.21D-07 DE=-2.28D-10 OVMax= 1.46D-06

 Cycle  16  Pass 1  IDiag  1:
 RMSU=  7.33D-09    CP:  9.98D-01  1.01D+00  5.44D-01  9.12D-01  8.47D-01
                    CP:  6.16D-01  5.26D-01
 E= -1892.15036965099     Delta-E=       -0.000000000098 Rises=F Damp=F
 DIIS: error= 2.71D-08 at cycle   8 NSaved=   8.
 NSaved= 8 IEnMin= 8 EnMin= -1892.15036965099     IErMin= 8 ErrMin= 2.71D-08
 ErrMax= 2.71D-08  0.00D+00 EMaxC= 1.00D-01 BMatC= 5.34D-13 BMatP= 2.17D-11
 IDIUse=1 WtCom= 1.00D+00 WtEn= 0.00D+00
 Coeff-Com:  0.151D-04-0.182D-02-0.734D-03 0.126D-01 0.702D-01 0.128D+00
 Coeff-Com:  0.193D+00 0.599D+00
 Coeff:      0.151D-04-0.182D-02-0.734D-03 0.126D-01 0.702D-01 0.128D+00
 Coeff:      0.193D+00 0.599D+00
 Gap=     0.165 Goal=   None    Shift=    0.000
 RMSDP=2.58D-09 MaxDP=1.17D-07 DE=-9.82D-11 OVMax= 2.19D-07

 SCF Done:  E(RB3LYP) =  -1892.15036965     A.U. after   16 cycles
            NFock= 16  Conv=0.26D-08     -V/T= 2.0078
 KE= 1.877564631085D+03 PE=-1.241852144273D+04 EE= 4.650870233251D+03
 Leave Link  502 at Thu Jan 23 10:08:41 2025, MaxMem= 13421772800 cpu:            1699.9 elap:              54.1
 (Enter /public/software/apps/Gaussian/g16/l601.exe)
 Copying SCF densities to generalized density rwf, IOpCl= 0 IROHF=0.

 **********************************************************************

            Population analysis using the SCF Density.

 **********************************************************************

 Alpha  occ. eigenvalues --  -66.10709 -66.10574 -19.16647 -19.16410 -10.25350
 Alpha  occ. eigenvalues --  -10.25273 -10.19795 -10.19730 -10.19378 -10.19345
 Alpha  occ. eigenvalues --  -10.19333 -10.19189 -10.19155 -10.19071 -10.18662
 Alpha  occ. eigenvalues --  -10.18581 -10.18575 -10.18507 -10.18379 -10.18324
 Alpha  occ. eigenvalues --  -10.18257 -10.18228 -10.18182 -10.18128 -10.17563
 Alpha  occ. eigenvalues --  -10.17364 -10.16415 -10.16182 -10.16101 -10.15989
 Alpha  occ. eigenvalues --  -10.15524 -10.15410 -10.14996 -10.14926  -5.27143
 Alpha  occ. eigenvalues --   -5.27006  -3.63357  -3.63342  -3.63280  -3.63220
 Alpha  occ. eigenvalues --   -3.63194  -3.63153  -1.06217  -1.05524  -0.88194
 Alpha  occ. eigenvalues --   -0.87031  -0.82287  -0.81659  -0.79443  -0.77946
 Alpha  occ. eigenvalues --   -0.77917  -0.75834  -0.73857  -0.73721  -0.72712
 Alpha  occ. eigenvalues --   -0.70846  -0.69914  -0.69574  -0.67353  -0.67242
 Alpha  occ. eigenvalues --   -0.66701  -0.66592  -0.65246  -0.63380  -0.61370
 Alpha  occ. eigenvalues --   -0.60960  -0.60936  -0.58275  -0.56067  -0.55250
 Alpha  occ. eigenvalues --   -0.54844  -0.54721  -0.52945  -0.52123  -0.51556
 Alpha  occ. eigenvalues --   -0.49766  -0.47382  -0.47177  -0.46483  -0.46163
 Alpha  occ. eigenvalues --   -0.46120  -0.45942  -0.45036  -0.44732  -0.44108
 Alpha  occ. eigenvalues --   -0.43458  -0.42998  -0.42680  -0.42551  -0.42203
 Alpha  occ. eigenvalues --   -0.41954  -0.41571  -0.41500  -0.40857  -0.40712
 Alpha  occ. eigenvalues --   -0.39863  -0.39667  -0.39342  -0.39215  -0.39144
 Alpha  occ. eigenvalues --   -0.38870  -0.38683  -0.38213  -0.37986  -0.37735
 Alpha  occ. eigenvalues --   -0.37655  -0.37479  -0.36307  -0.36229  -0.35003
 Alpha  occ. eigenvalues --   -0.34947  -0.34908  -0.33900  -0.32565  -0.32498
 Alpha  occ. eigenvalues --   -0.31619  -0.31274  -0.30910  -0.30065  -0.30045
 Alpha  occ. eigenvalues --   -0.29798  -0.28784  -0.28621  -0.24583  -0.24289
 Alpha  occ. eigenvalues --   -0.23979  -0.23515  -0.21860  -0.21418
 Alpha virt. eigenvalues --   -0.04912  -0.04713  -0.01610  -0.01218   0.00998
 Alpha virt. eigenvalues --    0.01381   0.02080   0.02493   0.05023   0.05280
 Alpha virt. eigenvalues --    0.06253   0.06929   0.07210   0.07421   0.07801
 Alpha virt. eigenvalues --    0.07952   0.08547   0.09064   0.09323   0.09752
 Alpha virt. eigenvalues --    0.09995   0.10142   0.10415   0.10602   0.11173
 Alpha virt. eigenvalues --    0.11274   0.11889   0.12140   0.12344   0.12779
 Alpha virt. eigenvalues --    0.12955   0.13195   0.13702   0.13977   0.14298
 Alpha virt. eigenvalues --    0.14497   0.14932   0.15227   0.15454   0.15594
 Alpha virt. eigenvalues --    0.16102   0.16605   0.16832   0.17059   0.17489
 Alpha virt. eigenvalues --    0.17857   0.18661   0.18827   0.19349   0.19772
 Alpha virt. eigenvalues --    0.20252   0.20598   0.20923   0.22287   0.24021
 Alpha virt. eigenvalues --    0.24779   0.25683   0.25887   0.27022   0.27369
 Alpha virt. eigenvalues --    0.27467   0.28097   0.28526   0.28969   0.29246
 Alpha virt. eigenvalues --    0.30125   0.30323   0.30888   0.31165   0.32273
 Alpha virt. eigenvalues --    0.32388   0.33098   0.34000   0.34632   0.35088
 Alpha virt. eigenvalues --    0.35550   0.36198   0.36661   0.36867   0.37805
 Alpha virt. eigenvalues --    0.37940   0.38241   0.38460   0.39149   0.40032
 Alpha virt. eigenvalues --    0.40174   0.40852   0.41471   0.41597   0.42227
 Alpha virt. eigenvalues --    0.42867   0.43149   0.44095   0.44712   0.45021
 Alpha virt. eigenvalues --    0.45194   0.45671   0.45973   0.46201   0.46656
 Alpha virt. eigenvalues --    0.47369   0.47739   0.48165   0.48206   0.48921
 Alpha virt. eigenvalues --    0.49231   0.49487   0.50216   0.50578   0.51129
 Alpha virt. eigenvalues --    0.51430   0.51628   0.51983   0.52035   0.52457
 Alpha virt. eigenvalues --    0.53220   0.53713   0.53936   0.54342   0.54800
 Alpha virt. eigenvalues --    0.55355   0.55554   0.56327   0.56537   0.57511
 Alpha virt. eigenvalues --    0.57735   0.58128   0.58875   0.59224   0.59543
 Alpha virt. eigenvalues --    0.59793   0.60062   0.60190   0.60942   0.61241
 Alpha virt. eigenvalues --    0.61481   0.61809   0.62288   0.63259   0.63338
 Alpha virt. eigenvalues --    0.63683   0.64223   0.64764   0.65086   0.65612
 Alpha virt. eigenvalues --    0.66237   0.66414   0.66832   0.67497   0.67800
 Alpha virt. eigenvalues --    0.67896   0.68257   0.68969   0.69086   0.69191
 Alpha virt. eigenvalues --    0.69458   0.70039   0.70133   0.70351   0.70401
 Alpha virt. eigenvalues --    0.70517   0.70920   0.70979   0.71555   0.71819
 Alpha virt. eigenvalues --    0.72040   0.72184   0.72681   0.72870   0.73090
 Alpha virt. eigenvalues --    0.73322   0.73625   0.73807   0.74249   0.74581
 Alpha virt. eigenvalues --    0.75067   0.75225   0.75440   0.75663   0.76089
 Alpha virt. eigenvalues --    0.76666   0.76889   0.77167   0.77741   0.78007
 Alpha virt. eigenvalues --    0.78161   0.78655   0.79301   0.80119   0.80269
 Alpha virt. eigenvalues --    0.80450   0.81076   0.81547   0.81668   0.82099
 Alpha virt. eigenvalues --    0.82700   0.82802   0.82933   0.83509   0.83801
 Alpha virt. eigenvalues --    0.84464   0.84947   0.85345   0.86048   0.87246
 Alpha virt. eigenvalues --    0.87335   0.88535   0.89347   0.89454   0.89776
 Alpha virt. eigenvalues --    0.90189   0.90715   0.91227   0.91581   0.92628
 Alpha virt. eigenvalues --    0.93023   0.93551   0.95376   0.96032   0.96696
 Alpha virt. eigenvalues --    0.96895   0.97807   0.98716   0.99784   1.00695
 Alpha virt. eigenvalues --    1.01897   1.03031   1.03743   1.06135   1.06466
 Alpha virt. eigenvalues --    1.08087   1.08314   1.09786   1.10822   1.11537
 Alpha virt. eigenvalues --    1.13002   1.14606   1.15989   1.16578   1.17087
 Alpha virt. eigenvalues --    1.17984   1.18867   1.19537   1.20605   1.21838
 Alpha virt. eigenvalues --    1.23352   1.23795   1.24893   1.25284   1.26082
 Alpha virt. eigenvalues --    1.27663   1.28312   1.28452   1.30923   1.32075
 Alpha virt. eigenvalues --    1.32283   1.36604   1.38171   1.39630   1.40203
 Alpha virt. eigenvalues --    1.43508   1.43853   1.44337   1.44715   1.45165
 Alpha virt. eigenvalues --    1.47931   1.48026   1.49015   1.49522   1.50317
 Alpha virt. eigenvalues --    1.50864   1.51884   1.52457   1.53762   1.54124
 Alpha virt. eigenvalues --    1.54477   1.54860   1.55414   1.57630   1.57796
 Alpha virt. eigenvalues --    1.58332   1.64503   1.66443   1.68013   1.71618
 Alpha virt. eigenvalues --    1.71887   1.72194   1.72672   1.74064   1.74569
 Alpha virt. eigenvalues --    1.74893   1.74983   1.75809   1.76318   1.77147
 Alpha virt. eigenvalues --    1.79510   1.79623   1.80034   1.80759   1.81450
 Alpha virt. eigenvalues --    1.82153   1.82481   1.83253   1.84630   1.84774
 Alpha virt. eigenvalues --    1.84995   1.86007   1.86327   1.86487   1.87755
 Alpha virt. eigenvalues --    1.89128   1.89230   1.89866   1.90767   1.91434
 Alpha virt. eigenvalues --    1.92575   1.93859   1.93956   1.96440   1.97143
 Alpha virt. eigenvalues --    1.98473   1.98956   2.03236   2.03613   2.03901
 Alpha virt. eigenvalues --    2.04975   2.06664   2.06872   2.07345   2.07607
 Alpha virt. eigenvalues --    2.08666   2.09499   2.10177   2.10583   2.11128
 Alpha virt. eigenvalues --    2.11713   2.13365   2.14849   2.15082   2.16701
 Alpha virt. eigenvalues --    2.17201   2.18251   2.18360   2.18833   2.19196
 Alpha virt. eigenvalues --    2.19648   2.19937   2.20069   2.20320   2.20561
 Alpha virt. eigenvalues --    2.20981   2.21233   2.21683   2.21872   2.22661
 Alpha virt. eigenvalues --    2.23486   2.24446   2.25366   2.26078   2.26128
 Alpha virt. eigenvalues --    2.26861   2.26968   2.28258   2.28760   2.28880
 Alpha virt. eigenvalues --    2.31263   2.32071   2.33341   2.34216   2.35057
 Alpha virt. eigenvalues --    2.37241   2.38412   2.40559   2.46242   2.46760
 Alpha virt. eigenvalues --    2.47424   2.48016   2.48925   2.49330   2.50569
 Alpha virt. eigenvalues --    2.51351   2.51980   2.55004   2.55972   2.58116
 Alpha virt. eigenvalues --    2.58445   2.60646   2.62071   2.63069   2.64629
 Alpha virt. eigenvalues --    2.65064   2.66062   2.68280   2.68333   2.69102
 Alpha virt. eigenvalues --    2.70561   2.71782   2.72314   2.73847   2.76596
 Alpha virt. eigenvalues --    2.77631   2.80169   2.83737   2.85014   2.85784
 Alpha virt. eigenvalues --    2.86404   2.88651   2.88978   2.92590   2.94544
 Alpha virt. eigenvalues --    2.94799   2.95513   2.98826   3.03216   3.04279
 Alpha virt. eigenvalues --    3.18802   3.21775   3.31275   3.34662   3.42985
 Alpha virt. eigenvalues --    3.43130   3.56300   3.61060
          Condensed to atoms (all electrons):
 Mulliken charges:
               1
     1  C   -0.254317
     2  C   -0.089965
     3  C   -0.303396
     4  Si   0.550756
     5  C   -0.478309
     6  C   -0.464292
     7  C   -0.045676
     8  C   -0.290868
     9  C    0.191456
    10  C   -0.136422
    11  C   -0.032267
    12  C   -0.028564
    13  C   -0.145337
    14  C    0.119508
    15  C   -0.100924
    16  C   -0.097947
    17  C    0.108520
    18  O   -0.376647
    19  C   -0.058158
    20  Si   0.555240
    21  C   -0.471983
    22  C   -0.469437
    23  C   -0.292676
    24  C   -0.085740
    25  C   -0.263609
    26  C   -0.289506
    27  C    0.191431
    28  C   -0.135984
    29  C   -0.032324
    30  C   -0.028358
    31  C   -0.144865
    32  C    0.119277
    33  C    0.101344
    34  O   -0.377777
    35  H    0.085502
    36  H    0.109823
    37  H    0.066965
    38  H    0.120684
    39  H    0.102383
    40  H    0.122984
    41  H    0.118070
    42  H    0.120460
    43  H    0.130589
    44  H    0.113228
    45  H    0.117770
    46  H    0.029424
    47  H    0.032827
    48  H    0.044551
    49  H    0.045628
    50  H    0.059013
    51  H    0.356709
    52  H    0.120581
    53  H    0.121067
    54  H    0.116945
    55  H    0.132365
    56  H    0.110930
    57  H    0.120870
    58  H    0.100573
    59  H    0.102838
    60  H    0.083729
    61  H    0.080194
    62  H    0.117451
    63  H    0.031050
    64  H    0.033189
    65  H    0.044928
    66  H    0.046177
    67  H    0.059848
    68  H    0.358468
 Sum of Mulliken charges =  -0.00000
 Mulliken charges with hydrogens summed into heavy atoms:
               1
     1  C   -0.058992
     2  C   -0.023001
     3  C   -0.080329
     4  Si   0.550756
     5  C   -0.116794
     6  C   -0.102705
     7  C   -0.045676
     8  C   -0.261444
     9  C    0.191456
    10  C   -0.103595
    11  C    0.012285
    12  C    0.017064
    13  C   -0.086324
    14  C    0.119508
    15  C   -0.100924
    16  C   -0.097947
    17  C    0.108520
    18  O   -0.019937
    19  C   -0.058158
    20  Si   0.555240
    21  C   -0.113391
    22  C   -0.105272
    23  C   -0.089265
    24  C   -0.002012
[...]
 59,0.00000272,-0.00000281,0.00000750,-0.00000621,0.00000225,-0.0000063
 6,0.00001342,-0.00000177,0.00000399,-0.00000891,-0.00000118,0.00000468
 ,0.00000125,-0.00000350,-0.00000888,-0.00000266,-0.00000060,0.00000368
 ,-0.00000062,0.00000371,0.00000473,0.00000441,-0.00000257,0.00000318,0
 .00000297,0.00003302,0.00000980,0.00002185,-0.00008812,0.00004089,0.00
 011070,-0.00003335,-0.00075580,-0.00184224,-0.11640198,0.19657058,0.00
 000265,0.00000516,0.00000984,-0.00000350,0.00000030,-0.00001047,0.0000
 0362,-0.00000496,0.00000456,-0.00002161,0.00001756,0.00000302,0.000006
 96,-0.00000042,-0.00000090,0.00000220,-0.00000364,-0.00000234,0.000030
 59,-0.00001303,-0.00001736,0.00002926,0.00001746,0.00001073,-0.0000023
 3,-0.00000043,0.00000070,-0.00000437,0.00000316,0.00001198,0.00001292,
 -0.00002791,-0.00001053,0.00000121,-0.00001743,0.00001690,-0.00000486,
 -0.00003254,0.00001514,-0.00001728,0.00010223,0.00002432,-0.00001825,0
 .00009335,0.00017508,-0.00081097,0.00031843,0.00002917,-0.00003783,-0.
 00020466,-0.00047215,0.00004321,0.00016097,-0.00018853,0.00015644,0.00
 013208,0.00001558,0.00006864,-0.00006249,0.00006300,-0.00001795,0.0000
 1798,-0.00001073,-0.00000644,0.00001183,-0.00001130,-0.00000665,0.0000
 2076,-0.00000719,-0.00000235,0.00000401,0.00000461,-0.00000894,0.00001
 088,0.00000014,-0.00014426,-0.00051910,-0.00033819,0.00036331,-0.00031
 289,-0.00045626,0.00164931,0.00197876,0.00348779,0.00392323,-0.0036283
 5,0.00571037,-0.06534318,0.09963725,-0.10464224,-0.01140354,0.01380696
 ,-0.00425352,0.00356798,0.00561525,0.00350853,-0.00001430,-0.00003165,
 0.00002892,0.00004585,-0.00000794,-0.00004598,-0.00000010,-0.00000103,
 0.00000022,-0.00000147,-0.00000576,-0.00000471,0.00000312,0.00000001,-
 0.00000064,0.00000106,-0.00000299,-0.00000070,0.00000114,0.00000134,0.
 00000075,0.00000233,-0.00000097,0.00000010,0.00000068,-0.00000022,0.00
 000010,-0.00000093,0.00000020,-0.00000018,-0.00000002,-0.00000104,-0.0
 0000285,0.00000087,-0.00000047,-0.00000036,0.00000118,-0.00000023,0.00
 000414,0.00000247,0.00000046,-0.00000252,0.00000230,0.00000021,-0.0000
 0294,0.00000277,0.00000121,-0.00000863,-0.00000480,-0.00000145,-0.0000
 2316,-0.00000521,0.00002432,-0.00000066,-0.00004864,0.00000606,0.00001
 981,0.00000209,-0.00000192,0.00000106,0.00000621,-0.00000180,-0.000000
 49,-0.00000724,0.00000124,-0.00000078,0.00000005,-0.00000425,0.0000043
 2,-0.00000139,0.00000188,-0.00000406,0.00000008,-0.00000171,0.00000045
 ,0.00000120,-0.00000337,-0.00000176,0.00000036,0.00000904,0.00000348,-
 0.00000028,-0.00000196,-0.00000201,0.00000364,-0.00000474,-0.00000397,
 0.00000116,-0.00000137,-0.00000075,-0.00001412,0.00003812,0.00001947,0
 .00023242,-0.00011863,0.00019919,-0.00084066,-0.00169946,-0.00156560,0
 .06933450,-0.11219892,0.10122925,0.00000008,-0.00001452,0.00000857,0.0
 0000298,-0.00000179,-0.00001358,-0.00000443,-0.00001877,0.00000230,0.0
 0004385,0.00008737,0.00002761,-0.00000977,-0.00001782,-0.00000468,-0.0
 0000544,-0.00002472,-0.00000470,-0.00002790,0.00003629,-0.00004492,-0.
 00008786,-0.00001830,-0.00003903,0.00025130,-0.00003345,-0.00003564,-0
 .00003932,0.00009152,0.00002853,-0.00006054,-0.00003836,-0.00002527,0.
 00008277,-0.00011531,-0.00006396,-0.00011587,-0.00017235,0.00007886,0.
 00005384,-0.00046966,0.00081630,-0.00007048,-0.00068351,0.00065891,-0.
 00048705,-0.00125689,0.00061143,-0.00028593,0.00004037,-0.00000921,0.0
 0024009,0.00008192,-0.00006589,0.00015911,0.00008683,-0.00016414,0.000
 09548,-0.00023447,0.00010946,-0.00002967,0.00005575,-0.00001310,-0.000
 01794,0.00004791,-0.00001839,0.00000103,0.00006244,-0.00001411,-0.0000
 4602,-0.00000400,-0.00000930,0.00001250,-0.00000917,0.00001518,-0.0006
 7280,-0.00040272,0.00046961,0.00053492,0.00269649,-0.00126923,0.000804
 23,0.00008760,-0.00033526,0.00122916,-0.00137697,0.00249456,-0.0091502
 1,0.00276803,0.00056961,-0.33120345,0.02008358,0.04303916,-0.01245328,
 0.00022482,0.00316659,0.00029964,-0.00001124,0.00048417,0.00009705,-0.
 00003462,-0.00014513,-0.00000197,0.00000348,0.00000173,-0.00000765,0.0
 0000402,-0.00000537,0.00000225,0.00000309,0.00000071,-0.00000086,0.000
 00499,-0.00000092,0.00000055,-0.00000517,0.00000262,0.00000390,0.00000
 034,0.00000162,-0.00000544,-0.00000125,-0.00000058,0.00000227,0.000003
 99,-0.00000147,0.00000185,0.00000992,0.00000552,-0.00000486,-0.0000000
 5,-0.00000681,0.00000129,0.00000035,0.00000061,-0.00000925,0.00000057,
 -0.00000187,-0.00000864,-0.00000466,0.00000449,-0.00001049,0.00000581,
 0.00000077,-0.00000433,0.00000907,-0.00000560,-0.00011953,0.00005362,-
 0.00007354,-0.00010261,0.00006028,-0.00003440,0.00001176,-0.00000279,0
 .00000707,0.00001659,-0.00000787,-0.00000916,-0.00001359,0.00000440,-0
 .00000608,0.00000341,0.00000269,-0.00000215,0.00000458,0.00000686,-0.0
 0001756,-0.00000244,-0.00000499,0.00000844,0.00000375,-0.00000950,-0.0
 0000646,0.00000828,0.00001791,0.00000853,0.00000164,0.00000282,-0.0000
 0329,-0.00000132,-0.00000159,-0.00000539,0.00000667,0.00000832,0.00000
 072,-0.00011194,0.00017889,-0.00006683,-0.00013021,-0.00010288,-0.0001
 1728,-0.00044267,0.00018311,0.00000380,0.00073912,-0.00068716,-0.00067
 735,0.35115859,0.00000143,0.00002798,-0.00000212,-0.00000973,0.0000125
 3,0.00001919,0.00001291,0.00003988,-0.00000698,-0.00013681,-0.00016909
 ,-0.00003756,0.00003537,0.00003878,0.00000780,0.00002647,0.00005167,0.
 00002588,-0.00010650,-0.00002949,-0.00006346,0.00010966,-0.00004967,0.
 00002277,0.00016231,0.00010296,0.00002164,-0.00006375,-0.00000739,-0.0
 0000529,0.00008129,-0.00003628,-0.00003354,-0.00010666,-0.00005653,0.0
 0000640,0.00006497,-0.00013276,-0.00014222,-0.00039641,0.00030702,0.00
 087356,0.00002841,-0.00035378,0.00024100,-0.00007300,-0.00051665,-0.00
 161411,0.00000732,0.00001819,-0.00036645,-0.00016877,0.00007560,0.0001
 7056,0.00001511,-0.00007612,-0.00002731,-0.00002172,0.00018603,-0.0000
 4289,0.00001509,-0.00004945,0.00000696,0.00000669,-0.00003687,0.000007
 06,-0.00001832,-0.00005308,-0.00000429,0.00005314,0.00000519,0.0000190
 2,-0.00001839,0.00002945,-0.00002146,0.00107232,0.00026235,-0.00039514
 ,0.00146641,-0.00112736,0.00465844,-0.00000344,-0.00075213,0.00017439,
 -0.00038051,0.00057813,0.00593328,-0.02130861,0.00531080,0.00349478,0.
 01995354,-0.05114271,0.00714249,0.02223621,0.00282249,-0.00391031,-0.0
 0032160,-0.00057651,-0.00011182,-0.00018026,0.00031902,0.00003132,0.00
 000296,-0.00000447,-0.00000547,0.00001354,-0.00001034,0.00000483,0.000
 00112,-0.00000549,-0.00000300,0.00000383,-0.00001716,-0.00000192,0.000
 00217,0.00001298,-0.00000658,-0.00000886,-0.00000296,-0.00000131,0.000
 01316,0.00000426,-0.00000076,-0.00000477,-0.00000600,0.00000105,-0.000
 00150,-0.00001978,-0.00002336,0.00001133,0.00000724,0.00001154,-0.0000
 0964,-0.00000366,-0.00000919,0.00000965,0.00000195,-0.00002921,0.00001
 002,-0.00000033,-0.00000600,-0.00000170,-0.00000423,-0.00001440,-0.000
 00567,-0.00001535,-0.00002441,-0.00004421,-0.00001157,0.00000556,0.000
 11057,-0.00007694,0.00004949,-0.00001350,-0.00000021,-0.00000845,-0.00
 001393,0.00000893,0.00000945,0.00000807,-0.00000554,0.00000604,-0.0000
 0191,-0.00000444,0.00000770,-0.00000463,-0.00000412,0.00001171,0.00000
 220,0.00000305,-0.00000880,-0.00000391,0.00000707,0.00000660,-0.000009
 25,-0.00000856,-0.00000405,-0.00000080,-0.00000530,0.00000297,0.000002
 83,-0.00000391,0.00000195,-0.00000933,-0.00001949,-0.00000246,0.000207
 85,-0.00016725,0.00022201,-0.00009774,-0.00036140,-0.00057220,-0.00091
 873,0.00018325,0.00025851,-0.00021983,-0.00117546,-0.00307501,-0.02126
 303,0.04674224,-0.00000566,-0.00002157,-0.00000102,0.00000661,0.000001
 99,-0.00000847,-0.00002701,-0.00003612,-0.00003598,0.00013680,0.000178
 81,0.00023381,-0.00003329,-0.00004025,-0.00004761,-0.00002010,-0.00002
 931,-0.00005474,-0.00005855,-0.00007821,-0.00010711,-0.00003771,0.0000
 8241,0.00005840,0.00015784,-0.00012492,-0.00005507,-0.00001510,0.00008
 066,0.00005235,-0.00007325,-0.00003519,-0.00006093,0.00011635,-0.00012
 293,0.00000965,-0.00001229,-0.00004595,-0.00007831,0.00035501,0.000503
 32,-0.00093217,0.00001946,0.00064968,-0.00043632,-0.00043698,-0.001343
 18,-0.00140861,0.00001114,-0.00041521,-0.00008260,0.00014734,0.0001539
 4,0.00008447,-0.00010429,-0.00005762,-0.00004658,0.00002156,-0.0000766
 5,0.00008590,-0.00001219,0.00002352,-0.00000779,-0.00000207,0.00001472
 ,-0.00001318,-0.00000236,0.00002812,-0.00001123,-0.00001388,-0.0000010
 9,-0.00000856,-0.00000367,-0.00001508,0.00000852,-0.00076257,-0.000054
 56,0.00026595,-0.00031374,0.00438983,0.00164810,-0.00022961,0.00025071
 ,-0.00070400,0.00175038,0.00605740,0.00278456,0.01945117,-0.00137556,0
 .00150416,0.04404046,0.00701188,-0.05177549,-0.01445241,0.00060713,0.0
 0608596,-0.00001829,0.00051583,0.00043666,0.00032077,-0.00043385,-0.00
 048936,-0.00000255,0.00000500,0.00000001,-0.00000642,0.00001336,-0.000
 00539,0.00000224,0.00000482,-0.00000097,0.00000384,0.00000341,0.000003
 11,0.00000440,-0.00001966,0.00000576,0.00000615,0.00000208,0.00000808,
 -0.00001724,-0.00000568,0.00000268,0.00001631,0.00000895,-0.00000995,0
 .00001309,-0.00002141,0.00000789,0.00000305,0.00000804,-0.00002805,-0.
 00002595,0.00000286,0.00000292,-0.00002343,-0.00001187,0.00000706,-0.0
 0002038,-0.00000670,0.00001581,-0.00001429,0.00001028,0.00001509,-0.00
 000026,0.00002476,-0.00000037,-0.00007980,0.00000278,-0.00003964,-0.00
 007796,0.00003822,-0.00002786,0.00000365,-0.00000254,0.00000353,0.0000
 1244,-0.00000268,-0.00000933,-0.00000392,0.00000217,-0.00000575,0.0000
 0136,0.00000537,-0.00000192,0.00000335,0.00000128,-0.00000635,-0.00000
 350,-0.00000207,0.00000057,0.00000327,-0.00000600,-0.00000511,0.000003
 55,0.00000863,0.00000417,-0.00000145,0.00000440,-0.00000507,0.00000879
 ,-0.00000096,-0.00000393,0.00000430,0.00001038,0.00000476,-0.00011397,
 0.00025305,0.00000977,-0.00012408,-0.00056124,-0.00062247,0.00086201,0
 .00003567,0.00007333,-0.00099586,-0.00296521,-0.00251582,-0.04924160,-
 0.01299150,0.04616589,-0.00015061,0.00018006,-0.00013751,0.00000635,0.
 00004140,0.00022329,0.00004226,0.00029459,-0.00001523,-0.00130217,-0.0
 0054800,0.00002688,0.00013127,0.00010817,0.00000055,0.00015250,0.00022
 656,0.00016488,0.00302474,0.00101828,0.00060184,-0.00074390,-0.0000239
 6,0.00042473,0.00032852,-0.00061444,-0.00051148,-0.00030536,0.00034321
 ,0.00031076,-0.00005512,-0.00038864,-0.00031756,0.00008246,-0.00005653
 ,-0.00006594,0.00051148,-0.00030695,-0.00031796,-0.00163927,0.00049889
 ,0.00055923,0.00130805,-0.00533650,-0.00547475,0.00487129,0.00100903,0
 .00195490,-0.00047965,0.00286939,-0.00277036,-0.00173890,-0.00109215,0
 .00105433,-0.00105611,0.00032145,0.00038428,-0.00037771,-0.00014439,-0
 .00082479,0.00013077,0.00004883,0.00018041,0.00006711,0.00002213,0.000
 17743,0.00043647,0.00020341,0.00040336,-0.00146418,-0.00025614,-0.0013
 7567,0.00162677,-0.00138662,0.00107834,-0.00002727,0.00031157,-0.00034
 496,0.00049047,-0.00066451,0.00007781,-0.00027619,0.00010401,0.0000276
 2,0.00020525,0.00004002,-0.00006637,-0.00034368,-0.00001335,0.00007214
 ,0.00025814,0.00047086,-0.00041228,-0.00146580,-0.00163305,0.00135604,
 -0.02403415,0.00822712,0.01081287,-0.43194708,-0.03540939,0.02382919,0
 .00005430,0.00000932,-0.00007176,0.00023629,-0.00021663,0.00009013,0.0
 0000237,-0.00003334,-0.00003744,0.00004271,-0.00028284,-0.00003369,0.0
 0008388,0.00007645,-0.00009609,-0.00001223,-0.00001066,-0.00000292,0.0
 0004970,0.00001395,-0.00000271,-0.00000223,-0.00001337,-0.00001032,-0.
 00013996,-0.00011296,-0.00028495,0.00008159,0.00001989,0.00006274,0.00
 002168,-0.00002311,-0.00001857,0.00006126,0.00013515,0.00001300,0.0000
 5040,-0.00000124,-0.00001091,-0.00000943,-0.00002375,-0.00001301,-0.00
 000784,-0.00006500,-0.00005086,-0.00010572,-0.00010958,-0.00007166,0.0
 0089743,-0.00040800,0.00037042,0.00005038,0.00002252,-0.00001023,-0.00
 005752,-0.00000120,0.00000200,0.00002890,-0.00001788,0.00000307,-0.000
 00319,-0.00000913,-0.00003994,-0.00000218,-0.00002022,0.00002633,0.000
 00552,0.00000880,0.00003908,0.00000190,0.00001237,-0.00000600,0.000116
 83,-0.00010170,-0.00009131,0.00003224,0.00006653,0.00015457,-0.0004034
 1,0.00053122,0.00039568,-0.00032555,0.00009370,0.00008106,0.00002109,0
 .00004435,-0.00001203,0.00000813,-0.00001987,-0.00000135,-0.00001209,0
 .00002183,-0.00002146,-0.00001336,0.00004120,-0.00003619,-0.00012877,0
 .00019947,-0.00009900,0.45311013,-0.00023201,-0.00017334,0.00013759,-0
 .00000256,-0.00004993,-0.00047555,-0.00018192,-0.00053093,0.00026469,0
 .00139585,0.00028955,-0.00042461,0.00000772,-0.00012070,0.00002680,-0.
 00015912,-0.00019160,-0.00003824,0.00111398,-0.00203479,-0.00420662,0.
 00075095,0.00144601,-0.00022002,-0.00026933,-0.00040801,-0.00015774,-0
 .00010061,0.00019072,0.00023922,-0.00024250,-0.00019035,-0.00010477,0.
 00028599,-0.00005418,-0.00018750,0.00007482,0.00035908,0.00034575,0.00
 036590,-0.00045639,0.00000787,0.00094785,-0.00110585,-0.00118055,0.002
 36453,0.00157905,0.00205568,-0.00011350,0.00447163,-0.00377669,-0.0020
 9469,-0.00318663,0.00206455,-0.00052982,-0.00052414,0.00029985,-0.0003
 3594,0.00274654,0.00061208,0.00003999,-0.00071522,-0.00022260,0.000085
 99,-0.00058914,-0.00016608,-0.00093669,-0.00122784,-0.00103241,0.00181
 754,0.00020388,0.00220883,-0.00107111,0.00263719,-0.00204822,0.0007042
 6,0.00044015,-0.00085281,0.00046642,-0.00069894,0.00053234,-0.00002768
 ,0.00026359,-0.00021122,0.00035019,-0.00020879,0.00006487,-0.00052797,
 -0.00007890,0.00027960,0.00000177,0.00041051,-0.00032219,-0.00110472,-
 0.00183573,0.00174264,0.03306621,0.00275111,-0.00069243,-0.06689032,-0
 .03617687,-0.01590026,0.00018711,0.00009423,-0.00011135,-0.00000575,0.
 00005241,0.00021701,0.00009394,0.00003443,0.00002942,-0.00036956,0.000
 11573,0.00000276,-0.00001988,-0.00008834,0.00016252,0.00002466,-0.0000
 0337,-0.00000273,-0.00003636,0.00000391,0.00000443,-0.00003073,0.00001
 484,0.00001761,0.00000284,0.00008119,0.00019238,-0.00010166,0.00000798
 ,-0.00005370,-0.00000095,-0.00000969,-0.00000439,0.00010896,-0.0002629
 2,-0.00002160,-0.00001889,0.00001515,0.00001086,-0.00002150,0.00000588
 ,0.00000773,-0.00000267,0.00001529,-0.00000115,-0.00005923,-0.00006968
 ,-0.00003618,0.00035848,0.00025702,0.00039138,-0.00024769,-0.00003925,
 -0.00002523,-0.00001075,0.00006006,0.00003586,0.00012876,0.00001285,0.
 00001926,-0.00002925,0.00008183,0.00006978,0.00000282,-0.00003101,0.00
 012513,-0.00001422,0.00003215,-0.00019431,-0.00011330,0.00008708,0.000
 11917,-0.00034604,0.00003424,0.00010515,-0.00003789,0.00000563,-0.0000
 7069,0.00011552,-0.00040187,-0.00009728,-0.00041351,-0.00190108,-0.000
 23762,0.00004730,0.00006723,-0.00002188,0.00005271,0.00001667,-0.00000
 623,0.00002622,0.00002727,-0.00002922,-0.00001249,0.00001497,-0.000043
 71,0.00001412,-0.00005924,-0.00009064,0.03170938,0.03449765,0.00005657
 ,-0.00017803,-0.00014966,0.00009983,-0.00004191,0.00033460,-0.00022635
 ,0.00000864,-0.00013212,0.00079127,-0.00015055,-0.00033858,-0.00002254
 ,0.00005638,-0.00005090,-0.00021190,0.00002035,-0.00032863,0.00131220,
 -0.00492177,-0.00136254,0.00137218,-0.00004742,0.00101413,-0.00016756,
 -0.00001366,-0.00006923,-0.00007412,0.00010950,0.00003543,-0.00013045,
 -0.00006827,-0.00004424,0.00016832,-0.00010652,-0.00000562,-0.00002260
 ,0.00030854,0.00014282,0.00023505,0.00013355,-0.00048009,0.00043292,0.
 00032496,-0.00090697,0.00045583,0.00047528,-0.00022628,-0.00134372,-0.
 00066375,-0.00012878,0.00054588,0.00093002,-0.00061281,-0.00088263,-0.
 00014510,0.00016087,-0.00044302,0.00075267,0.00012439,0.00007862,-0.00
 020862,-0.00003854,0.00007554,-0.00020125,-0.00001126,-0.00017441,-0.0
 0029482,-0.00017332,0.00039289,0.00025802,-0.00010222,-0.00059634,0.00
 025546,-0.00023834,0.00038473,0.00063904,-0.00055380,0.00110583,-0.000
 51236,0.00008490,-0.00015950,0.00020393,-0.00018911,0.00041591,-0.0000
 1418,-0.00009547,-0.00048189,-0.00015846,0.00008971,-0.00006690,0.0008
 0232,-0.00075715,-0.00068745,-0.00116371,0.00164172,0.03247168,0.00346
 896,-0.00360396,-0.00363377,-0.02043363,-0.02614666,-0.00010724,-0.000
 01788,0.00005924,-0.00006992,0.00020981,-0.00000311,-0.00007478,0.0000
 2640,-0.00002005,0.00002112,0.00013160,0.00005230,-0.00002950,-0.00006
 106,-0.00000637,-0.00002615,0.00000627,0.00000866,-0.00000126,-0.00000
 642,0.00000552,0.00001874,-0.00000702,-0.00001084,-0.00018039,-0.00002
 281,0.00027853,-0.00008619,0.00004029,-0.00005173,-0.00006470,-0.00000
 448,-0.00006231,0.00006982,-0.00009970,-0.00035623,-0.00002230,0.00001
 422,0.00001566,-0.00001403,0.00000277,0.00000702,-0.00000077,0.0000046
 9,0.00001966,-0.00003533,-0.00004305,-0.00002963,0.00029630,-0.0004574
 9,-0.00143792,-0.00006291,-0.00000435,-0.00001108,0.00000229,0.0000250
 6,0.00000284,0.00004991,-0.00000003,0.00000607,-0.00000812,0.00006408,
 -0.00004036,0.00002516,-0.00001392,0.00005270,-0.00000968,0.00001720,-
 0.00005401,0.00003953,0.00001279,0.00001705,-0.00003372,-0.00001691,-0
 .00001477,-0.00003934,0.00002028,-0.00017622,0.00066868,-0.00023950,-0
 .00031632,-0.00009255,-0.00016018,0.00034755,0.00004095,0.00006609,-0.
 00003462,0.00003074,0.00001065,0.00000545,0.00000598,0.00002997,-0.000
 00009,-0.00001048,0.00005630,0.00000758,-0.00006823,0.00011704,0.00006
 420,-0.03130171,0.02087566,0.03479335\\-0.00000191,-0.00000397,-0.0000
 0615,-0.00000153,0.00000178,0.00001033,-0.00000501,-0.00000401,-0.0000
 0400,-0.00000318,0.00000429,0.00000223,0.00000057,0.00000212,0.0000017
 3,-0.00000355,-0.00000246,0.00000562,0.00001510,-0.00000597,-0.0000057
 9,-0.00000475,-0.00000139,0.00000229,-0.00000215,0.00000114,-0.0000003
 8,0.00000137,-0.00000005,-0.00000140,0.00000090,-0.00000097,-0.0000010
 9,-0.00000075,-0.00000148,-0.00000228,-0.00000158,0.00000070,0.0000001
 8,0.00000487,-0.00000013,0.00000084,-0.00000567,-0.00000023,-0.0000025
 9,-0.00000210,-0.00000128,-0.00000106,0.00000029,-0.00000556,0.0000041
 3,0.00000208,0.00000695,-0.00000023,0.00000545,-0.00000080,-0.00000462
 ,-0.00000218,-0.00000449,0.00000030,-0.00000160,0.00000064,-0.00000239
 ,0.00000143,0.00000157,0.00000064,0.00000335,0.00000047,0.00000380,-0.
 00000343,0.00000215,-0.00000510,0.00000256,-0.00000256,0.00000700,-0.0
 0000408,0.00000307,0.00000012,-0.00000090,-0.00000006,0.00000112,-0.00
 000238,0.,0.00000057,-0.00000075,-0.00000177,0.00000042,0.00000046,-0.
 00000160,0.00000019,0.00000263,-0.00000068,-0.00000153,0.00000008,0.00
 000286,-0.00000117,-0.00000399,0.00000609,0.00000192,-0.00000349,0.000
 00110,-0.00000184,0.00000110,0.00000005,0.00000217,0.00000018,0.000001
 37,0.00000225,0.00000086,0.00000304,-0.00000002,0.00000278,0.00000376,
 -0.00000198,0.00000323,-0.00000166,0.00000187,-0.00000214,0.00000127,0
 .00000030,-0.00000112,-0.00000056,-0.00000202,0.00000109,-0.00000069,0
 .00000156,0.00000299,0.00000117,-0.00000191,0.00000109,-0.00000257,0.0
 0000012,0.00000002,0.00000146,-0.00000016,0.00000083,0.00000189,0.0000
 0046,-0.00000038,0.00000048,0.00000022,0.00000003,0.00000108,-0.000000
 33,0.00000047,0.00000073,-0.00000007,0.00000037,-0.00000014,-0.0000001
 3,-0.00000340,-0.00000108,-0.00000049,0.00000070,0.00000136,0.00000063
 ,0.00000014,0.00000017,-0.00000217,-0.00000043,-0.00000206,0.00000171,
 -0.00000107,0.00000254,-0.00000318,-0.00000086,-0.00000253,0.00000150,
 0.00000225,0.00000047,0.00000106,-0.00000158,0.00000084,-0.00000161,0.
 00000256,0.00000117,0.00000143,-0.00000120,-0.00000218,0.00000169,0.00
 000050,-0.00000043,-0.00000228,0.00000038,0.00000101,-0.00000023,0.000
 00072,-0.00000154,-0.00000059,0.00000061,-0.00000027,-0.00000083,0.000
 00027,-0.00000039,-0.00000135,-0.00000013,0.00000013,-0.00000091,-0.00
 000028,-0.00000081,-0.00000032,0.00000327,-0.00000253,0.00000183\\\@
 The archive entry for this job was punched.


 KNOWLEDGE IS CHIMERA - FOR BEYOND IT LIES OTHER KNOWLEDGE,
 AND THE INCOMPLETENESS OF WHAT IS KNOWN RENDERS THE KNOWING FALSE.
     -- THE THOMAS COVENANT CHRONICLES
 Job cpu time:       0 days  8 hours 12 minutes 15.2 seconds.
 Elapsed time:       0 days  0 hours 15 minutes 33.7 seconds.
 File lengths (MBytes):  RWF=   2321 Int=      0 D2E=      0 Chk=     28 Scr=      1
 Normal termination of Gaussian 16 at Thu Jan 23 10:39:39 2025.
