 Entering Gaussian System, Link 0=g16
 Initial command:
 /public/software/apps/Gaussian/g16/l1.exe "/tmp/Gau-103351.inp" -scrdir="/tmp/"
 Entering Link 1 = /public/software/apps/Gaussian/g16/l1.exe PID=    103352.
  
 Copyright (c) 1988-2019, Gaussian, Inc.  All Rights Reserved.
  
 This is part of the Gaussian(R) 16 program.  It is based on
 the Gaussian(R) 09 system (copyright 2009, Gaussian, Inc.),
 the Gaussian(R) 03 system (copyright 2003, Gaussian, Inc.),
 the Gaussian(R) 98 system (copyright 1998, Gaussian, Inc.),
 the Gaussian(R) 94 system (copyright 1995, Gaussian, Inc.),
 the Gaussian 92(TM) system (copyright 1992, Gaussian, Inc.),
 the Gaussian 90(TM) system (copyright 1990, Gaussian, Inc.),
 the Gaussian 88(TM) system (copyright 1988, Gaussian, Inc.),
 the Gaussian 86(TM) system (copyright 1986, Carnegie Mellon
 University), and the Gaussian 82(TM) system (copyright 1983,
 Carnegie Mellon University). Gaussian is a federally registered
 trademark of Gaussian, Inc.
  
 This software contains proprietary and confidential information,
 including trade secrets, belonging to Gaussian, Inc.
  
 This software is provided under written license and may be
 used, copied, transmitted, or stored only in accord with that
 written license.
  
 The following legend is applicable only to US Government
 contracts under FAR:
  
                    RESTRICTED RIGHTS LEGEND
  
 Use, reproduction and disclosure by the US Government is
 subject to restrictions as set forth in subparagraphs (a)
 and (c) of the Commercial Computer Software - Restricted
 Rights clause in FAR 52.227-19.
  
 Gaussian, Inc.
 340 Quinnipiac St., Bldg. 40, Wallingford CT 06492
  
  
 ---------------------------------------------------------------
 Warning -- This program may not be used in any manner that
 competes with the business of Gaussian, Inc. or will provide
 assistance to any competitor of Gaussian, Inc.  The licensee
 of this program is prohibited from giving any competitor of
 Gaussian, Inc. access to this program.  By using this program,
 the user acknowledges that Gaussian, Inc. is engaged in the
 business of creating and licensing software in the field of
 computational chemistry and represents and warrants to the
 licensee that it is not a competitor of Gaussian, Inc. and that
 it will not use this program in any manner prohibited above.
 ---------------------------------------------------------------
  

 Cite this work as:
 Gaussian 16, Revision C.01,
 M. J. Frisch, G. W. Trucks, H. B. Schlegel, G. E. Scuseria, 
 M. A. Robb, J. R. Cheeseman, G. Scalmani, V. Barone, 
 G. A. Petersson, H. Nakatsuji, X. Li, M. Caricato, A. V. Marenich, 
 J. Bloino, B. G. Janesko, R. Gomperts, B. Mennucci, H. P. Hratchian, 
 J. V. Ortiz, A. F. Izmaylov, J. L. Sonnenberg, D. Williams-Young, 
 F. Ding, F. Lipparini, F. Egidi, J. Goings, B. Peng, A. Petrone, 
 T. Henderson, D. Ranasinghe, V. G. Zakrzewski, J. Gao, N. Rega, 
 G. Zheng, W. Liang, M. Hada, M. Ehara, K. Toyota, R. Fukuda, 
 J. Hasegawa, M. Ishida, T. Nakajima, Y. Honda, O. Kitao, H. Nakai, 
 T. Vreven, K. Throssell, J. A. Montgomery, Jr., J. E. Peralta, 
 F. Ogliaro, M. J. Bearpark, J. J. Heyd, E. N. Brothers, K. N. Kudin, 
 V. N. Staroverov, T. A. Keith, R. Kobayashi, J. Normand, 
 K. Raghavachari, A. P. Rendell, J. C. Burant, S. S. Iyengar, 
 J. Tomasi, M. Cossi, J. M. Millam, M. Klene, C. Adamo, R. Cammi, 
 J. W. Ochterski, R. L. Martin, K. Morokuma, O. Farkas, 
 J. B. Foresman, and D. J. Fox, Gaussian, Inc., Wallingford CT, 2019.
 
 ******************************************
 Gaussian 16:  ES64L-G16RevC.01  3-Jul-2019
                23-Jan-2025 
 ******************************************
 %nprocshared=32
 Will use up to   32 processors via shared memory.
 %mem=100GB
 ------------------------------------------
 #p opt freq b3lyp/def2svpp em=gd3bj nosymm
 ------------------------------------------
 1/18=20,19=15,26=3,38=1/1,3;
 2/9=110,12=2,15=1,17=6,18=5,40=1/2;
 3/5=43,7=202,11=2,25=1,30=1,71=1,74=-5,124=41/1,2,3;
 4//1;
 5/5=2,38=5/2;
 6/7=2,8=2,9=2,10=2,28=1/1;
 7/30=1/1,2,3,16;
 1/18=20,19=15,26=3/3(2);
 2/9=110,15=1/2;
 99//99;
 2/9=110,15=1/2;
 3/5=43,7=202,11=2,25=1,30=1,71=1,74=-5,124=41/1,2,3;
 4/5=5,16=3,69=1/1;
 5/5=2,38=5/2;
 7/30=1/1,2,3,16;
 1/18=20,19=15,26=3/3(-5);
 2/9=110,15=1/2;
 6/7=2,8=2,9=2,10=2,19=2,28=1/1;
 99/9=1/99;
 Leave Link    1 at Thu Jan 23 10:34:39 2025, MaxMem= 13421772800 cpu:               0.8 elap:               0.0
 (Enter /public/software/apps/Gaussian/g16/l101.exe)
 ----------------------
 $$$$Singlemol####0????
 ----------------------
 Symbolic Z-matrix:
 Charge =  0 Multiplicity = 1
 O                     1.08487  -1.15898   1.33179 
 C                     1.56739  -0.22949   0.47219 
 C                     2.90934   0.24355   0.5249 
 C                     3.85699  -0.20248   1.53455 
 C                     5.08752   0.30101   1.87894 
 C                     5.58097  -0.50892   2.92602 
 C                     4.62952  -1.4505    3.15632 
 O                     3.58429  -1.27651   2.32538 
 C                     3.3215    1.17128  -0.41101 
 C                     2.45941   1.66999  -1.39771 
 C                     2.88745   2.61856  -2.35224 
 C                     2.02519   3.09642  -3.29686 
 C                     0.69395   2.64913  -3.32723 
 C                     0.24877   1.72957  -2.42018 
 C                     1.11675   1.21008  -1.43562 
 C                     0.69717   0.25123  -0.4885 
 C                    -0.69649  -0.25372  -0.48853 
 C                    -1.56011   0.20868   0.48668 
 O                    -1.07652   1.12994   1.3549 
 C                    -2.90574  -0.25425   0.5305 
 C                    -3.86222   0.21902   1.51925 
 C                    -5.22932   0.09594   1.5598 
 C                    -5.66113   0.73733   2.7423 
 C                    -4.54037   1.20952   3.34717 
 O                    -3.44893   0.90573   2.61943 
 C                    -3.32098  -1.17507  -0.41043 
 C                    -2.46259  -1.66317  -1.40587 
 C                    -2.89223  -2.60733  -2.36397 
 C                    -2.03459  -3.07256  -3.3191 
 C                    -0.70639  -2.61698  -3.35635 
 C                    -0.25899  -1.70355  -2.44416 
 C                    -1.12191  -1.19783  -1.44807 
 H                     1.77851  -1.42605   1.95048 
 H                     5.5807    1.15028   1.45492 
 H                     6.51625  -0.40153   3.43561 
 H                     4.56891  -2.2661    3.84881 
 H                     4.34046   1.52554  -0.39467 
 H                     3.91245   2.95991  -2.31783 
 H                     2.35807   3.82223  -4.02444 
 H                     0.0221    3.04065  -4.07721 
 H                    -0.775     1.38686  -2.44417 
 H                    -1.74264   1.32741   2.02763 
 H                    -5.85761  -0.37732   0.83476 
 H                    -6.66886   0.83237   3.09077 
 H                    -4.38175   1.75445   4.25618 
 H                    -4.3338   -1.54583  -0.3796 
 H                    -3.91499  -2.95477  -2.32447 
 H                    -2.36885  -3.79465  -4.04973 
 H                    -0.03837  -2.99779  -4.11523 
 H                     0.7628   -1.35537  -2.47284 
 
 ITRead=  0  0  0  0  0  0  0  0  0  0  0  0  0  0  0  0  0  0  0  0
 ITRead=  0  0  0  0  0  0  0  0  0  0  0  0  0  0  0  0  0  0  0  0
 ITRead=  0  0  0  0  0  0  0  0  0  0
 MicOpt= -1 -1 -1 -1 -1 -1 -1 -1 -1 -1 -1 -1 -1 -1 -1 -1 -1 -1 -1 -1
 MicOpt= -1 -1 -1 -1 -1 -1 -1 -1 -1 -1 -1 -1 -1 -1 -1 -1 -1 -1 -1 -1
 MicOpt= -1 -1 -1 -1 -1 -1 -1 -1 -1 -1
 NAtoms=     50 NQM=       50 NQMF=       0 NMMI=      0 NMMIF=      0
                NMic=       0 NMicF=      0.
                    Isotopes and Nuclear Properties:
 (Nuclear quadrupole moments (NQMom) in fm**2, nuclear magnetic moments (NMagM)
  in nuclear magnetons)

  Atom         1           2           3           4           5           6           7           8           9          10
 IAtWgt=          16          12          12          12          12          12          12          16          12          12
 AtmWgt=  15.9949146  12.0000000  12.0000000  12.0000000  12.0000000  12.0000000  12.0000000  15.9949146  12.0000000  12.0000000
 NucSpn=           0           0           0           0           0           0           0           0           0           0
 AtZEff=  -0.0000000  -0.0000000  -0.0000000  -0.0000000  -0.0000000  -0.0000000  -0.0000000  -0.0000000  -0.0000000  -0.0000000
 NQMom=    0.0000000   0.0000000   0.0000000   0.0000000   0.0000000   0.0000000   0.0000000   0.0000000   0.0000000   0.0000000
 NMagM=    0.0000000   0.0000000   0.0000000   0.0000000   0.0000000   0.0000000   0.0000000   0.0000000   0.0000000   0.0000000
 AtZNuc=   8.0000000   6.0000000   6.0000000   6.0000000   6.0000000   6.0000000   6.0000000   8.0000000   6.0000000   6.0000000

  Atom        11          12          13          14          15          16          17          18          19          20
 IAtWgt=          12          12          12          12          12          12          12          12          16          12
 AtmWgt=  12.0000000  12.0000000  12.0000000  12.0000000  12.0000000  12.0000000  12.0000000  12.0000000  15.9949146  12.0000000
 NucSpn=           0           0           0           0           0           0           0           0           0           0
 AtZEff=  -0.0000000  -0.0000000  -0.0000000  -0.0000000  -0.0000000  -0.0000000  -0.0000000  -0.0000000  -0.0000000  -0.0000000
 NQMom=    0.0000000   0.0000000   0.0000000   0.0000000   0.0000000   0.0000000   0.0000000   0.0000000   0.0000000   0.0000000
 NMagM=    0.0000000   0.0000000   0.0000000   0.0000000   0.0000000   0.0000000   0.0000000   0.0000000   0.0000000   0.0000000
 AtZNuc=   6.0000000   6.0000000   6.0000000   6.0000000   6.0000000   6.0000000   6.0000000   6.0000000   8.0000000   6.0000000

  Atom        21          22          23          24          25          26          27          28          29          30
 IAtWgt=          12          12          12          12          16          12          12          12          12          12
 AtmWgt=  12.0000000  12.0000000  12.0000000  12.0000000  15.9949146  12.0000000  12.0000000  12.0000000  12.0000000  12.0000000
 NucSpn=           0           0           0           0           0           0           0           0           0           0
 AtZEff=  -0.0000000  -0.0000000  -0.0000000  -0.0000000  -0.0000000  -0.0000000  -0.0000000  -0.0000000  -0.0000000  -0.0000000
 NQMom=    0.0000000   0.0000000   0.0000000   0.0000000   0.0000000   0.0000000   0.0000000   0.0000000   0.0000000   0.0000000
 NMagM=    0.0000000   0.0000000   0.0000000   0.0000000   0.0000000   0.0000000   0.0000000   0.0000000   0.0000000   0.0000000
 AtZNuc=   6.0000000   6.0000000   6.0000000   6.0000000   8.0000000   6.0000000   6.0000000   6.0000000   6.0000000   6.0000000

  Atom        31          32          33          34          35          36          37          38          39          40
 IAtWgt=          12          12           1           1           1           1           1           1           1           1
 AtmWgt=  12.0000000  12.0000000   1.0078250   1.0078250   1.0078250   1.0078250   1.0078250   1.0078250   1.0078250   1.0078250
 NucSpn=           0           0           1           1           1           1           1           1           1           1
 AtZEff=  -0.0000000  -0.0000000  -0.0000000  -0.0000000  -0.0000000  -0.0000000  -0.0000000  -0.0000000  -0.0000000  -0.0000000
 NQMom=    0.0000000   0.0000000   0.0000000   0.0000000   0.0000000   0.0000000   0.0000000   0.0000000   0.0000000   0.0000000
 NMagM=    0.0000000   0.0000000   2.7928460   2.7928460   2.7928460   2.7928460   2.7928460   2.7928460   2.7928460   2.7928460
 AtZNuc=   6.0000000   6.0000000   1.0000000   1.0000000   1.0000000   1.0000000   1.0000000   1.0000000   1.0000000   1.0000000

  Atom        41          42          43          44          45          46          47          48          49          50
 IAtWgt=           1           1           1           1           1           1           1           1           1           1
 AtmWgt=   1.0078250   1.0078250   1.0078250   1.0078250   1.0078250   1.0078250   1.0078250   1.0078250   1.0078250   1.0078250
 NucSpn=           1           1           1           1           1           1           1           1           1           1
 AtZEff=  -0.0000000  -0.0000000  -0.0000000  -0.0000000  -0.0000000  -0.0000000  -0.0000000  -0.0000000  -0.0000000  -0.0000000
 NQMom=    0.0000000   0.0000000   0.0000000   0.0000000   0.0000000   0.0000000   0.0000000   0.0000000   0.0000000   0.0000000
 NMagM=    2.7928460   2.7928460   2.7928460   2.7928460   2.7928460   2.7928460   2.7928460   2.7928460   2.7928460   2.7928460
 AtZNuc=   1.0000000   1.0000000   1.0000000   1.0000000   1.0000000   1.0000000   1.0000000   1.0000000   1.0000000   1.0000000
 Leave Link  101 at Thu Jan 23 10:34:39 2025, MaxMem= 13421772800 cpu:               5.1 elap:               0.2
 (Enter /public/software/apps/Gaussian/g16/l103.exe)

 GradGradGradGradGradGradGradGradGradGradGradGradGradGradGradGradGradGrad
 Berny optimization.
 Initialization pass.
                           ----------------------------
                           !    Initial Parameters    !
                           ! (Angstroms and Degrees)  !
 --------------------------                            --------------------------
 ! Name  Definition              Value          Derivative Info.                !
 --------------------------------------------------------------------------------
 ! R1    R(1,2)                  1.3549         estimate D2E/DX2                !
 ! R2    R(1,33)                 0.9671         estimate D2E/DX2                !
 ! R3    R(2,3)                  1.4239         estimate D2E/DX2                !
 ! R4    R(2,16)                 1.3825         estimate D2E/DX2                !
 ! R5    R(3,4)                  1.4548         estimate D2E/DX2                !
 ! R6    R(3,9)                  1.3808         estimate D2E/DX2                !
 ! R7    R(4,5)                  1.3734         estimate D2E/DX2                !
 ! R8    R(4,8)                  1.3614         estimate D2E/DX2                !
 ! R9    R(5,6)                  1.4127         estimate D2E/DX2                !
 ! R10   R(5,34)                 1.0697         estimate D2E/DX2                !
 ! R11   R(6,7)                  1.3583         estimate D2E/DX2                !
 ! R12   R(6,35)                 1.0705         estimate D2E/DX2                !
 ! R13   R(7,8)                  1.3466         estimate D2E/DX2                !
 ! R14   R(7,36)                 1.0716         estimate D2E/DX2                !
 ! R15   R(9,10)                 1.402          estimate D2E/DX2                !
 ! R16   R(9,37)                 1.0789         estimate D2E/DX2                !
 ! R17   R(10,11)                1.4121         estimate D2E/DX2                !
 ! R18   R(10,15)                1.4197         estimate D2E/DX2                !
 ! R19   R(11,12)                1.3653         estimate D2E/DX2                !
 ! R20   R(11,38)                1.0809         estimate D2E/DX2                !
 ! R21   R(12,13)                1.4047         estimate D2E/DX2                !
 ! R22   R(12,39)                1.0803         estimate D2E/DX2                !
 ! R23   R(13,14)                1.3662         estimate D2E/DX2                !
 ! R24   R(13,40)                1.0803         estimate D2E/DX2                !
 ! R25   R(14,15)                1.4116         estimate D2E/DX2                !
 ! R26   R(14,41)                1.0799         estimate D2E/DX2                !
 ! R27   R(15,16)                1.4116         estimate D2E/DX2                !
 ! R28   R(16,17)                1.4823         estimate D2E/DX2                !
 ! R29   R(17,18)                1.3823         estimate D2E/DX2                !
 ! R30   R(17,32)                1.4118         estimate D2E/DX2                !
 ! R31   R(18,19)                1.3551         estimate D2E/DX2                !
 ! R32   R(18,20)                1.4237         estimate D2E/DX2                !
 ! R33   R(19,42)                0.9671         estimate D2E/DX2                !
 ! R34   R(20,21)                1.4548         estimate D2E/DX2                !
 ! R35   R(20,26)                1.3805         estimate D2E/DX2                !
 ! R36   R(21,22)                1.3732         estimate D2E/DX2                !
 ! R37   R(21,25)                1.3612         estimate D2E/DX2                !
 ! R38   R(22,23)                1.4128         estimate D2E/DX2                !
 ! R39   R(22,43)                1.0698         estimate D2E/DX2                !
 ! R40   R(23,24)                1.3583         estimate D2E/DX2                !
 ! R41   R(23,44)                1.0705         estimate D2E/DX2                !
 ! R42   R(24,25)                1.3465         estimate D2E/DX2                !
 ! R43   R(24,45)                1.0716         estimate D2E/DX2                !
 ! R44   R(26,27)                1.4021         estimate D2E/DX2                !
 ! R45   R(26,46)                1.079          estimate D2E/DX2                !
 ! R46   R(27,28)                1.4121         estimate D2E/DX2                !
 ! R47   R(27,32)                1.4198         estimate D2E/DX2                !
 ! R48   R(28,29)                1.3654         estimate D2E/DX2                !
 ! R49   R(28,47)                1.0809         estimate D2E/DX2                !
 ! R50   R(29,30)                1.4047         estimate D2E/DX2                !
 ! R51   R(29,48)                1.0803         estimate D2E/DX2                !
 ! R52   R(30,31)                1.3662         estimate D2E/DX2                !
 ! R53   R(30,49)                1.0803         estimate D2E/DX2                !
 ! R54   R(31,32)                1.4116         estimate D2E/DX2                !
 ! R55   R(31,50)                1.0799         estimate D2E/DX2                !
 ! A1    A(2,1,33)             109.8714         estimate D2E/DX2                !
 ! A2    A(1,2,3)              122.6887         estimate D2E/DX2                !
 ! A3    A(1,2,16)             117.0808         estimate D2E/DX2                !
 ! A4    A(3,2,16)             120.2289         estimate D2E/DX2                !
 ! A5    A(2,3,4)              122.5319         estimate D2E/DX2                !
 ! A6    A(2,3,9)              118.6501         estimate D2E/DX2                !
 ! A7    A(4,3,9)              118.8148         estimate D2E/DX2                !
 ! A8    A(3,4,5)              130.1854         estimate D2E/DX2                !
 ! A9    A(3,4,8)              120.9682         estimate D2E/DX2                !
 ! A10   A(5,4,8)              108.846          estimate D2E/DX2                !
 ! A11   A(4,5,6)              106.7756         estimate D2E/DX2                !
 ! A12   A(4,5,34)             127.2094         estimate D2E/DX2                !
 ! A13   A(6,5,34)             126.0086         estimate D2E/DX2                !
 ! A14   A(5,6,7)              106.1662         estimate D2E/DX2                !
 ! A15   A(5,6,35)             126.9041         estimate D2E/DX2                !
 ! A16   A(7,6,35)             126.9297         estimate D2E/DX2                !
 ! A17   A(6,7,8)              110.4587         estimate D2E/DX2                !
 ! A18   A(6,7,36)             132.5925         estimate D2E/DX2                !
 ! A19   A(8,7,36)             116.9488         estimate D2E/DX2                !
 ! A20   A(4,8,7)              107.7533         estimate D2E/DX2                !
 ! A21   A(3,9,10)             122.1751         estimate D2E/DX2                !
 ! A22   A(3,9,37)             119.4898         estimate D2E/DX2                !
 ! A23   A(10,9,37)            118.3339         estimate D2E/DX2                !
 ! A24   A(9,10,11)            121.8898         estimate D2E/DX2                !
 ! A25   A(9,10,15)            119.0184         estimate D2E/DX2                !
 ! A26   A(11,10,15)           119.0916         estimate D2E/DX2                !
 ! A27   A(10,11,12)           120.7523         estimate D2E/DX2                !
 ! A28   A(10,11,38)           118.5587         estimate D2E/DX2                !
 ! A29   A(12,11,38)           120.6889         estimate D2E/DX2                !
 ! A30   A(11,12,13)           120.1335         estimate D2E/DX2                !
 ! A31   A(11,12,39)           120.4323         estimate D2E/DX2                !
 ! A32   A(13,12,39)           119.4339         estimate D2E/DX2                !
 ! A33   A(12,13,14)           120.5828         estimate D2E/DX2                !
 ! A34   A(12,13,40)           119.2726         estimate D2E/DX2                !
 ! A35   A(14,13,40)           120.1446         estimate D2E/DX2                !
 ! A36   A(13,14,15)           120.691          estimate D2E/DX2                !
 ! A37   A(13,14,41)           120.5161         estimate D2E/DX2                !
 ! A38   A(15,14,41)           118.793          estimate D2E/DX2                !
 ! A39   A(10,15,14)           118.7451         estimate D2E/DX2                !
 ! A40   A(10,15,16)           118.8972         estimate D2E/DX2                !
 ! A41   A(14,15,16)           122.3578         estimate D2E/DX2                !
 ! A42   A(2,16,15)            121.0208         estimate D2E/DX2                !
 ! A43   A(2,16,17)            118.2539         estimate D2E/DX2                !
 ! A44   A(15,16,17)           120.7207         estimate D2E/DX2                !
 ! A45   A(16,17,18)           118.2579         estimate D2E/DX2                !
 ! A46   A(16,17,32)           120.7398         estimate D2E/DX2                !
 ! A47   A(18,17,32)           120.9951         estimate D2E/DX2                !
 ! A48   A(17,18,19)           117.1602         estimate D2E/DX2                !
 ! A49   A(17,18,20)           120.2287         estimate D2E/DX2                !
 ! A50   A(19,18,20)           122.5897         estimate D2E/DX2                !
 ! A51   A(18,19,42)           109.7977         estimate D2E/DX2                !
 ! A52   A(18,20,21)           122.4487         estimate D2E/DX2                !
 ! A53   A(18,20,26)           118.6996         estimate D2E/DX2                !
 ! A54   A(21,20,26)           118.8474         estimate D2E/DX2                !
 ! A55   A(20,21,22)           130.1989         estimate D2E/DX2                !
 ! A56   A(20,21,25)           120.9191         estimate D2E/DX2                !
 ! A57   A(22,21,25)           108.882          estimate D2E/DX2                !
 ! A58   A(21,22,23)           106.7562         estimate D2E/DX2                !
 ! A59   A(21,22,43)           127.1804         estimate D2E/DX2                !
 ! A60   A(23,22,43)           126.0565         estimate D2E/DX2                !
 ! A61   A(22,23,24)           106.1612         estimate D2E/DX2                !
 ! A62   A(22,23,44)           126.9035         estimate D2E/DX2                !
 ! A63   A(24,23,44)           126.9353         estimate D2E/DX2                !
 ! A64   A(23,24,25)           110.4695         estimate D2E/DX2                !
 ! A65   A(23,24,45)           132.582          estimate D2E/DX2                !
 ! A66   A(25,24,45)           116.9485         estimate D2E/DX2                !
 ! A67   A(21,25,24)           107.7309         estimate D2E/DX2                !
 ! A68   A(20,26,27)           122.1378         estimate D2E/DX2                !
 ! A69   A(20,26,46)           119.4774         estimate D2E/DX2                !
 ! A70   A(27,26,46)           118.3807         estimate D2E/DX2                !
 ! A71   A(26,27,28)           121.8835         estimate D2E/DX2                !
 ! A72   A(26,27,32)           119.0196         estimate D2E/DX2                !
 ! A73   A(28,27,32)           119.0965         estimate D2E/DX2                !
 ! A74   A(27,28,29)           120.7536         estimate D2E/DX2                !
 ! A75   A(27,28,47)           118.5562         estimate D2E/DX2                !
 ! A76   A(29,28,47)           120.6902         estimate D2E/DX2                !
 ! A77   A(28,29,30)           120.1313         estimate D2E/DX2                !
 ! A78   A(28,29,48)           120.4326         estimate D2E/DX2                !
 ! A79   A(30,29,48)           119.4358         estimate D2E/DX2                !
 ! A80   A(29,30,31)           120.5825         estimate D2E/DX2                !
 ! A81   A(29,30,49)           119.2735         estimate D2E/DX2                !
 ! A82   A(31,30,49)           120.144          estimate D2E/DX2                !
 ! A83   A(30,31,32)           120.6958         estimate D2E/DX2                !
 ! A84   A(30,31,50)           120.5096         estimate D2E/DX2                !
 ! A85   A(32,31,50)           118.7946         estimate D2E/DX2                !
 ! A86   A(17,32,27)           118.9165         estimate D2E/DX2                !
 ! A87   A(17,32,31)           122.3435         estimate D2E/DX2                !
 ! A88   A(27,32,31)           118.7386         estimate D2E/DX2                !
 ! D1    D(33,1,2,3)            -0.0154         estimate D2E/DX2                !
 ! D2    D(33,1,2,16)          179.5319         estimate D2E/DX2                !
 ! D3    D(1,2,3,4)             -2.0523         estimate D2E/DX2                !
 ! D4    D(1,2,3,9)            178.6084         estimate D2E/DX2                !
 ! D5    D(16,2,3,4)           178.4141         estimate D2E/DX2                !
 ! D6    D(16,2,3,9)            -0.9251         estimate D2E/DX2                !
 ! D7    D(1,2,16,15)         -179.2804         estimate D2E/DX2                !
 ! D8    D(1,2,16,17)            1.4934         estimate D2E/DX2                !
 ! D9    D(3,2,16,15)            0.2787         estimate D2E/DX2                !
 ! D10   D(3,2,16,17)         -178.9474         estimate D2E/DX2                !
 ! D11   D(2,3,4,5)           -167.3618         estimate D2E/DX2                !
 ! D12   D(2,3,4,8)             12.3804         estimate D2E/DX2                !
 ! D13   D(9,3,4,5)             11.9764         estimate D2E/DX2                !
 ! D14   D(9,3,4,8)           -168.2814         estimate D2E/DX2                !
 ! D15   D(2,3,9,10)             0.6981         estimate D2E/DX2                !
 ! D16   D(2,3,9,37)          -178.8978         estimate D2E/DX2                !
 ! D17   D(4,3,9,10)          -178.6661         estimate D2E/DX2                !
 ! D18   D(4,3,9,37)             1.7381         estimate D2E/DX2                !
 ! D19   D(3,4,5,6)            179.842          estimate D2E/DX2                !
 ! D20   D(3,4,5,34)             0.7255         estimate D2E/DX2                !
 ! D21   D(8,4,5,6)              0.0755         estimate D2E/DX2                !
 ! D22   D(8,4,5,34)          -179.041          estimate D2E/DX2                !
 ! D23   D(3,4,8,7)           -179.9014         estimate D2E/DX2                !
 ! D24   D(5,4,8,7)             -0.1095         estimate D2E/DX2                !
 ! D25   D(4,5,6,7)             -0.0134         estimate D2E/DX2                !
 ! D26   D(4,5,6,35)          -179.9765         estimate D2E/DX2                !
 ! D27   D(34,5,6,7)           179.1167         estimate D2E/DX2                !
 ! D28   D(34,5,6,35)           -0.8464         estimate D2E/DX2                !
 ! D29   D(5,6,7,8)             -0.0547         estimate D2E/DX2                !
 ! D30   D(5,6,7,36)           179.9453         estimate D2E/DX2                !
 ! D31   D(35,6,7,8)           179.9084         estimate D2E/DX2                !
 ! D32   D(35,6,7,36)           -0.0916         estimate D2E/DX2                !
 ! D33   D(6,7,8,4)              0.1024         estimate D2E/DX2                !
 ! D34   D(36,7,8,4)          -179.8977         estimate D2E/DX2                !
 ! D35   D(3,9,10,11)         -179.9837         estimate D2E/DX2                !
 ! D36   D(3,9,10,15)            0.1741         estimate D2E/DX2                !
 ! D37   D(37,9,10,11)          -0.3834         estimate D2E/DX2                !
 ! D38   D(37,9,10,15)         179.7744         estimate D2E/DX2                !
 ! D39   D(9,10,11,12)        -179.4911         estimate D2E/DX2                !
 ! D40   D(9,10,11,38)           0.3911         estimate D2E/DX2                !
 ! D41   D(15,10,11,12)          0.3511         estimate D2E/DX2                !
 ! D42   D(15,10,11,38)       -179.7668         estimate D2E/DX2                !
 ! D43   D(9,10,15,14)         179.1506         estimate D2E/DX2                !
 ! D44   D(9,10,15,16)          -0.8235         estimate D2E/DX2                !
 ! D45   D(11,10,15,14)         -0.6962         estimate D2E/DX2                !
 ! D46   D(11,10,15,16)        179.3298         estimate D2E/DX2                !
 ! D47   D(10,11,12,13)          0.1585         estimate D2E/DX2                !
 ! D48   D(10,11,12,39)        179.9818         estimate D2E/DX2                !
 ! D49   D(38,11,12,13)       -179.7212         estimate D2E/DX2                !
 ! D50   D(38,11,12,39)          0.1022         estimate D2E/DX2                !
 ! D51   D(11,12,13,14)         -0.3187         estimate D2E/DX2                !
 ! D52   D(11,12,13,40)        179.6566         estimate D2E/DX2                !
 ! D53   D(39,12,13,14)        179.8561         estimate D2E/DX2                !
 ! D54   D(39,12,13,40)         -0.1685         estimate D2E/DX2                !
 ! D55   D(12,13,14,15)         -0.0437         estimate D2E/DX2                !
 ! D56   D(12,13,14,41)        179.9662         estimate D2E/DX2                !
 ! D57   D(40,13,14,15)        179.9812         estimate D2E/DX2                !
 ! D58   D(40,13,14,41)         -0.0089         estimate D2E/DX2                !
 ! D59   D(13,14,15,10)          0.5492         estimate D2E/DX2                !
 ! D60   D(13,14,15,16)       -179.4777         estimate D2E/DX2                !
 ! D61   D(41,14,15,10)       -179.4605         estimate D2E/DX2                !
 ! D62   D(41,14,15,16)          0.5126         estimate D2E/DX2                !
 ! D63   D(10,15,16,2)           0.5999         estimate D2E/DX2                !
 ! D64   D(10,15,16,17)        179.807          estimate D2E/DX2                !
 ! D65   D(14,15,16,2)        -179.3732         estimate D2E/DX2                !
 ! D66   D(14,15,16,17)         -0.1661         estimate D2E/DX2                !
 ! D67   D(2,16,17,18)          74.6962         estimate D2E/DX2                !
 ! D68   D(2,16,17,32)        -104.3379         estimate D2E/DX2                !
 ! D69   D(15,16,17,18)       -104.5323         estimate D2E/DX2                !
 ! D70   D(15,16,17,32)         76.4336         estimate D2E/DX2                !
 ! D71   D(16,17,18,19)          1.9984         estimate D2E/DX2                !
 ! D72   D(16,17,18,20)       -179.6409         estimate D2E/DX2                !
 ! D73   D(32,17,18,19)       -178.9701         estimate D2E/DX2                !
 ! D74   D(32,17,18,20)         -0.6094         estimate D2E/DX2                !
 ! D75   D(16,17,32,27)        179.508          estimate D2E/DX2                !
 ! D76   D(16,17,32,31)         -0.0616         estimate D2E/DX2                !
 ! D77   D(18,17,32,27)          0.5005         estimate D2E/DX2                !
 ! D78   D(18,17,32,31)       -179.069          estimate D2E/DX2                !
 ! D79   D(17,18,19,42)       -175.7104         estimate D2E/DX2                !
 ! D80   D(20,18,19,42)          5.9707         estimate D2E/DX2                !
 ! D81   D(17,18,20,21)       -178.7971         estimate D2E/DX2                !
 ! D82   D(17,18,20,26)          0.4459         estimate D2E/DX2                !
 ! D83   D(19,18,20,21)         -0.5282         estimate D2E/DX2                !
 ! D84   D(19,18,20,26)        178.7147         estimate D2E/DX2                !
 ! D85   D(18,20,21,22)        165.7358         estimate D2E/DX2                !
 ! D86   D(18,20,21,25)        -14.1989         estimate D2E/DX2                !
 ! D87   D(26,20,21,22)        -13.5062         estimate D2E/DX2                !
 ! D88   D(26,20,21,25)        166.5591         estimate D2E/DX2                !
 ! D89   D(18,20,26,27)         -0.1869         estimate D2E/DX2                !
 ! D90   D(18,20,26,46)        179.0649         estimate D2E/DX2                !
 ! D91   D(21,20,26,27)        179.0838         estimate D2E/DX2                !
 ! D92   D(21,20,26,46)         -1.6644         estimate D2E/DX2                !
 ! D93   D(20,21,22,23)        179.9625         estimate D2E/DX2                !
 ! D94   D(20,21,22,43)         -0.9527         estimate D2E/DX2                !
 ! D95   D(25,21,22,23)         -0.0968         estimate D2E/DX2                !
 ! D96   D(25,21,22,43)        178.9881         estimate D2E/DX2                !
 ! D97   D(20,21,25,24)       -179.9015         estimate D2E/DX2                !
 ! D98   D(22,21,25,24)          0.1512         estimate D2E/DX2                !
 ! D99   D(21,22,23,24)          0.0064         estimate D2E/DX2                !
 ! D100  D(21,22,23,44)        179.9717         estimate D2E/DX2                !
 ! D101  D(43,22,23,24)       -179.0917         estimate D2E/DX2                !
 ! D102  D(43,22,23,44)          0.8736         estimate D2E/DX2                !
 ! D103  D(22,23,24,25)          0.0881         estimate D2E/DX2                !
 ! D104  D(22,23,24,45)       -179.9497         estimate D2E/DX2                !
 ! D105  D(44,23,24,25)       -179.8772         estimate D2E/DX2                !
 ! D106  D(44,23,24,45)          0.085          estimate D2E/DX2                !
 ! D107  D(23,24,25,21)         -0.1494         estimate D2E/DX2                !
 ! D108  D(45,24,25,21)        179.8819         estimate D2E/DX2                !
 ! D109  D(20,26,27,28)        179.8585         estimate D2E/DX2                !
 ! D110  D(20,26,27,32)          0.0865         estimate D2E/DX2                !
 ! D111  D(46,26,27,28)          0.5989         estimate D2E/DX2                !
 ! D112  D(46,26,27,32)       -179.1732         estimate D2E/DX2                !
 ! D113  D(26,27,28,29)       -179.646          estimate D2E/DX2                !
 ! D114  D(26,27,28,47)          0.2985         estimate D2E/DX2                !
 ! D115  D(32,27,28,29)          0.1259         estimate D2E/DX2                !
 ! D116  D(32,27,28,47)       -179.9296         estimate D2E/DX2                !
 ! D117  D(26,27,32,17)         -0.2337         estimate D2E/DX2                !
 ! D118  D(26,27,32,31)        179.3515         estimate D2E/DX2                !
 ! D119  D(28,27,32,17)        179.9878         estimate D2E/DX2                !
 ! D120  D(28,27,32,31)         -0.4269         estimate D2E/DX2                !
 ! D121  D(27,28,29,30)          0.1939         estimate D2E/DX2                !
 ! D122  D(27,28,29,48)       -179.9838         estimate D2E/DX2                !
 ! D123  D(47,28,29,30)       -179.7495         estimate D2E/DX2                !
 ! D124  D(47,28,29,48)          0.0728         estimate D2E/DX2                !
 ! D125  D(28,29,30,31)         -0.208          estimate D2E/DX2                !
 ! D126  D(28,29,30,49)        179.7161         estimate D2E/DX2                !
 ! D127  D(48,29,30,31)        179.9679         estimate D2E/DX2                !
 ! D128  D(48,29,30,49)         -0.108          estimate D2E/DX2                !
 ! D129  D(29,30,31,32)         -0.1049         estimate D2E/DX2                !
 ! D130  D(29,30,31,50)        179.8956         estimate D2E/DX2                !
 ! D131  D(49,30,31,32)        179.9717         estimate D2E/DX2                !
 ! D132  D(49,30,31,50)         -0.0278         estimate D2E/DX2                !
 ! D133  D(30,31,32,17)        179.99           estimate D2E/DX2                !
 ! D134  D(30,31,32,27)          0.4197         estimate D2E/DX2                !
 ! D135  D(50,31,32,17)         -0.0105         estimate D2E/DX2                !
 ! D136  D(50,31,32,27)       -179.5808         estimate D2E/DX2                !
 --------------------------------------------------------------------------------
 Trust Radius=3.00D-01 FncErr=1.00D-07 GrdErr=1.00D-06 EigMax=2.50D+02 EigMin=1.00D-04
 Number of steps in this run=    289 maximum allowed number of steps=    300.
 GradGradGradGradGradGradGradGradGradGradGradGradGradGradGradGradGradGrad

 Leave Link  103 at Thu Jan 23 10:34:39 2025, MaxMem= 13421772800 cpu:               0.2 elap:               0.0
 (Enter /public/software/apps/Gaussian/g16/l202.exe)
                          Input orientation:                          
 ---------------------------------------------------------------------
 Center     Atomic      Atomic             Coordinates (Angstroms)
 Number     Number       Type             X           Y           Z
 ---------------------------------------------------------------------
      1          8           0        1.084874   -1.158980    1.331792
      2          6           0        1.567392   -0.229485    0.472189
      3          6           0        2.909339    0.243547    0.524897
      4          6           0        3.856987   -0.202475    1.534550
      5          6           0        5.087516    0.301014    1.878939
      6          6           0        5.580970   -0.508918    2.926017
      7          6           0        4.629517   -1.450497    3.156323
      8          8           0        3.584289   -1.276510    2.325378
      9          6           0        3.321498    1.171282   -0.411008
     10          6           0        2.459408    1.669988   -1.397713
     11          6           0        2.887453    2.618564   -2.352242
     12          6           0        2.025190    3.096424   -3.296863
     13          6           0        0.693949    2.649125   -3.327232
     14          6           0        0.248767    1.729572   -2.420178
     15          6           0        1.116748    1.210079   -1.435622
     16          6           0        0.697165    0.251230   -0.488499
     17          6           0       -0.696494   -0.253717   -0.488531
     18          6           0       -1.560108    0.208682    0.486684
     19          8           0       -1.076524    1.129941    1.354904
     20          6           0       -2.905736   -0.254245    0.530496
     21          6           0       -3.862218    0.219021    1.519246
     22          6           0       -5.229320    0.095940    1.559801
     23          6           0       -5.661135    0.737325    2.742295
     24          6           0       -4.540369    1.209515    3.347169
     25          8           0       -3.448932    0.905726    2.619426
     26          6           0       -3.320976   -1.175068   -0.410433
     27          6           0       -2.462593   -1.663165   -1.405867
     28          6           0       -2.892227   -2.607325   -2.363974
     29          6           0       -2.034587   -3.072557   -3.319099
     30          6           0       -0.706388   -2.616977   -3.356349
     31          6           0       -0.258991   -1.703548   -2.444157
     32          6           0       -1.121910   -1.197831   -1.448071
     33          1           0        1.778512   -1.426050    1.950484
     34          1           0        5.580703    1.150277    1.454920
     35          1           0        6.516251   -0.401534    3.435612
     36          1           0        4.568909   -2.266097    3.848814
     37          1           0        4.340464    1.525535   -0.394672
     38          1           0        3.912451    2.959909   -2.317834
     39          1           0        2.358074    3.822228   -4.024435
     40          1           0        0.022098    3.040654   -4.077215
     41          1           0       -0.774997    1.386863   -2.444170
     42          1           0       -1.742635    1.327414    2.027630
     43          1           0       -5.857608   -0.377318    0.834758
     44          1           0       -6.668856    0.832370    3.090770
     45          1           0       -4.381751    1.754450    4.256180
     46          1           0       -4.333796   -1.545826   -0.379603
     47          1           0       -3.914990   -2.954766   -2.324472
     48          1           0       -2.368848   -3.794650   -4.049726
     49          1           0       -0.038374   -2.997788   -4.115227
     50          1           0        0.762797   -1.355374   -2.472844
 ---------------------------------------------------------------------
                    Distance matrix (angstroms):
                    1          2          3          4          5
     1  O    0.000000
     2  C    1.354881   0.000000
     3  C    2.438613   1.423854   0.000000
     4  C    2.939494   2.524200   1.454775   0.000000
     5  C    4.295590   3.827747   2.565382   1.373429   0.000000
     6  C    4.814459   4.712554   3.670040   2.236561   1.412749
     7  C    3.997298   4.251124   3.571162   2.187352   2.215686
     8  O    2.692230   2.932310   2.451094   1.361369   2.224316
     9  C    3.670144   2.412275   1.380755   2.441138   3.019941
    10  C    4.164445   2.810734   2.435898   3.749335   4.417860
    11  C    5.575952   4.222719   3.730833   4.899532   5.302283
    12  C    6.357445   5.047475   4.850410   6.130315   6.631824
    13  C    6.030008   4.846122   5.053084   6.463231   7.205642
    14  C    4.808335   3.733961   4.237969   5.691391   6.628475
    15  C    3.643081   2.432112   2.826871   4.280904   5.251639
    16  C    2.335052   1.382499   2.433258   3.779292   4.988228
    17  C    2.703026   2.459421   3.778404   4.982938   6.274346
    18  C    3.095260   3.158078   4.469746   5.532810   6.792481
    19  O    3.148227   3.101212   4.166739   5.113427   6.241564
    20  C    4.169603   4.473577   5.836345   6.837048   8.125189
    21  C    5.138847   5.547806   6.844218   7.730719   8.957334
    22  C    6.441728   6.890870   8.205522   9.091241  10.323808
    23  C    7.148016   7.638043   8.866436   9.640359  10.792092
    24  C    6.427665   6.902244   8.024741   8.706026   9.781474
    25  O    5.145523   5.573404   6.727046   7.468703   8.589816
    26  C    4.737839   5.056609   6.457874   7.500137   8.838709
    27  C    4.509268   4.671543   6.018393   7.121570   8.464756
    28  C    5.619050   5.795355   7.080340   8.156818   9.494053
    29  C    5.918074   5.952409   7.086272   8.155116   9.440600
    30  C    5.226188   5.052514   6.026620   7.111618   8.336200
    31  C    4.044789   3.743476   4.758653   5.918159   7.161883
    32  C    3.549513   3.443463   4.713931   5.888648   7.202257
    33  H    0.967078   1.913556   2.469539   2.447488   3.733280
    34  H    5.055720   4.356164   2.970402   2.192596   1.069707
    35  H    5.873639   5.770848   4.679552   3.274957   2.226676
    36  H    4.438424   4.955652   4.483404   3.181381   3.277105
    37  H    4.559185   3.394329   2.130075   2.634704   2.688279
    38  H    6.187100   4.843115   4.057829   4.984437   5.105233
    39  H    7.424462   6.104194   5.814402   7.024763   7.395852
    40  H    6.929919   5.811955   6.110598   7.531014   8.284917
    41  H    4.919179   4.074864   4.867942   6.309634   7.364604
    42  H    3.828988   3.974872   5.007378   5.825758   6.908442
    43  H    7.004006   7.435317   8.794364   9.741336  11.015725
    44  H    8.196329   8.707484   9.933390  10.690468  11.830603
    45  H    6.850117   7.324404   8.328583   8.894584   9.870703
    46  H    5.695657   6.105925   7.515516   8.518069   9.862705
    47  H    6.449167   6.730898   8.057269   9.103339  10.455328
    48  H    6.916335   6.975106   8.068052   9.102136  10.369228
    49  H    5.857723   5.593422   6.381694   7.409966   8.549086
    50  H    3.823292   3.253954   4.018786   5.192533   6.354906
                    6          7          8          9         10
     6  C    0.000000
     7  C    1.358262   0.000000
     8  O    2.221869   1.346567   0.000000
     9  C    4.366237   4.616329   3.680836   0.000000
    10  C    5.760766   5.931782   4.879407   1.401961   0.000000
    11  C    6.700462   7.066564   6.126770   2.459961   1.412142
    12  C    8.022861   8.312678   7.291292   3.703342   2.414547
    13  C    8.541624   8.621606   7.464360   4.194329   2.792597
    14  C    7.875597   7.771819   6.533187   3.713506   2.436374
    15  C    6.473648   6.364289   5.139748   2.431514   1.419750
    16  C    6.007353   5.625299   4.311308   2.782018   2.438246
    17  C    7.150582   6.563813   5.223915   4.263906   3.806175
    18  C    7.580257   6.941996   5.661397   5.055940   4.673636
    19  O    7.033952   6.516339   5.334417   4.739489   4.513465
    20  C    8.821993   8.068830   6.810804   6.457321   6.017095
    21  C    9.575108   8.807774   7.637861   7.499230   7.111745
    22  C   10.913055  10.106286   8.952621   8.840641   8.386957
    23  C   11.312462  10.528794   9.471389   9.529918   9.162573
    24  C   10.274818   9.549811   8.557713   8.714029   8.468933
    25  O    9.145182   8.432164   7.369859   7.422451   7.185401
    26  C    9.529968   8.718254   7.428165   7.044702   6.517814
    27  C    9.208497   8.435451   7.115931   6.517633   5.944415
    28  C   10.206977   9.401519   8.105945   7.530095   6.918747
    29  C   10.176956   9.432521   8.164415   7.426628   6.810246
    30  C    9.134709   8.499850   7.244914   6.264967   5.677727
    31  C    8.023157   7.438207   6.140165   5.021777   4.457071
    32  C    8.033421   7.371784   6.032696   5.141213   4.588329
    33  H    4.031313   3.095622   1.850335   3.834525   4.610802
    34  H    2.217443   3.250162   3.260776   2.930211   4.260293
    35  H    1.070499   2.176716   3.254935   5.241821   6.641552
    36  H    2.227891   1.071644   2.066305   5.614062   6.889761
    37  H    4.087154   4.642185   3.977679   1.078913   2.136663
    38  H    6.504974   7.066276   6.293993   2.680373   2.149849
    39  H    8.800833   9.193713   8.235342   4.583945   3.397363
    40  H    9.620072   9.681055   8.504135   5.274625   3.872846
    41  H    8.534120   8.284015   6.988957   4.578372   3.411247
    42  H    7.603578   7.042376   5.936766   5.622880   5.432080
    43  H   11.628919  10.794497   9.601037   9.391809   8.851449
    44  H   12.324140  11.526882  10.495722  10.591718  10.206532
    45  H   10.302814   9.627270   8.739137   9.025673   8.875534
    46  H   10.502613   9.636018   8.371710   8.123250   7.584565
    47  H   11.123087  10.262092   8.982028   8.547068   7.929702
    48  H   11.075045  10.315004   9.078701   8.383364   7.759349
    49  H    9.346155   8.778312   7.587350   6.510847   5.950792
    50  H    7.285532   6.829941   5.566864   4.145131   3.631420
                   11         12         13         14         15
    11  C    0.000000
    12  C    1.365341   0.000000
    13  C    2.400625   1.404707   0.000000
    14  C    2.785244   2.406770   1.366203   0.000000
    15  C    2.441192   2.801389   2.414084   1.411600   0.000000
    16  C    3.724939   4.212563   3.715954   2.473447   1.411553
    17  C    4.956621   5.149538   4.291625   2.925442   2.515458
    18  C    5.800675   5.958913   5.057914   3.746329   3.444360
    19  O    5.627792   5.926772   5.231146   4.045639   3.550197
    20  C    7.079848   7.084468   6.022404   4.753199   4.710652
    21  C    8.142744   8.132400   7.081837   5.890757   5.873972
    22  C    9.356801   9.231360   8.092401   6.965517   7.105381
    23  C   10.127770  10.055664   8.993399   7.909654   7.976101
    24  C    9.467906   9.529436   8.603383   7.514557   7.407973
    25  O    8.234141   8.352703   7.454237   6.304705   6.114039
    26  C    7.530396   7.426884   6.265125   5.021860   5.141336
    27  C    6.917501   6.809534   5.679018   4.459929   4.590000
    28  C    7.791967   7.588414   6.435743   5.355154   5.613047
    29  C    7.586181   7.385026   6.338976   5.392792   5.640866
    30  C    6.429216   6.333088   5.449185   4.547662   4.653963
    31  C    5.346888   5.383709   4.542431   3.470548   3.376244
    32  C    5.608689   5.635858   4.650555   3.375416   3.287822
    33  H    6.008503   6.931686   6.755562   5.603638   4.341984
    34  H    4.889166   6.245687   6.999706   6.616760   5.318431
    35  H    7.469165   8.816550   9.430895   8.838170   7.448547
    36  H    8.070954   9.289125   9.522098   8.598213   7.206003
    37  H    2.671710   4.031240   4.812425   4.570152   3.402269
    38  H    1.080889   2.130467   3.387363   3.866107   3.414112
    39  H    2.127270   1.080261   2.152109   3.376689   3.881516
    40  H    3.371046   2.150450   1.080349   2.125109   3.395184
    41  H    3.865110   3.389798   2.128593   1.079869   2.151074
    42  H    6.502927   6.758412   6.029793   4.889827   4.492655
    43  H    9.777953   9.553831   8.330931   7.233354   7.504405
    44  H   11.141809  11.023349   9.934900   8.889827   9.013685
    45  H    9.862011   9.994911   9.169041   8.125028   7.932619
    46  H    8.566206   8.396285   7.180832   5.990998   6.198275
    47  H    8.794089   8.535115   7.324714   6.268098   6.591993
    48  H    8.464010   8.207391   7.171120   6.326481   6.635528
    49  H    6.573583   6.485941   5.748466   5.030266   5.120619
    50  H    4.507870   4.700122   4.095208   3.127921   2.789742
                   16         17         18         19         20
    16  C    0.000000
    17  C    1.482315   0.000000
    18  C    2.459283   1.382276   0.000000
    19  O    2.704855   2.336062   1.355130   0.000000
    20  C    3.778194   2.432934   1.423705   2.437547   0.000000
    21  C    4.981973   3.778420   2.523094   2.935451   1.454808
    22  C    6.272390   4.986425   3.824579   4.284490   2.565373
    23  C    7.148587   6.005669   4.710166   4.806002   3.669808
    24  C    6.562196   5.623968   4.250411   3.996708   3.570471
    25  O    5.222804   4.310408   2.932936   2.697704   2.450352
    26  C    4.264490   2.782605   2.412517   3.669747   1.380466
    27  C    3.806645   2.438679   2.810701   4.164671   2.435351
    28  C    4.957063   3.725319   4.222640   5.576198   3.730298
    29  C    5.149983   4.212893   5.047340   6.358080   4.849862
    30  C    4.291985   3.716110   4.845832   6.030945   5.052445
    31  C    2.925746   2.473437   3.733545   4.809354   4.237251
    32  C    2.515868   1.411753   2.431784   3.643796   2.826149
    33  H    3.151383   3.667262   3.995177   3.878020   5.033058
    34  H    5.332364   6.719479   7.267411   6.658009   8.651410
    35  H    7.048866   8.212456   8.619519   8.020286   9.860793
    36  H    6.335584   7.112433   7.415747   7.044400   8.421942
    37  H    3.860866   5.342798   6.109635   5.706248   7.518708
    38  H    4.584918   5.908986   6.736726   6.459695   8.058005
    39  H    5.292777   6.200510   6.982840   6.926916   8.066767
    40  H    4.595159   4.924216   5.599341   5.862228   6.376486
    41  H    2.698439   2.553858   3.254906   3.819672   4.010227
    42  H    3.666293   3.150469   1.912954   0.967088   2.468979
    43  H    6.716482   5.329490   4.351213   5.039955   2.970062
    44  H    8.210186   7.046991   5.767977   5.863101   4.679402
    45  H    7.111050   6.334519   4.955822   4.442065   4.482655
    46  H    5.343392   3.861525   3.394421   4.558296   2.129746
    47  H    5.909415   4.585309   4.843085   6.187045   4.057370
    48  H    6.200961   5.293117   6.104076   7.425074   5.813876
    49  H    4.924459   4.595212   5.811601   6.930962   6.109954
    50  H    2.554038   2.698273   4.074428   4.920523   4.867306
                   21         22         23         24         25
    21  C    0.000000
    22  C    1.373230   0.000000
    23  C    2.236200   1.412845   0.000000
    24  C    2.186840   2.215714   1.358290   0.000000
    25  O    1.361163   2.224486   2.222003   1.346526   0.000000
    26  C    2.441329   3.023088   4.367297   4.614404   3.677788
    27  C    3.749381   4.420907   5.761968   5.929654   4.875967
    28  C    4.899848   5.307133   6.702799   7.064120   6.122559
    29  C    6.130604   6.636969   8.025431   8.309886   7.286507
    30  C    6.463248   7.210088   8.543671   8.618504   7.459281
    31  C    5.691053   6.631290   7.876567   7.768886   6.528699
    32  C    4.280389   5.252804   6.473682   6.362036   5.136586
    33  H    5.891524   7.181838   7.788164   6.987502   5.762884
    34  H    9.488948  10.861824  11.322844  10.296612   9.107699
    35  H   10.572141  11.904814  12.250160  11.173726  10.083648
    36  H    9.093217  10.335574  10.719082   9.762708   8.709629
    37  H    8.523735   9.871397  10.511604   9.642118   8.375180
    38  H    9.092916  10.334909  11.054336  10.325033   9.098690
    39  H    9.077859  10.131015  10.936772  10.428582   9.293449
    40  H    7.373595   8.247708   9.171160   8.904530   7.839067
    41  H    5.157854   6.126929   7.155114   6.910071   5.746427
    42  H    2.445326   3.727246   4.026611   3.095545   1.854587
    43  H    2.192196   1.069769   2.218046   3.250441   3.260822
    44  H    3.274615   2.226760   1.070500   2.176795   3.255066
    45  H    3.180922   3.277116   2.227827   1.071641   2.066264
    46  H    2.634900   2.694188   4.089114   4.639332   3.973319
    47  H    4.984965   5.110954   6.507894   7.063982   6.289892
    48  H    7.025180   7.401742   8.803948   9.190823   8.230292
    49  H    7.531064   8.289935   9.622480   9.677640   8.498522
    50  H    6.309221   7.367089   8.534868   8.280989   6.984443
                   26         27         28         29         30
    26  C    0.000000
    27  C    1.402123   0.000000
    28  C    2.459981   1.412088   0.000000
    29  C    3.703458   2.414546   1.365376   0.000000
    30  C    4.194472   2.792560   2.400582   1.404654   0.000000
    31  C    3.713634   2.436296   2.785170   2.406751   1.366240
    32  C    2.431687   1.419770   2.441224   2.801486   2.414158
    33  H    5.625095   5.413713   6.467284   6.709636   5.979591
    34  H    9.387580   8.988558  10.024673   9.930570   8.767441
    35  H   10.590630  10.278680  11.270323  11.219506  10.159008
    36  H    9.032265   8.798706   9.715128   9.779341   8.936792
    37  H    8.123495   7.581023   8.559819   8.386656   7.169564
    38  H    8.547437   7.927527   8.792034   8.529973   7.315316
    39  H    8.383650   7.757916   8.465338   8.205549   7.162446
    40  H    6.511048   5.952789   6.582412   6.494308   5.749707
    41  H    4.145068   3.637131   4.521353   4.715771   4.107008
    42  H    3.833762   4.609859   6.007489   6.930548   6.754203
    43  H    2.936223   4.266138   4.898806   6.255744   7.008318
    44  H    5.243713   6.643801   7.473196   8.821073   9.434742
    45  H    5.611114   6.886366   8.066610   9.284074   9.516736
    46  H    1.078989   2.137379   2.672570   4.032109   4.813156
    47  H    2.680247   2.149773   1.080888   2.130510   3.387329
    48  H    4.584017   3.397353   2.127305   1.080261   2.152082
    49  H    5.274778   3.872814   3.371027   2.150413   1.080350
    50  H    4.578564   3.411204   3.865027   3.389723   2.128551
                   31         32         33         34         35
    31  C    0.000000
    32  C    1.411583   0.000000
    33  H    4.851937   4.473780   0.000000
    34  H    7.579521   7.672417   4.619491   0.000000
    35  H    9.064813   9.100876   5.069656   2.684494   0.000000
    36  H    7.951513   7.847522   3.477880   4.292559   2.727540
    37  H    5.981835   6.193860   4.557983   2.258318   4.808193
    38  H    6.258172   6.586963   6.481425   4.504609   7.154105
    39  H    6.315102   6.629399   7.973705   6.895505   9.528006
    40  H    5.025270   5.117217   7.705166   8.066978  10.510245
    41  H    3.133194   2.791631   5.809120   7.460147   9.535853
    42  H    5.602215   4.340813   4.470570   7.347833   8.554582
    43  H    6.622287   5.320844   7.788133  11.556518  12.644264
    44  H    8.840400   7.449255   8.818092  12.362393  13.247207
    45  H    8.593568   7.202847   7.306207  10.366416  11.139481
    46  H    4.570700   3.402784   6.542474  10.437037  11.558062
    47  H    3.866032   3.414117   7.282045  11.013781  12.186400
    48  H    3.376693   3.881615   7.668988  10.860423  12.103244
    49  H    2.125136   3.395234   6.524131   8.933477  10.330480
    50  H    1.079861   2.151069   4.538998   6.702077   8.301921
                   36         37         38         39         40
    36  H    0.000000
    37  H    5.695247   0.000000
    38  H    8.109847   2.437042   0.000000
    39  H   10.195271   4.730734   2.464177   0.000000
    40  H   10.566789   5.874095   4.270455   2.463824   0.000000
    41  H    9.027906   5.512496   4.945968   4.271343   2.457076
    42  H    7.487698   6.550641   7.316290   7.724468   6.581687
    43  H   11.016546  10.446675  10.794905  10.428105   8.389336
    44  H   11.681716  11.568661  12.072426  11.876483  10.051139
    45  H    9.820645   9.887359  10.651975  10.875180   9.512817
    46  H    9.882128   9.201971   9.594737   9.321048   7.326796
    47  H   10.514764   9.589043   9.810823   9.389827   7.383619
    48  H   10.623365   9.310137   9.385000   8.964444   7.241461
    49  H    9.229755   7.312811   7.371146   7.229372   6.038864
    50  H    7.435003   5.041640   5.344718   5.635593   4.737901
                   41         42         43         44         45
    41  H    0.000000
    42  H    4.575681   0.000000
    43  H    6.300527   4.611080   0.000000
    44  H    8.104357   5.063891   2.685341   0.000000
    45  H    7.618299   3.480478   4.292868   2.727501   0.000000
    46  H    5.052539   4.556796   2.272023   4.811633   5.690747
    47  H    5.359443   6.480508   4.516385   7.158982   8.105527
    48  H    5.653870   7.972574   6.907082   9.533418  10.189817
    49  H    4.749759   7.703673   8.076676  10.514742  10.560736
    50  H    3.144121   5.807651   7.465024   9.537793   9.023145
                   46         47         48         49         50
    46  H    0.000000
    47  H    2.437832   0.000000
    48  H    4.731599   2.464237   0.000000
    49  H    5.874839   4.270457   2.463816   0.000000
    50  H    5.513002   4.945883   4.271279   2.456994   0.000000
 Symmetry turned off by external request.
 Stoichiometry    C28H18O4
 Framework group  C1[X(C28H18O4)]
 Deg. of freedom   144
 Full point group                 C1      NOp   1
 Rotational constants (GHZ):           0.1754939           0.1012403           0.0852220
 Leave Link  202 at Thu Jan 23 10:34:39 2025, MaxMem= 13421772800 cpu:               0.1 elap:               0.0
 (Enter /public/software/apps/Gaussian/g16/l301.exe)
 Standard basis: def2SVPP (5D, 7F)
 Ernie: Thresh=  0.10000D-02 Tol=  0.10000D-05 Strict=F.
   484 basis functions,   872 primitive gaussians,   516 cartesian basis functions
   109 alpha electrons      109 beta electrons
       nuclear repulsion energy      3004.1970526611 Hartrees.
 IExCor=  402 DFT=T Ex+Corr=B3LYP ExCW=0 ScaHFX=  0.200000
 ScaDFX=  0.800000  0.720000  1.000000  0.810000 ScalE2=  1.000000  1.000000
 IRadAn=      5 IRanWt=     -1 IRanGd=            0 ICorTp=0 IEmpDi=141
 NAtoms=   50 NActive=   50 NUniq=   50 SFac= 1.00D+00 NAtFMM=   60 NAOKFM=F Big=F
 Integral buffers will be    131072 words long.
 Raffenetti 2 integral format.
 Two-electron integral symmetry is turned off.
 R6Disp:  Grimme-D3(BJ) Dispersion energy=       -0.1279914697 Hartrees.
 Nuclear repulsion after empirical dispersion term =     3004.0690611914 Hartrees.
 Leave Link  301 at Thu Jan 23 10:34:39 2025, MaxMem= 13421772800 cpu:               1.2 elap:               0.0
 (Enter /public/software/apps/Gaussian/g16/l302.exe)
 NPDir=0 NMtPBC=     1 NCelOv=     1 NCel=       1 NClECP=     1 NCelD=      1
         NCelK=      1 NCelE2=     1 NClLst=     1 CellRange=     0.0.
 One-electron integrals computed using PRISM.
   1 Symmetry operations used in ECPInt.
 ECPInt:  NShTT=   26106 NPrTT=  104666 LenC2=   22532 LenP2D=   57803.
 LDataN:  DoStor=T MaxTD1= 4 Len=   56
 NBasis=   484 RedAO= T EigKep=  1.59D-04  NBF=   484
 NBsUse=   484 1.00D-06 EigRej= -1.00D+00 NBFU=   484
 Precomputing XC quadrature grid using
 IXCGrd= 4 IRadAn=           5 IRanWt=          -1 IRanGd=           0 AccXCQ= 0.00D+00.
 Generated NRdTot=       0 NPtTot=           0 NUsed=           0 NTot=          32
 NSgBfM=   507   507   507   507   507 MxSgAt=    50 MxSgA2=    50.
 Leave Link  302 at Thu Jan 23 10:34:39 2025, MaxMem= 13421772800 cpu:              13.2 elap:               0.4
 (Enter /public/software/apps/Gaussian/g16/l303.exe)
 DipDrv:  MaxL=1.
 Leave Link  303 at Thu Jan 23 10:34:39 2025, MaxMem= 13421772800 cpu:               1.4 elap:               0.1
 (Enter /public/software/apps/Gaussian/g16/l401.exe)
 ExpMin= 1.22D-01 ExpMax= 2.27D+03 ExpMxC= 3.41D+02 IAcc=3 IRadAn=         5 AccDes= 0.00D+00
 Harris functional with IExCor=  402 and IRadAn=       5 diagonalized for initial guess.
 HarFok:  IExCor=  402 AccDes= 0.00D+00 IRadAn=         5 IDoV= 1 UseB2=F ITyADJ=14
 ICtDFT=  3500011 ScaDFX=  1.000000  1.000000  1.000000  1.000000
 FoFCou: FMM=F IPFlag=           0 FMFlag=      100000 FMFlg1=           0
         NFxFlg=           0 DoJE=T BraDBF=F KetDBF=T FulRan=T
         wScrn=  0.000000 ICntrl=       500 IOpCl=  0 I1Cent=   200000004 NGrid=           0
         NMat0=    1 NMatS0=      1 NMatT0=    0 NMatD0=    1 NMtDS0=    0 NMtDT0=    0
 Symmetry not used in FoFCou.
 Harris En= -1377.74195369649    
 JPrj=0 DoOrth=F DoCkMO=F.
 Leave Link  401 at Thu Jan 23 10:34:40 2025, MaxMem= 13421772800 cpu:              33.3 elap:               1.1
 (Enter /public/software/apps/Gaussian/g16/l502.exe)
 Two-electron integral symmetry not used.
 Closed shell SCF:
 Using DIIS extrapolation, IDIIS=  1040.
 NGot= 13421772800 LenX= 13421218430 LenY= 13420951658
 Requested convergence on RMS density matrix=1.00D-08 within 128 cycles.
 Requested convergence on MAX density matrix=1.00D-06.
 Requested convergence on             energy=1.00D-06.
 No special actions if energy rises.
 Fock matrices will be formed incrementally for  20 cycles.
 Integral accuracy reduced to 1.0D-05 until final iterations.

 Cycle   1  Pass 0  IDiag  1:
 FoFJK:  IHMeth= 1 ICntrl=       0 DoSepK=F KAlg= 0 I1Cent=           0 FoldK=F
 IRaf= 780000000 NMat=       1 IRICut=       1 DoRegI=T DoRafI=F ISym2E= 0 IDoP0=0 IntGTp=1.
 FoFCou: FMM=F IPFlag=           0 FMFlag=      100000 FMFlg1=           0
         NFxFlg=           0 DoJE=F BraDBF=F KetDBF=F FulRan=T
         wScrn=  0.000000 ICntrl=         0 IOpCl=  0 I1Cent=           0 NGrid=           0
         NMat0=    1 NMatS0=      1 NMatT0=    0 NMatD0=    1 NMtDS0=    0 NMtDT0=    0
 Symmetry not used in FoFCou.
 E= -1377.15638212249    
 DIIS: error= 2.63D-02 at cycle   1 NSaved=   1.
 NSaved= 1 IEnMin= 1 EnMin= -1377.15638212249     IErMin= 1 ErrMin= 2.63D-02
 ErrMax= 2.63D-02  0.00D+00 EMaxC= 1.00D-01 BMatC= 5.53D-01 BMatP= 5.53D-01
 IDIUse=3 WtCom= 7.37D-01 WtEn= 2.63D-01
 Coeff-Com:  0.100D+01
 Coeff-En:   0.100D+01
 Coeff:      0.100D+01
 Gap=     0.192 Goal=   None    Shift=    0.000
 GapD=    0.192 DampG=1.000 DampE=0.500 DampFc=0.5000 IDamp=-1.
 Damping current iteration by 5.00D-01
 RMSDP=5.78D-03 MaxDP=1.33D-01              OVMax= 2.24D-01

 Cycle   2  Pass 0  IDiag  1:
 RMSU=  2.63D-03    CP:  9.39D-01
 E= -1377.40280188729     Delta-E=       -0.246419764802 Rises=F Damp=T
 DIIS: error= 9.09D-03 at cycle   2 NSaved=   2.
 NSaved= 2 IEnMin= 2 EnMin= -1377.40280188729     IErMin= 2 ErrMin= 9.09D-03
 ErrMax= 9.09D-03  0.00D+00 EMaxC= 1.00D-01 BMatC= 5.52D-02 BMatP= 5.53D-01
 IDIUse=3 WtCom= 9.09D-01 WtEn= 9.09D-02
 Coeff-Com:  0.110D+00 0.890D+00
 Coeff-En:   0.176D+00 0.824D+00
 Coeff:      0.116D+00 0.884D+00
 Gap=     0.178 Goal=   None    Shift=    0.000
 RMSDP=2.38D-03 MaxDP=8.65D-02 DE=-2.46D-01 OVMax= 2.13D-01

 Cycle   3  Pass 0  IDiag  1:
 RMSU=  2.19D-03    CP:  8.91D-01  1.05D+00
 E= -1377.68172888415     Delta-E=       -0.278926996865 Rises=F Damp=F
 DIIS: error= 1.18D-02 at cycle   3 NSaved=   3.
 NSaved= 3 IEnMin= 3 EnMin= -1377.68172888415     IErMin= 2 ErrMin= 9.09D-03
 ErrMax= 1.18D-02  0.00D+00 EMaxC= 1.00D-01 BMatC= 8.72D-02 BMatP= 5.52D-02
 IDIUse=2 WtCom= 0.00D+00 WtEn= 1.00D+00
 Coeff-En:   0.000D+00 0.000D+00 0.100D+01
 Coeff:      0.000D+00 0.000D+00 0.100D+01
 Gap=     0.163 Goal=   None    Shift=    0.000
 RMSDP=2.58D-03 MaxDP=7.55D-02 DE=-2.79D-01 OVMax= 2.02D-01

 Cycle   4  Pass 0  IDiag  1:
 RMSU=  1.48D-03    CP:  9.00D-01  1.36D+00  1.11D-01
 E= -1377.33175398162     Delta-E=        0.349974902531 Rises=F Damp=F
 DIIS: error= 2.88D-02 at cycle   4 NSaved=   4.
 NSaved= 4 IEnMin= 3 EnMin= -1377.68172888415     IErMin= 2 ErrMin= 9.09D-03
 ErrMax= 2.88D-02  0.00D+00 EMaxC= 1.00D-01 BMatC= 4.16D-01 BMatP= 5.52D-02
 IDIUse=2 WtCom= 0.00D+00 WtEn= 1.00D+00
 Coeff-En:   0.000D+00 0.000D+00 0.772D+00 0.228D+00
 Coeff:      0.000D+00 0.000D+00 0.772D+00 0.228D+00
 Gap=     0.153 Goal=   None    Shift=    0.000
 RMSDP=1.32D-03 MaxDP=3.63D-02 DE= 3.50D-01 OVMax= 1.13D-01

 Cycle   5  Pass 0  IDiag  1:
 RMSU=  2.17D-04    CP:  8.96D-01  1.18D+00  5.68D-01  5.40D-01
 E= -1377.74560597992     Delta-E=       -0.413851998298 Rises=F Damp=F
 DIIS: error= 7.62D-03 at cycle   5 NSaved=   5.
 NSaved= 5 IEnMin= 5 EnMin= -1377.74560597992     IErMin= 5 ErrMin= 7.62D-03
 ErrMax= 7.62D-03  0.00D+00 EMaxC= 1.00D-01 BMatC= 2.84D-02 BMatP= 5.52D-02
 IDIUse=3 WtCom= 9.24D-01 WtEn= 7.62D-02
 Coeff-Com: -0.788D-03 0.214D-01 0.290D+00-0.744D-01 0.763D+00
 Coeff-En:   0.000D+00 0.000D+00 0.294D+00 0.000D+00 0.706D+00
 Coeff:     -0.728D-03 0.198D-01 0.291D+00-0.687D-01 0.759D+00
 Gap=     0.148 Goal=   None    Shift=    0.000
 RMSDP=4.73D-04 MaxDP=1.61D-02 DE=-4.14D-01 OVMax= 3.80D-02

 Cycle   6  Pass 0  IDiag  1:
 RMSU=  8.51D-05    CP:  8.93D-01  1.13D+00  7.26D-01  3.52D-01  9.02D-01
 E= -1377.77551899563     Delta-E=       -0.029913015705 Rises=F Damp=F
 DIIS: error= 6.48D-04 at cycle   6 NSaved=   6.
 NSaved= 6 IEnMin= 6 EnMin= -1377.77551899563     IErMin= 6 ErrMin= 6.48D-04
 ErrMax= 6.48D-04  0.00D+00 EMaxC= 1.00D-01 BMatC= 2.71D-04 BMatP= 2.84D-02
 IDIUse=3 WtCom= 9.94D-01 WtEn= 6.48D-03
 Coeff-Com: -0.419D-02 0.137D-01 0.131D+00-0.718D-01 0.490D+00 0.441D+00
 Coeff-En:   0.000D+00 0.000D+00 0.000D+00 0.000D+00 0.000D+00 0.100D+01
 Coeff:     -0.417D-02 0.136D-01 0.130D+00-0.714D-01 0.487D+00 0.445D+00
 Gap=     0.147 Goal=   None    Shift=    0.000
 RMSDP=4.25D-05 MaxDP=1.86D-03 DE=-2.99D-02 OVMax= 3.35D-03

 Cycle   7  Pass 0  IDiag  1:
 RMSU=  2.38D-05    CP:  8.94D-01  1.14D+00  7.29D-01  3.50D-01  9.29D-01
                    CP:  6.03D-01
 E= -1377.77575615431     Delta-E=       -0.000237158689 Rises=F Damp=F
 DIIS: error= 1.62D-04 at cycle   7 NSaved=   7.
 NSaved= 7 IEnMin= 7 EnMin= -1377.77575615431     IErMin= 7 ErrMin= 1.62D-04
 ErrMax= 1.62D-04  0.00D+00 EMaxC= 1.00D-01 BMatC= 1.03D-05 BMatP= 2.71D-04
 IDIUse=3 WtCom= 9.98D-01 WtEn= 1.62D-03
 Coeff-Com: -0.231D-02 0.646D-02 0.618D-01-0.374D-01 0.243D+00 0.256D+00
 Coeff-Com:  0.472D+00
 Coeff-En:   0.000D+00 0.000D+00 0.000D+00 0.000D+00 0.000D+00 0.000D+00
 Coeff-En:   0.100D+01
 Coeff:     -0.230D-02 0.645D-02 0.617D-01-0.373D-01 0.243D+00 0.256D+00
 Coeff:      0.473D+00
 Gap=     0.147 Goal=   None    Shift=    0.000
 RMSDP=1.14D-05 MaxDP=3.98D-04 DE=-2.37D-04 OVMax= 1.02D-03

 Cycle   8  Pass 0  IDiag  1:
 RMSU=  8.77D-06    CP:  8.94D-01  1.14D+00  7.28D-01  3.50D-01  9.31D-01
                    CP:  6.08D-01  7.13D-01
 E= -1377.77576820796     Delta-E=       -0.000012053649 Rises=F Damp=F
 DIIS: error= 4.21D-05 at cycle   8 NSaved=   8.
 NSaved= 8 IEnMin= 8 EnMin= -1377.77576820796     IErMin= 8 ErrMin= 4.21D-05
 ErrMax= 4.21D-05  0.00D+00 EMaxC= 1.00D-01 BMatC= 1.39D-06 BMatP= 1.03D-05
 IDIUse=1 WtCom= 1.00D+00 WtEn= 0.00D+00
 Coeff-Com: -0.374D-03 0.388D-03 0.123D-01-0.743D-02 0.478D-01 0.662D-01
 Coeff-Com:  0.283D+00 0.598D+00
 Coeff:     -0.374D-03 0.388D-03 0.123D-01-0.743D-02 0.478D-01 0.662D-01
 Coeff:      0.283D+00 0.598D+00
 Gap=     0.147 Goal=   None    Shift=    0.000
 RMSDP=5.20D-06 MaxDP=2.32D-04 DE=-1.21D-05 OVMax= 5.12D-04

 Initial convergence to 1.0D-05 achieved.  Increase integral accuracy.
 Cycle   9  Pass 1  IDiag  1:
 E= -1377.77571586228     Delta-E=        0.000052345681 Rises=F Damp=F
 DIIS: error= 3.32D-04 at cycle   1 NSaved=   1.
 NSaved= 1 IEnMin= 1 EnMin= -1377.77571586228     IErMin= 1 ErrMin= 3.32D-04
 ErrMax= 3.32D-04  0.00D+00 EMaxC= 1.00D-01 BMatC= 2.23D-05 BMatP= 2.23D-05
 IDIUse=3 WtCom= 9.97D-01 WtEn= 3.32D-03
 Coeff-Com:  0.100D+01
 Coeff-En:   0.100D+01
 Coeff:      0.100D+01
 Gap=     0.147 Goal=   None    Shift=    0.000
 RMSDP=5.20D-06 MaxDP=2.32D-04 DE= 5.23D-05 OVMax= 8.40D-04

 Cycle  10  Pass 1  IDiag  1:
 RMSU=  3.78D-04    CP:  9.98D-01
 E= -1377.77573764975     Delta-E=       -0.000021787471 Rises=F Damp=F
 DIIS: error= 5.42D-05 at cycle   2 NSaved=   2.
 NSaved= 2 IEnMin= 2 EnMin= -1377.77573764975     IErMin= 2 ErrMin= 5.42D-05
 ErrMax= 5.42D-05  0.00D+00 EMaxC= 1.00D-01 BMatC= 1.77D-06 BMatP= 2.23D-05
 IDIUse=1 WtCom= 1.00D+00 WtEn= 0.00D+00
 Coeff-Com:  0.911D-01 0.909D+00
 Coeff:      0.911D-01 0.909D+00
 Gap=     0.147 Goal=   None    Shift=    0.000
 RMSDP=1.37D-05 MaxDP=4.05D-04 DE=-2.18D-05 OVMax= 1.68D-03

 Cycle  11  Pass 1  IDiag  1:
 RMSU=  1.31D-05    CP:  9.98D-01  1.01D+00
 E= -1377.77573012217     Delta-E=        0.000007527581 Rises=F Damp=F
 DIIS: error= 1.19D-04 at cycle   3 NSaved=   3.
 NSaved= 3 IEnMin= 2 EnMin= -1377.77573764975     IErMin= 2 ErrMin= 5.42D-05
 ErrMax= 1.19D-04  0.00D+00 EMaxC= 1.00D-01 BMatC= 8.13D-06 BMatP= 1.77D-06
 IDIUse=3 WtCom= 4.78D-01 WtEn= 5.22D-01
 Coeff-Com: -0.551D-02 0.686D+00 0.320D+00
 Coeff-En:   0.000D+00 0.757D+00 0.243D+00
 Coeff:     -0.264D-02 0.723D+00 0.280D+00
 Gap=     0.147 Goal=   None    Shift=    0.000
 RMSDP=7.73D-06 MaxDP=2.37D-04 DE= 7.53D-06 OVMax= 1.01D-03

 Cycle  12  Pass 1  IDiag  1:
 RMSU=  9.96D-07    CP:  9.98D-01  1.01D+00  4.14D-01
 E= -1377.77573953973     Delta-E=       -0.000009417560 Rises=F Damp=F
 DIIS: error= 1.50D-05 at cycle   4 NSaved=   4.
 NSaved= 4 IEnMin= 4 EnMin= -1377.77573953973     IErMin= 4 ErrMin= 1.50D-05
 ErrMax= 1.50D-05  0.00D+00 EMaxC= 1.00D-01 BMatC= 1.66D-07 BMatP= 1.77D-06
 IDIUse=1 WtCom= 1.00D+00 WtEn= 0.00D+00
 Coeff-Com: -0.419D-02 0.425D+00 0.140D+00 0.439D+00
 Coeff:     -0.419D-02 0.425D+00 0.140D+00 0.439D+00
 Gap=     0.147 Goal=   None    Shift=    0.000
 RMSDP=1.20D-06 MaxDP=3.56D-05 DE=-9.42D-06 OVMax= 1.52D-04

 Cycle  13  Pass 1  IDiag  1:
 RMSU=  4.13D-07    CP:  9.98D-01  1.01D+00  3.28D-01  8.73D-01
 E= -1377.77573972899     Delta-E=       -0.000000189262 Rises=F Damp=F
 DIIS: error= 9.96D-07 at cycle   5 NSaved=   5.
 NSaved= 5 IEnMin= 5 EnMin= -1377.77573972899     IErMin= 5 ErrMin= 9.96D-07
 ErrMax= 9.96D-07  0.00D+00 EMaxC= 1.00D-01 BMatC= 7.38D-10 BMatP= 1.66D-07
 IDIUse=1 WtCom= 1.00D+00 WtEn= 0.00D+00
 Coeff-Com: -0.225D-02 0.224D+00 0.707D-01 0.253D+00 0.454D+00
 Coeff:     -0.225D-02 0.224D+00 0.707D-01 0.253D+00 0.454D+00
 Gap=     0.147 Goal=   None    Shift=    0.000
 RMSDP=9.11D-08 MaxDP=3.58D-06 DE=-1.89D-07 OVMax= 8.79D-06

 Cycle  14  Pass 1  IDiag  1:
 RMSU=  7.46D-08    CP:  9.98D-01  1.01D+00  3.28D-01  8.99D-01  8.93D-01
 E= -1377.77573972974     Delta-E=       -0.000000000740 Rises=F Damp=F
 DIIS: error= 2.69D-07 at cycle   6 NSaved=   6.
 NSaved= 6 IEnMin= 6 EnMin= -1377.77573972974     IErMin= 6 ErrMin= 2.69D-07
 ErrMax= 2.69D-07  0.00D+00 EMaxC= 1.00D-01 BMatC= 5.66D-11 BMatP= 7.38D-10
 IDIUse=1 WtCom= 1.00D+00 WtEn= 0.00D+00
 Coeff-Com: -0.436D-03 0.422D-01 0.127D-01 0.539D-01 0.232D+00 0.659D+00
 Coeff:     -0.436D-03 0.422D-01 0.127D-01 0.539D-01 0.232D+00 0.659D+00
 Gap=     0.147 Goal=   None    Shift=    0.000
 RMSDP=3.52D-08 MaxDP=1.19D-06 DE=-7.40D-10 OVMax= 2.83D-06

 Cycle  15  Pass 1  IDiag  1:
 RMSU=  2.30D-08    CP:  9.98D-01  1.01D+00  3.28D-01  8.97D-01  9.45D-01
                    CP:  8.23D-01
 E= -1377.77573972975     Delta-E=       -0.000000000010 Rises=F Damp=F
 DIIS: error= 1.95D-07 at cycle   7 NSaved=   7.
 NSaved= 7 IEnMin= 7 EnMin= -1377.77573972975     IErMin= 7 ErrMin= 1.95D-07
 ErrMax= 1.95D-07  0.00D+00 EMaxC= 1.00D-01 BMatC= 1.57D-11 BMatP= 5.66D-11
 IDIUse=1 WtCom= 1.00D+00 WtEn= 0.00D+00
 Coeff-Com: -0.594D-05-0.220D-03-0.296D-03 0.289D-02 0.921D-01 0.425D+00
 Coeff-Com:  0.481D+00
 Coeff:     -0.594D-05-0.220D-03-0.296D-03 0.289D-02 0.921D-01 0.425D+00
 Coeff:      0.481D+00
 Gap=     0.147 Goal=   None    Shift=    0.000
 RMSDP=1.14D-08 MaxDP=4.66D-07 DE=-1.00D-11 OVMax= 9.62D-07

 Cycle  16  Pass 1  IDiag  1:
 RMSU=  6.61D-09    CP:  9.98D-01  1.01D+00  3.28D-01  9.02D-01  9.38D-01
                    CP:  8.54D-01  6.86D-01
 E= -1377.77573972979     Delta-E=       -0.000000000046 Rises=F Damp=F
 DIIS: error= 3.41D-08 at cycle   8 NSaved=   8.
 NSaved= 8 IEnMin= 8 EnMin= -1377.77573972979     IErMin= 8 ErrMin= 3.41D-08
 ErrMax= 3.41D-08  0.00D+00 EMaxC= 1.00D-01 BMatC= 7.07D-13 BMatP= 1.57D-11
 IDIUse=1 WtCom= 1.00D+00 WtEn= 0.00D+00
 Coeff-Com:  0.269D-04-0.306D-02-0.994D-03-0.238D-02 0.344D-01 0.187D+00
 Coeff-Com:  0.256D+00 0.529D+00
 Coeff:      0.269D-04-0.306D-02-0.994D-03-0.238D-02 0.344D-01 0.187D+00
 Coeff:      0.256D+00 0.529D+00
 Gap=     0.147 Goal=   None    Shift=    0.000
 RMSDP=2.65D-09 MaxDP=1.07D-07 DE=-4.64D-11 OVMax= 2.59D-07

 SCF Done:  E(RB3LYP) =  -1377.77573973     A.U. after   16 cycles
            NFock= 16  Conv=0.26D-08     -V/T= 2.0091
 KE= 1.365398639423D+03 PE=-9.211201431019D+03 EE= 3.463957990675D+03
 Leave Link  502 at Thu Jan 23 10:35:19 2025, MaxMem= 13421772800 cpu:            1227.4 elap:              38.7
 (Enter /public/software/apps/Gaussian/g16/l601.exe)
 Copying SCF densities to generalized density rwf, IOpCl= 0 IROHF=0.

 **********************************************************************

            Population analysis using the SCF Density.

 **********************************************************************

 Alpha  occ. eigenvalues --  -19.22354 -19.22337 -19.14685 -19.14675 -10.25242
 Alpha  occ. eigenvalues --  -10.25220 -10.24507 -10.24488 -10.24268 -10.24262
 Alpha  occ. eigenvalues --  -10.20263 -10.20241 -10.19156 -10.19150 -10.18791
 Alpha  occ. eigenvalues --  -10.18790 -10.18652 -10.18650 -10.18605 -10.18596
 Alpha  occ. eigenvalues --  -10.18384 -10.18380 -10.17972 -10.17951 -10.17820
 Alpha  occ. eigenvalues --  -10.17819 -10.17614 -10.17613 -10.17485 -10.17484
 Alpha  occ. eigenvalues --  -10.17208 -10.17204  -1.13004  -1.12996  -1.04579
 Alpha  occ. eigenvalues --   -1.04124  -0.87517  -0.86486  -0.82445  -0.82414
 Alpha  occ. eigenvalues --   -0.80833  -0.80692  -0.80070  -0.77103  -0.76303
 Alpha  occ. eigenvalues --   -0.74914  -0.72400  -0.72097  -0.71678  -0.69842
 Alpha  occ. eigenvalues --   -0.64216  -0.63360  -0.62703  -0.61945  -0.61413
 Alpha  occ. eigenvalues --   -0.61317  -0.60306  -0.57620  -0.57583  -0.56889
 Alpha  occ. eigenvalues --   -0.55716  -0.54636  -0.54432  -0.54166  -0.51263
 Alpha  occ. eigenvalues --   -0.50523  -0.49350  -0.48519  -0.48228  -0.48112
 Alpha  occ. eigenvalues --   -0.47580  -0.47305  -0.44658  -0.44007  -0.43610
 Alpha  occ. eigenvalues --   -0.42896  -0.42754  -0.42483  -0.42454  -0.42356
 Alpha  occ. eigenvalues --   -0.42255  -0.41986  -0.41548  -0.40820  -0.40582
 Alpha  occ. eigenvalues --   -0.40132  -0.39815  -0.39687  -0.39220  -0.37570
 Alpha  occ. eigenvalues --   -0.36764  -0.35411  -0.35312  -0.34691  -0.34575
 Alpha  occ. eigenvalues --   -0.33889  -0.32295  -0.32059  -0.31730  -0.29736
 Alpha  occ. eigenvalues --   -0.29709  -0.28094  -0.27687  -0.26499  -0.26296
 Alpha  occ. eigenvalues --   -0.20919  -0.20890  -0.20420  -0.19814
 Alpha virt. eigenvalues --   -0.05136  -0.05113  -0.01368  -0.01204   0.01873
 Alpha virt. eigenvalues --    0.02422   0.03063   0.03531   0.06045   0.06504
 Alpha virt. eigenvalues --    0.06786   0.06919   0.07742   0.07850   0.08880
 Alpha virt. eigenvalues --    0.09127   0.10300   0.10703   0.10968   0.10987
 Alpha virt. eigenvalues --    0.11967   0.11983   0.12849   0.12903   0.14017
 Alpha virt. eigenvalues --    0.14133   0.15650   0.15946   0.16279   0.17314
 Alpha virt. eigenvalues --    0.18060   0.18345   0.19648   0.19733   0.20293
 Alpha virt. eigenvalues --    0.20900   0.21432   0.23091   0.25651   0.26162
 Alpha virt. eigenvalues --    0.26762   0.27405   0.28537   0.28801   0.29021
 Alpha virt. eigenvalues --    0.29395   0.29879   0.30528   0.30661   0.31231
 Alpha virt. eigenvalues --    0.31729   0.31907   0.32357   0.32877   0.33504
 Alpha virt. eigenvalues --    0.34509   0.34911   0.35238   0.36912   0.36951
 Alpha virt. eigenvalues --    0.37061   0.37662   0.37971   0.38139   0.39009
 Alpha virt. eigenvalues --    0.39493   0.40059   0.40201   0.41024   0.41069
 Alpha virt. eigenvalues --    0.42065   0.42823   0.43194   0.43531   0.44337
 Alpha virt. eigenvalues --    0.44749   0.45318   0.45744   0.46262   0.46633
 Alpha virt. eigenvalues --    0.47154   0.47275   0.47842   0.48141   0.48271
 Alpha virt. eigenvalues --    0.49061   0.49416   0.49632   0.49888   0.50570
 Alpha virt. eigenvalues --    0.50996   0.51467   0.51768   0.52370   0.52729
 Alpha virt. eigenvalues --    0.53060   0.53564   0.53766   0.54090   0.54156
 Alpha virt. eigenvalues --    0.54488   0.55063   0.55175   0.56293   0.56472
 Alpha virt. eigenvalues --    0.57573   0.58318   0.58771   0.59171   0.60669
 Alpha virt. eigenvalues --    0.60901   0.61365   0.61663   0.61963   0.62552
 Alpha virt. eigenvalues --    0.64522   0.64644   0.65619   0.66064   0.66916
 Alpha virt. eigenvalues --    0.67232   0.67487   0.68726   0.68883   0.69111
 Alpha virt. eigenvalues --    0.69459   0.69539   0.70299   0.70469   0.71038
 Alpha virt. eigenvalues --    0.71590   0.71750   0.72326   0.72564   0.73263
 Alpha virt. eigenvalues --    0.74109   0.74451   0.74781   0.75057   0.75346
 Alpha virt. eigenvalues --    0.75700   0.75941   0.76128   0.77064   0.77202
 Alpha virt. eigenvalues --    0.77551   0.77901   0.78112   0.79163   0.80114
 Alpha virt. eigenvalues --    0.80866   0.81556   0.82099   0.82287   0.82526
 Alpha virt. eigenvalues --    0.83043   0.83898   0.85431   0.86250   0.87215
 Alpha virt. eigenvalues --    0.88322   0.88711   0.89396   0.90387   0.91589
 Alpha virt. eigenvalues --    0.94172   0.94374   0.95306   0.95888   0.97484
 Alpha virt. eigenvalues --    0.99432   1.00379   1.00969   1.01460   1.02898
 Alpha virt. eigenvalues --    1.03481   1.05199   1.07099   1.07898   1.08504
 Alpha virt. eigenvalues --    1.09510   1.09935   1.11018   1.12718   1.13880
 Alpha virt. eigenvalues --    1.15179   1.16654   1.16972   1.19345   1.21386
 Alpha virt. eigenvalues --    1.21922   1.22738   1.23188   1.24004   1.24971
 Alpha virt. eigenvalues --    1.26041   1.26501   1.27302   1.28459   1.29039
 Alpha virt. eigenvalues --    1.29739   1.30746   1.31684   1.31745   1.32823
 Alpha virt. eigenvalues --    1.36011   1.37552   1.38303   1.39205   1.39467
 Alpha virt. eigenvalues --    1.40312   1.40532   1.41159   1.43508   1.43708
 Alpha virt. eigenvalues --    1.44168   1.44466   1.45859   1.47235   1.47371
 Alpha virt. eigenvalues --    1.47744   1.48603   1.48869   1.49619   1.50544
 Alpha virt. eigenvalues --    1.50844   1.51277   1.51567   1.52366   1.52912
[...]
 3,0.00000019,0.00000050,0.00000033,-0.00000101,-0.00000306,-0.00000001
 ,-0.00000219,0.00000023,0.00000169,-0.00000154,-0.00000276,0.00000151,
 0.00000028,-0.00000444,0.00000664,-0.00000957,0.00001412,-0.00000734,-
 0.00005937,0.00000178,0.00001392,0.00002010,0.00000051,-0.00001727,-0.
 00000044,0.00000058,-0.00000267,0.00000415,-0.00000465,0.00000429,0.00
 074500,-0.00000959,-0.00052987,0.10017890,0.07517385,0.00002530,0.0000
 5358,-0.00006933,-0.00001519,-0.00004860,0.00007463,0.00000364,0.00000
 699,0.00000627,0.00000019,-0.00000631,0.00001154,-0.00000187,0.0000006
 5,-0.00000154,0.00000053,0.00000162,-0.00000112,-0.00000716,0.00000165
 ,-0.00000498,0.00000497,0.00000509,-0.00000064,-0.00001742,-0.00000886
 ,-0.00000360,-0.00000597,0.00000690,0.00001596,-0.00000592,0.00000259,
 -0.00000514,0.00000443,0.00000087,0.00000101,-0.00000150,-0.00000582,0
 .00001068,0.00001030,0.00000563,-0.00000871,-0.00005517,0.00001321,-0.
 00001337,0.00004925,-0.00024884,-0.00011848,-0.00092731,-0.00021737,0.
 00037714,-0.00017383,0.00013432,0.00005427,0.00006836,-0.00003813,-0.0
 0004909,0.00022710,0.00023054,0.00002503,0.00000216,-0.00009953,0.0000
 3684,-0.00002600,0.00001085,-0.00002447,0.00002172,0.00000422,0.000000
 23,-0.00001178,0.00001548,0.00002079,0.00002436,0.00001402,0.00003003,
 -0.00188795,0.00160986,-0.00049534,-0.01866254,-0.00682335,0.00383755,
 0.00920980,-0.00792847,-0.04924079,0.02058614,0.00744786,0.00421187,0.
 00323053,-0.00541765,0.00088444,0.00000723,-0.00011542,-0.00068088,0.0
 0066702,-0.00470334,-0.00042595,0.00000119,-0.00001141,0.00000773,0.00
 000094,0.00000022,-0.00000003,-0.00000028,-0.00000014,-0.00000029,-0.0
 0000100,-0.00000036,-0.00000086,-0.00000037,-0.00000140,-0.00000095,-0
 .00000115,-0.00000166,0.00000043,0.00000047,0.00000002,0.00000047,0.00
 000054,0.00000074,-0.00000134,0.00000495,-0.00000192,0.00000234,-0.000
 03210,-0.00001593,0.00000549,0.00001889,-0.00001283,0.00000709,-0.0000
 0034,-0.00000171,0.00000352,-0.00000051,0.00000512,-0.00000225,0.00067
 831,-0.00005496,-0.00017210,-0.01227039,0.01258023,0.04353771,0.000005
 71,0.00004782,-0.00004727,0.00002190,-0.00005587,0.00006219,0.00002819
 ,0.00000726,0.00000265,0.00001371,-0.00001042,0.00001476,-0.00000721,-
 0.00000050,-0.00000212,0.00000021,0.00000407,-0.00000189,-0.00000704,0
 .00000475,-0.00000695,-0.00000800,0.00000034,-0.00000202,-0.00001068,-
 0.00000634,0.00001104,0.00000816,0.00001062,-0.00001277,0.00000361,-0.
 00000223,0.00000415,-0.00000870,0.00000127,-0.00000297,0.00001048,0.00
 000835,-0.00000926,-0.00000751,-0.00000403,-0.00000617,0.00001042,0.00
 002524,-0.00004363,-0.00001381,-0.00003171,-0.00000999,0.00014109,-0.0
 0002391,-0.00034509,-0.00029906,-0.00005951,0.00011682,0.00005579,-0.0
 0000238,-0.00003059,-0.00008159,0.00032323,0.00011720,0.00006906,0.000
 05243,-0.00000627,-0.00000232,-0.00000341,0.00000118,-0.00000319,0.000
 00264,-0.00000102,0.00000597,0.00000388,0.00000688,-0.00001991,0.00002
 484,0.00002933,0.00071036,0.00040784,0.00030349,-0.00213249,-0.0003602
 7,0.00399887,0.00991291,0.01579318,0.01433584,-0.07905162,-0.05978961,
 -0.04664474,-0.00322442,-0.02127248,-0.02033208,-0.00479922,-0.0019083
 3,0.00194006,-0.00067740,0.00048720,0.00056941,0.00001236,-0.00001155,
 0.00001544,0.00000294,0.00000006,0.00000049,-0.00000113,-0.00000003,-0
 .00000138,0.00000012,-0.00000092,-0.00000126,-0.00000295,-0.00000207,0
 .00000025,-0.00000329,-0.00000150,-0.00000046,-0.00000134,-0.00000324,
 0.00000218,0.00000173,-0.00000099,0.00000272,-0.00000761,0.00000637,0.
 00000403,-0.00001234,-0.00001317,0.00000558,0.00000321,-0.00000061,0.0
 0000154,0.00000001,0.00000065,0.00000132,-0.00000261,-0.00000150,0.000
 00348,-0.00000282,-0.00006226,0.00002924,0.00057151,0.00075430,-0.0015
 1237,0.07798160,-0.00001698,-0.00000605,-0.00000742,-0.00000440,-0.000
 00975,0.00000302,0.00002166,0.00001029,0.00000076,0.00001457,-0.000002
 20,0.00001000,-0.00000874,-0.00000042,-0.00000377,-0.00000240,0.000000
 39,-0.00000123,0.00000551,0.00000200,0.00000143,-0.00002438,-0.0000062
 6,-0.00000622,-0.00001333,-0.00001330,0.00001102,-0.00001631,-0.000002
 03,-0.00000606,0.00000411,0.00000035,0.00000264,-0.00001036,-0.0000050
 0,0.00000435,0.00000235,0.00001628,-0.00000938,0.00001123,-0.00001603,
 0.00001891,-0.00000685,0.00006453,-0.00005140,0.00004146,-0.00004076,-
 0.00000702,0.00014540,-0.00030220,0.00031658,-0.00000147,0.00012434,-0
 .00000559,-0.00001559,-0.00006931,-0.00005103,0.00028059,-0.00034353,0
 .00016951,-0.00005010,-0.00005294,0.00007666,0.00001814,0.00000684,0.0
 0000131,-0.00001104,-0.00001736,-0.00001545,0.00003890,-0.00002176,-0.
 00004513,0.00001448,0.00000500,0.00000062,-0.00049334,-0.00010630,-0.0
 0034587,0.00047034,0.00470524,-0.00434969,-0.00501549,-0.00441437,-0.0
 0657580,-0.05942812,-0.18774041,-0.13763837,-0.00048616,-0.00402426,-0
 .00699759,-0.00284756,0.00281922,-0.00123332,0.00020506,0.00009960,0.0
 0061074,0.00001859,-0.00000486,0.00001795,0.00000266,-0.00000011,0.000
 00101,-0.00000123,0.00000047,-0.00000126,0.00000095,0.00000003,0.00000
 039,-0.00000351,-0.00000228,0.00000088,-0.00000382,-0.00000265,-0.0000
 0004,-0.00000322,-0.00000582,0.00000247,0.00000420,-0.00000886,0.00000
 428,-0.00000669,0.00001559,-0.00001349,-0.00000904,0.00003179,-0.00000
 079,-0.00001079,0.00000213,0.00000041,0.00000268,-0.00000169,-0.000004
 99,0.00000073,0.00000340,-0.00000286,-0.00001772,0.00012774,-0.0001021
 7,0.00126175,-0.00202914,0.00278915,0.06539505,0.19237764,-0.00000863,
 0.00005583,-0.00005126,-0.00001817,-0.00004186,0.00005094,0.00001700,0
 .00001538,-0.00000880,0.00001029,-0.00001372,0.00001626,-0.00000829,0.
 00000024,-0.00000290,-0.00000004,0.00000467,-0.00000227,-0.00000864,0.
 00000415,-0.00000722,-0.00001035,0.00000323,-0.00000250,-0.00001025,-0
 .00001548,0.00001118,-0.00000657,0.00000352,-0.00000394,-0.00000265,-0
 .00000715,0.00000683,-0.00001018,0.00000143,-0.00000552,0.00000411,0.0
 0000836,-0.00001076,0.00001397,-0.00000720,0.00000682,-0.00002881,0.00
 000576,-0.00002634,0.00003796,-0.00000828,-0.00001685,-0.00016044,0.00
 036976,-0.00016616,0.00018390,0.00002868,0.00008539,-0.00004355,-0.000
 06059,-0.00006172,0.00007131,0.00013937,-0.00049048,-0.00012180,0.0000
 3653,-0.00001830,0.00001954,0.00000526,-0.00000048,-0.00000997,-0.0000
 1097,-0.00001930,0.00003301,-0.00003210,-0.00004182,0.00003303,-0.0000
 1228,-0.00002440,-0.00064746,-0.00071084,-0.00007326,0.00485014,-0.004
 00853,0.00231038,-0.00794171,-0.01503546,-0.00919981,-0.04623050,-0.13
 747682,-0.16479080,0.00189466,0.00143889,0.00349096,0.00094871,-0.0016
 0487,0.00294441,0.00029056,0.00050177,-0.00012934,0.00001425,-0.000022
 82,0.00001591,0.00000328,0.00000008,0.00000048,-0.00000133,-0.00000028
 ,-0.00000149,0.00000012,-0.00000159,-0.00000176,-0.00000351,-0.0000023
 0,0.00000045,-0.00000406,-0.00000153,0.00000049,-0.00000223,-0.0000025
 6,0.00000221,0.00000122,0.00000121,0.00000100,-0.00000778,0.00000982,-
 0.00000518,0.00001040,-0.00000002,0.00003452,-0.00001094,-0.00000343,0
 .00000428,0.00000335,-0.00000373,-0.00000408,0.00000412,-0.00000449,0.
 00000182,0.00007810,-0.00008685,0.00010960,-0.00097705,0.00298950,-0.0
 0151570,0.04856199,0.15207410,0.16832534,0.00001647,0.00001192,0.00000
 853,-0.00000629,-0.00001534,-0.00001915,-0.00000226,0.00000510,0.00000
 191,-0.00000870,0.00000164,-0.00000583,0.00000513,0.00000039,0.0000032
 9,0.00000133,0.00000028,0.00000031,-0.00000419,-0.00000072,-0.00000214
 ,0.00001560,0.00000403,0.00000465,0.00000620,-0.00000043,0.00000304,-0
 .00000486,-0.00000026,0.00000090,-0.00000426,-0.00000532,0.00000442,0.
 00000285,0.00000441,-0.00000563,0.00000500,-0.00000805,-0.00000003,-0.
 00000099,-0.00000274,-0.00000633,0.00000055,-0.00000664,0.00004129,0.0
 0000969,-0.00002967,0.00006063,0.00028116,0.00007898,0.00000726,0.0000
 7201,-0.00001106,-0.00035595,0.00005656,0.00010735,0.00008370,-0.00008
 762,-0.00009585,-0.00001523,0.00004210,-0.00002220,-0.00002461,-0.0000
 2405,0.00000190,0.00000224,0.00000285,-0.00000273,-0.00000244,0.000001
 41,0.00001010,0.00001024,-0.00001347,0.00001235,0.00002291,-0.00003491
 ,0.00028876,0.00003824,0.00004063,-0.00050972,-0.00080244,-0.00408740,
 -0.00382464,-0.00037736,-0.01372027,0.01269004,0.02046489,-0.17574347,
 0.06326524,0.12333365,0.00968781,-0.00467400,-0.00708119,0.00073376,-0
 .00332730,-0.00028667,-0.00000988,0.00000324,-0.00001379,-0.00000169,-
 0.00000042,-0.00000096,0.00000091,-0.00000020,0.00000070,-0.00000064,0
 .00000025,-0.00000009,0.00000193,0.00000056,-0.00000110,0.00000216,0.0
 0000024,-0.00000057,0.00000176,0.00000425,-0.00000118,-0.00000480,0.00
 000815,-0.00000147,-0.00000404,-0.00000115,0.00001126,0.00001818,-0.00
 002515,-0.00002454,0.00000907,-0.00000021,-0.00000354,-0.00000189,0.00
 000004,0.00000174,-0.00000003,0.00000069,0.00000042,0.00003975,-0.0000
 3744,-0.00003564,-0.00078153,0.00053049,0.00097530,0.00103047,0.000585
 94,-0.00097355,0.18204221,-0.00002655,-0.00003309,-0.00000516,-0.00001
 170,0.00002520,0.00002891,-0.00000709,-0.00000448,-0.00000339,0.000005
 20,0.00000240,-0.00000137,-0.00000642,0.00000393,-0.00000229,-0.000006
 82,-0.00000330,0.00000121,0.00001362,-0.00000243,0.00000918,-0.0000252
 4,-0.00000488,-0.00000472,-0.00003728,-0.00000500,-0.00000257,-0.00000
 713,0.00000229,-0.00000054,-0.00000248,0.00001264,-0.00000202,-0.00000
 722,-0.00000927,0.00002600,-0.00000208,0.00000939,0.00002249,0.0000087
 1,0.00001942,0.00002609,0.00000714,0.00002771,-0.00009391,0.00001234,0
 .00018171,-0.00010204,0.00094838,0.00015213,-0.00031914,0.00012343,-0.
 00051019,0.00022258,0.00004857,-0.00012095,-0.00015513,-0.00017968,-0.
 00004757,-0.00012294,-0.00004175,0.00003964,0.00001597,0.00001670,-0.0
 0000558,0.00000275,0.00000052,-0.00000176,-0.00000785,0.00000977,-0.00
 000915,-0.00000724,0.00001442,0.00000257,-0.00001042,0.00013198,-0.000
 15188,0.00053370,-0.00027932,-0.00059151,0.00012540,-0.00293944,0.0020
 3577,-0.00204708,-0.00804531,0.00736567,0.00753946,0.06293578,-0.08633
 694,-0.07719741,0.01583812,-0.00383449,-0.01518899,-0.00389197,0.00170
 839,-0.00602256,0.00001975,0.00000013,0.00000823,0.00000057,-0.0000020
 9,-0.00000123,0.00000013,-0.00000008,-0.00000131,0.00000104,0.00000009
 ,-0.00000005,-0.00000240,-0.00000418,-0.00000212,-0.00000265,-0.000004
 41,-0.00000081,-0.00000103,-0.00000888,-0.00000131,0.00000804,-0.00001
 760,-0.00000130,-0.00000117,0.00000016,-0.00001785,-0.00003177,-0.0000
 0251,-0.00000435,-0.00000350,-0.00000371,0.00000257,0.00000151,0.00000
 024,-0.00000283,0.00000078,-0.00000080,0.00000043,0.00003083,0.0000157
 5,-0.00004976,-0.00044876,0.00028347,0.00026903,0.00122314,-0.00102676
 ,0.00152293,-0.06640523,0.08278780,-0.00001456,0.00012636,-0.00004063,
 -0.00002842,-0.00012593,0.00003702,0.00004758,0.00004746,-0.00001009,0
 .00000919,-0.00002515,0.00002235,-0.00001099,0.00000300,0.00000056,-0.
 00000128,0.00000890,-0.00000190,-0.00001930,0.00000831,-0.00001594,-0.
 00000543,0.00001373,0.00000466,-0.00001923,-0.00003637,0.00004131,-0.0
 0004026,-0.00000024,-0.00001128,-0.00000979,-0.00002048,0.00002050,-0.
 00002800,0.00000326,-0.00000919,0.00001706,0.00001679,-0.00001306,0.00
 004491,-0.00001452,0.00003671,-0.00006207,0.00008750,-0.00003962,0.000
 15558,-0.00011723,0.00013846,0.00093118,0.00004052,-0.00020835,-0.0001
 5106,0.00027159,-0.00041429,0.00002441,-0.00017949,-0.00020615,-0.0001
 4501,-0.00017917,0.00000904,-0.00002859,0.00000093,0.00004823,0.000016
 57,0.00000976,-0.00000725,-0.00000322,-0.00001078,-0.00000790,0.000017
 90,-0.00000918,-0.00002270,0.00002133,0.00000085,-0.00000031,-0.000134
 09,0.00048302,-0.00012365,-0.00056205,0.00019876,-0.00016872,0.0005614
 0,-0.00168198,0.00305058,-0.00162870,-0.00084224,0.00311954,0.12295993
 ,-0.07737490,-0.17043188,0.01478928,-0.00688757,-0.00889770,-0.0008777
 2,-0.00625641,0.00247157,0.00002676,-0.00004597,-0.00000283,0.00000429
 ,-0.00000228,-0.00000189,-0.00000046,-0.00000140,-0.00000331,0.0000009
 3,-0.00000366,-0.00000592,-0.00000441,-0.00000657,-0.00000193,-0.00000
 467,-0.00000669,-0.00000139,-0.00000273,-0.00000446,0.00000090,0.00000
 156,0.00000107,-0.00000063,-0.00001510,0.00002478,-0.00001346,-0.00003
 965,-0.00000807,0.00002735,-0.00000839,0.00000296,-0.00000066,0.000002
 97,-0.00000247,-0.00000156,0.00000036,0.00000010,-0.00000043,0.0000369
 8,-0.00002088,0.00001266,-0.00008064,-0.00012801,0.00010203,-0.0002918
 6,0.00178385,-0.00089599,-0.13423175,0.08789718,0.17398329,0.00004009,
 0.00023721,-0.00004013,0.00034735,-0.00063436,-0.00013244,0.00008779,0
 .00010958,0.00007362,0.00003455,-0.00003095,0.00003441,-0.00001847,-0.
 00000147,-0.00000198,0.00000159,0.00001048,-0.00000721,-0.00001769,0.0
 0001177,-0.00001922,-0.00001736,-0.00000105,-0.00000334,-0.00014922,-0
 .00000646,0.00005120,0.00023804,0.00009265,-0.00004575,-0.00001175,-0.
 00002907,0.00006833,-0.00004261,0.00002177,-0.00003200,0.00006976,0.00
 005148,-0.00007358,-0.00017000,0.00005768,-0.00016717,0.00029912,-0.00
 049144,-0.00048377,-0.00002194,-0.00064284,-0.00048921,-0.00058252,-0.
 00053082,-0.00143168,-0.00012755,-0.00002385,-0.00008822,0.00012393,0.
 00009879,0.00009823,0.00006866,0.00007553,-0.00003531,0.00006506,-0.00
 003815,-0.00006098,-0.00002099,-0.00001207,-0.00001089,0.00002941,0.00
 002160,0.00002068,-0.00007541,0.00004246,0.00007079,0.00004342,0.00000
 890,-0.00000459,-0.00068781,-0.00065306,-0.00039791,-0.00013225,0.0013
 6076,0.00345682,0.00063139,0.00061927,0.00017341,0.00205309,-0.0022849
 4,0.00002698,-0.00383081,-0.00127671,0.00199848,-0.30647805,-0.0922511
 1,0.00978292,-0.01512221,-0.00752879,-0.00041789,0.00003917,-0.0000019
 0,0.00004343,0.00000786,-0.00000058,0.00000089,-0.00000233,0.00000050,
 -0.00000243,-0.00000054,-0.00000041,-0.00000040,-0.00001204,-0.0000047
 5,-0.00000376,-0.00001079,-0.00000981,-0.00000519,-0.00000778,-0.00000
 682,0.00000767,-0.00000412,-0.00000117,0.00001508,-0.00007016,0.000019
 05,0.00004810,-0.00001161,-0.00002683,0.00001437,0.00001901,0.00000154
 ,-0.00000012,-0.00000325,0.00000149,0.00000463,-0.00000253,0.00000050,
 0.00000039,-0.00017765,0.00005953,0.00022202,-0.00017174,0.00016160,-0
 .00020551,-0.00021326,-0.00003771,0.00016344,0.00041969,0.00101350,-0.
 00122075,0.32357544,-0.00014232,-0.00060027,0.00051849,0.00005429,0.00
 030693,-0.00077041,-0.00004716,0.00002828,0.00006435,-0.00003084,0.000
 06212,-0.00008221,0.00002660,0.00000401,0.00000371,-0.00001415,-0.0000
 2916,0.00001074,0.00007595,-0.00003410,0.00007072,-0.00002112,-0.00002
 820,-0.00001289,0.00002246,0.00007672,-0.00010953,-0.00004002,-0.00006
 806,0.00013725,-0.00001499,0.00003983,-0.00005366,0.00007602,-0.000033
 53,0.00002721,-0.00011584,-0.00001576,0.00009278,0.00000457,0.00009544
 ,0.00001504,-0.00006411,-0.00125234,-0.00053387,0.00014274,-0.00066258
 ,-0.00091777,0.00048345,-0.00137514,0.00106407,-0.00012369,-0.00003362
 ,0.00043592,-0.00007299,-0.00002537,-0.00010913,0.00014240,0.00002910,
 0.00013632,-0.00003173,0.00002384,0.00000753,0.00001617,-0.00000493,0.
 00000154,-0.00001002,-0.00000317,0.00000071,0.00001930,-0.00001321,-0.
 00002073,-0.00001996,-0.00001014,-0.00000459,0.00058323,0.00030048,0.0
 0001264,0.00032890,0.00146142,-0.00378194,0.00051739,-0.00048355,-0.00
 015342,-0.00145813,0.00152750,-0.00642653,-0.02165026,-0.00290325,0.00
 076269,-0.09297649,-0.07910466,-0.00692675,0.01120750,0.00800322,-0.00
 004567,-0.00007230,0.00009242,0.00001520,-0.00001273,0.00000067,-0.000
 00017,0.00000278,-0.00000044,0.00000589,0.00000066,0.00000417,0.000007
 91,0.00002187,0.00001424,0.00001395,0.00001627,0.00001398,0.00000196,0
 .00000641,0.00001588,-0.00000941,-0.00000110,0.00000018,-0.00002450,0.
 00001903,-0.00000665,-0.00000561,-0.00000461,0.00005722,-0.00004515,-0
 .00000904,0.00000103,-0.00000098,0.00000045,0.00000029,-0.00000085,0.0
 0000088,0.00000032,-0.00000113,0.00010949,0.00003082,-0.00021603,0.000
 17081,-0.00051863,0.00055357,-0.00095568,-0.00013644,-0.00004469,0.001
 39017,-0.00193301,0.00296141,0.10244949,0.07708605,-0.00004950,-0.0000
 1268,0.00029010,-0.00015683,-0.00024479,-0.00062834,-0.00029877,-0.000
 00571,-0.00002906,-0.00007639,-0.00000082,-0.00005371,0.00002973,-0.00
 000160,0.00001248,0.00001143,-0.00000408,0.00000688,-0.00001284,-0.000
 00300,-0.00000443,0.00008032,0.00001752,0.00002845,0.00011517,0.000066
 35,-0.00010996,0.00027566,-0.00002665,0.00012911,-0.00007462,0.0000069
 5,-0.00003109,0.00009688,0.00004905,-0.00002672,-0.00014407,-0.0000520
 0,-0.00004203,0.00001188,0.00020772,-0.00016978,-0.00024476,-0.0009215
 8,0.00034123,0.00013543,-0.00037032,-0.00052410,-0.00035552,0.00148556
 ,-0.00069876,-0.00017735,0.00034462,0.00006561,-0.00007437,-0.00013416
 ,-0.00000891,0.00003767,0.00015757,-0.00001467,-0.00002869,0.00000195,
 0.00006009,0.00001779,0.00001012,-0.00000172,-0.00002318,-0.00001247,-
 0.00000987,0.00004777,-0.00002775,-0.00004731,-0.00004249,-0.00001498,
 -0.00000564,0.00090692,0.00052441,0.00024228,0.00236433,-0.00421684,-0
 .00054688,0.00008379,-0.00016927,-0.00074607,0.00092947,-0.00609316,0.
 00121380,-0.01979507,-0.00746774,0.00454595,0.00947606,-0.00707944,-0.
 04894825,0.01960956,0.00746595,0.00389158,-0.00009246,0.00003741,-0.00
 007546,-0.00000899,0.00000255,-0.00000201,0.00000497,-0.00000155,0.000
 00437,-0.00000012,-0.00000064,0.00000090,0.00000911,0.00003203,0.00000
 040,0.00000907,0.00000750,0.00000225,-0.00000396,0.00001418,-0.0000050
 2,-0.00001132,0.00001824,-0.00001367,-0.00004895,0.00000851,-0.0000180
 1,0.00005252,-0.00003591,0.00004075,-0.00001648,-0.00000248,-0.0000002
 5,0.00000158,-0.00000090,-0.00000202,0.00000185,-0.00000068,-0.0000007
 1,0.00026203,-0.00019238,-0.00012020,-0.00020148,0.00055994,-0.0004281
 4,-0.00083000,-0.00042611,0.00015915,-0.00080833,0.00312556,-0.0015661
 5,-0.01099445,0.01337601,0.04384357\\-0.00000114,0.00000110,0.00000129
 ,-0.00000078,0.00000161,-0.00000226,0.00000136,-0.00000011,0.00000117,
 -0.00000349,0.00000290,-0.00000191,0.00000371,-0.00000079,0.00000220,-
 0.00000262,0.00000114,-0.00000337,0.00000738,-0.00000537,0.00001118,0.
 00000630,0.00000517,-0.00000497,-0.00000111,0.00000080,0.00000009,-0.0
 0000240,0.00000091,-0.00000267,-0.00000075,0.00000120,-0.00000124,0.00
 000154,0.00000148,-0.00000087,-0.00000154,-0.00000040,-0.00000014,-0.0
 0000133,0.00000197,-0.00000176,0.00000487,0.00000276,-0.00000095,-0.00
 000490,-0.00000544,0.00000217,0.00000541,0.00000413,0.00000309,0.00000
 120,-0.00000295,-0.00000091,-0.00000114,0.00000214,-0.00000163,-0.0000
 0137,0.00000009,-0.00000005,0.00000389,-0.00000481,0.00000154,-0.00000
 488,0.00000411,0.00000010,0.00000343,-0.00000428,-0.00000129,-0.000008
 12,0.00000628,0.00001030,-0.00000506,-0.00000270,-0.00000783,0.0000005
 8,0.00000116,-0.00000054,0.00000246,-0.00000189,-0.00000224,0.00000050
 ,-0.00000059,-0.00000107,-0.00000117,-0.00000161,-0.00000081,0.0000011
 7,0.00000022,-0.00000043,0.00000141,-0.00000193,-0.00000197,-0.0000051
 3,-0.00000284,-0.00000079,-0.00000036,-0.00000155,0.00000061,-0.000003
 89,-0.00000208,-0.00000112,-0.00000332,-0.00000214,0.00000065,0.000000
 43,0.00000139,-0.00000173,-0.00000146,-0.00000035,-0.00000036,-0.00000
 149,-0.00000064,0.00000039,-0.00000078,-0.00000160,0.00000135,0.000000
 61,-0.00000091,0.00000146,0.00000175,0.00000133,-0.00000027,0.00000086
 ,0.00000010,0.00000185,0.00000475,0.00000051,0.00000067,0.00000359,0.0
 0000224,0.00000122,0.00000007,-0.00000215,-0.00000085,0.00000173,0.000
 00029,-0.00000024,0.00000140,0.00000065,0.00000045,0.00000049,0.000001
 64,0.00000143,-0.00000077,0.00000088,0.00000149,-0.00000191,-0.0000011
 0,-0.00000042\\\@
 The archive entry for this job was punched.


 KEEP CLOSE TO NATURES HEART, YOURSELF;
 AND BREAK CLEAR AWAY, ONCE IN A WHILE, AND
 CLIMB A MOUNTAIN OR SPEND A WEEK IN THE
 WOODS.  WASH YOUR SPIRIT CLEAN...
                                         -- JOHN MUIR
 Job cpu time:       0 days  4 hours  5 minutes 16.6 seconds.
 Elapsed time:       0 days  0 hours  7 minutes 43.3 seconds.
 File lengths (MBytes):  RWF=   1396 Int=      0 D2E=      0 Chk=     21 Scr=      1
 Normal termination of Gaussian 16 at Thu Jan 23 10:59:33 2025.
