 Entering Gaussian System, Link 0=g16
 Initial command:
 /public/software/apps/Gaussian/g16/l1.exe "/tmp/Gau-45675.inp" -scrdir="/tmp/"
 Entering Link 1 = /public/software/apps/Gaussian/g16/l1.exe PID=     45676.
  
 Copyright (c) 1988-2019, Gaussian, Inc.  All Rights Reserved.
  
 This is part of the Gaussian(R) 16 program.  It is based on
 the Gaussian(R) 09 system (copyright 2009, Gaussian, Inc.),
 the Gaussian(R) 03 system (copyright 2003, Gaussian, Inc.),
 the Gaussian(R) 98 system (copyright 1998, Gaussian, Inc.),
 the Gaussian(R) 94 system (copyright 1995, Gaussian, Inc.),
 the Gaussian 92(TM) system (copyright 1992, Gaussian, Inc.),
 the Gaussian 90(TM) system (copyright 1990, Gaussian, Inc.),
 the Gaussian 88(TM) system (copyright 1988, Gaussian, Inc.),
 the Gaussian 86(TM) system (copyright 1986, Carnegie Mellon
 University), and the Gaussian 82(TM) system (copyright 1983,
 Carnegie Mellon University). Gaussian is a federally registered
 trademark of Gaussian, Inc.
  
 This software contains proprietary and confidential information,
 including trade secrets, belonging to Gaussian, Inc.
  
 This software is provided under written license and may be
 used, copied, transmitted, or stored only in accord with that
 written license.
  
 The following legend is applicable only to US Government
 contracts under FAR:
  
                    RESTRICTED RIGHTS LEGEND
  
 Use, reproduction and disclosure by the US Government is
 subject to restrictions as set forth in subparagraphs (a)
 and (c) of the Commercial Computer Software - Restricted
 Rights clause in FAR 52.227-19.
  
 Gaussian, Inc.
 340 Quinnipiac St., Bldg. 40, Wallingford CT 06492
  
  
 ---------------------------------------------------------------
 Warning -- This program may not be used in any manner that
 competes with the business of Gaussian, Inc. or will provide
 assistance to any competitor of Gaussian, Inc.  The licensee
 of this program is prohibited from giving any competitor of
 Gaussian, Inc. access to this program.  By using this program,
 the user acknowledges that Gaussian, Inc. is engaged in the
 business of creating and licensing software in the field of
 computational chemistry and represents and warrants to the
 licensee that it is not a competitor of Gaussian, Inc. and that
 it will not use this program in any manner prohibited above.
 ---------------------------------------------------------------
  

 Cite this work as:
 Gaussian 16, Revision C.01,
 M. J. Frisch, G. W. Trucks, H. B. Schlegel, G. E. Scuseria, 
 M. A. Robb, J. R. Cheeseman, G. Scalmani, V. Barone, 
 G. A. Petersson, H. Nakatsuji, X. Li, M. Caricato, A. V. Marenich, 
 J. Bloino, B. G. Janesko, R. Gomperts, B. Mennucci, H. P. Hratchian, 
 J. V. Ortiz, A. F. Izmaylov, J. L. Sonnenberg, D. Williams-Young, 
 F. Ding, F. Lipparini, F. Egidi, J. Goings, B. Peng, A. Petrone, 
 T. Henderson, D. Ranasinghe, V. G. Zakrzewski, J. Gao, N. Rega, 
 G. Zheng, W. Liang, M. Hada, M. Ehara, K. Toyota, R. Fukuda, 
 J. Hasegawa, M. Ishida, T. Nakajima, Y. Honda, O. Kitao, H. Nakai, 
 T. Vreven, K. Throssell, J. A. Montgomery, Jr., J. E. Peralta, 
 F. Ogliaro, M. J. Bearpark, J. J. Heyd, E. N. Brothers, K. N. Kudin, 
 V. N. Staroverov, T. A. Keith, R. Kobayashi, J. Normand, 
 K. Raghavachari, A. P. Rendell, J. C. Burant, S. S. Iyengar, 
 J. Tomasi, M. Cossi, J. M. Millam, M. Klene, C. Adamo, R. Cammi, 
 J. W. Ochterski, R. L. Martin, K. Morokuma, O. Farkas, 
 J. B. Foresman, and D. J. Fox, Gaussian, Inc., Wallingford CT, 2019.
 
 ******************************************
 Gaussian 16:  ES64L-G16RevC.01  3-Jul-2019
                23-Jan-2025 
 ******************************************
 %nprocshared=32
 Will use up to   32 processors via shared memory.
 %mem=100GB
 ------------------------------------------
 #p opt freq b3lyp/def2svpp em=gd3bj nosymm
 ------------------------------------------
 1/18=20,19=15,26=3,38=1/1,3;
 2/9=110,12=2,15=1,17=6,18=5,40=1/2;
 3/5=43,7=202,11=2,25=1,30=1,71=1,74=-5,124=41/1,2,3;
 4//1;
 5/5=2,38=5/2;
 6/7=2,8=2,9=2,10=2,28=1/1;
 7/30=1/1,2,3,16;
 1/18=20,19=15,26=3/3(2);
 2/9=110,15=1/2;
 99//99;
 2/9=110,15=1/2;
 3/5=43,7=202,11=2,25=1,30=1,71=1,74=-5,124=41/1,2,3;
 4/5=5,16=3,69=1/1;
 5/5=2,38=5/2;
 7/30=1/1,2,3,16;
 1/18=20,19=15,26=3/3(-5);
 2/9=110,15=1/2;
 6/7=2,8=2,9=2,10=2,19=2,28=1/1;
 99/9=1/99;
 Leave Link    1 at Thu Jan 23 10:49:09 2025, MaxMem= 13421772800 cpu:               1.9 elap:               0.1
 (Enter /public/software/apps/Gaussian/g16/l101.exe)
 ----------------------
 $$$$Singlemol####0????
 ----------------------
 Symbolic Z-matrix:
 Charge =  0 Multiplicity = 1
 C                     6.14907   2.66663  -1.84963 
 C                     5.72876   1.23794  -1.67823 
 C                     6.46448   0.20135  -2.23604 
 C                     6.07291  -1.11418  -2.05446 
 C                     4.94632  -1.40956  -1.31172 
 C                     4.19341  -0.38322  -0.74679 
 C                     3.00871  -0.70094   0.06742 
 C                     3.06979  -1.66989   1.0368 
 C                     1.96628  -1.9817    1.85317 
 C                     2.03766  -2.96568   2.86024 
 C                     0.95771  -3.23555   3.65328 
 C                    -0.2388   -2.52446   3.47918 
 C                    -0.34244  -1.56649   2.50935 
 C                     0.74966  -1.27655   1.66343 
 C                     0.67656  -0.29623   0.63921 
 C                    -0.59763   0.42597   0.37741 
 C                    -1.65278  -0.25275  -0.20317 
 O                    -1.56041  -1.57005  -0.52106 
 C                    -2.87891   0.40997  -0.47364 
 C                    -4.01183  -0.32099  -1.06543 
 C                    -3.8508   -1.11777  -2.19299 
 C                    -4.94082  -1.77345  -2.73563 
 C                    -6.19196  -1.64674  -2.16085 
 C                    -6.37288  -0.85607  -1.0314 
 C                    -7.72809  -0.73672  -0.40125 
 C                    -5.27707  -0.19718  -0.49783 
 C                    -2.9972    1.74006  -0.15901 
 C                    -1.9434    2.46697   0.42608 
 C                    -2.06754   3.83459   0.74513 
 C                    -1.03584   4.5134    1.33049 
 C                     0.16239   3.84918   1.63176 
 C                     0.31645   2.52438   1.33158 
 C                    -0.72361   1.8003    0.71023 
 C                     1.78395  -0.01281  -0.13748 
 O                     1.72952   0.90057  -1.14211 
 C                     4.59541   0.93291  -0.93734 
 H                     6.90103   2.76144  -2.62916 
 H                     5.29365   3.28825  -2.10698 
 H                     6.5706    3.04743  -0.9189 
 H                     7.34782   0.42362  -2.81785 
 H                     6.65034  -1.91311  -2.49709 
 H                     4.63412  -2.43571  -1.18205 
 H                     3.99926  -2.19586   1.2 
 H                     2.96736  -3.50005   2.99378 
 H                     1.01974  -3.99083   4.42269 
 H                    -1.08111  -2.73714   4.12068 
 H                    -1.26328  -1.01464   2.38662 
 H                    -0.70972  -1.91482  -0.21437 
 H                    -2.87791  -1.21479  -2.64845 
 H                    -4.81318  -2.38788  -3.61511 
 H                    -7.03865  -2.16519  -2.58811 
 H                    -7.74283   0.05158   0.34736 
 H                    -7.99995  -1.67483   0.08294 
 H                    -8.48373  -0.52052  -1.1546 
 H                    -5.39941   0.41169   0.38749 
 H                    -3.92282   2.25352  -0.37556 
 H                    -2.99872   4.33419   0.51907 
 H                    -1.13778   5.56115   1.57165 
 H                     0.9652    4.39269   2.10778 
 H                     1.23692   2.01456   1.57737 
 H                     0.84363   1.28913  -1.17217 
 H                     4.02208   1.73384  -0.49511 
 
 ITRead=  0  0  0  0  0  0  0  0  0  0  0  0  0  0  0  0  0  0  0  0
 ITRead=  0  0  0  0  0  0  0  0  0  0  0  0  0  0  0  0  0  0  0  0
 ITRead=  0  0  0  0  0  0  0  0  0  0  0  0  0  0  0  0  0  0  0  0
 ITRead=  0  0
 MicOpt= -1 -1 -1 -1 -1 -1 -1 -1 -1 -1 -1 -1 -1 -1 -1 -1 -1 -1 -1 -1
 MicOpt= -1 -1 -1 -1 -1 -1 -1 -1 -1 -1 -1 -1 -1 -1 -1 -1 -1 -1 -1 -1
 MicOpt= -1 -1 -1 -1 -1 -1 -1 -1 -1 -1 -1 -1 -1 -1 -1 -1 -1 -1 -1 -1
 MicOpt= -1 -1
 NAtoms=     62 NQM=       62 NQMF=       0 NMMI=      0 NMMIF=      0
                NMic=       0 NMicF=      0.
                    Isotopes and Nuclear Properties:
 (Nuclear quadrupole moments (NQMom) in fm**2, nuclear magnetic moments (NMagM)
  in nuclear magnetons)

  Atom         1           2           3           4           5           6           7           8           9          10
 IAtWgt=          12          12          12          12          12          12          12          12          12          12
 AtmWgt=  12.0000000  12.0000000  12.0000000  12.0000000  12.0000000  12.0000000  12.0000000  12.0000000  12.0000000  12.0000000
 NucSpn=           0           0           0           0           0           0           0           0           0           0
 AtZEff=  -0.0000000  -0.0000000  -0.0000000  -0.0000000  -0.0000000  -0.0000000  -0.0000000  -0.0000000  -0.0000000  -0.0000000
 NQMom=    0.0000000   0.0000000   0.0000000   0.0000000   0.0000000   0.0000000   0.0000000   0.0000000   0.0000000   0.0000000
 NMagM=    0.0000000   0.0000000   0.0000000   0.0000000   0.0000000   0.0000000   0.0000000   0.0000000   0.0000000   0.0000000
 AtZNuc=   6.0000000   6.0000000   6.0000000   6.0000000   6.0000000   6.0000000   6.0000000   6.0000000   6.0000000   6.0000000

  Atom        11          12          13          14          15          16          17          18          19          20
 IAtWgt=          12          12          12          12          12          12          12          16          12          12
 AtmWgt=  12.0000000  12.0000000  12.0000000  12.0000000  12.0000000  12.0000000  12.0000000  15.9949146  12.0000000  12.0000000
 NucSpn=           0           0           0           0           0           0           0           0           0           0
 AtZEff=  -0.0000000  -0.0000000  -0.0000000  -0.0000000  -0.0000000  -0.0000000  -0.0000000  -0.0000000  -0.0000000  -0.0000000
 NQMom=    0.0000000   0.0000000   0.0000000   0.0000000   0.0000000   0.0000000   0.0000000   0.0000000   0.0000000   0.0000000
 NMagM=    0.0000000   0.0000000   0.0000000   0.0000000   0.0000000   0.0000000   0.0000000   0.0000000   0.0000000   0.0000000
 AtZNuc=   6.0000000   6.0000000   6.0000000   6.0000000   6.0000000   6.0000000   6.0000000   8.0000000   6.0000000   6.0000000

  Atom        21          22          23          24          25          26          27          28          29          30
 IAtWgt=          12          12          12          12          12          12          12          12          12          12
 AtmWgt=  12.0000000  12.0000000  12.0000000  12.0000000  12.0000000  12.0000000  12.0000000  12.0000000  12.0000000  12.0000000
 NucSpn=           0           0           0           0           0           0           0           0           0           0
 AtZEff=  -0.0000000  -0.0000000  -0.0000000  -0.0000000  -0.0000000  -0.0000000  -0.0000000  -0.0000000  -0.0000000  -0.0000000
 NQMom=    0.0000000   0.0000000   0.0000000   0.0000000   0.0000000   0.0000000   0.0000000   0.0000000   0.0000000   0.0000000
 NMagM=    0.0000000   0.0000000   0.0000000   0.0000000   0.0000000   0.0000000   0.0000000   0.0000000   0.0000000   0.0000000
 AtZNuc=   6.0000000   6.0000000   6.0000000   6.0000000   6.0000000   6.0000000   6.0000000   6.0000000   6.0000000   6.0000000

  Atom        31          32          33          34          35          36          37          38          39          40
 IAtWgt=          12          12          12          12          16          12           1           1           1           1
 AtmWgt=  12.0000000  12.0000000  12.0000000  12.0000000  15.9949146  12.0000000   1.0078250   1.0078250   1.0078250   1.0078250
 NucSpn=           0           0           0           0           0           0           1           1           1           1
 AtZEff=  -0.0000000  -0.0000000  -0.0000000  -0.0000000  -0.0000000  -0.0000000  -0.0000000  -0.0000000  -0.0000000  -0.0000000
 NQMom=    0.0000000   0.0000000   0.0000000   0.0000000   0.0000000   0.0000000   0.0000000   0.0000000   0.0000000   0.0000000
 NMagM=    0.0000000   0.0000000   0.0000000   0.0000000   0.0000000   0.0000000   2.7928460   2.7928460   2.7928460   2.7928460
 AtZNuc=   6.0000000   6.0000000   6.0000000   6.0000000   8.0000000   6.0000000   1.0000000   1.0000000   1.0000000   1.0000000

  Atom        41          42          43          44          45          46          47          48          49          50
 IAtWgt=           1           1           1           1           1           1           1           1           1           1
 AtmWgt=   1.0078250   1.0078250   1.0078250   1.0078250   1.0078250   1.0078250   1.0078250   1.0078250   1.0078250   1.0078250
 NucSpn=           1           1           1           1           1           1           1           1           1           1
 AtZEff=  -0.0000000  -0.0000000  -0.0000000  -0.0000000  -0.0000000  -0.0000000  -0.0000000  -0.0000000  -0.0000000  -0.0000000
 NQMom=    0.0000000   0.0000000   0.0000000   0.0000000   0.0000000   0.0000000   0.0000000   0.0000000   0.0000000   0.0000000
 NMagM=    2.7928460   2.7928460   2.7928460   2.7928460   2.7928460   2.7928460   2.7928460   2.7928460   2.7928460   2.7928460
 AtZNuc=   1.0000000   1.0000000   1.0000000   1.0000000   1.0000000   1.0000000   1.0000000   1.0000000   1.0000000   1.0000000

  Atom        51          52          53          54          55          56          57          58          59          60
 IAtWgt=           1           1           1           1           1           1           1           1           1           1
 AtmWgt=   1.0078250   1.0078250   1.0078250   1.0078250   1.0078250   1.0078250   1.0078250   1.0078250   1.0078250   1.0078250
 NucSpn=           1           1           1           1           1           1           1           1           1           1
 AtZEff=  -0.0000000  -0.0000000  -0.0000000  -0.0000000  -0.0000000  -0.0000000  -0.0000000  -0.0000000  -0.0000000  -0.0000000
 NQMom=    0.0000000   0.0000000   0.0000000   0.0000000   0.0000000   0.0000000   0.0000000   0.0000000   0.0000000   0.0000000
 NMagM=    2.7928460   2.7928460   2.7928460   2.7928460   2.7928460   2.7928460   2.7928460   2.7928460   2.7928460   2.7928460
 AtZNuc=   1.0000000   1.0000000   1.0000000   1.0000000   1.0000000   1.0000000   1.0000000   1.0000000   1.0000000   1.0000000

  Atom        61          62
 IAtWgt=           1           1
 AtmWgt=   1.0078250   1.0078250
 NucSpn=           1           1
 AtZEff=  -0.0000000  -0.0000000
 NQMom=    0.0000000   0.0000000
 NMagM=    2.7928460   2.7928460
 AtZNuc=   1.0000000   1.0000000
 Leave Link  101 at Thu Jan 23 10:49:09 2025, MaxMem= 13421772800 cpu:               3.5 elap:               0.1
 (Enter /public/software/apps/Gaussian/g16/l103.exe)

 GradGradGradGradGradGradGradGradGradGradGradGradGradGradGradGradGradGrad
 Berny optimization.
 Initialization pass.
                           ----------------------------
                           !    Initial Parameters    !
                           ! (Angstroms and Degrees)  !
 --------------------------                            --------------------------
 ! Name  Definition              Value          Derivative Info.                !
 --------------------------------------------------------------------------------
 ! R1    R(1,2)                  1.4991         estimate D2E/DX2                !
 ! R2    R(1,37)                 1.0872         estimate D2E/DX2                !
 ! R3    R(1,38)                 1.0883         estimate D2E/DX2                !
 ! R4    R(1,39)                 1.0904         estimate D2E/DX2                !
 ! R5    R(2,3)                  1.3881         estimate D2E/DX2                !
 ! R6    R(2,36)                 1.388          estimate D2E/DX2                !
 ! R7    R(3,4)                  1.3845         estimate D2E/DX2                !
 ! R8    R(3,40)                 1.0808         estimate D2E/DX2                !
 ! R9    R(4,5)                  1.3813         estimate D2E/DX2                !
 ! R10   R(4,41)                 1.0806         estimate D2E/DX2                !
 ! R11   R(5,6)                  1.3926         estimate D2E/DX2                !
 ! R12   R(5,42)                 1.0804         estimate D2E/DX2                !
 ! R13   R(6,7)                  1.4722         estimate D2E/DX2                !
 ! R14   R(6,36)                 1.3893         estimate D2E/DX2                !
 ! R15   R(7,8)                  1.372          estimate D2E/DX2                !
 ! R16   R(7,34)                 1.4197         estimate D2E/DX2                !
 ! R17   R(8,9)                  1.4076         estimate D2E/DX2                !
 ! R18   R(8,43)                 1.0804         estimate D2E/DX2                !
 ! R19   R(9,10)                 1.4098         estimate D2E/DX2                !
 ! R20   R(9,14)                 1.4189         estimate D2E/DX2                !
 ! R21   R(10,11)                1.3668         estimate D2E/DX2                !
 ! R22   R(10,44)                1.0806         estimate D2E/DX2                !
 ! R23   R(11,12)                1.4027         estimate D2E/DX2                !
 ! R24   R(11,45)                1.0799         estimate D2E/DX2                !
 ! R25   R(12,13)                1.3671         estimate D2E/DX2                !
 ! R26   R(12,46)                1.0799         estimate D2E/DX2                !
 ! R27   R(13,14)                1.4115         estimate D2E/DX2                !
 ! R28   R(13,47)                1.0805         estimate D2E/DX2                !
 ! R29   R(14,15)                1.4196         estimate D2E/DX2                !
 ! R30   R(15,16)                1.4878         estimate D2E/DX2                !
 ! R31   R(15,34)                1.382          estimate D2E/DX2                !
 ! R32   R(16,17)                1.3824         estimate D2E/DX2                !
 ! R33   R(16,33)                1.4197         estimate D2E/DX2                !
 ! R34   R(17,18)                1.3583         estimate D2E/DX2                !
 ! R35   R(17,19)                1.4198         estimate D2E/DX2                !
 ! R36   R(18,48)                0.9678         estimate D2E/DX2                !
 ! R37   R(19,20)                1.4724         estimate D2E/DX2                !
 ! R38   R(19,27)                1.3719         estimate D2E/DX2                !
 ! R39   R(20,21)                1.39           estimate D2E/DX2                !
 ! R40   R(20,26)                1.3922         estimate D2E/DX2                !
 ! R41   R(21,22)                1.3829         estimate D2E/DX2                !
 ! R42   R(21,49)                1.0786         estimate D2E/DX2                !
 ! R43   R(22,23)                1.3827         estimate D2E/DX2                !
 ! R44   R(22,50)                1.0804         estimate D2E/DX2                !
 ! R45   R(23,24)                1.3905         estimate D2E/DX2                !
 ! R46   R(23,51)                1.0808         estimate D2E/DX2                !
 ! R47   R(24,25)                1.4993         estimate D2E/DX2                !
 ! R48   R(24,26)                1.3855         estimate D2E/DX2                !
 ! R49   R(25,52)                1.0872         estimate D2E/DX2                !
 ! R50   R(25,53)                1.0901         estimate D2E/DX2                !
 ! R51   R(25,54)                1.0887         estimate D2E/DX2                !
 ! R52   R(26,55)                1.0814         estimate D2E/DX2                !
 ! R53   R(27,28)                1.4076         estimate D2E/DX2                !
 ! R54   R(27,56)                1.0804         estimate D2E/DX2                !
 ! R55   R(28,29)                1.4098         estimate D2E/DX2                !
 ! R56   R(28,33)                1.4188         estimate D2E/DX2                !
 ! R57   R(29,30)                1.3667         estimate D2E/DX2                !
 ! R58   R(29,57)                1.0806         estimate D2E/DX2                !
 ! R59   R(30,31)                1.4028         estimate D2E/DX2                !
 ! R60   R(30,58)                1.08           estimate D2E/DX2                !
 ! R61   R(31,32)                1.3671         estimate D2E/DX2                !
 ! R62   R(31,59)                1.0801         estimate D2E/DX2                !
 ! R63   R(32,33)                1.4114         estimate D2E/DX2                !
 ! R64   R(32,60)                1.0806         estimate D2E/DX2                !
 ! R65   R(34,35)                1.3589         estimate D2E/DX2                !
 ! R66   R(35,61)                0.9678         estimate D2E/DX2                !
 ! R67   R(36,62)                1.0797         estimate D2E/DX2                !
 ! A1    A(2,1,37)             111.0391         estimate D2E/DX2                !
 ! A2    A(2,1,38)             110.5495         estimate D2E/DX2                !
 ! A3    A(2,1,39)             110.0983         estimate D2E/DX2                !
 ! A4    A(37,1,38)            108.9219         estimate D2E/DX2                !
 ! A5    A(37,1,39)            108.3107         estimate D2E/DX2                !
 ! A6    A(38,1,39)            107.8325         estimate D2E/DX2                !
 ! A7    A(1,2,3)              121.1404         estimate D2E/DX2                !
 ! A8    A(1,2,36)             119.9626         estimate D2E/DX2                !
 ! A9    A(3,2,36)             118.8923         estimate D2E/DX2                !
 ! A10   A(2,3,4)              120.46           estimate D2E/DX2                !
 ! A11   A(2,3,40)             119.7287         estimate D2E/DX2                !
 ! A12   A(4,3,40)             119.8111         estimate D2E/DX2                !
 ! A13   A(3,4,5)              120.2884         estimate D2E/DX2                !
 ! A14   A(3,4,41)             119.8455         estimate D2E/DX2                !
 ! A15   A(5,4,41)             119.8659         estimate D2E/DX2                !
 ! A16   A(4,5,6)              120.0965         estimate D2E/DX2                !
 ! A17   A(4,5,42)             120.2188         estimate D2E/DX2                !
 ! A18   A(6,5,42)             119.6742         estimate D2E/DX2                !
 ! A19   A(5,6,7)              120.0235         estimate D2E/DX2                !
 ! A20   A(5,6,36)             119.0848         estimate D2E/DX2                !
 ! A21   A(7,6,36)             120.8741         estimate D2E/DX2                !
 ! A22   A(6,7,8)              120.488          estimate D2E/DX2                !
 ! A23   A(6,7,34)             120.6496         estimate D2E/DX2                !
 ! A24   A(8,7,34)             118.8623         estimate D2E/DX2                !
 ! A25   A(7,8,9)              122.0945         estimate D2E/DX2                !
 ! A26   A(7,8,43)             119.2663         estimate D2E/DX2                !
 ! A27   A(9,8,43)             118.6204         estimate D2E/DX2                !
 ! A28   A(8,9,10)             121.9518         estimate D2E/DX2                !
 ! A29   A(8,9,14)             118.9819         estimate D2E/DX2                !
 ! A30   A(10,9,14)            119.0642         estimate D2E/DX2                !
 ! A31   A(9,10,11)            120.8168         estimate D2E/DX2                !
 ! A32   A(9,10,44)            118.4885         estimate D2E/DX2                !
 ! A33   A(11,10,44)           120.6943         estimate D2E/DX2                !
 ! A34   A(10,11,12)           120.1245         estimate D2E/DX2                !
 ! A35   A(10,11,45)           120.4041         estimate D2E/DX2                !
 ! A36   A(12,11,45)           119.4697         estimate D2E/DX2                !
 ! A37   A(11,12,13)           120.527          estimate D2E/DX2                !
 ! A38   A(11,12,46)           119.4554         estimate D2E/DX2                !
 ! A39   A(13,12,46)           120.0174         estimate D2E/DX2                !
 ! A40   A(12,13,14)           120.6922         estimate D2E/DX2                !
 ! A41   A(12,13,47)           120.2024         estimate D2E/DX2                !
 ! A42   A(14,13,47)           119.1036         estimate D2E/DX2                !
 ! A43   A(9,14,13)            118.762          estimate D2E/DX2                !
 ! A44   A(9,14,15)            118.9335         estimate D2E/DX2                !
 ! A45   A(13,14,15)           122.3018         estimate D2E/DX2                !
 ! A46   A(14,15,16)           120.4137         estimate D2E/DX2                !
 ! A47   A(14,15,34)           120.386          estimate D2E/DX2                !
 ! A48   A(16,15,34)           119.1957         estimate D2E/DX2                !
 ! A49   A(15,16,17)           119.2905         estimate D2E/DX2                !
 ! A50   A(15,16,33)           120.3082         estimate D2E/DX2                !
 ! A51   A(17,16,33)           120.3991         estimate D2E/DX2                !
 ! A52   A(16,17,18)           121.5036         estimate D2E/DX2                !
 ! A53   A(16,17,19)           120.6638         estimate D2E/DX2                !
 ! A54   A(18,17,19)           117.8295         estimate D2E/DX2                !
 ! A55   A(17,18,48)           109.3361         estimate D2E/DX2                !
 ! A56   A(17,19,20)           120.6194         estimate D2E/DX2                !
 ! A57   A(17,19,27)           118.9027         estimate D2E/DX2                !
 ! A58   A(20,19,27)           120.473          estimate D2E/DX2                !
 ! A59   A(19,20,21)           121.4294         estimate D2E/DX2                !
 ! A60   A(19,20,26)           119.422          estimate D2E/DX2                !
 ! A61   A(21,20,26)           119.1412         estimate D2E/DX2                !
 ! A62   A(20,21,22)           119.9175         estimate D2E/DX2                !
 ! A63   A(20,21,49)           119.9071         estimate D2E/DX2                !
 ! A64   A(22,21,49)           120.1724         estimate D2E/DX2                !
 ! A65   A(21,22,23)           120.4411         estimate D2E/DX2                !
 ! A66   A(21,22,50)           119.7308         estimate D2E/DX2                !
 ! A67   A(23,22,50)           119.8281         estimate D2E/DX2                !
 ! A68   A(22,23,24)           120.4968         estimate D2E/DX2                !
 ! A69   A(22,23,51)           120.0371         estimate D2E/DX2                !
 ! A70   A(24,23,51)           119.466          estimate D2E/DX2                !
 ! A71   A(23,24,25)           120.2814         estimate D2E/DX2                !
 ! A72   A(23,24,26)           118.7054         estimate D2E/DX2                !
 ! A73   A(25,24,26)           121.0099         estimate D2E/DX2                !
 ! A74   A(24,25,52)           111.0614         estimate D2E/DX2                !
 ! A75   A(24,25,53)           110.0956         estimate D2E/DX2                !
 ! A76   A(24,25,54)           110.6312         estimate D2E/DX2                !
 ! A77   A(52,25,53)           108.3451         estimate D2E/DX2                !
 ! A78   A(52,25,54)           108.8483         estimate D2E/DX2                !
 ! A79   A(53,25,54)           107.7662         estimate D2E/DX2                !
 ! A80   A(20,26,24)           121.2968         estimate D2E/DX2                !
 ! A81   A(20,26,55)           119.1196         estimate D2E/DX2                !
 ! A82   A(24,26,55)           119.574          estimate D2E/DX2                !
 ! A83   A(19,27,28)           122.1049         estimate D2E/DX2                !
 ! A84   A(19,27,56)           119.2526         estimate D2E/DX2                !
 ! A85   A(28,27,56)           118.6388         estimate D2E/DX2                !
 ! A86   A(27,28,29)           121.9462         estimate D2E/DX2                !
 ! A87   A(27,28,33)           118.9625         estimate D2E/DX2                !
 ! A88   A(29,28,33)           119.0901         estimate D2E/DX2                !
 ! A89   A(28,29,30)           120.8156         estimate D2E/DX2                !
 ! A90   A(28,29,57)           118.4904         estimate D2E/DX2                !
 ! A91   A(30,29,57)           120.6937         estimate D2E/DX2                !
 ! A92   A(29,30,31)           120.1074         estimate D2E/DX2                !
 ! A93   A(29,30,58)           120.4146         estimate D2E/DX2                !
 ! A94   A(31,30,58)           119.4763         estimate D2E/DX2                !
 ! A95   A(30,31,32)           120.529          estimate D2E/DX2                !
 ! A96   A(30,31,59)           119.4261         estimate D2E/DX2                !
 ! A97   A(32,31,59)           120.0446         estimate D2E/DX2                !
 ! A98   A(31,32,33)           120.7147         estimate D2E/DX2                !
 ! A99   A(31,32,60)           120.2168         estimate D2E/DX2                !
 ! A100  A(33,32,60)           119.0658         estimate D2E/DX2                !
 ! A101  A(16,33,28)           118.9605         estimate D2E/DX2                !
 ! A102  A(16,33,32)           122.3066         estimate D2E/DX2                !
 ! A103  A(28,33,32)           118.727          estimate D2E/DX2                !
 ! A104  A(7,34,15)            120.7142         estimate D2E/DX2                !
 ! A105  A(7,34,35)            117.8433         estimate D2E/DX2                !
 ! A106  A(15,34,35)           121.4169         estimate D2E/DX2                !
 ! A107  A(34,35,61)           109.2375         estimate D2E/DX2                !
 ! A108  A(2,36,6)             121.1772         estimate D2E/DX2                !
 ! A109  A(2,36,62)            119.2887         estimate D2E/DX2                !
 ! A110  A(6,36,62)            119.5321         estimate D2E/DX2                !
 ! D1    D(37,1,2,3)            13.9734         estimate D2E/DX2                !
 ! D2    D(37,1,2,36)         -166.8309         estimate D2E/DX2                !
 ! D3    D(38,1,2,3)           134.9872         estimate D2E/DX2                !
 ! D4    D(38,1,2,36)          -45.8171         estimate D2E/DX2                !
 ! D5    D(39,1,2,3)          -105.9726         estimate D2E/DX2                !
 ! D6    D(39,1,2,36)           73.2231         estimate D2E/DX2                !
 ! D7    D(1,2,3,4)            179.1678         estimate D2E/DX2                !
 ! D8    D(1,2,3,40)            -0.9676         estimate D2E/DX2                !
 ! D9    D(36,2,3,4)            -0.0364         estimate D2E/DX2                !
 ! D10   D(36,2,3,40)          179.8283         estimate D2E/DX2                !
 ! D11   D(1,2,36,6)          -179.0962         estimate D2E/DX2                !
 ! D12   D(1,2,36,62)            0.3837         estimate D2E/DX2                !
 ! D13   D(3,2,36,6)             0.1175         estimate D2E/DX2                !
 ! D14   D(3,2,36,62)          179.5974         estimate D2E/DX2                !
 ! D15   D(2,3,4,5)             -0.1935         estimate D2E/DX2                !
 ! D16   D(2,3,4,41)           179.7092         estimate D2E/DX2                !
 ! D17   D(40,3,4,5)           179.9419         estimate D2E/DX2                !
 ! D18   D(40,3,4,41)           -0.1553         estimate D2E/DX2                !
 ! D19   D(3,4,5,6)              0.3432         estimate D2E/DX2                !
 ! D20   D(3,4,5,42)           179.1605         estimate D2E/DX2                !
 ! D21   D(41,4,5,6)          -179.5595         estimate D2E/DX2                !
 ! D22   D(41,4,5,42)           -0.7422         estimate D2E/DX2                !
 ! D23   D(4,5,6,7)           -178.7504         estimate D2E/DX2                !
 ! D24   D(4,5,6,36)            -0.2603         estimate D2E/DX2                !
 ! D25   D(42,5,6,7)             2.4257         estimate D2E/DX2                !
 ! D26   D(42,5,6,36)         -179.0841         estimate D2E/DX2                !
 ! D27   D(5,6,7,8)             46.6884         estimate D2E/DX2                !
 ! D28   D(5,6,7,34)          -133.2111         estimate D2E/DX2                !
 ! D29   D(36,6,7,8)          -131.7742         estimate D2E/DX2                !
 ! D30   D(36,6,7,34)           48.3262         estimate D2E/DX2                !
 ! D31   D(5,6,36,2)             0.0298         estimate D2E/DX2                !
 ! D32   D(5,6,36,62)         -179.4488         estimate D2E/DX2                !
 ! D33   D(7,6,36,2)           178.5067         estimate D2E/DX2                !
 ! D34   D(7,6,36,62)           -0.9719         estimate D2E/DX2                !
 ! D35   D(6,7,8,9)            178.6572         estimate D2E/DX2                !
 ! D36   D(6,7,8,43)             0.2559         estimate D2E/DX2                !
 ! D37   D(34,7,8,9)            -1.4415         estimate D2E/DX2                !
 ! D38   D(34,7,8,43)         -179.8428         estimate D2E/DX2                !
 ! D39   D(6,7,34,15)         -179.0449         estimate D2E/DX2                !
 ! D40   D(6,7,34,35)            2.7684         estimate D2E/DX2                !
 ! D41   D(8,7,34,15)            1.054          estimate D2E/DX2                !
 ! D42   D(8,7,34,35)         -177.1328         estimate D2E/DX2                !
 ! D43   D(7,8,9,10)          -179.1439         estimate D2E/DX2                !
 ! D44   D(7,8,9,14)             0.3282         estimate D2E/DX2                !
 ! D45   D(43,8,9,10)           -0.7326         estimate D2E/DX2                !
 ! D46   D(43,8,9,14)          178.7395         estimate D2E/DX2                !
 ! D47   D(8,9,10,11)          178.9933         estimate D2E/DX2                !
 ! D48   D(8,9,10,44)           -0.7939         estimate D2E/DX2                !
 ! D49   D(14,9,10,11)          -0.4784         estimate D2E/DX2                !
 ! D50   D(14,9,10,44)         179.7345         estimate D2E/DX2                !
 ! D51   D(8,9,14,13)         -178.2396         estimate D2E/DX2                !
 ! D52   D(8,9,14,15)            1.1717         estimate D2E/DX2                !
 ! D53   D(10,9,14,13)           1.2479         estimate D2E/DX2                !
 ! D54   D(10,9,14,15)        -179.3408         estimate D2E/DX2                !
 ! D55   D(9,10,11,12)          -0.4795         estimate D2E/DX2                !
 ! D56   D(9,10,11,45)         179.9926         estimate D2E/DX2                !
 ! D57   D(44,10,11,12)        179.3029         estimate D2E/DX2                !
 ! D58   D(44,10,11,45)         -0.225          estimate D2E/DX2                !
 ! D59   D(10,11,12,13)          0.6574         estimate D2E/DX2                !
 ! D60   D(10,11,12,46)       -179.1706         estimate D2E/DX2                !
 ! D61   D(45,11,12,13)       -179.8103         estimate D2E/DX2                !
 ! D62   D(45,11,12,46)          0.3617         estimate D2E/DX2                !
 ! D63   D(11,12,13,14)          0.1442         estimate D2E/DX2                !
 ! D64   D(11,12,13,47)       -179.357          estimate D2E/DX2                !
 ! D65   D(46,12,13,14)        179.9712         estimate D2E/DX2                !
 ! D66   D(46,12,13,47)          0.47           estimate D2E/DX2                !
 ! D67   D(12,13,14,9)          -1.0917         estimate D2E/DX2                !
 ! D68   D(12,13,14,15)        179.5178         estimate D2E/DX2                !
 ! D69   D(47,13,14,9)         178.4149         estimate D2E/DX2                !
 ! D70   D(47,13,14,15)         -0.9756         estimate D2E/DX2                !
 ! D71   D(9,14,15,16)         177.6667         estimate D2E/DX2                !
 ! D72   D(9,14,15,34)          -1.5478         estimate D2E/DX2                !
 ! D73   D(13,14,15,16)         -2.9438         estimate D2E/DX2                !
 ! D74   D(13,14,15,34)        177.8417         estimate D2E/DX2                !
 ! D75   D(14,15,16,17)        -71.0378         estimate D2E/DX2                !
 ! D76   D(14,15,16,33)        109.4932         estimate D2E/DX2                !
 ! D77   D(34,15,16,17)        108.1861         estimate D2E/DX2                !
 ! D78   D(34,15,16,33)        -71.283          estimate D2E/DX2                !
 ! D79   D(14,15,34,7)           0.4406         estimate D2E/DX2                !
 ! D80   D(14,15,34,35)        178.5618         estimate D2E/DX2                !
 ! D81   D(16,15,34,7)        -178.7834         estimate D2E/DX2                !
 ! D82   D(16,15,34,35)         -0.6622         estimate D2E/DX2                !
 ! D83   D(15,16,17,18)          1.0564         estimate D2E/DX2                !
 ! D84   D(15,16,17,19)       -179.602          estimate D2E/DX2                !
 ! D85   D(33,16,17,18)       -179.475          estimate D2E/DX2                !
 ! D86   D(33,16,17,19)         -0.1334         estimate D2E/DX2                !
 ! D87   D(15,16,33,28)        178.8769         estimate D2E/DX2                !
 ! D88   D(15,16,33,32)         -2.0119         estimate D2E/DX2                !
 ! D89   D(17,16,33,28)         -0.5862         estimate D2E/DX2                !
 ! D90   D(17,16,33,32)        178.525          estimate D2E/DX2                !
 ! D91   D(16,17,18,48)          4.4167         estimate D2E/DX2                !
 ! D92   D(19,17,18,48)       -174.9429         estimate D2E/DX2                !
 ! D93   D(16,17,19,20)       -178.6791         estimate D2E/DX2                !
 ! D94   D(16,17,19,27)          0.5135         estimate D2E/DX2                !
 ! D95   D(18,17,19,20)          0.6862         estimate D2E/DX2                !
 ! D96   D(18,17,19,27)        179.8788         estimate D2E/DX2                !
 ! D97   D(17,19,20,21)        -49.3183         estimate D2E/DX2                !
 ! D98   D(17,19,20,26)        131.683          estimate D2E/DX2                !
 ! D99   D(27,19,20,21)        131.5018         estimate D2E/DX2                !
 ! D100  D(27,19,20,26)        -47.4969         estimate D2E/DX2                !
 ! D101  D(17,19,27,28)         -0.1637         estimate D2E/DX2                !
 ! D102  D(17,19,27,56)        179.119          estimate D2E/DX2                !
 ! D103  D(20,19,27,28)        179.0302         estimate D2E/DX2                !
 ! D104  D(20,19,27,56)         -1.6871         estimate D2E/DX2                !
 ! D105  D(19,20,21,22)       -178.9586         estimate D2E/DX2                !
 ! D106  D(19,20,21,49)          0.4049         estimate D2E/DX2                !
 ! D107  D(26,20,21,22)          0.0429         estimate D2E/DX2                !
 ! D108  D(26,20,21,49)        179.4063         estimate D2E/DX2                !
 ! D109  D(19,20,26,24)        179.3055         estimate D2E/DX2                !
 ! D110  D(19,20,26,55)         -1.8257         estimate D2E/DX2                !
 ! D111  D(21,20,26,24)          0.2837         estimate D2E/DX2                !
 ! D112  D(21,20,26,55)        179.1526         estimate D2E/DX2                !
 ! D113  D(20,21,22,23)         -0.2602         estimate D2E/DX2                !
 ! D114  D(20,21,22,50)        179.6829         estimate D2E/DX2                !
 ! D115  D(49,21,22,23)       -179.622          estimate D2E/DX2                !
 ! D116  D(49,21,22,50)          0.3211         estimate D2E/DX2                !
 ! D117  D(21,22,23,24)          0.1559         estimate D2E/DX2                !
 ! D118  D(21,22,23,51)       -179.7621         estimate D2E/DX2                !
 ! D119  D(50,22,23,24)       -179.7872         estimate D2E/DX2                !
 ! D120  D(50,22,23,51)          0.2949         estimate D2E/DX2                !
 ! D121  D(22,23,24,25)       -179.1789         estimate D2E/DX2                !
 ! D122  D(22,23,24,26)          0.1644         estimate D2E/DX2                !
 ! D123  D(51,23,24,25)          0.7395         estimate D2E/DX2                !
 ! D124  D(51,23,24,26)       -179.9172         estimate D2E/DX2                !
 ! D125  D(23,24,25,52)       -169.3973         estimate D2E/DX2                !
 ! D126  D(23,24,25,53)         70.6011         estimate D2E/DX2                !
 ! D127  D(23,24,25,54)        -48.4065         estimate D2E/DX2                !
 ! D128  D(26,24,25,52)         11.2747         estimate D2E/DX2                !
 ! D129  D(26,24,25,53)       -108.7269         estimate D2E/DX2                !
 ! D130  D(26,24,25,54)        132.2655         estimate D2E/DX2                !
 ! D131  D(23,24,26,20)         -0.3856         estimate D2E/DX2                !
 ! D132  D(23,24,26,55)       -179.2494         estimate D2E/DX2                !
 ! D133  D(25,24,26,20)        178.9528         estimate D2E/DX2                !
 ! D134  D(25,24,26,55)          0.089          estimate D2E/DX2                !
 ! D135  D(19,27,28,29)        179.8457         estimate D2E/DX2                !
 ! D136  D(19,27,28,33)         -0.5534         estimate D2E/DX2                !
 ! D137  D(56,27,28,29)          0.5588         estimate D2E/DX2                !
 ! D138  D(56,27,28,33)       -179.8403         estimate D2E/DX2                !
 ! D139  D(27,28,29,30)        179.0538         estimate D2E/DX2                !
 ! D140  D(27,28,29,57)         -0.7629         estimate D2E/DX2                !
 ! D141  D(33,28,29,30)         -0.5466         estimate D2E/DX2                !
 ! D142  D(33,28,29,57)        179.6367         estimate D2E/DX2                !
 ! D143  D(27,28,33,16)          0.9183         estimate D2E/DX2                !
 ! D144  D(27,28,33,32)       -178.2251         estimate D2E/DX2                !
 ! D145  D(29,28,33,16)       -179.4693         estimate D2E/DX2                !
 ! D146  D(29,28,33,32)          1.3874         estimate D2E/DX2                !
 ! D147  D(28,29,30,31)         -0.5034         estimate D2E/DX2                !
 ! D148  D(28,29,30,58)        179.9675         estimate D2E/DX2                !
 ! D149  D(57,29,30,31)        179.3092         estimate D2E/DX2                !
 ! D150  D(57,29,30,58)         -0.2199         estimate D2E/DX2                !
 ! D151  D(29,30,31,32)          0.7            estimate D2E/DX2                !
 ! D152  D(29,30,31,59)       -179.0894         estimate D2E/DX2                !
 ! D153  D(58,30,31,32)       -179.7665         estimate D2E/DX2                !
 ! D154  D(58,30,31,59)          0.4441         estimate D2E/DX2                !
 ! D155  D(30,31,32,33)          0.1769         estimate D2E/DX2                !
 ! D156  D(30,31,32,60)       -179.2143         estimate D2E/DX2                !
 ! D157  D(59,31,32,33)        179.9651         estimate D2E/DX2                !
 ! D158  D(59,31,32,60)          0.5739         estimate D2E/DX2                !
 ! D159  D(31,32,33,16)        179.6719         estimate D2E/DX2                !
 ! D160  D(31,32,33,28)         -1.2149         estimate D2E/DX2                !
 ! D161  D(60,32,33,16)         -0.93           estimate D2E/DX2                !
 ! D162  D(60,32,33,28)        178.1832         estimate D2E/DX2                !
 ! D163  D(7,34,35,61)         179.8026         estimate D2E/DX2                !
 ! D164  D(15,34,35,61)          1.6293         estimate D2E/DX2                !
 --------------------------------------------------------------------------------
 Trust Radius=3.00D-01 FncErr=1.00D-07 GrdErr=1.00D-06 EigMax=2.50D+02 EigMin=1.00D-04
 Number of steps in this run=    351 maximum allowed number of steps=    372.
 GradGradGradGradGradGradGradGradGradGradGradGradGradGradGradGradGradGrad

 Leave Link  103 at Thu Jan 23 10:49:09 2025, MaxMem= 13421772800 cpu:               0.7 elap:               0.0
 (Enter /public/software/apps/Gaussian/g16/l202.exe)
 Symmetry turned off by external request.
 Stoichiometry    C34H26O2
 Framework group  C1[X(C34H26O2)]
 Deg. of freedom   180
 Full point group                 C1      NOp   1
                          Input orientation:                          
 ---------------------------------------------------------------------
 Center     Atomic      Atomic             Coordinates (Angstroms)
 Number     Number       Type             X           Y           Z
 ---------------------------------------------------------------------
      1          6           0        6.149074    2.666633   -1.849633
      2          6           0        5.728755    1.237938   -1.678232
      3          6           0        6.464479    0.201345   -2.236035
      4          6           0        6.072907   -1.114180   -2.054465
      5          6           0        4.946316   -1.409559   -1.311722
      6          6           0        4.193413   -0.383215   -0.746793
      7          6           0        3.008709   -0.700939    0.067422
      8          6           0        3.069792   -1.669890    1.036800
      9          6           0        1.966276   -1.981703    1.853166
     10          6           0        2.037656   -2.965678    2.860244
     11          6           0        0.957707   -3.235554    3.653278
     12          6           0       -0.238797   -2.524459    3.479176
     13          6           0       -0.342440   -1.566490    2.509354
     14          6           0        0.749664   -1.276550    1.663429
     15          6           0        0.676557   -0.296233    0.639208
     16          6           0       -0.597632    0.425974    0.377407
     17          6           0       -1.652776   -0.252747   -0.203170
     18          8           0       -1.560411   -1.570053   -0.521064
     19          6           0       -2.878905    0.409965   -0.473641
     20          6           0       -4.011828   -0.320993   -1.065428
     21          6           0       -3.850797   -1.117768   -2.192988
     22          6           0       -4.940817   -1.773452   -2.735625
     23          6           0       -6.191962   -1.646743   -2.160848
     24          6           0       -6.372880   -0.856065   -1.031395
     25          6           0       -7.728087   -0.736716   -0.401252
     26          6           0       -5.277068   -0.197181   -0.497829
     27          6           0       -2.997198    1.740057   -0.159006
     28          6           0       -1.943400    2.466968    0.426081
     29          6           0       -2.067537    3.834587    0.745125
     30          6           0       -1.035837    4.513404    1.330485
     31          6           0        0.162388    3.849175    1.631759
     32          6           0        0.316453    2.524379    1.331575
     33          6           0       -0.723612    1.800304    0.710233
     34          6           0        1.783948   -0.012805   -0.137479
     35          8           0        1.729524    0.900565   -1.142109
     36          6           0        4.595413    0.932911   -0.937343
     37          1           0        6.901032    2.761439   -2.629157
     38          1           0        5.293648    3.288251   -2.106984
     39          1           0        6.570603    3.047430   -0.918904
     40          1           0        7.347817    0.423623   -2.817845
     41          1           0        6.650338   -1.913112   -2.497088
     42          1           0        4.634116   -2.435710   -1.182053
     43          1           0        3.999256   -2.195858    1.199996
     44          1           0        2.967362   -3.500052    2.993784
     45          1           0        1.019740   -3.990825    4.422693
     46          1           0       -1.081114   -2.737138    4.120682
     47          1           0       -1.263284   -1.014641    2.386623
     48          1           0       -0.709722   -1.914820   -0.214372
     49          1           0       -2.877914   -1.214785   -2.648454
     50          1           0       -4.813183   -2.387881   -3.615108
     51          1           0       -7.038654   -2.165189   -2.588105
     52          1           0       -7.742832    0.051580    0.347356
     53          1           0       -7.999950   -1.674826    0.082935
     54          1           0       -8.483728   -0.520524   -1.154596
     55          1           0       -5.399406    0.411692    0.387494
     56          1           0       -3.922818    2.253521   -0.375562
     57          1           0       -2.998716    4.334186    0.519069
     58          1           0       -1.137782    5.561154    1.571652
     59          1           0        0.965196    4.392690    2.107783
     60          1           0        1.236918    2.014555    1.577371
     61          1           0        0.843627    1.289133   -1.172170
     62          1           0        4.022077    1.733843   -0.495108
 ---------------------------------------------------------------------
 Rotational constants (GHZ):           0.1669251           0.0640042           0.0596130
 Leave Link  202 at Thu Jan 23 10:49:09 2025, MaxMem= 13421772800 cpu:               0.1 elap:               0.0
 (Enter /public/software/apps/Gaussian/g16/l301.exe)
 Standard basis: def2SVPP (5D, 7F)
 Ernie: Thresh=  0.10000D-02 Tol=  0.10000D-05 Strict=F.
   556 basis functions,  1004 primitive gaussians,   592 cartesian basis functions
   123 alpha electrons      123 beta electrons
       nuclear repulsion energy      3544.2269740958 Hartrees.
 IExCor=  402 DFT=T Ex+Corr=B3LYP ExCW=0 ScaHFX=  0.200000
 ScaDFX=  0.800000  0.720000  1.000000  0.810000 ScalE2=  1.000000  1.000000
 IRadAn=      5 IRanWt=     -1 IRanGd=            0 ICorTp=0 IEmpDi=141
 NAtoms=   62 NActive=   62 NUniq=   62 SFac= 1.00D+00 NAtFMM=   60 NAOKFM=T Big=T
 Integral buffers will be    131072 words long.
 Raffenetti 2 integral format.
 Two-electron integral symmetry is turned off.
 R6Disp:  Grimme-D3(BJ) Dispersion energy=       -0.1602792455 Hartrees.
 Nuclear repulsion after empirical dispersion term =     3544.0666948503 Hartrees.
 Leave Link  301 at Thu Jan 23 10:49:10 2025, MaxMem= 13421772800 cpu:               0.6 elap:               0.0
 (Enter /public/software/apps/Gaussian/g16/l302.exe)
 NPDir=0 NMtPBC=     1 NCelOv=     1 NCel=       1 NClECP=     1 NCelD=      1
         NCelK=      1 NCelE2=     1 NClLst=     1 CellRange=     0.0.
 One-electron integrals computed using PRISM.
   1 Symmetry operations used in ECPInt.
 ECPInt:  NShTT=   36046 NPrTT=  144462 LenC2=   29750 LenP2D=   74954.
 LDataN:  DoStor=T MaxTD1= 4 Len=   56
 NBasis=   556 RedAO= T EigKep=  1.55D-04  NBF=   556
 NBsUse=   556 1.00D-06 EigRej= -1.00D+00 NBFU=   556
 Precomputing XC quadrature grid using
 IXCGrd= 4 IRadAn=           5 IRanWt=          -1 IRanGd=           0 AccXCQ= 0.00D+00.
 Generated NRdTot=       0 NPtTot=           0 NUsed=           0 NTot=          32
 NSgBfM=   578   578   578   578   578 MxSgAt=    62 MxSgA2=    62.
 Leave Link  302 at Thu Jan 23 10:49:10 2025, MaxMem= 13421772800 cpu:              18.9 elap:               0.6
 (Enter /public/software/apps/Gaussian/g16/l303.exe)
 DipDrv:  MaxL=1.
 Leave Link  303 at Thu Jan 23 10:49:10 2025, MaxMem= 13421772800 cpu:               2.7 elap:               0.1
 (Enter /public/software/apps/Gaussian/g16/l401.exe)
 ExpMin= 1.22D-01 ExpMax= 2.27D+03 ExpMxC= 3.41D+02 IAcc=3 IRadAn=         5 AccDes= 0.00D+00
 Harris functional with IExCor=  402 and IRadAn=       5 diagonalized for initial guess.
 HarFok:  IExCor=  402 AccDes= 0.00D+00 IRadAn=         5 IDoV= 1 UseB2=F ITyADJ=14
 ICtDFT=  3500011 ScaDFX=  1.000000  1.000000  1.000000  1.000000
 FoFCou: FMM=F IPFlag=           0 FMFlag=      100000 FMFlg1=        2001
         NFxFlg=           0 DoJE=T BraDBF=F KetDBF=T FulRan=T
         wScrn=  0.000000 ICntrl=       500 IOpCl=  0 I1Cent=   200000004 NGrid=           0
         NMat0=    1 NMatS0=      1 NMatT0=    0 NMatD0=    1 NMtDS0=    0 NMtDT0=    0
 Symmetry not used in FoFCou.
 Harris En= -1460.81805250281    
 JPrj=0 DoOrth=F DoCkMO=F.
 Leave Link  401 at Thu Jan 23 10:49:12 2025, MaxMem= 13421772800 cpu:              44.8 elap:               1.4
 (Enter /public/software/apps/Gaussian/g16/l502.exe)
 Two-electron integral symmetry not used.
 Closed shell SCF:
 Using DIIS extrapolation, IDIIS=  1040.
 NGot= 13421772800 LenX= 13421046454 LenY= 13420695398
 Requested convergence on RMS density matrix=1.00D-08 within 128 cycles.
 Requested convergence on MAX density matrix=1.00D-06.
 Requested convergence on             energy=1.00D-06.
 No special actions if energy rises.
 Fock matrices will be formed incrementally for  20 cycles.
 Integral accuracy reduced to 1.0D-05 until final iterations.

 Cycle   1  Pass 0  IDiag  1:
 FoFJK:  IHMeth= 1 ICntrl=       0 DoSepK=F KAlg= 0 I1Cent=           0 FoldK=F
 IRaf= 980000000 NMat=       1 IRICut=       1 DoRegI=T DoRafI=F ISym2E= 0 IDoP0=0 IntGTp=1.
 FoFCou: FMM=T IPFlag=           0 FMFlag=      100000 FMFlg1=        2001
         NFxFlg=           0 DoJE=F BraDBF=F KetDBF=F FulRan=T
         wScrn=  0.000000 ICntrl=         0 IOpCl=  0 I1Cent=           0 NGrid=           0
         NMat0=    1 NMatS0=      1 NMatT0=    0 NMatD0=    1 NMtDS0=    0 NMtDT0=    0
 Symmetry not used in FoFCou.
 FMM levels:  10  Number of levels for PrismC:   9
 E= -1460.06321284713    
 DIIS: error= 2.37D-02 at cycle   1 NSaved=   1.
 NSaved= 1 IEnMin= 1 EnMin= -1460.06321284713     IErMin= 1 ErrMin= 2.37D-02
 ErrMax= 2.37D-02  0.00D+00 EMaxC= 1.00D-01 BMatC= 6.41D-01 BMatP= 6.41D-01
 IDIUse=3 WtCom= 7.63D-01 WtEn= 2.37D-01
 Coeff-Com:  0.100D+01
 Coeff-En:   0.100D+01
 Coeff:      0.100D+01
 Gap=     0.182 Goal=   None    Shift=    0.000
 GapD=    0.182 DampG=1.000 DampE=0.500 DampFc=0.5000 IDamp=-1.
 Damping current iteration by 5.00D-01
 RMSDP=5.43D-03 MaxDP=2.00D-01              OVMax= 1.77D-01

 Cycle   2  Pass 0  IDiag  1:
 RMSU=  2.46D-03    CP:  9.37D-01
 E= -1460.41380807969     Delta-E=       -0.350595232559 Rises=F Damp=T
 DIIS: error= 3.50D-03 at cycle   2 NSaved=   2.
 NSaved= 2 IEnMin= 2 EnMin= -1460.41380807969     IErMin= 2 ErrMin= 3.50D-03
 ErrMax= 3.50D-03  0.00D+00 EMaxC= 1.00D-01 BMatC= 3.32D-02 BMatP= 6.41D-01
 IDIUse=3 WtCom= 9.65D-01 WtEn= 3.50D-02
 Coeff-Com:  0.212D-01 0.979D+00
 Coeff-En:   0.972D-02 0.990D+00
 Coeff:      0.208D-01 0.979D+00
 Gap=     0.184 Goal=   None    Shift=    0.000
 RMSDP=1.93D-03 MaxDP=1.12D-01 DE=-3.51D-01 OVMax= 1.54D-01

 Cycle   3  Pass 0  IDiag  1:
 RMSU=  1.75D-03    CP:  8.93D-01  1.06D+00
 E= -1460.75716570672     Delta-E=       -0.343357627031 Rises=F Damp=F
 DIIS: error= 7.81D-03 at cycle   3 NSaved=   3.
 NSaved= 3 IEnMin= 3 EnMin= -1460.75716570672     IErMin= 2 ErrMin= 3.50D-03
 ErrMax= 7.81D-03  0.00D+00 EMaxC= 1.00D-01 BMatC= 4.62D-02 BMatP= 3.32D-02
 IDIUse=3 WtCom= 1.02D-01 WtEn= 8.98D-01
 Coeff-Com: -0.326D-01 0.564D+00 0.469D+00
 Coeff-En:   0.000D+00 0.000D+00 0.100D+01
 Coeff:     -0.331D-02 0.573D-01 0.946D+00
 Gap=     0.188 Goal=   None    Shift=    0.000
 RMSDP=1.87D-03 MaxDP=8.62D-02 DE=-3.43D-01 OVMax= 1.60D-01

 Cycle   4  Pass 0  IDiag  1:
 RMSU=  1.38D-03    CP:  8.92D-01  1.31D+00  3.70D-01
 E= -1460.59981836329     Delta-E=        0.157347343431 Rises=F Damp=F
 DIIS: error= 1.55D-02 at cycle   4 NSaved=   4.
 NSaved= 4 IEnMin= 3 EnMin= -1460.75716570672     IErMin= 2 ErrMin= 3.50D-03
 ErrMax= 1.55D-02  0.00D+00 EMaxC= 1.00D-01 BMatC= 1.81D-01 BMatP= 3.32D-02
 IDIUse=2 WtCom= 0.00D+00 WtEn= 1.00D+00
 Coeff-En:   0.000D+00 0.000D+00 0.745D+00 0.255D+00
 Coeff:      0.000D+00 0.000D+00 0.745D+00 0.255D+00
 Gap=     0.165 Goal=   None    Shift=    0.000
 RMSDP=9.75D-04 MaxDP=5.53D-02 DE= 1.57D-01 OVMax= 9.84D-02

 Cycle   5  Pass 0  IDiag  1:
 RMSU=  2.13D-04    CP:  8.91D-01  1.19D+00  6.87D-01  4.82D-01
 E= -1460.79740086186     Delta-E=       -0.197582498569 Rises=F Damp=F
 DIIS: error= 3.62D-03 at cycle   5 NSaved=   5.
 NSaved= 5 IEnMin= 5 EnMin= -1460.79740086186     IErMin= 2 ErrMin= 3.50D-03
 ErrMax= 3.62D-03  0.00D+00 EMaxC= 1.00D-01 BMatC= 1.09D-02 BMatP= 3.32D-02
 IDIUse=3 WtCom= 9.64D-01 WtEn= 3.62D-02
 Coeff-Com:  0.455D-02 0.103D-01 0.350D+00 0.283D-01 0.607D+00
 Coeff-En:   0.000D+00 0.000D+00 0.237D+00 0.000D+00 0.763D+00
 Coeff:      0.438D-02 0.989D-02 0.346D+00 0.272D-01 0.613D+00
 Gap=     0.158 Goal=   None    Shift=    0.000
 RMSDP=3.20D-04 MaxDP=1.39D-02 DE=-1.98D-01 OVMax= 2.89D-02

 Cycle   6  Pass 0  IDiag  1:
 RMSU=  8.38D-05    CP:  8.90D-01  1.14D+00  7.97D-01  3.29D-01  7.66D-01
 E= -1460.80936776306     Delta-E=       -0.011966901193 Rises=F Damp=F
 DIIS: error= 4.01D-04 at cycle   6 NSaved=   6.
 NSaved= 6 IEnMin= 6 EnMin= -1460.80936776306     IErMin= 6 ErrMin= 4.01D-04
 ErrMax= 4.01D-04  0.00D+00 EMaxC= 1.00D-01 BMatC= 1.97D-04 BMatP= 1.09D-02
 IDIUse=3 WtCom= 9.96D-01 WtEn= 4.01D-03
 Coeff-Com:  0.196D-02-0.686D-02 0.113D+00-0.342D-01 0.389D+00 0.538D+00
 Coeff-En:   0.000D+00 0.000D+00 0.000D+00 0.000D+00 0.000D+00 0.100D+01
 Coeff:      0.195D-02-0.683D-02 0.112D+00-0.341D-01 0.387D+00 0.540D+00
 Gap=     0.156 Goal=   None    Shift=    0.000
 RMSDP=4.60D-05 MaxDP=1.56D-03 DE=-1.20D-02 OVMax= 5.86D-03

 Cycle   7  Pass 0  IDiag  1:
 RMSU=  3.43D-05    CP:  8.90D-01  1.14D+00  7.98D-01  3.31D-01  8.31D-01
                    CP:  6.76D-01
 E= -1460.80959917328     Delta-E=       -0.000231410223 Rises=F Damp=F
 DIIS: error= 1.40D-04 at cycle   7 NSaved=   7.
 NSaved= 7 IEnMin= 7 EnMin= -1460.80959917328     IErMin= 7 ErrMin= 1.40D-04
 ErrMax= 1.40D-04  0.00D+00 EMaxC= 1.00D-01 BMatC= 2.14D-05 BMatP= 1.97D-04
 IDIUse=3 WtCom= 9.99D-01 WtEn= 1.40D-03
 Coeff-Com:  0.946D-03-0.439D-02 0.526D-01-0.245D-01 0.217D+00 0.352D+00
 Coeff-Com:  0.407D+00
 Coeff-En:   0.000D+00 0.000D+00 0.000D+00 0.000D+00 0.000D+00 0.000D+00
 Coeff-En:   0.100D+01
 Coeff:      0.945D-03-0.438D-02 0.525D-01-0.245D-01 0.216D+00 0.351D+00
 Coeff:      0.408D+00
 Gap=     0.157 Goal=   None    Shift=    0.000
 RMSDP=1.74D-05 MaxDP=7.87D-04 DE=-2.31D-04 OVMax= 1.39D-03

 Cycle   8  Pass 0  IDiag  1:
 RMSU=  1.57D-05    CP:  8.90D-01  1.14D+00  7.98D-01  3.30D-01  8.12D-01
                    CP:  7.22D-01  8.62D-01
 E= -1460.80962608562     Delta-E=       -0.000026912338 Rises=F Damp=F
 DIIS: error= 3.96D-05 at cycle   8 NSaved=   8.
 NSaved= 8 IEnMin= 8 EnMin= -1460.80962608562     IErMin= 8 ErrMin= 3.96D-05
 ErrMax= 3.96D-05  0.00D+00 EMaxC= 1.00D-01 BMatC= 1.21D-06 BMatP= 2.14D-05
 IDIUse=1 WtCom= 1.00D+00 WtEn= 0.00D+00
 Coeff-Com:  0.334D-03-0.158D-02 0.172D-01-0.106D-01 0.797D-01 0.141D+00
 Coeff-Com:  0.231D+00 0.543D+00
 Coeff:      0.334D-03-0.158D-02 0.172D-01-0.106D-01 0.797D-01 0.141D+00
 Coeff:      0.231D+00 0.543D+00
 Gap=     0.157 Goal=   None    Shift=    0.000
 RMSDP=1.05D-05 MaxDP=4.24D-04 DE=-2.69D-05 OVMax= 2.76D-04

 Cycle   9  Pass 0  IDiag  1:
 RMSU=  8.74D-06    CP:  8.90D-01  1.14D+00  7.98D-01  3.31D-01  8.11D-01
                    CP:  7.22D-01  9.84D-01  1.24D+00
 E= -1460.80962405461     Delta-E=        0.000002031004 Rises=F Damp=F
 DIIS: error= 1.67D-05 at cycle   9 NSaved=   9.
 NSaved= 9 IEnMin= 8 EnMin= -1460.80962608562     IErMin= 9 ErrMin= 1.67D-05
 ErrMax= 1.67D-05  0.00D+00 EMaxC= 1.00D-01 BMatC= 2.00D-07 BMatP= 1.21D-06
 IDIUse=1 WtCom= 1.00D+00 WtEn= 0.00D+00
 Coeff-Com:  0.729D-04-0.332D-03 0.330D-02-0.309D-02 0.186D-01 0.368D-01
 Coeff-Com:  0.857D-01 0.323D+00 0.536D+00
 Coeff:      0.729D-04-0.332D-03 0.330D-02-0.309D-02 0.186D-01 0.368D-01
 Coeff:      0.857D-01 0.323D+00 0.536D+00
 Gap=     0.157 Goal=   None    Shift=    0.000
 RMSDP=1.18D-05 MaxDP=4.70D-04 DE= 2.03D-06 OVMax= 9.68D-05

 Cycle  10  Pass 0  IDiag  1:
 RMSU=  7.67D-06    CP:  8.90D-01  1.14D+00  7.99D-01  3.31D-01  8.11D-01
                    CP:  7.29D-01  1.07D+00  1.54D+00  1.77D+00
 E= -1460.80962701978     Delta-E=       -0.000002965164 Rises=F Damp=F
 DIIS: error= 2.10D-05 at cycle  10 NSaved=  10.
 NSaved=10 IEnMin=10 EnMin= -1460.80962701978     IErMin= 9 ErrMin= 1.67D-05
 ErrMax= 2.10D-05  0.00D+00 EMaxC= 1.00D-01 BMatC= 1.04D-07 BMatP= 2.00D-07
 IDIUse=1 WtCom= 1.00D+00 WtEn= 0.00D+00
 Coeff-Com:  0.696D-04-0.321D-03 0.317D-02-0.293D-02 0.178D-01 0.350D-01
 Coeff-Com:  0.811D-01 0.304D+00 0.498D+00 0.644D-01
 Coeff:      0.696D-04-0.321D-03 0.317D-02-0.293D-02 0.178D-01 0.350D-01
 Coeff:      0.811D-01 0.304D+00 0.498D+00 0.644D-01
 Gap=     0.157 Goal=   None    Shift=    0.000
 RMSDP=1.58D-06 MaxDP=5.25D-05 DE=-2.97D-06 OVMax= 3.31D-06

 Initial convergence to 1.0D-05 achieved.  Increase integral accuracy.
 Cycle  11  Pass 1  IDiag  1:
 E= -1460.80929549645     Delta-E=        0.000331523326 Rises=F Damp=F
 DIIS: error= 4.34D-04 at cycle   1 NSaved=   1.
 NSaved= 1 IEnMin= 1 EnMin= -1460.80929549645     IErMin= 1 ErrMin= 4.34D-04
 ErrMax= 4.34D-04  0.00D+00 EMaxC= 1.00D-01 BMatC= 8.91D-05 BMatP= 8.91D-05
 IDIUse=3 WtCom= 9.96D-01 WtEn= 4.34D-03
 Coeff-Com:  0.100D+01
 Coeff-En:   0.100D+01
 Coeff:      0.100D+01
 Gap=     0.157 Goal=   None    Shift=    0.000
 RMSDP=1.58D-06 MaxDP=5.25D-05 DE= 3.32D-04 OVMax= 1.25D-03

 Cycle  12  Pass 1  IDiag  1:
 RMSU=  6.81D-04    CP:  9.97D-01
 E= -1460.80939345698     Delta-E=       -0.000097960534 Rises=F Damp=F
 DIIS: error= 6.04D-06 at cycle   2 NSaved=   2.
 NSaved= 2 IEnMin= 2 EnMin= -1460.80939345698     IErMin= 2 ErrMin= 6.04D-06
 ErrMax= 6.04D-06  0.00D+00 EMaxC= 1.00D-01 BMatC= 2.55D-08 BMatP= 8.91D-05
 IDIUse=1 WtCom= 1.00D+00 WtEn= 0.00D+00
 Coeff-Com: -0.980D-02 0.101D+01
 Coeff:     -0.980D-02 0.101D+01
 Gap=     0.157 Goal=   None    Shift=    0.000
 RMSDP=8.85D-06 MaxDP=2.14D-04 DE=-9.80D-05 OVMax= 6.80D-05

 Cycle  13  Pass 1  IDiag  1:
 RMSU=  2.72D-06    CP:  9.97D-01  1.01D+00
 E= -1460.80939344607     Delta-E=        0.000000010917 Rises=F Damp=F
 DIIS: error= 5.37D-06 at cycle   3 NSaved=   3.
 NSaved= 3 IEnMin= 2 EnMin= -1460.80939345698     IErMin= 3 ErrMin= 5.37D-06
 ErrMax= 5.37D-06  0.00D+00 EMaxC= 1.00D-01 BMatC= 4.31D-08 BMatP= 2.55D-08
 IDIUse=1 WtCom= 1.00D+00 WtEn= 0.00D+00
 Coeff-Com: -0.627D-02 0.630D+00 0.377D+00
 Coeff:     -0.627D-02 0.630D+00 0.377D+00
 Gap=     0.157 Goal=   None    Shift=    0.000
 RMSDP=5.79D-07 MaxDP=2.06D-05 DE= 1.09D-08 OVMax= 5.07D-05

 Cycle  14  Pass 1  IDiag  1:
 RMSU=  5.58D-07    CP:  9.97D-01  1.01D+00  9.44D-01
 E= -1460.80939349325     Delta-E=       -0.000000047185 Rises=F Damp=F
 DIIS: error= 1.02D-06 at cycle   4 NSaved=   4.
 NSaved= 4 IEnMin= 4 EnMin= -1460.80939349325     IErMin= 4 ErrMin= 1.02D-06
 ErrMax= 1.02D-06  0.00D+00 EMaxC= 1.00D-01 BMatC= 1.21D-09 BMatP= 2.55D-08
 IDIUse=1 WtCom= 1.00D+00 WtEn= 0.00D+00
 Coeff-Com: -0.166D-02 0.164D+00 0.169D+00 0.669D+00
 Coeff:     -0.166D-02 0.164D+00 0.169D+00 0.669D+00
 Gap=     0.157 Goal=   None    Shift=    0.000
 RMSDP=1.48D-07 MaxDP=1.08D-05 DE=-4.72D-08 OVMax= 9.80D-06

 Cycle  15  Pass 1  IDiag  1:
 RMSU=  1.17D-07    CP:  9.97D-01  1.01D+00  9.64D-01  8.87D-01
 E= -1460.80939349412     Delta-E=       -0.000000000868 Rises=F Damp=F
 DIIS: error= 7.02D-07 at cycle   5 NSaved=   5.
 NSaved= 5 IEnMin= 5 EnMin= -1460.80939349412     IErMin= 5 ErrMin= 7.02D-07
 ErrMax= 7.02D-07  0.00D+00 EMaxC= 1.00D-01 BMatC= 4.18D-10 BMatP= 1.21D-09
 IDIUse=1 WtCom= 1.00D+00 WtEn= 0.00D+00
 Coeff-Com: -0.123D-03 0.104D-01 0.516D-01 0.424D+00 0.514D+00
 Coeff:     -0.123D-03 0.104D-01 0.516D-01 0.424D+00 0.514D+00
 Gap=     0.157 Goal=   None    Shift=    0.000
 RMSDP=6.69D-08 MaxDP=5.23D-06 DE=-8.68D-10 OVMax= 6.01D-06

 Cycle  16  Pass 1  IDiag  1:
 RMSU=  3.84D-08    CP:  9.97D-01  1.01D+00  9.66D-01  9.23D-01  5.80D-01
 E= -1460.80939349445     Delta-E=       -0.000000000332 Rises=F Damp=F
 DIIS: error= 1.91D-07 at cycle   6 NSaved=   6.
 NSaved= 6 IEnMin= 6 EnMin= -1460.80939349445     IErMin= 6 ErrMin= 1.91D-07
 ErrMax= 1.91D-07  0.00D+00 EMaxC= 1.00D-01 BMatC= 4.24D-11 BMatP= 4.18D-10
 IDIUse=1 WtCom= 1.00D+00 WtEn= 0.00D+00
 Coeff-Com:  0.238D-04-0.345D-02 0.232D-01 0.234D+00 0.335D+00 0.411D+00
 Coeff:      0.238D-04-0.345D-02 0.232D-01 0.234D+00 0.335D+00 0.411D+00
 Gap=     0.157 Goal=   None    Shift=    0.000
 RMSDP=2.15D-08 MaxDP=7.89D-07 DE=-3.32D-10 OVMax= 2.49D-06

 Cycle  17  Pass 1  IDiag  1:
 RMSU=  1.17D-08    CP:  9.97D-01  1.01D+00  9.68D-01  9.19D-01  6.13D-01
                    CP:  5.60D-01
 E= -1460.80939349454     Delta-E=       -0.000000000083 Rises=F Damp=F
 DIIS: error= 4.40D-08 at cycle   7 NSaved=   7.
 NSaved= 7 IEnMin= 7 EnMin= -1460.80939349454     IErMin= 7 ErrMin= 4.40D-08
 ErrMax= 4.40D-08  0.00D+00 EMaxC= 1.00D-01 BMatC= 2.01D-12 BMatP= 4.24D-11
 IDIUse=1 WtCom= 1.00D+00 WtEn= 0.00D+00
 Coeff-Com:  0.223D-04-0.272D-02 0.972D-02 0.104D+00 0.156D+00 0.239D+00
 Coeff-Com:  0.494D+00
 Coeff:      0.223D-04-0.272D-02 0.972D-02 0.104D+00 0.156D+00 0.239D+00
 Coeff:      0.494D+00
 Gap=     0.157 Goal=   None    Shift=    0.000
 RMSDP=5.02D-09 MaxDP=1.71D-07 DE=-8.28D-11 OVMax= 5.75D-07

 SCF Done:  E(RB3LYP) =  -1460.80939349     A.U. after   17 cycles
            NFock= 17  Conv=0.50D-08     -V/T= 2.0095
 KE= 1.447045640726D+03 PE=-1.047517981900D+04 EE= 4.023258089931D+03
 Leave Link  502 at Thu Jan 23 10:49:53 2025, MaxMem= 13421772800 cpu:            1300.5 elap:              41.2
 (Enter /public/software/apps/Gaussian/g16/l601.exe)
 Copying SCF densities to generalized density rwf, IOpCl= 0 IROHF=0.

 **********************************************************************

            Population analysis using the SCF Density.

 **********************************************************************

 Alpha  occ. eigenvalues --  -19.16511 -19.16503 -10.25744 -10.25688 -10.20160
 Alpha  occ. eigenvalues --  -10.20139 -10.19951 -10.19937 -10.19788 -10.19752
 Alpha  occ. eigenvalues --  -10.19500 -10.19476 -10.19188 -10.19158 -10.19095
 Alpha  occ. eigenvalues --  -10.19077 -10.18874 -10.18851 -10.18811 -10.18784
 Alpha  occ. eigenvalues --  -10.18753 -10.18726 -10.18553 -10.18550 -10.18510
 Alpha  occ. eigenvalues --  -10.18506 -10.17970 -10.17918 -10.17823 -10.17771
 Alpha  occ. eigenvalues --  -10.17683 -10.17679 -10.17585 -10.17474 -10.17450
 Alpha  occ. eigenvalues --  -10.17248  -1.06096  -1.05796  -0.88645  -0.87796
 Alpha  occ. eigenvalues --   -0.85873  -0.85738  -0.82729  -0.82398  -0.80546
 Alpha  occ. eigenvalues --   -0.77375  -0.76980  -0.76294  -0.75579  -0.75484
 Alpha  occ. eigenvalues --   -0.72977  -0.72681  -0.71954  -0.70493  -0.68166
 Alpha  occ. eigenvalues --   -0.67929  -0.65643  -0.64209  -0.62724  -0.62401
 Alpha  occ. eigenvalues --   -0.61348  -0.59712  -0.59322  -0.58563  -0.57683
 Alpha  occ. eigenvalues --   -0.57355  -0.55627  -0.55532  -0.52957  -0.52837
 Alpha  occ. eigenvalues --   -0.51848  -0.51372  -0.49280  -0.48758  -0.47432
 Alpha  occ. eigenvalues --   -0.47264  -0.46466  -0.46375  -0.46091  -0.45851
 Alpha  occ. eigenvalues --   -0.45255  -0.44342  -0.43902  -0.43521  -0.43152
 Alpha  occ. eigenvalues --   -0.42604  -0.42390  -0.42328  -0.42066  -0.41754
 Alpha  occ. eigenvalues --   -0.41453  -0.40839  -0.40710  -0.40198  -0.39534
 Alpha  occ. eigenvalues --   -0.39013  -0.38922  -0.38886  -0.38291  -0.38105
 Alpha  occ. eigenvalues --   -0.37858  -0.36514  -0.36389  -0.35703  -0.35539
 Alpha  occ. eigenvalues --   -0.35223  -0.34401  -0.34231  -0.34120  -0.33706
 Alpha  occ. eigenvalues --   -0.32715  -0.31859  -0.31664  -0.30062  -0.28599
 Alpha  occ. eigenvalues --   -0.26453  -0.26377  -0.24669  -0.24489  -0.22717
 Alpha  occ. eigenvalues --   -0.22664  -0.22365  -0.21297
 Alpha virt. eigenvalues --   -0.05635  -0.04735  -0.02324  -0.02102  -0.00267
 Alpha virt. eigenvalues --    0.00054   0.00641   0.01042   0.01376   0.02780
 Alpha virt. eigenvalues --    0.05998   0.06625   0.06819   0.06913   0.07241
 Alpha virt. eigenvalues --    0.08293   0.08597   0.08919   0.09183   0.09565
 Alpha virt. eigenvalues --    0.09600   0.09876   0.10600   0.11277   0.11561
 Alpha virt. eigenvalues --    0.12411   0.12883   0.12946   0.13315   0.13492
 Alpha virt. eigenvalues --    0.13962   0.14732   0.14825   0.15326   0.16234
 Alpha virt. eigenvalues --    0.16379   0.16760   0.17184   0.17710   0.18474
 Alpha virt. eigenvalues --    0.19012   0.19185   0.20051   0.22557   0.23705
 Alpha virt. eigenvalues --    0.24286   0.25442   0.25906   0.26451   0.27371
 Alpha virt. eigenvalues --    0.27490   0.27612   0.28093   0.28554   0.29051
 Alpha virt. eigenvalues --    0.29734   0.29910   0.30135   0.30411   0.30708
 Alpha virt. eigenvalues --    0.31203   0.31378   0.31942   0.32211   0.32383
 Alpha virt. eigenvalues --    0.32764   0.33372   0.33789   0.34378   0.34899
 Alpha virt. eigenvalues --    0.35410   0.36137   0.37047   0.37346   0.37510
 Alpha virt. eigenvalues --    0.37740   0.38176   0.38764   0.39139   0.39378
 Alpha virt. eigenvalues --    0.40271   0.40824   0.40934   0.41629   0.42262
 Alpha virt. eigenvalues --    0.42524   0.43007   0.43647   0.43880   0.44269
 Alpha virt. eigenvalues --    0.44637   0.45093   0.45660   0.45974   0.46172
 Alpha virt. eigenvalues --    0.46413   0.46947   0.47757   0.47962   0.48119
 Alpha virt. eigenvalues --    0.48144   0.48399   0.48578   0.48951   0.49139
 Alpha virt. eigenvalues --    0.49351   0.49647   0.49846   0.50444   0.50601
 Alpha virt. eigenvalues --    0.51061   0.51205   0.51727   0.52773   0.52844
 Alpha virt. eigenvalues --    0.53619   0.53812   0.54943   0.55302   0.55784
 Alpha virt. eigenvalues --    0.56183   0.56684   0.56998   0.57183   0.57597
 Alpha virt. eigenvalues --    0.58705   0.59128   0.59504   0.60193   0.60775
 Alpha virt. eigenvalues --    0.61399   0.61857   0.62260   0.62791   0.63104
 Alpha virt. eigenvalues --    0.63247   0.63984   0.64664   0.65227   0.65969
 Alpha virt. eigenvalues --    0.66114   0.66520   0.66841   0.67228   0.67483
 Alpha virt. eigenvalues --    0.67728   0.68009   0.68284   0.68706   0.68908
 Alpha virt. eigenvalues --    0.69165   0.69494   0.69595   0.69802   0.70004
 Alpha virt. eigenvalues --    0.70264   0.70388   0.70852   0.70974   0.71250
 Alpha virt. eigenvalues --    0.71530   0.72076   0.72155   0.72405   0.72526
 Alpha virt. eigenvalues --    0.72796   0.73103   0.73740   0.74025   0.74467
 Alpha virt. eigenvalues --    0.75364   0.75446   0.75888   0.76049   0.76539
 Alpha virt. eigenvalues --    0.77030   0.77255   0.77452   0.78144   0.78413
 Alpha virt. eigenvalues --    0.78798   0.79596   0.80054   0.80530   0.80556
 Alpha virt. eigenvalues --    0.80819   0.81232   0.81756   0.81957   0.82973
 Alpha virt. eigenvalues --    0.83275   0.83681   0.84007   0.84780   0.84877
 Alpha virt. eigenvalues --    0.85704   0.86700   0.87339   0.88277   0.89651
 Alpha virt. eigenvalues --    0.90490   0.90779   0.91480   0.92303   0.93147
 Alpha virt. eigenvalues --    0.94455   0.95250   0.96073   0.96492   0.97412
 Alpha virt. eigenvalues --    0.98311   0.99225   1.00695   1.02670   1.03497
 Alpha virt. eigenvalues --    1.05632   1.06816   1.07477   1.09628   1.09800
 Alpha virt. eigenvalues --    1.11542   1.12466   1.13355   1.14472   1.15127
 Alpha virt. eigenvalues --    1.16099   1.16586   1.17206   1.18797   1.21718
 Alpha virt. eigenvalues --    1.22224   1.23724   1.24100   1.24685   1.24973
 Alpha virt. eigenvalues --    1.26046   1.26734   1.27513   1.29096   1.29881
 Alpha virt. eigenvalues --    1.30525   1.30681   1.31328   1.32217   1.32911
 Alpha virt. eigenvalues --    1.36350   1.37614   1.38031   1.38307   1.39096
 Alpha virt. eigenvalues --    1.39804   1.41398   1.42130   1.43214   1.43713
 Alpha virt. eigenvalues --    1.44397   1.45429   1.46780   1.47229   1.47774
 Alpha virt. eigenvalues --    1.48040   1.48547   1.48864   1.49133   1.49280
 Alpha virt. eigenvalues --    1.49472   1.49596   1.49846   1.51234   1.52202
 Alpha virt. eigenvalues --    1.52607   1.52754   1.53011   1.53789   1.54976
 Alpha virt. eigenvalues --    1.60489   1.60894   1.62471   1.66790   1.67614
 Alpha virt. eigenvalues --    1.71076   1.71971   1.73494   1.74217   1.74565
 Alpha virt. eigenvalues --    1.74842   1.75547   1.75762   1.75893   1.76152
 Alpha virt. eigenvalues --    1.77890   1.78707   1.79590   1.80200   1.80806
 Alpha virt. eigenvalues --    1.80949   1.82540   1.84118   1.84531   1.84987
 Alpha virt. eigenvalues --    1.85291   1.85882   1.86050   1.87029   1.87452
 Alpha virt. eigenvalues --    1.88494   1.88657   1.89181   1.89275   1.89710
 Alpha virt. eigenvalues --    1.90533   1.90761   1.94169   1.94463   1.95368
 Alpha virt. eigenvalues --    1.96195   1.99381   1.99941   2.00429   2.01129
 Alpha virt. eigenvalues --    2.02761   2.03395   2.04419   2.05542   2.05902
 Alpha virt. eigenvalues --    2.06148   2.07502   2.07629   2.08278   2.08845
 Alpha virt. eigenvalues --    2.09148   2.09481   2.10192   2.10736   2.12052
 Alpha virt. eigenvalues --    2.13051   2.14561   2.15154   2.17069   2.17673
 Alpha virt. eigenvalues --    2.17976   2.18971   2.19540   2.19845   2.20929
 Alpha virt. eigenvalues --    2.21288   2.23186   2.23722   2.24031   2.24726
 Alpha virt. eigenvalues --    2.25732   2.25805   2.26992   2.27873   2.28636
 Alpha virt. eigenvalues --    2.29810   2.29860   2.30298   2.31020   2.32014
 Alpha virt. eigenvalues --    2.32100   2.32979   2.33120   2.34301   2.34448
 Alpha virt. eigenvalues --    2.35035   2.36826   2.38207   2.39833   2.41787
 Alpha virt. eigenvalues --    2.42983   2.44557   2.46505   2.48329   2.48943
 Alpha virt. eigenvalues --    2.49106   2.49761   2.50922   2.52863   2.53730
 Alpha virt. eigenvalues --    2.55862   2.56529   2.57851   2.58284   2.59209
 Alpha virt. eigenvalues --    2.61170   2.62031   2.63576   2.63883   2.64246
 Alpha virt. eigenvalues --    2.64787   2.65692   2.66707   2.67865   2.68184
 Alpha virt. eigenvalues --    2.68727   2.69204   2.70151   2.71272   2.72099
 Alpha virt. eigenvalues --    2.73248   2.75867   2.76636   2.77125   2.77667
 Alpha virt. eigenvalues --    2.78275   2.78753   2.82186   2.83066   2.84014
 Alpha virt. eigenvalues --    2.85940   2.88891   2.91003   2.92486   2.92841
 Alpha virt. eigenvalues --    2.94895   2.95356   2.98379   2.98964   3.03703
 Alpha virt. eigenvalues --    3.04695   3.10746   3.11309   3.22668   3.24414
 Alpha virt. eigenvalues --    3.31767   3.33832   3.42206   3.42285   3.43711
 Alpha virt. eigenvalues --    3.44458   3.57619   3.63097
          Condensed to atoms (all electrons):
 Mulliken charges:
               1
     1  C   -0.181363
     2  C    0.064081
     3  C   -0.118641
     4  C   -0.031569
     5  C   -0.120782
     6  C    0.135256
     7  C    0.103322
     8  C   -0.263138
     9  C    0.184073
    10  C   -0.133014
    11  C   -0.033502
    12  C   -0.021900
    13  C   -0.159576
    14  C    0.084554
    15  C   -0.104952
    16  C   -0.114885
    17  C    0.125281
    18  O   -0.355213
    19  C    0.096331
    20  C    0.135565
    21  C   -0.084459
    22  C   -0.038266
    23  C   -0.112573
    24  C    0.072699
    25  C   -0.181210
    26  C   -0.201284
    27  C   -0.260392
    28  C    0.181188
    29  C   -0.132861
    30  C   -0.033831
    31  C   -0.023077
    32  C   -0.158082
    33  C    0.091748
    34  C    0.118813
    35  O   -0.355757
    36  C   -0.158258
    37  H    0.087635
    38  H    0.100272
    39  H    0.102532
    40  H    0.030390
    41  H    0.041665
    42  H    0.036695
    43  H    0.032534
    44  H    0.034800
    45  H    0.046515
    46  H    0.047576
    47  H    0.061406
    48  H    0.342725
    49  H    0.040878
    50  H    0.043723
    51  H    0.029531
    52  H    0.087769
    53  H    0.103985
    54  H    0.097121
    55  H    0.027003
    56  H    0.032160
    57  H    0.034622
    58  H    0.046302
    59  H    0.046378
    60  H    0.060583
    61  H    0.340848
    62  H    0.030028
 Sum of Mulliken charges =  -0.00000
 Mulliken charges with hydrogens summed into heavy atoms:
               1
     1  C    0.109077
     2  C    0.064081
     3  C   -0.088251
     4  C    0.010096
     5  C   -0.084087
     6  C    0.135256
     7  C    0.103322
     8  C   -0.230604
     9  C    0.184073
    10  C   -0.098214
    11  C    0.013013
    12  C    0.025677
    13  C   -0.098171
    14  C    0.084554
    15  C   -0.104952
    16  C   -0.114885
    17  C    0.125281
    18  O   -0.012488
    19  C    0.096331
    20  C    0.135565
    21  C   -0.043581
    22  C    0.005457
    23  C   -0.083042
    24  C    0.072699
    25  C    0.107664
    26  C   -0.174282
    27  C   -0.228232
    28  C    0.181188
    29  C   -0.098239
    30  C    0.012471
    31  C    0.023301
    32  C   -0.097500
    33  C    0.091748
    34  C    0.118813
    35  O   -0.014910
    36  C   -0.128230
 Electronic spatial extent (au):  <R**2>=          19392.1163
 Charge=             -0.0000 electrons
 Dipole moment (field-independent basis, Debye):
    X=             -0.3006    Y=              0.4316    Z=              0.6938  Tot=              0.8706
 Quadrupole moment (field-independent basis, Debye-Ang):
   XX=           -191.4293   YY=           -196.0362   ZZ=           -207.1605
   XY=             -2.0567   XZ=             -1.3768   YZ=             -0.6696
 Traceless Quadrupole moment (field-independent basis, Debye-Ang):
   XX=              6.7793   YY=              2.1725   ZZ=             -8.9518
   XY=             -2.0567   XZ=             -1.3768   YZ=             -0.6696
 Octapole moment (field-independent basis, Debye-Ang**2):
  XXX=            -46.3294  YYY=             22.1760  ZZZ=             -3.8169  XYY=             21.8802
  XXY=             -6.2553  XXZ=            -29.3060  XZZ=              0.1427  YZZ=            -33.3071
  YYZ=             17.8849  XYZ=            -12.9494
 Hexadecapole moment (field-independent basis, Debye-Ang**3):
 XXXX=         -17389.1161 YYYY=          -4854.6514 ZZZZ=          -3697.0103 XXXY=           -123.2269
 XXXZ=           -200.4173 YYYX=           -368.2979 YYYZ=            252.7827 ZZZX=             -4.1515
 ZZZY=            151.9467 XXYY=          -3730.0660 XXZZ=          -3614.3559 YYZZ=          -1342.6263
 XXYZ=            124.6373 YYXZ=             28.6519 ZZXY=            -27.3773
 N-N= 3.544066694850D+03 E-N=-1.047517979571D+04  KE= 1.447045640726D+03
 No NMR shielding tensors so no spin-rotation constants.
 Leave Link  601 at Thu Jan 23 10:49:53 2025, MaxMem= 13421772800 cpu:               7.6 elap:               0.3
 (Enter /public/software/apps/Gaussian/g16/l701.exe)
 ... and contract with generalized density number  0.
 Compute integral first derivatives.
 R6Disp: Adding Grimme-D3(BJ) dispersion energy 1st derivatives to the gradient.
   1 Symmetry operations used in ECPInt.
 ECPInt:  NShTT=   36046 NPrTT=  144462 LenC2=   29750 LenP2D=   74954.
 LDataN:  DoStor=T MaxTD1= 5 Len=  102
 Leave Link  701 at Thu Jan 23 10:49:54 2025, MaxMem= 13421772800 cpu:               9.0 elap:               0.3
 (Enter /public/software/apps/Gaussian/g16/l702.exe)
 L702 exits ... SP integral derivatives will be done elsewhere.
 Leave Link  702 at Thu Jan 23 10:49:54 2025, MaxMem= 13421772800 cpu:               0.3 elap:               0.0
 (Enter /public/software/apps/Gaussian/g16/l703.exe)
 Integral derivatives from FoFJK, PRISM(SPDF).
 Compute integral first derivatives, UseDBF=F ICtDFT=           0.
 Calling FoFJK, ICntrl=      2127 FMM=T ISym2X=0 I1Cent= 0 IOpClX= 0 NMat=1 NMatS=1 NMatT=0.
 FoFJK:  IHMeth= 1 ICntrl=    2127 DoSepK=F KAlg= 0 I1Cent=           0 FoldK=F
 IRaf=         0 NMat=       1 IRICut=       1 DoRegI=T DoRafI=F ISym2E= 0 IDoP0=0 IntGTp=1.
 FoFCou: FMM=T IPFlag=           0 FMFlag=      100000 FMFlg1=        2001
         NFxFlg=           0 DoJE=F BraDBF=F KetDBF=F FulRan=T
         wScrn=  0.000000 ICntrl=      2127 IOpCl=  0 I1Cent=           0 NGrid=           0
[...]
 .00005616,0.00035745,-0.00003897,-0.00006144,-0.00014954,0.00000421,-0
 .00043583,0.00204002,0.27878358,-0.00002745,0.00002192,-0.00000163,0.0
 0002905,-0.00000535,-0.00000866,-0.00001970,-0.00000760,0.00001529,-0.
 00000022,-0.00001667,-0.00000754,-0.00002952,-0.00003411,0.00003727,0.
 00007750,0.00004624,-0.00007446,0.00018340,0.00003692,0.00001125,-0.00
 001799,0.00005027,-0.00008473,-0.00010753,-0.00000445,0.00012105,0.000
 04634,-0.00000226,-0.00005016,-0.00007551,0.00003236,-0.00000168,0.000
 08207,-0.00006674,0.00006830,0.00003529,0.00019701,-0.00006025,-0.0000
 1782,-0.00055883,0.00014444,-0.00039493,-0.00089673,-0.00045693,-0.000
 16090,-0.00023949,0.00046709,0.00006912,0.00017547,0.00026539,0.000103
 57,-0.00002986,-0.00005077,-0.00010587,0.00011753,0.00005101,0.0000299
 5,-0.00001387,-0.00001224,-0.00001525,-0.00000470,0.00000098,0.0000004
 2,-0.00000641,-0.00000263,-0.00000092,-0.00000317,-0.00000420,0.000007
 92,0.00000271,0.00000149,0.00000008,0.00000052,-0.00000020,-0.00000786
 ,-0.00000693,0.00000737,-0.00070029,0.00049998,-0.00011519,-0.00141965
 ,-0.00128989,-0.00271803,-0.00065837,-0.00045372,-0.00023489,0.0001280
 6,-0.00379155,-0.00396869,0.02688745,-0.00881825,0.00701852,0.11150340
 ,-0.11202522,0.02201263,-0.01397768,0.01115492,-0.00305610,0.00040453,
 -0.00046166,-0.00178928,0.00010571,-0.00072623,0.00080078,-0.00010804,
 0.00007938,0.00003939,0.00000366,-0.00001277,-0.00000287,0.00001158,-0
 .00001362,0.00001118,-0.00001049,-0.00000977,0.00000564,-0.00000127,-0
 .00000377,0.00000290,-0.00000602,-0.00000095,0.00000320,0.00001094,-0.
 00001944,-0.00000819,-0.00001139,0.00002778,-0.00000351,-0.00001076,0.
 00000974,-0.00000323,0.00000006,0.00000896,-0.00000915,0.00000635,0.00
 000089,-0.00001575,0.00000378,-0.00000930,-0.00001907,-0.00007358,-0.0
 0002648,-0.00002523,0.00000009,0.00000239,-0.00000700,-0.00000140,0.00
 000016,-0.00000219,0.00000010,0.00000010,-0.00000097,0.00000034,0.0000
 0004,-0.00000074,-0.00000117,-0.00000066,0.00000021,-0.00000012,0.0000
 0006,0.00000030,0.00000588,0.00000210,-0.00000544,-0.00016992,-0.00010
 000,-0.00017737,-0.00006012,-0.00005412,0.00033151,0.00117965,-0.00044
 753,0.00024075,-0.00093440,0.00073605,0.00159610,-0.12172130,0.1168216
 3,0.00000880,-0.00000379,-0.00000157,0.00000089,0.00006408,0.00000239,
 -0.00001572,-0.00001029,0.00000647,-0.00000252,0.00000439,0.00000449,-
 0.00000747,-0.00000270,0.00000129,0.00000307,0.00000272,-0.00000900,0.
 00018173,-0.00013221,-0.00005806,-0.00002057,0.00009159,-0.00002890,-0
 .00020117,0.00004739,-0.00001727,0.00005713,-0.00003022,-0.00000449,-0
 .00003293,0.00005409,-0.00005040,0.00005298,-0.00004840,-0.00001656,0.
 00000745,0.00009774,-0.00015554,0.00013207,-0.00014158,0.00039268,-0.0
 0008163,-0.00038971,-0.00028694,0.00078861,0.00112099,-0.00183395,0.00
 026944,0.00030182,-0.00020519,0.00003162,-0.00021724,0.00017545,0.0000
 0100,0.00010841,-0.00005972,0.00003503,-0.00003016,0.00003660,-0.00002
 980,-0.00000077,0.00000251,0.00000058,-0.00000420,-0.00000131,-0.00000
 921,-0.00000455,-0.00000633,0.00001202,0.00000231,-0.00000963,0.000000
 91,-0.00000060,-0.00000101,-0.00001549,-0.00001471,-0.00000136,-0.0005
 3388,0.00055039,0.00004102,-0.00281618,-0.00332079,0.00283450,0.000155
 45,-0.00032332,-0.00062581,-0.00216835,-0.00354861,0.00582045,0.007603
 70,-0.00459527,0.00591770,-0.06016524,0.02198669,-0.05531089,-0.012205
 14,0.00760795,0.00062719,0.00023243,-0.00102457,0.00018721,0.00010802,
 0.00067260,-0.00028155,0.00003256,-0.00011003,-0.00001667,-0.00000546,
 -0.00000214,0.00000721,0.00000410,0.00000832,-0.00000287,-0.00000918,-
 0.00000544,-0.00000120,-0.00000939,0.00000308,0.00000738,-0.00000603,0
 .00000557,0.00000465,0.00000170,0.00000388,-0.00000323,-0.00000413,0.0
 0001898,-0.00001357,-0.00000580,0.00000630,0.00000245,0.00000570,0.000
 00788,-0.00000297,0.00001124,0.00001158,-0.00000659,0.00004124,0.00002
 540,-0.00000388,-0.00010574,-0.00003431,-0.00004342,0.00000162,0.00000
 152,-0.00000334,-0.00000264,-0.00000343,-0.00000482,-0.00000195,-0.000
 00134,-0.00000235,0.00000100,-0.00000020,0.00000009,-0.00000173,-0.000
 00043,0.00000176,-0.00000264,-0.00000052,-0.00000122,0.00000857,-0.000
 00264,-0.00000997,-0.00021057,-0.00015203,0.00003774,0.00033895,0.0003
 2630,-0.00083713,0.00028116,-0.00027783,0.00029250,0.00182089,0.001788
 40,-0.00369225,0.06678288,-0.02033944,0.04759378,-0.00002213,0.0000178
 9,0.00000647,0.00001300,-0.00006355,-0.00008134,0.00004327,0.00008692,
 0.00000689,-0.00003490,-0.00002453,0.00004189,0.00012801,0.00004614,-0
 .00002964,-0.00028700,-0.00018823,0.00004126,0.00280009,-0.00169539,0.
 00166078,-0.00004169,0.00088068,-0.00041519,-0.00018092,-0.00064315,0.
 00071491,-0.00011329,0.00044703,-0.00043855,-0.00032597,-0.00023819,0.
 00040849,0.00014713,-0.00016126,0.00016096,0.00038980,-0.00039090,0.00
 013055,-0.00103724,0.00086297,-0.00036594,-0.00105761,-0.00578699,0.00
 608458,0.00616245,-0.00045711,-0.00237962,-0.00294885,-0.00374777,-0.0
 0235666,-0.00094844,0.00293622,0.00045511,-0.00054742,-0.00046809,-0.0
 0032456,-0.00018010,-0.00016204,-0.00014694,0.00007697,0.00006727,0.00
 005585,-0.00000882,-0.00001619,-0.00005001,0.00008777,0.00001991,0.000
 01209,-0.00007181,-0.00000083,0.00005983,-0.00000951,0.00002100,0.0000
 0804,0.00009054,0.00008759,0.00004807,0.00033733,-0.00014517,0.0002765
 3,0.00032903,0.00023998,0.00031988,-0.00015742,0.00039532,-0.00002687,
 -0.00016736,-0.00009086,-0.00011482,-0.00031738,-0.00041085,-0.0001396
 3,0.00027917,-0.00023572,0.00036113,-0.00139745,0.00392374,0.00226101,
 -0.00578395,0.01160155,-0.01069429,-0.39104147,0.14796057,0.00028309,-
 0.00026399,-0.00009360,-0.00004539,0.00000765,0.00000399,-0.00001769,-
 0.00001865,-0.00003260,-0.00000502,0.00002887,0.00000417,0.00000611,0.
 00002024,0.00000420,-0.00001547,0.00001763,-0.00001563,-0.00002076,-0.
 00002268,-0.00000249,0.00000426,0.00008120,-0.00010196,-0.00005217,0.0
 0003301,-0.00001670,0.00000405,-0.00002476,-0.00000258,0.00001337,-0.0
 0002524,-0.00003170,0.00005612,-0.00015547,-0.00000501,0.00013045,0.00
 097762,0.00002248,0.00056853,-0.00001540,-0.00005248,-0.00006777,0.000
 01191,0.00001995,0.00003222,0.00002850,0.00001188,0.00001393,-0.000000
 82,-0.00001095,-0.00000448,0.00002647,0.00000700,-0.00001911,0.0000262
 8,-0.00000092,0.00000859,-0.00005155,-0.00000732,0.00002343,0.00002969
 ,-0.00003436,-0.00002804,0.00001866,-0.00002311,0.00001280,-0.00002781
 ,-0.00002945,-0.00003841,-0.00003014,-0.00008203,-0.00003702,-0.000278
 71,-0.00006019,-0.00040347,0.39590270,-0.00008697,0.00008677,-0.000001
 87,0.00020365,0.00017965,-0.00021865,-0.00007841,0.00013841,0.00009876
 ,-0.00015710,-0.00011772,0.00007784,0.00015886,-0.00019093,-0.00010068
 ,-0.00029419,-0.00004214,0.00023573,-0.00064949,-0.00063676,0.00455652
 ,0.00141870,0.00025742,0.00025703,-0.00017577,0.00021645,-0.00014627,0
 .00001132,-0.00005792,0.00003150,-0.00006272,0.00008679,-0.00008479,0.
 00011250,-0.00001696,0.00009966,-0.00002228,0.00030417,-0.00043188,0.0
 0048016,-0.00106132,0.00004671,0.00068618,0.00053981,-0.00175751,0.000
 18870,0.00141754,-0.00102984,-0.00044122,-0.00004381,-0.00047291,0.000
 20353,-0.00017557,-0.00027022,-0.00054821,0.00018928,-0.00021329,0.000
 04553,-0.00007868,0.00002397,-0.00010616,0.00002261,0.00004512,0.00001
 828,-0.00003762,-0.00000815,0.00000204,-0.00000883,-0.00000778,-0.0000
 0162,0.00001328,-0.00001087,-0.00000159,0.00000942,-0.00000161,0.00000
 734,-0.00002900,-0.00000710,0.00035013,-0.00059286,-0.00005897,0.00136
 661,-0.00036041,0.00057401,-0.00010811,0.00003656,-0.00000933,0.000107
 01,-0.00020579,-0.00004349,-0.00035104,-0.00012042,0.00008991,-0.00079
 038,-0.00094028,-0.00050212,0.00002193,0.00175223,0.00095280,0.0335018
 5,-0.01890092,0.00601346,0.12033413,-0.07257025,0.01915087,-0.00064699
 ,-0.00043892,-0.00003239,-0.00000854,-0.00003211,0.00001730,0.00001084
 ,-0.00004055,-0.00002280,-0.00000321,-0.00004882,0.00000985,-0.0000141
 6,0.00001443,0.00003115,-0.00001161,-0.00000081,0.00000317,0.00002764,
 -0.00001407,0.00000381,-0.00009255,-0.00034125,0.00006392,-0.00002200,
 0.00002809,-0.00001540,-0.00000705,0.00000606,-0.00001565,0.00001827,0
 .00003497,-0.00002149,-0.00000316,-0.00000703,0.00001256,-0.00027737,-
 0.00041726,0.00038224,-0.00002929,0.00000116,-0.00005910,-0.00000654,0
 .00000352,-0.00000572,0.00000851,0.00000418,-0.00000149,0.00000144,-0.
 00000311,-0.00000492,0.00000390,-0.00000194,-0.00000222,0.00000599,0.0
 0000077,0.00000241,0.00000076,-0.00000430,0.00000080,-0.00001959,-0.00
 003991,-0.00004855,-0.00000003,0.00000717,-0.00001542,-0.00000531,0.00
 001105,-0.00002331,0.00001064,0.00001639,-0.00005800,-0.00004858,0.000
 13366,-0.00019278,-0.15422952,0.09162921,0.00001243,-0.00003100,-0.000
 03235,-0.00009088,-0.00007577,0.00006780,0.00003095,-0.00005404,-0.000
 03467,0.00006371,0.00002086,-0.00008152,-0.00009399,0.00010050,0.00012
 757,0.00030579,-0.00022776,-0.00001653,0.00144525,0.00473518,-0.003359
 86,-0.00119605,0.00042957,0.00120726,0.00035286,0.00008609,-0.00028011
 ,0.00002101,-0.00022677,0.00023626,0.00030176,-0.00000541,-0.00016402,
 -0.00020154,0.00029407,-0.00010501,-0.00021935,-0.00029345,0.00032742,
 -0.00030862,0.00001776,-0.00061658,-0.00064838,0.00097079,-0.00146145,
 -0.00104208,0.00005668,0.00003507,0.00115452,0.00243370,0.00193163,0.0
 0057338,-0.00256206,-0.00096005,-0.00023264,0.00052990,-0.00000178,0.0
 0016371,0.00015387,0.00011666,-0.00024382,0.00002445,-0.00001675,0.000
 04038,-0.00000479,-0.00002319,-0.00007200,-0.00002465,-0.00002453,0.00
 004220,-0.00000522,-0.00004844,0.00000163,-0.00000314,-0.00001131,-0.0
 0006941,-0.00007796,-0.00004438,-0.00054814,0.00003342,-0.00024610,0.0
 0049169,-0.00053167,0.00016851,0.00001437,0.00030952,0.00006405,-0.000
 20529,0.00001458,-0.00018217,0.00015382,-0.00031778,0.00019768,-0.0001
 8406,-0.00031902,-0.00049951,0.00081836,-0.00142038,-0.00120023,-0.036
 06066,0.01565236,-0.00252203,0.03205564,0.00725760,-0.03239676,0.00000
 565,-0.00001232,-0.00000744,0.00003504,0.00001853,-0.00002128,0.000008
 73,0.00002716,0.00004292,-0.00002031,0.00002285,-0.00000742,0.00002101
 ,-0.00000525,0.00000318,0.00000838,-0.00000209,-0.00000022,0.00001423,
 -0.00002010,0.00000912,-0.00005891,0.00009841,-0.00035054,0.00000945,-
 0.00002112,0.00002151,0.00001511,-0.00001505,0.00000015,0.00000378,0.0
 0000176,0.00001391,0.00005989,0.00000094,-0.00005469,-0.00046135,-0.00
 002395,0.00016342,0.00001279,-0.00006316,0.00004991,-0.00002178,-0.000
 03427,-0.00002420,-0.00000582,-0.00001302,-0.00000796,0.00000640,-0.00
 000115,0.00000361,-0.00000276,0.00000010,0.00000689,-0.00001570,-0.000
 00453,-0.00000685,0.00006053,-0.00001210,-0.00002578,-0.00007172,0.000
 01974,0.00000471,-0.00007147,0.00003317,0.00002684,-0.00003344,0.00005
 869,0.00002470,0.00002858,0.00007150,0.00001027,-0.00012529,0.00002006
 ,-0.00034212,0.00407099,-0.02701673,0.04027738,-0.00080610,0.00136816,
 -0.00276090,-0.00919388,0.01931965,0.00823516,-0.00092274,-0.00190843,
 0.00511705,-0.00040392,-0.00084072,-0.00014436,0.00197818,-0.00183287,
 0.00288470,0.00787153,-0.00760688,-0.00317904,-0.00093226,0.00005797,-
 0.00169790,0.00022014,0.00007803,-0.00010772,0.00000273,0.00020797,-0.
 00006820,0.00003201,-0.00005444,0.00002309,0.00001474,0.00003586,-0.00
 005898,-0.00002739,0.00001423,0.00000036,-0.00002264,0.00000672,-0.000
 03032,0.00001724,-0.00013277,0.00002285,0.00020291,0.00047937,-0.00002
 506,-0.00003095,0.00000847,-0.00005007,-0.00002608,-0.00003802,-0.0000
 2676,0.00004778,0.00002990,0.00002295,-0.00001694,0.00000016,-0.000010
 24,-0.00000921,-0.00001718,-0.00001047,0.00000582,0.00000371,0.0000060
 4,-0.00000068,-0.00000308,-0.00000517,0.00000850,0.00000063,-0.0000002
 3,-0.00000739,0.00000003,0.00000690,-0.00000111,0.00000304,0.00000029,
 0.00000638,0.00000785,0.00000630,0.00001494,-0.00000878,0.00000348,0.0
 0000342,-0.00000299,-0.00000589,0.00000244,-0.00000703,-0.00000061,0.0
 0000575,-0.00000554,0.00000490,0.00001972,0.00005523,0.00002028,0.0000
 0642,-0.00000410,-0.00007768,0.00002636,0.00002466,0.00002863,-0.00049
 444,-0.00192232,0.00132328,-0.00317237,0.00000617,-0.00079761,-0.13743
 643,0.12260294,0.06295081,0.00048980,0.00006431,-0.00023320,0.00009550
 ,-0.00094338,0.00034483,-0.00022449,-0.00040162,0.00027744,-0.00053882
 ,0.00093527,0.00034742,-0.00029131,0.00003628,-0.00043030,0.00045910,-
 0.00045156,-0.00000411,-0.00002794,-0.00000612,-0.00007036,-0.00001049
 ,0.00001163,-0.00000108,0.00000347,0.00000668,-0.00000424,0.00000640,0
 .00000681,-0.00000451,-0.00000054,-0.00000274,0.00000401,-0.00004606,-
 0.00005012,-0.00002217,-0.00000175,-0.00000216,-0.00000754,0.00000024,
 0.00000214,0.00000246,0.00000334,0.00000168,0.00000130,-0.00000007,-0.
 00000131,-0.00000102,0.00000243,0.00000043,-0.00000226,0.00000315,-0.0
 0000005,0.00000159,-0.00000423,-0.00000044,0.00000077,0.00000425,-0.00
 000411,0.00000055,0.00000532,-0.00000362,0.00000051,0.00000623,-0.0000
 0905,-0.00000148,-0.00000111,-0.00001083,-0.00001064,0.00004461,-0.000
 00865,0.00005946,-0.00049901,-0.00000568,-0.00009855,0.14353954,-0.001
 42348,0.00096982,0.00058218,-0.00404939,0.00616431,0.00296253,-0.00120
 672,0.00076531,0.00132826,-0.00061270,0.00009395,0.00035415,-0.0027249
 9,-0.00373192,0.00251206,0.01756465,-0.01765275,-0.01001849,0.00059185
 ,0.00120460,-0.00125987,-0.00012090,-0.00011819,0.00042361,0.00007417,
 0.00008143,-0.00017146,0.00000404,-0.00006348,0.00007018,0.00004387,0.
 00003320,-0.00004256,-0.00003276,0.00001402,-0.00000002,-0.00001161,0.
 00004840,-0.00002011,0.00000780,-0.00008955,0.00003581,-0.00001069,0.0
 0030847,-0.00021411,-0.00001909,-0.00000599,-0.00009766,-0.00003921,-0
 .00006634,-0.00004541,0.00003370,0.00005571,0.00002950,-0.00002440,0.0
 0000097,-0.00001108,-0.00001050,-0.00001725,-0.00001063,0.00000744,0.0
 0000417,0.00000608,-0.00000107,-0.00000317,-0.00000604,0.00000864,0.00
 000127,0.00000035,-0.00000653,0.00000049,0.00000664,-0.00000093,0.0000
 0247,0.00000045,0.00000577,0.00000771,0.00000605,0.00001648,-0.0000129
 3,0.00000236,0.00000121,0.00000781,0.00000978,0.00000028,-0.00000765,-
 0.00000135,0.00001080,-0.00001199,0.00000717,0.00000680,0.00001476,0.0
 0001880,-0.00005461,0.00002316,-0.00002787,0.00004930,0.00005881,0.000
 02667,-0.00052143,-0.00216545,0.00169302,0.00131130,0.00127226,-0.0004
 7431,0.11967058,-0.22220790,-0.07097393,-0.00005323,0.00004196,-0.0000
 3421,0.00001208,0.00032833,0.00001267,-0.00009355,0.00003665,0.0000163
 7,-0.00023453,0.00038079,0.00013610,0.00002255,-0.00003810,-0.00009481
 ,0.00087458,-0.00096662,-0.00051450,-0.00002444,0.00003046,-0.00011475
 ,-0.00001136,0.00000625,-0.00001193,-0.00000067,0.00000131,-0.00000553
 ,0.00000250,0.00000206,-0.00000831,-0.00000439,-0.00000380,0.00000345,
 -0.00003469,-0.00005548,-0.00002097,-0.00000216,-0.00000354,-0.0000076
 4,0.00000086,0.00000230,0.00000324,0.00000331,0.00000143,0.00000125,-0
 .00000016,-0.00000083,-0.00000080,0.00000207,0.00000025,-0.00000218,0.
 00000290,-0.00000008,0.00000148,-0.00000442,-0.00000021,0.00000124,0.0
 0000463,-0.00000364,-0.00000006,0.00000558,-0.00000319,-0.00000017,0.0
 0000580,-0.00000744,-0.00000274,-0.00000417,-0.00000232,-0.00001303,-0
 .00000837,0.00000333,0.00004587,0.00009100,0.00043721,-0.00006808,-0.1
 2908938,0.23483438,-0.00199644,-0.00183885,-0.00276815,0.01027143,-0.0
 1355733,-0.00144815,0.00551026,0.00168025,0.00281754,-0.00017654,0.000
 52808,-0.00063337,0.00313674,0.00175276,0.00428472,-0.00342284,0.00632
 660,0.00581550,-0.00272220,-0.00021932,-0.00212277,0.00027915,0.000190
 21,-0.00034347,-0.00008571,0.00014443,0.00007504,0.00001516,0.00002058
 ,-0.00004037,-0.00005298,0.00001876,-0.00001929,0.00000311,-0.00002698
 ,0.00003376,0.00002200,0.00000604,-0.00004942,0.00004204,-0.00011914,0
 .00007193,0.00004946,0.00031739,-0.00023990,0.00002163,0.00001506,-0.0
 0001877,-0.00001956,-0.00000142,-0.00000419,0.00000332,-0.00000583,-0.
 00002143,0.00000018,-0.00000886,-0.00000232,0.00000264,0.00000222,0.00
 000140,-0.00000799,0.00000242,-0.00000028,0.00000130,0.00000044,-0.000
 00152,-0.00000127,-0.00000046,-0.00000144,-0.00000061,-0.00000032,-0.0
 0000044,-0.00000026,0.00000041,-0.00000026,0.00000002,-0.00000041,-0.0
 0000117,0.00000380,0.00000604,0.00000334,-0.00001838,0.00000003,-0.000
 00925,-0.00001410,0.00001338,-0.00000351,-0.00000117,-0.00000570,-0.00
 001115,-0.00001686,-0.00000605,-0.00001179,0.00005890,-0.00005396,0.00
 004879,-0.00001935,0.00007281,0.00001229,0.00010001,-0.00071741,0.0012
 4538,0.00049121,0.00048274,-0.00044088,0.06084101,-0.06969152,-0.07620
 411,0.00018857,0.00041089,-0.00001286,-0.00018283,0.00087743,0.0001424
 8,-0.00044867,-0.00030826,0.00024408,0.00046408,-0.00075016,-0.0001718
 6,-0.00047140,-0.00007724,-0.00065961,-0.00005046,0.00040046,0.0003905
 4,-0.00000800,-0.00001833,-0.00002589,0.00000170,0.00000721,0.00000267
 ,0.00000097,0.00000008,0.00000277,0.00000082,0.00000322,0.00000252,-0.
 00000605,0.00000049,0.00000444,0.00000043,-0.00000837,0.00002622,0.000
 00042,-0.00000291,0.00000165,-0.00000096,-0.00000178,-0.00000032,0.000
 00034,-0.00000046,0.00000029,0.00000032,-0.00000060,0.00000024,0.00000
 089,0.00000053,-0.00000032,-0.00000010,-0.00000040,-0.00000017,0.00000
 117,-0.00000105,-0.00000033,-0.00000349,-0.00000019,0.00000031,-0.0000
 0466,-0.00000061,0.00000067,-0.00000531,0.00000345,0.00000222,0.000003
 70,-0.00001425,0.00000079,-0.00000642,0.00004432,-0.00004441,-0.000023
 40,0.00013217,0.00003940,-0.07174875,0.07397728,0.07004219\\0.00000126
 ,-0.00000029,-0.00000070,-0.00000145,0.00000036,0.00000202,0.00000016,
 -0.00000203,-0.00000026,0.00000100,0.00000143,-0.00000105,-0.00000200,
 0.00000050,0.00000097,0.00000009,-0.00000237,-0.00000088,0.00000006,-0
 .00000026,0.00000115,0.00000028,0.00000050,0.00000005,-0.00000028,-0.0
 0000038,0.00000030,0.00000019,0.00000045,-0.00000002,-0.00000053,0.000
 00065,0.00000021,0.00000037,0.,0.00000029,0.00000015,0.00000040,-0.000
 00004,-0.00000028,0.00000010,0.00000101,0.00000098,0.00000052,-0.00000
 040,-0.00000058,0.00000040,-0.00000011,-0.00000090,0.00000011,0.000001
 08,0.00000024,-0.00000043,0.00000022,-0.00000007,0.00000043,-0.0000006
 4,0.00000020,-0.00000032,0.00000048,-0.00000023,0.00000006,-0.00000013
 ,-0.00000004,-0.00000013,0.00000040,-0.00000008,-0.00000040,0.,0.00000
 042,0.00000060,0.00000023,-0.00000031,0.00000032,0.00000006,-0.0000000
 5,-0.00000003,-0.00000036,0.00000002,-0.00000011,-0.00000014,-0.000000
 29,-0.00000008,-0.00000003,-0.00000010,-0.00000004,-0.00000048,0.00000
 038,0.,-0.00000040,-0.00000017,0.00000022,-0.00000034,-0.00000023,-0.0
 0000005,-0.00000032,0.00000105,0.00000035,-0.00000061,-0.00000076,-0.0
 0000063,-0.00000058,-0.00000006,0.00000030,0.00000020,0.00000129,0.000
 00075,-0.00000058,0.00000005,-0.00000018,-0.00000071,-0.00000026,-0.00
 000065,-0.00000043,-0.00000028,-0.00000052,-0.00000034,0.00000011,-0.0
 0000008,0.00000004,-0.00000013,-0.00000054,0.00000038,0.00000017,-0.00
 000047,0.00000053,0.00000011,-0.00000021,0.00000005,-0.00000019,0.0000
 0016,0.00000039,0.,0.00000041,0.00000030,-0.00000003,0.00000046,0.0000
 0021,-0.00000004,0.00000020,0.00000018,0.00000029,-0.00000034,-0.00000
 034,-0.00000012,-0.00000015,0.,0.,-0.00000030,0.00000014,0.,-0.0000000
 8,0.00000011,0.00000011,0.00000016,0.00000002,0.,0.,0.00000026,0.00000
 008,0.00000003,0.00000015,-0.00000012,0.00000036,0.00000004,-0.0000000
 2,0.00000021,-0.00000013,0.00000015,0.00000025,-0.00000035,0.00000005,
 0.00000026,-0.00000048,0.00000014,0.00000025,-0.00000038,0.00000015,0.
 00000010,-0.00000013,0.00000005,-0.00000014,-0.00000021,0.00000003,-0.
 00000010,0.00000014\\\@
 The archive entry for this job was punched.


 Just remember, when you're over the hill, you begin to pick up speed.
 -- Charles Schulz
 Job cpu time:       0 days  6 hours 15 minutes 34.4 seconds.
 Elapsed time:       0 days  0 hours 11 minutes 48.7 seconds.
 File lengths (MBytes):  RWF=   2110 Int=      0 D2E=      0 Chk=     28 Scr=      1
 Normal termination of Gaussian 16 at Thu Jan 23 11:27:11 2025.
