 Entering Gaussian System, Link 0=g16
 Initial command:
 /public/software/apps/Gaussian/g16/l1.exe "/tmp/Gau-89151.inp" -scrdir="/tmp/"
 Entering Link 1 = /public/software/apps/Gaussian/g16/l1.exe PID=     89152.
  
 Copyright (c) 1988-2019, Gaussian, Inc.  All Rights Reserved.
  
 This is part of the Gaussian(R) 16 program.  It is based on
 the Gaussian(R) 09 system (copyright 2009, Gaussian, Inc.),
 the Gaussian(R) 03 system (copyright 2003, Gaussian, Inc.),
 the Gaussian(R) 98 system (copyright 1998, Gaussian, Inc.),
 the Gaussian(R) 94 system (copyright 1995, Gaussian, Inc.),
 the Gaussian 92(TM) system (copyright 1992, Gaussian, Inc.),
 the Gaussian 90(TM) system (copyright 1990, Gaussian, Inc.),
 the Gaussian 88(TM) system (copyright 1988, Gaussian, Inc.),
 the Gaussian 86(TM) system (copyright 1986, Carnegie Mellon
 University), and the Gaussian 82(TM) system (copyright 1983,
 Carnegie Mellon University). Gaussian is a federally registered
 trademark of Gaussian, Inc.
  
 This software contains proprietary and confidential information,
 including trade secrets, belonging to Gaussian, Inc.
  
 This software is provided under written license and may be
 used, copied, transmitted, or stored only in accord with that
 written license.
  
 The following legend is applicable only to US Government
 contracts under FAR:
  
                    RESTRICTED RIGHTS LEGEND
  
 Use, reproduction and disclosure by the US Government is
 subject to restrictions as set forth in subparagraphs (a)
 and (c) of the Commercial Computer Software - Restricted
 Rights clause in FAR 52.227-19.
  
 Gaussian, Inc.
 340 Quinnipiac St., Bldg. 40, Wallingford CT 06492
  
  
 ---------------------------------------------------------------
 Warning -- This program may not be used in any manner that
 competes with the business of Gaussian, Inc. or will provide
 assistance to any competitor of Gaussian, Inc.  The licensee
 of this program is prohibited from giving any competitor of
 Gaussian, Inc. access to this program.  By using this program,
 the user acknowledges that Gaussian, Inc. is engaged in the
 business of creating and licensing software in the field of
 computational chemistry and represents and warrants to the
 licensee that it is not a competitor of Gaussian, Inc. and that
 it will not use this program in any manner prohibited above.
 ---------------------------------------------------------------
  

 Cite this work as:
 Gaussian 16, Revision C.01,
 M. J. Frisch, G. W. Trucks, H. B. Schlegel, G. E. Scuseria, 
 M. A. Robb, J. R. Cheeseman, G. Scalmani, V. Barone, 
 G. A. Petersson, H. Nakatsuji, X. Li, M. Caricato, A. V. Marenich, 
 J. Bloino, B. G. Janesko, R. Gomperts, B. Mennucci, H. P. Hratchian, 
 J. V. Ortiz, A. F. Izmaylov, J. L. Sonnenberg, D. Williams-Young, 
 F. Ding, F. Lipparini, F. Egidi, J. Goings, B. Peng, A. Petrone, 
 T. Henderson, D. Ranasinghe, V. G. Zakrzewski, J. Gao, N. Rega, 
 G. Zheng, W. Liang, M. Hada, M. Ehara, K. Toyota, R. Fukuda, 
 J. Hasegawa, M. Ishida, T. Nakajima, Y. Honda, O. Kitao, H. Nakai, 
 T. Vreven, K. Throssell, J. A. Montgomery, Jr., J. E. Peralta, 
 F. Ogliaro, M. J. Bearpark, J. J. Heyd, E. N. Brothers, K. N. Kudin, 
 V. N. Staroverov, T. A. Keith, R. Kobayashi, J. Normand, 
 K. Raghavachari, A. P. Rendell, J. C. Burant, S. S. Iyengar, 
 J. Tomasi, M. Cossi, J. M. Millam, M. Klene, C. Adamo, R. Cammi, 
 J. W. Ochterski, R. L. Martin, K. Morokuma, O. Farkas, 
 J. B. Foresman, and D. J. Fox, Gaussian, Inc., Wallingford CT, 2019.
 
 ******************************************
 Gaussian 16:  ES64L-G16RevC.01  3-Jul-2019
                23-Jan-2025 
 ******************************************
 %nprocshared=32
 Will use up to   32 processors via shared memory.
 %mem=100GB
 ------------------------------------------
 #p opt freq b3lyp/def2svpp em=gd3bj nosymm
 ------------------------------------------
 1/18=20,19=15,26=3,38=1/1,3;
 2/9=110,12=2,15=1,17=6,18=5,40=1/2;
 3/5=43,7=202,11=2,25=1,30=1,71=1,74=-5,124=41/1,2,3;
 4//1;
 5/5=2,38=5/2;
 6/7=2,8=2,9=2,10=2,28=1/1;
 7/30=1/1,2,3,16;
 1/18=20,19=15,26=3/3(2);
 2/9=110,15=1/2;
 99//99;
 2/9=110,15=1/2;
 3/5=43,7=202,11=2,25=1,30=1,71=1,74=-5,124=41/1,2,3;
 4/5=5,16=3,69=1/1;
 5/5=2,38=5/2;
 7/30=1/1,2,3,16;
 1/18=20,19=15,26=3/3(-5);
 2/9=110,15=1/2;
 6/7=2,8=2,9=2,10=2,19=2,28=1/1;
 99/9=1/99;
 Leave Link    1 at Thu Jan 23 11:50:20 2025, MaxMem= 13421772800 cpu:               2.0 elap:               0.1
 (Enter /public/software/apps/Gaussian/g16/l101.exe)
 ----------------------
 $$$$Singlemol####0????
 ----------------------
 Symbolic Z-matrix:
 Charge =  0 Multiplicity = 1
 O                    -1.34831   1.10343  -0.214 
 C                    -1.55365  -0.24001  -0.14837 
 C                    -2.69983  -0.77986  -0.7901 
 C                    -3.64836   0.09438  -1.4994 
 C                    -4.11133  -0.26623  -2.76242 
 C                    -5.0104    0.54605  -3.42649 
 C                    -5.45516   1.71822  -2.84261 
 C                    -5.00576   2.09705  -1.58105 
 C                    -5.4856    3.36222  -0.98506 
 C                    -4.56022   4.22185  -0.16286 
 C                    -5.68458   3.501     0.50167 
 C                    -4.10374   1.27187  -0.92029 
 C                    -2.89887  -2.13743  -0.749 
 C                    -2.01207  -3.00704  -0.08615 
 C                    -2.22673  -4.39949  -0.03428 
 C                    -1.34855  -5.21828   0.61894 
 C                    -0.21791  -4.67986   1.2516 
 C                     0.02019  -3.33408   1.21964 
 C                    -0.86645  -2.46486   0.55068 
 C                    -0.65429  -1.06441   0.4981 
 C                     0.55121  -0.46024   1.13263 
 C                     1.73615  -0.42422   0.42452 
 O                     1.824    -0.9538   -0.82538 
 C                     2.9016    0.15505   0.99275 
 C                     4.16439   0.19937   0.23724 
 C                     5.35461  -0.18217   0.85052 
 C                     6.5429   -0.12218   0.14786 
 C                     6.55741   0.32107  -1.1621 
 C                     5.3793    0.70996  -1.79294 
 C                     5.42248   1.17768  -3.19488 
 C                     4.49893   2.26354  -3.68296 
 C                     4.30027   0.86046  -4.14908 
 C                     4.18913   0.64291  -1.07871 
 C                     2.83117   0.66786   2.26367 
 C                     1.64137   0.64709   3.0162 
 C                     1.57083   1.17694   4.32074 
 C                     0.40183   1.1398    5.02812 
 C                    -0.74786   0.56856   4.46218 
 C                    -0.71367   0.04715   3.19889 
 C                     0.47687   0.07484   2.4433 
 H                    -0.52989   1.31937   0.25657 
 H                    -3.75004  -1.17163  -3.22799 
 H                    -5.36442   0.26659  -4.40838 
 H                    -6.15576   2.34935  -3.37103 
 H                    -6.196     3.88892  -1.61198 
 H                    -3.55416   3.86403  -0.00644 
 H                    -4.62854   5.29322  -0.27706 
 H                    -5.45655   2.64967   1.12436 
 H                    -6.53324   4.07311   0.84543 
 H                    -3.7485    1.53804   0.0624 
 H                    -3.77477  -2.55637  -1.22274 
 H                    -3.10181  -4.80558  -0.52122 
 H                    -1.51968  -6.28402   0.65528 
 H                     0.46518  -5.33818   1.76771 
 H                     0.88816  -2.919     1.71163 
 H                     0.98747  -1.38967  -1.04352 
 H                     5.34131  -0.54243   1.86883 
 H                     7.46494  -0.42463   0.62312 
 H                     7.49168   0.36465  -1.70396 
 H                     6.42151   1.17783  -3.61564 
 H                     4.89499   2.98801  -4.37865 
 H                     3.79275   2.67976  -2.98102 
 H                     3.45971   0.30308  -3.76534 
 H                     4.5571    0.61354  -5.16818 
 H                     3.2635    0.94555  -1.5421 
 H                     3.71149   1.1169    2.7003 
 H                     2.46201   1.61181   4.75025 
 H                     0.35523   1.54677   6.02743 
 H                    -1.66342   0.54161   5.03453 
 H                    -1.59741  -0.39938   2.76589 
 
 ITRead=  0  0  0  0  0  0  0  0  0  0  0  0  0  0  0  0  0  0  0  0
 ITRead=  0  0  0  0  0  0  0  0  0  0  0  0  0  0  0  0  0  0  0  0
 ITRead=  0  0  0  0  0  0  0  0  0  0  0  0  0  0  0  0  0  0  0  0
 ITRead=  0  0  0  0  0  0  0  0  0  0
 MicOpt= -1 -1 -1 -1 -1 -1 -1 -1 -1 -1 -1 -1 -1 -1 -1 -1 -1 -1 -1 -1
 MicOpt= -1 -1 -1 -1 -1 -1 -1 -1 -1 -1 -1 -1 -1 -1 -1 -1 -1 -1 -1 -1
 MicOpt= -1 -1 -1 -1 -1 -1 -1 -1 -1 -1 -1 -1 -1 -1 -1 -1 -1 -1 -1 -1
 MicOpt= -1 -1 -1 -1 -1 -1 -1 -1 -1 -1
 NAtoms=     70 NQM=       70 NQMF=       0 NMMI=      0 NMMIF=      0
                NMic=       0 NMicF=      0.
                    Isotopes and Nuclear Properties:
 (Nuclear quadrupole moments (NQMom) in fm**2, nuclear magnetic moments (NMagM)
  in nuclear magnetons)

  Atom         1           2           3           4           5           6           7           8           9          10
 IAtWgt=          16          12          12          12          12          12          12          12          12          12
 AtmWgt=  15.9949146  12.0000000  12.0000000  12.0000000  12.0000000  12.0000000  12.0000000  12.0000000  12.0000000  12.0000000
 NucSpn=           0           0           0           0           0           0           0           0           0           0
 AtZEff=  -0.0000000  -0.0000000  -0.0000000  -0.0000000  -0.0000000  -0.0000000  -0.0000000  -0.0000000  -0.0000000  -0.0000000
 NQMom=    0.0000000   0.0000000   0.0000000   0.0000000   0.0000000   0.0000000   0.0000000   0.0000000   0.0000000   0.0000000
 NMagM=    0.0000000   0.0000000   0.0000000   0.0000000   0.0000000   0.0000000   0.0000000   0.0000000   0.0000000   0.0000000
 AtZNuc=   8.0000000   6.0000000   6.0000000   6.0000000   6.0000000   6.0000000   6.0000000   6.0000000   6.0000000   6.0000000

  Atom        11          12          13          14          15          16          17          18          19          20
 IAtWgt=          12          12          12          12          12          12          12          12          12          12
 AtmWgt=  12.0000000  12.0000000  12.0000000  12.0000000  12.0000000  12.0000000  12.0000000  12.0000000  12.0000000  12.0000000
 NucSpn=           0           0           0           0           0           0           0           0           0           0
 AtZEff=  -0.0000000  -0.0000000  -0.0000000  -0.0000000  -0.0000000  -0.0000000  -0.0000000  -0.0000000  -0.0000000  -0.0000000
 NQMom=    0.0000000   0.0000000   0.0000000   0.0000000   0.0000000   0.0000000   0.0000000   0.0000000   0.0000000   0.0000000
 NMagM=    0.0000000   0.0000000   0.0000000   0.0000000   0.0000000   0.0000000   0.0000000   0.0000000   0.0000000   0.0000000
 AtZNuc=   6.0000000   6.0000000   6.0000000   6.0000000   6.0000000   6.0000000   6.0000000   6.0000000   6.0000000   6.0000000

  Atom        21          22          23          24          25          26          27          28          29          30
 IAtWgt=          12          12          16          12          12          12          12          12          12          12
 AtmWgt=  12.0000000  12.0000000  15.9949146  12.0000000  12.0000000  12.0000000  12.0000000  12.0000000  12.0000000  12.0000000
 NucSpn=           0           0           0           0           0           0           0           0           0           0
 AtZEff=  -0.0000000  -0.0000000  -0.0000000  -0.0000000  -0.0000000  -0.0000000  -0.0000000  -0.0000000  -0.0000000  -0.0000000
 NQMom=    0.0000000   0.0000000   0.0000000   0.0000000   0.0000000   0.0000000   0.0000000   0.0000000   0.0000000   0.0000000
 NMagM=    0.0000000   0.0000000   0.0000000   0.0000000   0.0000000   0.0000000   0.0000000   0.0000000   0.0000000   0.0000000
 AtZNuc=   6.0000000   6.0000000   8.0000000   6.0000000   6.0000000   6.0000000   6.0000000   6.0000000   6.0000000   6.0000000

  Atom        31          32          33          34          35          36          37          38          39          40
 IAtWgt=          12          12          12          12          12          12          12          12          12          12
 AtmWgt=  12.0000000  12.0000000  12.0000000  12.0000000  12.0000000  12.0000000  12.0000000  12.0000000  12.0000000  12.0000000
 NucSpn=           0           0           0           0           0           0           0           0           0           0
 AtZEff=  -0.0000000  -0.0000000  -0.0000000  -0.0000000  -0.0000000  -0.0000000  -0.0000000  -0.0000000  -0.0000000  -0.0000000
 NQMom=    0.0000000   0.0000000   0.0000000   0.0000000   0.0000000   0.0000000   0.0000000   0.0000000   0.0000000   0.0000000
 NMagM=    0.0000000   0.0000000   0.0000000   0.0000000   0.0000000   0.0000000   0.0000000   0.0000000   0.0000000   0.0000000
 AtZNuc=   6.0000000   6.0000000   6.0000000   6.0000000   6.0000000   6.0000000   6.0000000   6.0000000   6.0000000   6.0000000

  Atom        41          42          43          44          45          46          47          48          49          50
 IAtWgt=           1           1           1           1           1           1           1           1           1           1
 AtmWgt=   1.0078250   1.0078250   1.0078250   1.0078250   1.0078250   1.0078250   1.0078250   1.0078250   1.0078250   1.0078250
 NucSpn=           1           1           1           1           1           1           1           1           1           1
 AtZEff=  -0.0000000  -0.0000000  -0.0000000  -0.0000000  -0.0000000  -0.0000000  -0.0000000  -0.0000000  -0.0000000  -0.0000000
 NQMom=    0.0000000   0.0000000   0.0000000   0.0000000   0.0000000   0.0000000   0.0000000   0.0000000   0.0000000   0.0000000
 NMagM=    2.7928460   2.7928460   2.7928460   2.7928460   2.7928460   2.7928460   2.7928460   2.7928460   2.7928460   2.7928460
 AtZNuc=   1.0000000   1.0000000   1.0000000   1.0000000   1.0000000   1.0000000   1.0000000   1.0000000   1.0000000   1.0000000

  Atom        51          52          53          54          55          56          57          58          59          60
 IAtWgt=           1           1           1           1           1           1           1           1           1           1
 AtmWgt=   1.0078250   1.0078250   1.0078250   1.0078250   1.0078250   1.0078250   1.0078250   1.0078250   1.0078250   1.0078250
 NucSpn=           1           1           1           1           1           1           1           1           1           1
 AtZEff=  -0.0000000  -0.0000000  -0.0000000  -0.0000000  -0.0000000  -0.0000000  -0.0000000  -0.0000000  -0.0000000  -0.0000000
 NQMom=    0.0000000   0.0000000   0.0000000   0.0000000   0.0000000   0.0000000   0.0000000   0.0000000   0.0000000   0.0000000
 NMagM=    2.7928460   2.7928460   2.7928460   2.7928460   2.7928460   2.7928460   2.7928460   2.7928460   2.7928460   2.7928460
 AtZNuc=   1.0000000   1.0000000   1.0000000   1.0000000   1.0000000   1.0000000   1.0000000   1.0000000   1.0000000   1.0000000

  Atom        61          62          63          64          65          66          67          68          69          70
 IAtWgt=           1           1           1           1           1           1           1           1           1           1
 AtmWgt=   1.0078250   1.0078250   1.0078250   1.0078250   1.0078250   1.0078250   1.0078250   1.0078250   1.0078250   1.0078250
 NucSpn=           1           1           1           1           1           1           1           1           1           1
 AtZEff=  -0.0000000  -0.0000000  -0.0000000  -0.0000000  -0.0000000  -0.0000000  -0.0000000  -0.0000000  -0.0000000  -0.0000000
 NQMom=    0.0000000   0.0000000   0.0000000   0.0000000   0.0000000   0.0000000   0.0000000   0.0000000   0.0000000   0.0000000
 NMagM=    2.7928460   2.7928460   2.7928460   2.7928460   2.7928460   2.7928460   2.7928460   2.7928460   2.7928460   2.7928460
 AtZNuc=   1.0000000   1.0000000   1.0000000   1.0000000   1.0000000   1.0000000   1.0000000   1.0000000   1.0000000   1.0000000
 Leave Link  101 at Thu Jan 23 11:50:20 2025, MaxMem= 13421772800 cpu:               6.4 elap:               0.2
 (Enter /public/software/apps/Gaussian/g16/l103.exe)

 GradGradGradGradGradGradGradGradGradGradGradGradGradGradGradGradGradGrad
 Berny optimization.
 Initialization pass.
                           ----------------------------
                           !    Initial Parameters    !
                           ! (Angstroms and Degrees)  !
 --------------------------                            --------------------------
 ! Name  Definition              Value          Derivative Info.                !
 --------------------------------------------------------------------------------
 ! R1    R(1,2)                  1.3606         estimate D2E/DX2                !
 ! R2    R(1,41)                 0.9684         estimate D2E/DX2                !
 ! R3    R(2,3)                  1.4202         estimate D2E/DX2                !
 ! R4    R(2,20)                 1.3807         estimate D2E/DX2                !
 ! R5    R(3,4)                  1.4721         estimate D2E/DX2                !
 ! R6    R(3,13)                 1.3727         estimate D2E/DX2                !
 ! R7    R(4,5)                  1.3927         estimate D2E/DX2                !
 ! R8    R(4,12)                 1.389          estimate D2E/DX2                !
 ! R9    R(5,6)                  1.3817         estimate D2E/DX2                !
 ! R10   R(5,42)                 1.0803         estimate D2E/DX2                !
 ! R11   R(6,7)                  1.383          estimate D2E/DX2                !
 ! R12   R(6,43)                 1.0805         estimate D2E/DX2                !
 ! R13   R(7,8)                  1.3918         estimate D2E/DX2                !
 ! R14   R(7,44)                 1.0809         estimate D2E/DX2                !
 ! R15   R(8,9)                  1.4785         estimate D2E/DX2                !
 ! R16   R(8,12)                 1.3897         estimate D2E/DX2                !
 ! R17   R(9,10)                 1.5071         estimate D2E/DX2                !
 ! R18   R(9,11)                 1.5064         estimate D2E/DX2                !
 ! R19   R(9,45)                 1.084          estimate D2E/DX2                !
 ! R20   R(10,11)                1.4918         estimate D2E/DX2                !
 ! R21   R(10,46)                1.0792         estimate D2E/DX2                !
 ! R22   R(10,47)                1.0796         estimate D2E/DX2                !
 ! R23   R(11,48)                1.0791         estimate D2E/DX2                !
 ! R24   R(11,49)                1.0797         estimate D2E/DX2                !
 ! R25   R(12,50)                1.0783         estimate D2E/DX2                !
 ! R26   R(13,14)                1.4078         estimate D2E/DX2                !
 ! R27   R(13,51)                1.0803         estimate D2E/DX2                !
 ! R28   R(14,15)                1.4098         estimate D2E/DX2                !
 ! R29   R(14,19)                1.4184         estimate D2E/DX2                !
 ! R30   R(15,16)                1.3669         estimate D2E/DX2                !
 ! R31   R(15,52)                1.0806         estimate D2E/DX2                !
 ! R32   R(16,17)                1.403          estimate D2E/DX2                !
 ! R33   R(16,53)                1.08           estimate D2E/DX2                !
 ! R34   R(17,18)                1.3671         estimate D2E/DX2                !
 ! R35   R(17,54)                1.08           estimate D2E/DX2                !
 ! R36   R(18,19)                1.4104         estimate D2E/DX2                !
 ! R37   R(18,55)                1.0806         estimate D2E/DX2                !
 ! R38   R(19,20)                1.4174         estimate D2E/DX2                !
 ! R39   R(20,21)                1.4903         estimate D2E/DX2                !
 ! R40   R(21,22)                1.3809         estimate D2E/DX2                !
 ! R41   R(21,40)                1.4176         estimate D2E/DX2                !
 ! R42   R(22,23)                1.3603         estimate D2E/DX2                !
 ! R43   R(22,24)                1.4201         estimate D2E/DX2                !
 ! R44   R(23,56)                0.9682         estimate D2E/DX2                !
 ! R45   R(24,25)                1.4722         estimate D2E/DX2                !
 ! R46   R(24,34)                1.3723         estimate D2E/DX2                !
 ! R47   R(25,26)                1.3922         estimate D2E/DX2                !
 ! R48   R(25,33)                1.3889         estimate D2E/DX2                !
 ! R49   R(26,27)                1.3818         estimate D2E/DX2                !
 ! R50   R(26,57)                1.0802         estimate D2E/DX2                !
 ! R51   R(27,28)                1.383          estimate D2E/DX2                !
 ! R52   R(27,58)                1.0805         estimate D2E/DX2                !
 ! R53   R(28,29)                1.3918         estimate D2E/DX2                !
 ! R54   R(28,59)                1.0809         estimate D2E/DX2                !
 ! R55   R(29,30)                1.4785         estimate D2E/DX2                !
 ! R56   R(29,33)                1.3897         estimate D2E/DX2                !
 ! R57   R(30,31)                1.5067         estimate D2E/DX2                !
 ! R58   R(30,32)                1.5068         estimate D2E/DX2                !
 ! R59   R(30,60)                1.084          estimate D2E/DX2                !
 ! R60   R(31,32)                1.4918         estimate D2E/DX2                !
 ! R61   R(31,61)                1.0797         estimate D2E/DX2                !
 ! R62   R(31,62)                1.0792         estimate D2E/DX2                !
 ! R63   R(32,63)                1.0791         estimate D2E/DX2                !
 ! R64   R(32,64)                1.0796         estimate D2E/DX2                !
 ! R65   R(33,65)                1.0785         estimate D2E/DX2                !
 ! R66   R(34,35)                1.408          estimate D2E/DX2                !
 ! R67   R(34,66)                1.0804         estimate D2E/DX2                !
 ! R68   R(35,36)                1.4098         estimate D2E/DX2                !
 ! R69   R(35,40)                1.4184         estimate D2E/DX2                !
 ! R70   R(36,37)                1.3669         estimate D2E/DX2                !
 ! R71   R(36,67)                1.0806         estimate D2E/DX2                !
 ! R72   R(37,38)                1.403          estimate D2E/DX2                !
 ! R73   R(37,68)                1.08           estimate D2E/DX2                !
 ! R74   R(38,39)                1.3671         estimate D2E/DX2                !
 ! R75   R(38,69)                1.0801         estimate D2E/DX2                !
 ! R76   R(39,40)                1.4103         estimate D2E/DX2                !
 ! R77   R(39,70)                1.0807         estimate D2E/DX2                !
 ! A1    A(2,1,41)             108.9207         estimate D2E/DX2                !
 ! A2    A(1,2,3)              118.3797         estimate D2E/DX2                !
 ! A3    A(1,2,20)             120.9188         estimate D2E/DX2                !
 ! A4    A(3,2,20)             120.6834         estimate D2E/DX2                !
 ! A5    A(2,3,4)              120.7964         estimate D2E/DX2                !
 ! A6    A(2,3,13)             118.6476         estimate D2E/DX2                !
 ! A7    A(4,3,13)             120.552          estimate D2E/DX2                !
 ! A8    A(3,4,5)              119.8274         estimate D2E/DX2                !
 ! A9    A(3,4,12)             120.9178         estimate D2E/DX2                !
 ! A10   A(5,4,12)             119.2506         estimate D2E/DX2                !
 ! A11   A(4,5,6)              119.9971         estimate D2E/DX2                !
 ! A12   A(4,5,42)             119.7799         estimate D2E/DX2                !
 ! A13   A(6,5,42)             120.2116         estimate D2E/DX2                !
 ! A14   A(5,6,7)              120.3057         estimate D2E/DX2                !
 ! A15   A(5,6,43)             119.8604         estimate D2E/DX2                !
 ! A16   A(7,6,43)             119.8334         estimate D2E/DX2                !
 ! A17   A(6,7,8)              120.6329         estimate D2E/DX2                !
 ! A18   A(6,7,44)             119.7967         estimate D2E/DX2                !
 ! A19   A(8,7,44)             119.57           estimate D2E/DX2                !
 ! A20   A(7,8,9)              119.5709         estimate D2E/DX2                !
 ! A21   A(7,8,12)             118.6179         estimate D2E/DX2                !
 ! A22   A(9,8,12)             121.8091         estimate D2E/DX2                !
 ! A23   A(8,9,10)             120.5786         estimate D2E/DX2                !
 ! A24   A(8,9,11)             121.3008         estimate D2E/DX2                !
 ! A25   A(8,9,45)             113.2861         estimate D2E/DX2                !
 ! A26   A(10,9,45)            116.1518         estimate D2E/DX2                !
 ! A27   A(11,9,45)            116.0685         estimate D2E/DX2                !
 ! A28   A(9,10,46)            117.5392         estimate D2E/DX2                !
 ! A29   A(9,10,47)            118.0007         estimate D2E/DX2                !
 ! A30   A(11,10,46)           118.5446         estimate D2E/DX2                !
 ! A31   A(11,10,47)           118.6175         estimate D2E/DX2                !
 ! A32   A(46,10,47)           113.7883         estimate D2E/DX2                !
 ! A33   A(9,11,48)            117.9637         estimate D2E/DX2                !
 ! A34   A(9,11,49)            117.8318         estimate D2E/DX2                !
 ! A35   A(10,11,48)           118.6203         estimate D2E/DX2                !
 ! A36   A(10,11,49)           118.5686         estimate D2E/DX2                !
 ! A37   A(48,11,49)           113.6034         estimate D2E/DX2                !
 ! A38   A(4,12,8)             121.1951         estimate D2E/DX2                !
 ! A39   A(4,12,50)            118.7646         estimate D2E/DX2                !
 ! A40   A(8,12,50)            120.0394         estimate D2E/DX2                !
 ! A41   A(3,13,14)            122.252          estimate D2E/DX2                !
 ! A42   A(3,13,51)            119.2055         estimate D2E/DX2                !
 ! A43   A(14,13,51)           118.5307         estimate D2E/DX2                !
 ! A44   A(13,14,15)           122.1056         estimate D2E/DX2                !
 ! A45   A(13,14,19)           118.949          estimate D2E/DX2                !
 ! A46   A(15,14,19)           118.9454         estimate D2E/DX2                !
 ! A47   A(14,15,16)           120.7567         estimate D2E/DX2                !
 ! A48   A(14,15,52)           118.5462         estimate D2E/DX2                !
 ! A49   A(16,15,52)           120.6969         estimate D2E/DX2                !
 ! A50   A(15,16,17)           120.2225         estimate D2E/DX2                !
 ! A51   A(15,16,53)           120.3573         estimate D2E/DX2                !
 ! A52   A(17,16,53)           119.42           estimate D2E/DX2                !
 ! A53   A(16,17,18)           120.5036         estimate D2E/DX2                !
 ! A54   A(16,17,54)           119.4241         estimate D2E/DX2                !
 ! A55   A(18,17,54)           120.0722         estimate D2E/DX2                !
 ! A56   A(17,18,19)           120.5511         estimate D2E/DX2                !
 ! A57   A(17,18,55)           120.4901         estimate D2E/DX2                !
 ! A58   A(19,18,55)           118.9578         estimate D2E/DX2                !
 ! A59   A(14,19,18)           119.0201         estimate D2E/DX2                !
 ! A60   A(14,19,20)           118.81           estimate D2E/DX2                !
 ! A61   A(18,19,20)           122.1693         estimate D2E/DX2                !
 ! A62   A(2,20,19)            120.6507         estimate D2E/DX2                !
 ! A63   A(2,20,21)            118.9599         estimate D2E/DX2                !
 ! A64   A(19,20,21)           120.3878         estimate D2E/DX2                !
 ! A65   A(20,21,22)           119.1024         estimate D2E/DX2                !
 ! A66   A(20,21,40)           120.2821         estimate D2E/DX2                !
 ! A67   A(22,21,40)           120.6149         estimate D2E/DX2                !
 ! A68   A(21,22,23)           121.094          estimate D2E/DX2                !
 ! A69   A(21,22,24)           120.643          estimate D2E/DX2                !
 ! A70   A(23,22,24)           118.2588         estimate D2E/DX2                !
 ! A71   A(22,23,56)           109.0561         estimate D2E/DX2                !
 ! A72   A(22,24,25)           120.7225         estimate D2E/DX2                !
 ! A73   A(22,24,34)           118.7429         estimate D2E/DX2                !
 ! A74   A(25,24,34)           120.5338         estimate D2E/DX2                !
 ! A75   A(24,25,26)           119.9329         estimate D2E/DX2                !
 ! A76   A(24,25,33)           120.7383         estimate D2E/DX2                !
 ! A77   A(26,25,33)           119.3176         estimate D2E/DX2                !
 ! A78   A(25,26,27)           119.9529         estimate D2E/DX2                !
 ! A79   A(25,26,57)           119.7435         estimate D2E/DX2                !
 ! A80   A(27,26,57)           120.2928         estimate D2E/DX2                !
 ! A81   A(26,27,28)           120.3041         estimate D2E/DX2                !
 ! A82   A(26,27,58)           119.8691         estimate D2E/DX2                !
 ! A83   A(28,27,58)           119.8268         estimate D2E/DX2                !
 ! A84   A(27,28,29)           120.6632         estimate D2E/DX2                !
 ! A85   A(27,28,59)           119.7894         estimate D2E/DX2                !
 ! A86   A(29,28,59)           119.5472         estimate D2E/DX2                !
 ! A87   A(28,29,30)           119.5672         estimate D2E/DX2                !
 ! A88   A(28,29,33)           118.5881         estimate D2E/DX2                !
 ! A89   A(30,29,33)           121.8445         estimate D2E/DX2                !
 ! A90   A(29,30,31)           121.1464         estimate D2E/DX2                !
 ! A91   A(29,30,32)           120.8042         estimate D2E/DX2                !
 ! A92   A(29,30,60)           113.2663         estimate D2E/DX2                !
 ! A93   A(31,30,60)           116.0435         estimate D2E/DX2                !
 ! A94   A(32,30,60)           116.1419         estimate D2E/DX2                !
 ! A95   A(30,31,61)           117.8689         estimate D2E/DX2                !
 ! A96   A(30,31,62)           117.9266         estimate D2E/DX2                !
 ! A97   A(32,31,61)           118.5962         estimate D2E/DX2                !
 ! A98   A(32,31,62)           118.6102         estimate D2E/DX2                !
 ! A99   A(61,31,62)           113.6            estimate D2E/DX2                !
 ! A100  A(30,32,63)           117.6241         estimate D2E/DX2                !
 ! A101  A(30,32,64)           117.9536         estimate D2E/DX2                !
 ! A102  A(31,32,63)           118.5826         estimate D2E/DX2                !
 ! A103  A(31,32,64)           118.5807         estimate D2E/DX2                !
 ! A104  A(63,32,64)           113.757          estimate D2E/DX2                !
 ! A105  A(25,33,29)           121.1736         estimate D2E/DX2                !
 ! A106  A(25,33,65)           118.7785         estimate D2E/DX2                !
 ! A107  A(29,33,65)           120.0461         estimate D2E/DX2                !
 ! A108  A(24,34,35)           122.1988         estimate D2E/DX2                !
 ! A109  A(24,34,66)           119.195          estimate D2E/DX2                !
 ! A110  A(35,34,66)           118.5998         estimate D2E/DX2                !
 ! A111  A(34,35,36)           122.0939         estimate D2E/DX2                !
 ! A112  A(34,35,40)           118.9384         estimate D2E/DX2                !
 ! A113  A(36,35,40)           118.9677         estimate D2E/DX2                !
 ! A114  A(35,36,37)           120.7609         estimate D2E/DX2                !
 ! A115  A(35,36,67)           118.5394         estimate D2E/DX2                !
 ! A116  A(37,36,67)           120.6996         estimate D2E/DX2                !
 ! A117  A(36,37,38)           120.2078         estimate D2E/DX2                !
 ! A118  A(36,37,68)           120.3658         estimate D2E/DX2                !
 ! A119  A(38,37,68)           119.4262         estimate D2E/DX2                !
 ! A120  A(37,38,39)           120.5007         estimate D2E/DX2                !
 ! A121  A(37,38,69)           119.4091         estimate D2E/DX2                !
 ! A122  A(39,38,69)           120.0901         estimate D2E/DX2                !
 ! A123  A(38,39,40)           120.5767         estimate D2E/DX2                !
 ! A124  A(38,39,70)           120.4904         estimate D2E/DX2                !
 ! A125  A(40,39,70)           118.9315         estimate D2E/DX2                !
 ! A126  A(21,40,35)           118.8597         estimate D2E/DX2                !
 ! A127  A(21,40,39)           122.1532         estimate D2E/DX2                !
 ! A128  A(35,40,39)           118.9852         estimate D2E/DX2                !
 ! D1    D(41,1,2,3)          -179.3583         estimate D2E/DX2                !
 ! D2    D(41,1,2,20)           -0.8977         estimate D2E/DX2                !
 ! D3    D(1,2,3,4)             -0.4996         estimate D2E/DX2                !
 ! D4    D(1,2,3,13)           178.7791         estimate D2E/DX2                !
 ! D5    D(20,2,3,4)          -178.9639         estimate D2E/DX2                !
 ! D6    D(20,2,3,13)            0.3147         estimate D2E/DX2                !
 ! D7    D(1,2,20,19)         -179.3193         estimate D2E/DX2                !
 ! D8    D(1,2,20,21)            0.2242         estimate D2E/DX2                !
 ! D9    D(3,2,20,19)           -0.8942         estimate D2E/DX2                !
 ! D10   D(3,2,20,21)          178.6493         estimate D2E/DX2                !
 ! D11   D(2,3,4,5)            134.4481         estimate D2E/DX2                !
 ! D12   D(2,3,4,12)           -46.3034         estimate D2E/DX2                !
 ! D13   D(13,3,4,5)           -44.8168         estimate D2E/DX2                !
 ! D14   D(13,3,4,12)          134.4317         estimate D2E/DX2                !
 ! D15   D(2,3,13,14)            0.4473         estimate D2E/DX2                !
 ! D16   D(2,3,13,51)          179.1829         estimate D2E/DX2                !
 ! D17   D(4,3,13,14)          179.7278         estimate D2E/DX2                !
 ! D18   D(4,3,13,51)           -1.5366         estimate D2E/DX2                !
 ! D19   D(3,4,5,6)            179.4507         estimate D2E/DX2                !
 ! D20   D(3,4,5,42)            -1.7753         estimate D2E/DX2                !
 ! D21   D(12,4,5,6)             0.1897         estimate D2E/DX2                !
 ! D22   D(12,4,5,42)          178.9637         estimate D2E/DX2                !
 ! D23   D(3,4,12,8)          -179.5797         estimate D2E/DX2                !
 ! D24   D(3,4,12,50)            0.0829         estimate D2E/DX2                !
 ! D25   D(5,4,12,8)            -0.327          estimate D2E/DX2                !
 ! D26   D(5,4,12,50)          179.3356         estimate D2E/DX2                !
 ! D27   D(4,5,6,7)             -0.0287         estimate D2E/DX2                !
 ! D28   D(4,5,6,43)           179.6996         estimate D2E/DX2                !
 ! D29   D(42,5,6,7)          -178.7973         estimate D2E/DX2                !
 ! D30   D(42,5,6,43)            0.931          estimate D2E/DX2                !
 ! D31   D(5,6,7,8)             -0.0012         estimate D2E/DX2                !
 ! D32   D(5,6,7,44)           179.7749         estimate D2E/DX2                !
 ! D33   D(43,6,7,8)          -179.7296         estimate D2E/DX2                !
 ! D34   D(43,6,7,44)            0.0465         estimate D2E/DX2                !
 ! D35   D(6,7,8,9)            179.3529         estimate D2E/DX2                !
 ! D36   D(6,7,8,12)            -0.1297         estimate D2E/DX2                !
 ! D37   D(44,7,8,9)            -0.4237         estimate D2E/DX2                !
 ! D38   D(44,7,8,12)         -179.9063         estimate D2E/DX2                !
 ! D39   D(7,8,9,10)          -142.8702         estimate D2E/DX2                !
 ! D40   D(7,8,9,11)           146.6322         estimate D2E/DX2                !
 ! D41   D(7,8,9,45)             1.3878         estimate D2E/DX2                !
 ! D42   D(12,8,9,10)           36.5954         estimate D2E/DX2                !
 ! D43   D(12,8,9,11)          -33.9022         estimate D2E/DX2                !
 ! D44   D(12,8,9,45)         -179.1467         estimate D2E/DX2                !
 ! D45   D(7,8,12,4)             0.2958         estimate D2E/DX2                !
 ! D46   D(7,8,12,50)         -179.3626         estimate D2E/DX2                !
 ! D47   D(9,8,12,4)          -179.1747         estimate D2E/DX2                !
 ! D48   D(9,8,12,50)            1.1669         estimate D2E/DX2                !
 ! D49   D(8,9,10,46)           -1.7191         estimate D2E/DX2                !
 ! D50   D(8,9,10,47)          140.6982         estimate D2E/DX2                !
 ! D51   D(45,9,10,46)        -145.0104         estimate D2E/DX2                !
 ! D52   D(45,9,10,47)          -2.5932         estimate D2E/DX2                !
 ! D53   D(8,9,11,48)            0.599          estimate D2E/DX2                !
 ! D54   D(8,9,11,49)         -141.8604         estimate D2E/DX2                !
 ! D55   D(45,9,11,48)         144.9412         estimate D2E/DX2                !
 ! D56   D(45,9,11,49)           2.4818         estimate D2E/DX2                !
 ! D57   D(46,10,11,48)          0.5021         estimate D2E/DX2                !
 ! D58   D(46,10,11,49)        145.2379         estimate D2E/DX2                !
 ! D59   D(47,10,11,48)       -144.5695         estimate D2E/DX2                !
 ! D60   D(47,10,11,49)          0.1664         estimate D2E/DX2                !
 ! D61   D(3,13,14,15)         179.3411         estimate D2E/DX2                !
 ! D62   D(3,13,14,19)          -0.6151         estimate D2E/DX2                !
 ! D63   D(51,13,14,15)          0.5974         estimate D2E/DX2                !
 ! D64   D(51,13,14,19)       -179.3589         estimate D2E/DX2                !
 ! D65   D(13,14,15,16)       -179.8998         estimate D2E/DX2                !
 ! D66   D(13,14,15,52)          0.0145         estimate D2E/DX2                !
 ! D67   D(19,14,15,16)          0.0564         estimate D2E/DX2                !
 ! D68   D(19,14,15,52)        179.9707         estimate D2E/DX2                !
 ! D69   D(13,14,19,18)        179.7542         estimate D2E/DX2                !
 ! D70   D(13,14,19,20)          0.031          estimate D2E/DX2                !
 ! D71   D(15,14,19,18)         -0.2034         estimate D2E/DX2                !
 ! D72   D(15,14,19,20)       -179.9267         estimate D2E/DX2                !
 ! D73   D(14,15,16,17)          0.1268         estimate D2E/DX2                !
 ! D74   D(14,15,16,53)        179.954          estimate D2E/DX2                !
 ! D75   D(52,15,16,17)       -179.7857         estimate D2E/DX2                !
 ! D76   D(52,15,16,53)          0.0415         estimate D2E/DX2                !
 ! D77   D(15,16,17,18)         -0.1626         estimate D2E/DX2                !
 ! D78   D(15,16,17,54)        179.7333         estimate D2E/DX2                !
 ! D79   D(53,16,17,18)       -179.9914         estimate D2E/DX2                !
 ! D80   D(53,16,17,54)         -0.0955         estimate D2E/DX2                !
 ! D81   D(16,17,18,19)          0.0109         estimate D2E/DX2                !
 ! D82   D(16,17,18,55)        179.6606         estimate D2E/DX2                !
 ! D83   D(54,17,18,19)       -179.8843         estimate D2E/DX2                !
 ! D84   D(54,17,18,55)         -0.2345         estimate D2E/DX2                !
 ! D85   D(17,18,19,14)          0.1712         estimate D2E/DX2                !
 ! D86   D(17,18,19,20)        179.8847         estimate D2E/DX2                !
 ! D87   D(55,18,19,14)       -179.4839         estimate D2E/DX2                !
 ! D88   D(55,18,19,20)          0.2296         estimate D2E/DX2                !
 ! D89   D(14,19,20,2)           0.7111         estimate D2E/DX2                !
 ! D90   D(14,19,20,21)       -178.8258         estimate D2E/DX2                !
 ! D91   D(18,19,20,2)        -179.003          estimate D2E/DX2                !
 ! D92   D(18,19,20,21)          1.4601         estimate D2E/DX2                !
 ! D93   D(2,20,21,22)         -95.0862         estimate D2E/DX2                !
 ! D94   D(2,20,21,40)          84.6225         estimate D2E/DX2                !
 ! D95   D(19,20,21,22)         84.4585         estimate D2E/DX2                !
 ! D96   D(19,20,21,40)        -95.8328         estimate D2E/DX2                !
 ! D97   D(20,21,22,23)         -1.3491         estimate D2E/DX2                !
 ! D98   D(20,21,22,24)        179.4089         estimate D2E/DX2                !
 ! D99   D(40,21,22,23)        178.9431         estimate D2E/DX2                !
 ! D100  D(40,21,22,24)         -0.2988         estimate D2E/DX2                !
 ! D101  D(20,21,40,35)       -179.7692         estimate D2E/DX2                !
 ! D102  D(20,21,40,39)          0.7325         estimate D2E/DX2                !
 ! D103  D(22,21,40,35)         -0.0649         estimate D2E/DX2                !
 ! D104  D(22,21,40,39)       -179.5632         estimate D2E/DX2                !
 ! D105  D(21,22,23,56)         -5.0464         estimate D2E/DX2                !
 ! D106  D(24,22,23,56)        174.2131         estimate D2E/DX2                !
 ! D107  D(21,22,24,25)       -179.7464         estimate D2E/DX2                !
 ! D108  D(21,22,24,34)          0.5696         estimate D2E/DX2                !
 ! D109  D(23,22,24,25)          0.9906         estimate D2E/DX2                !
 ! D110  D(23,22,24,34)       -178.6934         estimate D2E/DX2                !
 ! D111  D(22,24,25,26)       -133.3237         estimate D2E/DX2                !
 ! D112  D(22,24,25,33)         47.9018         estimate D2E/DX2                !
 ! D113  D(34,24,25,26)         46.3547         estimate D2E/DX2                !
 ! D114  D(34,24,25,33)       -132.4199         estimate D2E/DX2                !
 ! D115  D(22,24,34,35)         -0.4837         estimate D2E/DX2                !
 ! D116  D(22,24,34,66)       -179.5471         estimate D2E/DX2                !
 ! D117  D(25,24,34,35)        179.8317         estimate D2E/DX2                !
 ! D118  D(25,24,34,66)          0.7684         estimate D2E/DX2                !
 ! D119  D(24,25,26,27)       -179.0564         estimate D2E/DX2                !
 ! D120  D(24,25,26,57)          2.1359         estimate D2E/DX2                !
 ! D121  D(33,25,26,27)         -0.2644         estimate D2E/DX2                !
 ! D122  D(33,25,26,57)       -179.0721         estimate D2E/DX2                !
 ! D123  D(24,25,33,29)        178.8946         estimate D2E/DX2                !
 ! D124  D(24,25,33,65)         -0.62           estimate D2E/DX2                !
 ! D125  D(26,25,33,29)          0.1126         estimate D2E/DX2                !
 ! D126  D(26,25,33,65)       -179.402          estimate D2E/DX2                !
 ! D127  D(25,26,27,28)          0.2775         estimate D2E/DX2                !
 ! D128  D(25,26,27,58)       -179.6086         estimate D2E/DX2                !
 ! D129  D(57,26,27,28)        179.0786         estimate D2E/DX2                !
 ! D130  D(57,26,27,58)         -0.8075         estimate D2E/DX2                !
 ! D131  D(26,27,28,29)         -0.1361         estimate D2E/DX2                !
 ! D132  D(26,27,28,59)        179.9989         estimate D2E/DX2                !
 ! D133  D(58,27,28,29)        179.75           estimate D2E/DX2                !
 ! D134  D(58,27,28,59)         -0.115          estimate D2E/DX2                !
 ! D135  D(27,28,29,30)       -179.893          estimate D2E/DX2                !
 ! D136  D(27,28,29,33)         -0.0167         estimate D2E/DX2                !
 ! D137  D(59,28,29,30)         -0.0276         estimate D2E/DX2                !
 ! D138  D(59,28,29,33)        179.8487         estimate D2E/DX2                !
 ! D139  D(28,29,30,31)       -145.2726         estimate D2E/DX2                !
 ! D140  D(28,29,30,32)        144.1991         estimate D2E/DX2                !
 ! D141  D(28,29,30,60)         -0.3612         estimate D2E/DX2                !
 ! D142  D(33,29,30,31)         34.8553         estimate D2E/DX2                !
 ! D143  D(33,29,30,32)        -35.6731         estimate D2E/DX2                !
 ! D144  D(33,29,30,60)        179.7666         estimate D2E/DX2                !
 ! D145  D(28,29,33,25)          0.0274         estimate D2E/DX2                !
 ! D146  D(28,29,33,65)        179.5359         estimate D2E/DX2                !
 ! D147  D(30,29,33,25)        179.9007         estimate D2E/DX2                !
 ! D148  D(30,29,33,65)         -0.5908         estimate D2E/DX2                !
 ! D149  D(29,30,31,61)        141.5071         estimate D2E/DX2                !
 ! D150  D(29,30,31,62)         -0.9455         estimate D2E/DX2                !
 ! D151  D(60,30,31,61)         -2.4933         estimate D2E/DX2                !
 ! D152  D(60,30,31,62)       -144.9459         estimate D2E/DX2                !
 ! D153  D(29,30,32,63)          1.4171         estimate D2E/DX2                !
 ! D154  D(29,30,32,64)       -140.9989         estimate D2E/DX2                !
 ! D155  D(60,30,32,63)        145.019          estimate D2E/DX2                !
 ! D156  D(60,30,32,64)          2.603          estimate D2E/DX2                !
 ! D157  D(61,31,32,63)       -145.1166         estimate D2E/DX2                !
 ! D158  D(61,31,32,64)         -0.1077         estimate D2E/DX2                !
 ! D159  D(62,31,32,63)         -0.3577         estimate D2E/DX2                !
 ! D160  D(62,31,32,64)        144.6512         estimate D2E/DX2                !
 ! D161  D(24,34,35,36)       -179.8726         estimate D2E/DX2                !
 ! D162  D(24,34,35,40)          0.1263         estimate D2E/DX2                !
 ! D163  D(66,34,35,36)         -0.8038         estimate D2E/DX2                !
 ! D164  D(66,34,35,40)        179.195          estimate D2E/DX2                !
 ! D165  D(34,35,36,37)       -179.8588         estimate D2E/DX2                !
 ! D166  D(34,35,36,67)          0.0364         estimate D2E/DX2                !
 ! D167  D(40,35,36,37)          0.1423         estimate D2E/DX2                !
 ! D168  D(40,35,36,67)       -179.9624         estimate D2E/DX2                !
 ! D169  D(34,35,40,21)          0.1546         estimate D2E/DX2                !
 ! D170  D(34,35,40,39)        179.6691         estimate D2E/DX2                !
 ! D171  D(36,35,40,21)       -179.8465         estimate D2E/DX2                !
 ! D172  D(36,35,40,39)         -0.3321         estimate D2E/DX2                !
 ! D173  D(35,36,37,38)          0.1142         estimate D2E/DX2                !
 ! D174  D(35,36,37,68)        179.9431         estimate D2E/DX2                !
 ! D175  D(67,36,37,38)       -179.7788         estimate D2E/DX2                !
 ! D176  D(67,36,37,68)          0.0501         estimate D2E/DX2                !
 ! D177  D(36,37,38,39)         -0.1798         estimate D2E/DX2                !
 ! D178  D(36,37,38,69)        179.6952         estimate D2E/DX2                !
 ! D179  D(68,37,38,39)        179.9897         estimate D2E/DX2                !
 ! D180  D(68,37,38,69)         -0.1353         estimate D2E/DX2                !
 ! D181  D(37,38,39,40)         -0.0175         estimate D2E/DX2                !
 ! D182  D(37,38,39,70)        179.5458         estimate D2E/DX2                !
 ! D183  D(69,38,39,40)       -179.8916         estimate D2E/DX2                !
 ! D184  D(69,38,39,70)         -0.3284         estimate D2E/DX2                !
 ! D185  D(38,39,40,21)        179.7703         estimate D2E/DX2                !
 ! D186  D(38,39,40,35)          0.2726         estimate D2E/DX2                !
 ! D187  D(70,39,40,21)          0.2003         estimate D2E/DX2                !
 ! D188  D(70,39,40,35)       -179.2974         estimate D2E/DX2                !
 --------------------------------------------------------------------------------
 Trust Radius=3.00D-01 FncErr=1.00D-07 GrdErr=1.00D-06 EigMax=2.50D+02 EigMin=1.00D-04
 Number of steps in this run=    403 maximum allowed number of steps=    420.
 GradGradGradGradGradGradGradGradGradGradGradGradGradGradGradGradGradGrad

 Leave Link  103 at Thu Jan 23 11:50:20 2025, MaxMem= 13421772800 cpu:               0.8 elap:               0.0
 (Enter /public/software/apps/Gaussian/g16/l202.exe)
 Symmetry turned off by external request.
 Stoichiometry    C38H30O2
 Framework group  C1[X(C38H30O2)]
 Deg. of freedom   204
 Full point group                 C1      NOp   1
                          Input orientation:                          
 ---------------------------------------------------------------------
 Center     Atomic      Atomic             Coordinates (Angstroms)
 Number     Number       Type             X           Y           Z
 ---------------------------------------------------------------------
      1          8           0       -1.348313    1.103426   -0.214002
      2          6           0       -1.553647   -0.240014   -0.148366
      3          6           0       -2.699832   -0.779859   -0.790097
      4          6           0       -3.648360    0.094379   -1.499401
      5          6           0       -4.111328   -0.266227   -2.762418
      6          6           0       -5.010398    0.546050   -3.426486
      7          6           0       -5.455164    1.718223   -2.842609
      8          6           0       -5.005762    2.097048   -1.581053
      9          6           0       -5.485599    3.362216   -0.985062
     10          6           0       -4.560222    4.221853   -0.162859
     11          6           0       -5.684576    3.500997    0.501669
     12          6           0       -4.103743    1.271871   -0.920293
     13          6           0       -2.898872   -2.137427   -0.749000
     14          6           0       -2.012070   -3.007039   -0.086146
     15          6           0       -2.226727   -4.399486   -0.034284
     16          6           0       -1.348547   -5.218280    0.618944
     17          6           0       -0.217910   -4.679864    1.251603
     18          6           0        0.020189   -3.334079    1.219640
     19          6           0       -0.866451   -2.464860    0.550678
     20          6           0       -0.654285   -1.064413    0.498095
     21          6           0        0.551214   -0.460242    1.132631
     22          6           0        1.736148   -0.424219    0.424522
     23          8           0        1.823998   -0.953802   -0.825376
     24          6           0        2.901600    0.155051    0.992747
     25          6           0        4.164390    0.199372    0.237238
     26          6           0        5.354605   -0.182166    0.850517
     27          6           0        6.542901   -0.122181    0.147862
     28          6           0        6.557411    0.321069   -1.162097
     29          6           0        5.379304    0.709957   -1.792944
     30          6           0        5.422484    1.177675   -3.194879
     31          6           0        4.498927    2.263535   -3.682961
     32          6           0        4.300274    0.860459   -4.149079
     33          6           0        4.189132    0.642911   -1.078708
     34          6           0        2.831168    0.667863    2.263672
     35          6           0        1.641368    0.647090    3.016201
     36          6           0        1.570834    1.176939    4.320739
     37          6           0        0.401834    1.139798    5.028121
     38          6           0       -0.747858    0.568560    4.462183
     39          6           0       -0.713673    0.047152    3.198886
     40          6           0        0.476866    0.074839    2.443298
     41          1           0       -0.529893    1.319371    0.256568
     42          1           0       -3.750037   -1.171628   -3.227986
     43          1           0       -5.364422    0.266587   -4.408377
     44          1           0       -6.155755    2.349350   -3.371025
     45          1           0       -6.196004    3.888923   -1.611976
     46          1           0       -3.554162    3.864031   -0.006443
     47          1           0       -4.628539    5.293219   -0.277057
     48          1           0       -5.456552    2.649665    1.124362
     49          1           0       -6.533245    4.073112    0.845432
     50          1           0       -3.748498    1.538037    0.062400
     51          1           0       -3.774765   -2.556368   -1.222743
     52          1           0       -3.101813   -4.805580   -0.521219
     53          1           0       -1.519682   -6.284015    0.655281
     54          1           0        0.465180   -5.338183    1.767706
     55          1           0        0.888160   -2.918999    1.711629
     56          1           0        0.987468   -1.389667   -1.043518
     57          1           0        5.341305   -0.542431    1.868829
     58          1           0        7.464940   -0.424625    0.623124
     59          1           0        7.491684    0.364650   -1.703956
     60          1           0        6.421509    1.177830   -3.615643
     61          1           0        4.894985    2.988009   -4.378647
     62          1           0        3.792753    2.679755   -2.981022
     63          1           0        3.459711    0.303081   -3.765338
     64          1           0        4.557102    0.613541   -5.168180
     65          1           0        3.263496    0.945547   -1.542101
     66          1           0        3.711485    1.116901    2.700300
     67          1           0        2.462011    1.611810    4.750246
     68          1           0        0.355228    1.546768    6.027430
     69          1           0       -1.663417    0.541613    5.034528
     70          1           0       -1.597407   -0.399381    2.765889
 ---------------------------------------------------------------------
 Rotational constants (GHZ):           0.1082503           0.0573028           0.0531096
 Leave Link  202 at Thu Jan 23 11:50:20 2025, MaxMem= 13421772800 cpu:               0.2 elap:               0.0
 (Enter /public/software/apps/Gaussian/g16/l301.exe)
 Standard basis: def2SVPP (5D, 7F)
 Ernie: Thresh=  0.10000D-02 Tol=  0.10000D-05 Strict=F.
   620 basis functions,  1120 primitive gaussians,   660 cartesian basis functions
   137 alpha electrons      137 beta electrons
       nuclear repulsion energy      4193.3468692055 Hartrees.
 IExCor=  402 DFT=T Ex+Corr=B3LYP ExCW=0 ScaHFX=  0.200000
 ScaDFX=  0.800000  0.720000  1.000000  0.810000 ScalE2=  1.000000  1.000000
 IRadAn=      5 IRanWt=     -1 IRanGd=            0 ICorTp=0 IEmpDi=141
 NAtoms=   70 NActive=   70 NUniq=   70 SFac= 1.00D+00 NAtFMM=   60 NAOKFM=T Big=T
 Integral buffers will be    131072 words long.
 Raffenetti 2 integral format.
 Two-electron integral symmetry is turned off.
 R6Disp:  Grimme-D3(BJ) Dispersion energy=       -0.1783128863 Hartrees.
 Nuclear repulsion after empirical dispersion term =     4193.1685563192 Hartrees.
 Leave Link  301 at Thu Jan 23 11:50:20 2025, MaxMem= 13421772800 cpu:               1.4 elap:               0.1
 (Enter /public/software/apps/Gaussian/g16/l302.exe)
 NPDir=0 NMtPBC=     1 NCelOv=     1 NCel=       1 NClECP=     1 NCelD=      1
         NCelK=      1 NCelE2=     1 NClLst=     1 CellRange=     0.0.
 One-electron integrals computed using PRISM.
   1 Symmetry operations used in ECPInt.
 ECPInt:  NShTT=   45150 NPrTT=  180910 LenC2=   36845 LenP2D=   91249.
 LDataN:  DoStor=T MaxTD1= 4 Len=   56
 NBasis=   620 RedAO= T EigKep=  1.52D-04  NBF=   620
 NBsUse=   620 1.00D-06 EigRej= -1.00D+00 NBFU=   620
 Precomputing XC quadrature grid using
 IXCGrd= 4 IRadAn=           5 IRanWt=          -1 IRanGd=           0 AccXCQ= 0.00D+00.
 Generated NRdTot=       0 NPtTot=           0 NUsed=           0 NTot=          32
 NSgBfM=   647   646   647   647   647 MxSgAt=    70 MxSgA2=    70.
 Leave Link  302 at Thu Jan 23 11:50:21 2025, MaxMem= 13421772800 cpu:              25.3 elap:               0.8
 (Enter /public/software/apps/Gaussian/g16/l303.exe)
 DipDrv:  MaxL=1.
 Leave Link  303 at Thu Jan 23 11:50:21 2025, MaxMem= 13421772800 cpu:               2.3 elap:               0.1
 (Enter /public/software/apps/Gaussian/g16/l401.exe)
 ExpMin= 1.22D-01 ExpMax= 2.27D+03 ExpMxC= 3.41D+02 IAcc=3 IRadAn=         5 AccDes= 0.00D+00
 Harris functional with IExCor=  402 and IRadAn=       5 diagonalized for initial guess.
 HarFok:  IExCor=  402 AccDes= 0.00D+00 IRadAn=         5 IDoV= 1 UseB2=F ITyADJ=14
 ICtDFT=  3500011 ScaDFX=  1.000000  1.000000  1.000000  1.000000
 FoFCou: FMM=F IPFlag=           0 FMFlag=      100000 FMFlg1=        2001
         NFxFlg=           0 DoJE=T BraDBF=F KetDBF=T FulRan=T
         wScrn=  0.000000 ICntrl=       500 IOpCl=  0 I1Cent=   200000004 NGrid=           0
         NMat0=    1 NMatS0=      1 NMatT0=    0 NMatD0=    1 NMtDS0=    0 NMtDT0=    0
 Symmetry not used in FoFCou.
 Harris En= -1615.46872558425    
 JPrj=0 DoOrth=F DoCkMO=F.
 Leave Link  401 at Thu Jan 23 11:50:23 2025, MaxMem= 13421772800 cpu:              57.2 elap:               1.8
 (Enter /public/software/apps/Gaussian/g16/l502.exe)
 Two-electron integral symmetry not used.
 Closed shell SCF:
 Using DIIS extrapolation, IDIIS=  1040.
 NGot= 13421772800 LenX= 13420873234 LenY= 13420436974
 Requested convergence on RMS density matrix=1.00D-08 within 128 cycles.
 Requested convergence on MAX density matrix=1.00D-06.
 Requested convergence on             energy=1.00D-06.
 No special actions if energy rises.
 Fock matrices will be formed incrementally for  20 cycles.
 Integral accuracy reduced to 1.0D-05 until final iterations.

 Cycle   1  Pass 0  IDiag  1:
 FoFJK:  IHMeth= 1 ICntrl=       0 DoSepK=F KAlg= 0 I1Cent=           0 FoldK=F
 IRaf= 950000000 NMat=       1 IRICut=       1 DoRegI=T DoRafI=F ISym2E= 0 IDoP0=0 IntGTp=1.
 FoFCou: FMM=T IPFlag=           0 FMFlag=      100000 FMFlg1=        2001
         NFxFlg=           0 DoJE=F BraDBF=F KetDBF=F FulRan=T
         wScrn=  0.000000 ICntrl=         0 IOpCl=  0 I1Cent=           0 NGrid=           0
         NMat0=    1 NMatS0=      1 NMatT0=    0 NMatD0=    1 NMtDS0=    0 NMtDT0=    0
 Symmetry not used in FoFCou.
 FMM levels:  10  Number of levels for PrismC:   9
 E= -1614.65688272535    
 DIIS: error= 2.48D-02 at cycle   1 NSaved=   1.
 NSaved= 1 IEnMin= 1 EnMin= -1614.65688272535     IErMin= 1 ErrMin= 2.48D-02
 ErrMax= 2.48D-02  0.00D+00 EMaxC= 1.00D-01 BMatC= 7.00D-01 BMatP= 7.00D-01
 IDIUse=3 WtCom= 7.52D-01 WtEn= 2.48D-01
 Coeff-Com:  0.100D+01
 Coeff-En:   0.100D+01
 Coeff:      0.100D+01
 Gap=     0.187 Goal=   None    Shift=    0.000
 GapD=    0.187 DampG=1.000 DampE=0.500 DampFc=0.5000 IDamp=-1.
 Damping current iteration by 5.00D-01
 RMSDP=5.13D-03 MaxDP=2.30D-01              OVMax= 1.78D-01

 Cycle   2  Pass 0  IDiag  1:
 RMSU=  2.29D-03    CP:  9.33D-01
 E= -1615.03684226441     Delta-E=       -0.379959539063 Rises=F Damp=T
 DIIS: error= 3.95D-03 at cycle   2 NSaved=   2.
 NSaved= 2 IEnMin= 2 EnMin= -1615.03684226441     IErMin= 2 ErrMin= 3.95D-03
 ErrMax= 3.95D-03  0.00D+00 EMaxC= 1.00D-01 BMatC= 3.80D-02 BMatP= 7.00D-01
 IDIUse=3 WtCom= 9.60D-01 WtEn= 3.95D-02
 Coeff-Com:  0.311D-01 0.969D+00
 Coeff-En:   0.290D-01 0.971D+00
 Coeff:      0.310D-01 0.969D+00
 Gap=     0.197 Goal=   None    Shift=    0.000
 RMSDP=1.81D-03 MaxDP=1.11D-01 DE=-3.80D-01 OVMax= 1.54D-01

 Cycle   3  Pass 0  IDiag  1:
 RMSU=  1.63D-03    CP:  8.90D-01  1.09D+00
 E= -1615.42464176972     Delta-E=       -0.387799505304 Rises=F Damp=F
 DIIS: error= 5.16D-03 at cycle   3 NSaved=   3.
 NSaved= 3 IEnMin= 3 EnMin= -1615.42464176972     IErMin= 2 ErrMin= 3.95D-03
 ErrMax= 5.16D-03  0.00D+00 EMaxC= 1.00D-01 BMatC= 4.58D-02 BMatP= 3.80D-02
 IDIUse=3 WtCom= 1.22D-01 WtEn= 8.78D-01
 Coeff-Com: -0.286D-01 0.539D+00 0.490D+00
 Coeff-En:   0.000D+00 0.000D+00 0.100D+01
 Coeff:     -0.350D-02 0.659D-01 0.938D+00
 Gap=     0.190 Goal=   None    Shift=    0.000
 RMSDP=1.60D-03 MaxDP=6.84D-02 DE=-3.88D-01 OVMax= 1.52D-01

 Cycle   4  Pass 0  IDiag  1:
 RMSU=  1.18D-03    CP:  8.90D-01  1.31D+00  4.10D-01
 E= -1615.28567218079     Delta-E=        0.138969588925 Rises=F Damp=F
 DIIS: error= 1.13D-02 at cycle   4 NSaved=   4.
 NSaved= 4 IEnMin= 3 EnMin= -1615.42464176972     IErMin= 2 ErrMin= 3.95D-03
 ErrMax= 1.13D-02  0.00D+00 EMaxC= 1.00D-01 BMatC= 1.64D-01 BMatP= 3.80D-02
 IDIUse=2 WtCom= 0.00D+00 WtEn= 1.00D+00
 Coeff-En:   0.000D+00 0.000D+00 0.733D+00 0.267D+00
 Coeff:      0.000D+00 0.000D+00 0.733D+00 0.267D+00
 Gap=     0.169 Goal=   None    Shift=    0.000
 RMSDP=8.37D-04 MaxDP=4.61D-02 DE= 1.39D-01 OVMax= 9.02D-02

 Cycle   5  Pass 0  IDiag  1:
 RMSU=  1.94D-04    CP:  8.88D-01  1.20D+00  7.01D-01  4.77D-01
 E= -1615.46692837058     Delta-E=       -0.181256189790 Rises=F Damp=F
 DIIS: error= 2.51D-03 at cycle   5 NSaved=   5.
 NSaved= 5 IEnMin= 5 EnMin= -1615.46692837058     IErMin= 5 ErrMin= 2.51D-03
 ErrMax= 2.51D-03  0.00D+00 EMaxC= 1.00D-01 BMatC= 8.93D-03 BMatP= 3.80D-02
 IDIUse=3 WtCom= 9.75D-01 WtEn= 2.51D-02
 Coeff-Com:  0.535D-02 0.933D-02 0.343D+00 0.445D-01 0.597D+00
 Coeff-En:   0.000D+00 0.000D+00 0.200D+00 0.000D+00 0.800D+00
 Coeff:      0.521D-02 0.909D-02 0.340D+00 0.434D-01 0.602D+00
 Gap=     0.163 Goal=   None    Shift=    0.000
 RMSDP=2.57D-04 MaxDP=1.11D-02 DE=-1.81D-01 OVMax= 2.39D-02

 Cycle   6  Pass 0  IDiag  1:
 RMSU=  7.77D-05    CP:  8.88D-01  1.17D+00  7.98D-01  3.39D-01  7.48D-01
 E= -1615.47665083590     Delta-E=       -0.009722465318 Rises=F Damp=F
 DIIS: error= 3.65D-04 at cycle   6 NSaved=   6.
 NSaved= 6 IEnMin= 6 EnMin= -1615.47665083590     IErMin= 6 ErrMin= 3.65D-04
 ErrMax= 3.65D-04  0.00D+00 EMaxC= 1.00D-01 BMatC= 2.09D-04 BMatP= 8.93D-03
 IDIUse=3 WtCom= 9.96D-01 WtEn= 3.65D-03
 Coeff-Com:  0.258D-02-0.869D-02 0.115D+00-0.219D-01 0.381D+00 0.532D+00
 Coeff-En:   0.000D+00 0.000D+00 0.000D+00 0.000D+00 0.000D+00 0.100D+01
 Coeff:      0.257D-02-0.866D-02 0.115D+00-0.218D-01 0.379D+00 0.534D+00
 Gap=     0.162 Goal=   None    Shift=    0.000
 RMSDP=4.01D-05 MaxDP=1.68D-03 DE=-9.72D-03 OVMax= 5.55D-03

 Cycle   7  Pass 0  IDiag  1:
 RMSU=  3.02D-05    CP:  8.88D-01  1.17D+00  7.99D-01  3.39D-01  8.16D-01
                    CP:  7.06D-01
 E= -1615.47689668472     Delta-E=       -0.000245848813 Rises=F Damp=F
 DIIS: error= 1.47D-04 at cycle   7 NSaved=   7.
 NSaved= 7 IEnMin= 7 EnMin= -1615.47689668472     IErMin= 7 ErrMin= 1.47D-04
 ErrMax= 1.47D-04  0.00D+00 EMaxC= 1.00D-01 BMatC= 2.14D-05 BMatP= 2.09D-04
 IDIUse=3 WtCom= 9.99D-01 WtEn= 1.47D-03
 Coeff-Com:  0.118D-02-0.508D-02 0.490D-01-0.179D-01 0.199D+00 0.337D+00
 Coeff-Com:  0.436D+00
 Coeff-En:   0.000D+00 0.000D+00 0.000D+00 0.000D+00 0.000D+00 0.000D+00
 Coeff-En:   0.100D+01
 Coeff:      0.118D-02-0.507D-02 0.489D-01-0.179D-01 0.199D+00 0.337D+00
 Coeff:      0.437D+00
 Gap=     0.162 Goal=   None    Shift=    0.000
 RMSDP=1.69D-05 MaxDP=9.84D-04 DE=-2.46D-04 OVMax= 1.57D-03

 Cycle   8  Pass 0  IDiag  1:
 RMSU=  1.54D-05    CP:  8.88D-01  1.17D+00  7.99D-01  3.40D-01  7.94D-01
                    CP:  7.37D-01  8.51D-01
 E= -1615.47692607275     Delta-E=       -0.000029388032 Rises=F Damp=F
 DIIS: error= 4.91D-05 at cycle   8 NSaved=   8.
 NSaved= 8 IEnMin= 8 EnMin= -1615.47692607275     IErMin= 8 ErrMin= 4.91D-05
 ErrMax= 4.91D-05  0.00D+00 EMaxC= 1.00D-01 BMatC= 1.98D-06 BMatP= 2.14D-05
 IDIUse=1 WtCom= 1.00D+00 WtEn= 0.00D+00
 Coeff-Com:  0.468D-03-0.206D-02 0.176D-01-0.937D-02 0.829D-01 0.152D+00
 Coeff-Com:  0.272D+00 0.487D+00
 Coeff:      0.468D-03-0.206D-02 0.176D-01-0.937D-02 0.829D-01 0.152D+00
 Coeff:      0.272D+00 0.487D+00
 Gap=     0.162 Goal=   None    Shift=    0.000
 RMSDP=9.72D-06 MaxDP=4.30D-04 DE=-2.94D-05 OVMax= 4.18D-04

 Initial convergence to 1.0D-05 achieved.  Increase integral accuracy.
 Cycle   9  Pass 1  IDiag  1:
 E= -1615.47659550943     Delta-E=        0.000330563322 Rises=F Damp=F
 DIIS: error= 4.57D-04 at cycle   1 NSaved=   1.
 NSaved= 1 IEnMin= 1 EnMin= -1615.47659550943     IErMin= 1 ErrMin= 4.57D-04
 ErrMax= 4.57D-04  0.00D+00 EMaxC= 1.00D-01 BMatC= 9.92D-05 BMatP= 9.92D-05
 IDIUse=3 WtCom= 9.95D-01 WtEn= 4.57D-03
 Coeff-Com:  0.100D+01
 Coeff-En:   0.100D+01
 Coeff:      0.100D+01
 Gap=     0.162 Goal=   None    Shift=    0.000
 RMSDP=9.72D-06 MaxDP=4.30D-04 DE= 3.31D-04 OVMax= 1.14D-03

 Cycle  10  Pass 1  IDiag  1:
 RMSU=  5.72D-04    CP:  9.98D-01
 E= -1615.47670318823     Delta-E=       -0.000107678808 Rises=F Damp=F
 DIIS: error= 2.35D-05 at cycle   2 NSaved=   2.
 NSaved= 2 IEnMin= 2 EnMin= -1615.47670318823     IErMin= 2 ErrMin= 2.35D-05
 ErrMax= 2.35D-05  0.00D+00 EMaxC= 1.00D-01 BMatC= 7.11D-07 BMatP= 9.92D-05
 IDIUse=1 WtCom= 1.00D+00 WtEn= 0.00D+00
 Coeff-Com:  0.758D-03 0.999D+00
 Coeff:      0.758D-03 0.999D+00
 Gap=     0.162 Goal=   None    Shift=    0.000
 RMSDP=9.74D-06 MaxDP=3.50D-04 DE=-1.08D-04 OVMax= 6.41D-04

 Cycle  11  Pass 1  IDiag  1:
 RMSU=  6.53D-06    CP:  9.98D-01  1.01D+00
 E= -1615.47670034479     Delta-E=        0.000002843447 Rises=F Damp=F
 DIIS: error= 5.08D-05 at cycle   3 NSaved=   3.
 NSaved= 3 IEnMin= 2 EnMin= -1615.47670318823     IErMin= 2 ErrMin= 2.35D-05
 ErrMax= 5.08D-05  0.00D+00 EMaxC= 1.00D-01 BMatC= 3.24D-06 BMatP= 7.11D-07
 IDIUse=1 WtCom= 1.00D+00 WtEn= 0.00D+00
 Coeff-Com: -0.658D-02 0.687D+00 0.319D+00
 Coeff:     -0.658D-02 0.687D+00 0.319D+00
 Gap=     0.162 Goal=   None    Shift=    0.000
 RMSDP=4.35D-06 MaxDP=2.46D-04 DE= 2.84D-06 OVMax= 4.32D-04

 Cycle  12  Pass 1  IDiag  1:
 RMSU=  1.78D-06    CP:  9.98D-01  1.01D+00  3.93D-01
 E= -1615.47670397757     Delta-E=       -0.000003632781 Rises=F Damp=F
 DIIS: error= 4.33D-06 at cycle   4 NSaved=   4.
 NSaved= 4 IEnMin= 4 EnMin= -1615.47670397757     IErMin= 4 ErrMin= 4.33D-06
 ErrMax= 4.33D-06  0.00D+00 EMaxC= 1.00D-01 BMatC= 2.27D-08 BMatP= 7.11D-07
 IDIUse=1 WtCom= 1.00D+00 WtEn= 0.00D+00
 Coeff-Com: -0.393D-02 0.394D+00 0.190D+00 0.420D+00
 Coeff:     -0.393D-02 0.394D+00 0.190D+00 0.420D+00
 Gap=     0.162 Goal=   None    Shift=    0.000
 RMSDP=4.03D-07 MaxDP=1.57D-05 DE=-3.63D-06 OVMax= 4.13D-05

 Cycle  13  Pass 1  IDiag  1:
 RMSU=  3.52D-07    CP:  9.98D-01  1.01D+00  4.10D-01  9.10D-01
 E= -1615.47670400195     Delta-E=       -0.000000024385 Rises=F Damp=F
 DIIS: error= 7.42D-07 at cycle   5 NSaved=   5.
 NSaved= 5 IEnMin= 5 EnMin= -1615.47670400195     IErMin= 5 ErrMin= 7.42D-07
 ErrMax= 7.42D-07  0.00D+00 EMaxC= 1.00D-01 BMatC= 9.20D-10 BMatP= 2.27D-08
 IDIUse=1 WtCom= 1.00D+00 WtEn= 0.00D+00
 Coeff-Com: -0.149D-02 0.147D+00 0.719D-01 0.214D+00 0.568D+00
 Coeff:     -0.149D-02 0.147D+00 0.719D-01 0.214D+00 0.568D+00
 Gap=     0.162 Goal=   None    Shift=    0.000
 RMSDP=1.01D-07 MaxDP=4.10D-06 DE=-2.44D-08 OVMax= 1.40D-05

 Cycle  14  Pass 1  IDiag  1:
 RMSU=  8.18D-08    CP:  9.98D-01  1.01D+00  4.10D-01  9.29D-01  8.72D-01
 E= -1615.47670400268     Delta-E=       -0.000000000727 Rises=F Damp=F
 DIIS: error= 5.44D-07 at cycle   6 NSaved=   6.
 NSaved= 6 IEnMin= 6 EnMin= -1615.47670400268     IErMin= 6 ErrMin= 5.44D-07
 ErrMax= 5.44D-07  0.00D+00 EMaxC= 1.00D-01 BMatC= 3.00D-10 BMatP= 9.20D-10
 IDIUse=1 WtCom= 1.00D+00 WtEn= 0.00D+00
 Coeff-Com: -0.161D-03 0.147D-01 0.780D-02 0.552D-01 0.385D+00 0.537D+00
 Coeff:     -0.161D-03 0.147D-01 0.780D-02 0.552D-01 0.385D+00 0.537D+00
 Gap=     0.162 Goal=   None    Shift=    0.000
 RMSDP=5.16D-08 MaxDP=2.29D-06 DE=-7.27D-10 OVMax= 7.19D-06

 Cycle  15  Pass 1  IDiag  1:
 RMSU=  3.28D-08    CP:  9.98D-01  1.01D+00  4.11D-01  9.30D-01  9.27D-01
                    CP:  5.89D-01
 E= -1615.47670400295     Delta-E=       -0.000000000273 Rises=F Damp=F
 DIIS: error= 1.77D-07 at cycle   7 NSaved=   7.
 NSaved= 7 IEnMin= 7 EnMin= -1615.47670400295     IErMin= 7 ErrMin= 1.77D-07
 ErrMax= 1.77D-07  0.00D+00 EMaxC= 1.00D-01 BMatC= 3.79D-11 BMatP= 3.00D-10
 IDIUse=1 WtCom= 1.00D+00 WtEn= 0.00D+00
 Coeff-Com:  0.221D-05-0.104D-02-0.600D-04 0.204D-01 0.211D+00 0.360D+00
 Coeff-Com:  0.409D+00
 Coeff:      0.221D-05-0.104D-02-0.600D-04 0.204D-01 0.211D+00 0.360D+00
 Coeff:      0.409D+00
 Gap=     0.162 Goal=   None    Shift=    0.000
 RMSDP=1.94D-08 MaxDP=1.01D-06 DE=-2.73D-10 OVMax= 2.33D-06

 Cycle  16  Pass 1  IDiag  1:
 RMSU=  9.56D-09    CP:  9.98D-01  1.01D+00  4.11D-01  9.32D-01  9.18D-01
                    CP:  6.25D-01  5.24D-01
 E= -1615.47670400302     Delta-E=       -0.000000000064 Rises=F Damp=F
 DIIS: error= 2.85D-08 at cycle   8 NSaved=   8.
 NSaved= 8 IEnMin= 8 EnMin= -1615.47670400302     IErMin= 8 ErrMin= 2.85D-08
 ErrMax= 2.85D-08  0.00D+00 EMaxC= 1.00D-01 BMatC= 1.33D-12 BMatP= 3.79D-11
 IDIUse=1 WtCom= 1.00D+00 WtEn= 0.00D+00
 Coeff-Com:  0.174D-04-0.204D-02-0.793D-03 0.558D-02 0.774D-01 0.146D+00
 Coeff-Com:  0.214D+00 0.560D+00
 Coeff:      0.174D-04-0.204D-02-0.793D-03 0.558D-02 0.774D-01 0.146D+00
 Coeff:      0.214D+00 0.560D+00
 Gap=     0.162 Goal=   None    Shift=    0.000
 RMSDP=3.53D-09 MaxDP=1.20D-07 DE=-6.37D-11 OVMax= 3.12D-07

 SCF Done:  E(RB3LYP) =  -1615.47670400     A.U. after   16 cycles
            NFock= 16  Conv=0.35D-08     -V/T= 2.0096
 KE= 1.600083815548D+03 PE=-1.213073437053D+04 EE= 4.722005294664D+03
 Leave Link  502 at Thu Jan 23 11:51:20 2025, MaxMem= 13421772800 cpu:            1785.4 elap:              57.1
 (Enter /public/software/apps/Gaussian/g16/l601.exe)
 Copying SCF densities to generalized density rwf, IOpCl= 0 IROHF=0.

 **********************************************************************

            Population analysis using the SCF Density.

 **********************************************************************

 Alpha  occ. eigenvalues --  -19.16684 -19.16668 -10.25865 -10.25832 -10.20109
 Alpha  occ. eigenvalues --  -10.20093 -10.20037 -10.20034 -10.19820 -10.19781
 Alpha  occ. eigenvalues --  -10.19506 -10.19481 -10.19264 -10.19235 -10.19160
 Alpha  occ. eigenvalues --  -10.19150 -10.19106 -10.19085 -10.18876 -10.18875
 Alpha  occ. eigenvalues --  -10.18843 -10.18813 -10.18766 -10.18721 -10.18548
 Alpha  occ. eigenvalues --  -10.18517 -10.18514 -10.18481 -10.18222 -10.18188
 Alpha  occ. eigenvalues --  -10.18124 -10.18098 -10.17981 -10.17975 -10.17775
 Alpha  occ. eigenvalues --  -10.17762 -10.17695 -10.17686 -10.17555 -10.17527
 Alpha  occ. eigenvalues --   -1.06247  -1.05844  -0.88725  -0.87876  -0.87186
 Alpha  occ. eigenvalues --   -0.87046  -0.84773  -0.84728  -0.82600  -0.82149
 Alpha  occ. eigenvalues --   -0.80353  -0.76702  -0.76268  -0.76109  -0.74172
 Alpha  occ. eigenvalues --   -0.74169  -0.72993  -0.72647  -0.71935  -0.70500
 Alpha  occ. eigenvalues --   -0.65975  -0.64192  -0.63359  -0.63298  -0.62378
 Alpha  occ. eigenvalues --   -0.62141  -0.61324  -0.59787  -0.59756  -0.59066
 Alpha  occ. eigenvalues --   -0.58973  -0.58597  -0.56451  -0.56272  -0.55927
 Alpha  occ. eigenvalues --   -0.55433  -0.53495  -0.52656  -0.52389  -0.52347
 Alpha  occ. eigenvalues --   -0.49606  -0.49566  -0.49405  -0.48701  -0.47090
 Alpha  occ. eigenvalues --   -0.46956  -0.46620  -0.46609  -0.46237  -0.46110
 Alpha  occ. eigenvalues --   -0.45173  -0.44723  -0.44644  -0.43882  -0.43610
 Alpha  occ. eigenvalues --   -0.43419  -0.42934  -0.42178  -0.42121  -0.41455
 Alpha  occ. eigenvalues --   -0.41451  -0.40312  -0.39472  -0.39050  -0.38666
 Alpha  occ. eigenvalues --   -0.38497  -0.38475  -0.38361  -0.38170  -0.38103
 Alpha  occ. eigenvalues --   -0.37974  -0.36654  -0.36627  -0.36077  -0.36011
 Alpha  occ. eigenvalues --   -0.35321  -0.35155  -0.35000  -0.34263  -0.33718
 Alpha  occ. eigenvalues --   -0.32810  -0.32432  -0.32401  -0.31293  -0.31270
 Alpha  occ. eigenvalues --   -0.30132  -0.30106  -0.29628  -0.28914  -0.26424
 Alpha  occ. eigenvalues --   -0.26384  -0.23621  -0.23604  -0.22640  -0.22574
 Alpha  occ. eigenvalues --   -0.22121  -0.21674
 Alpha virt. eigenvalues --   -0.05449  -0.05044  -0.02268  -0.02073  -0.00419
 Alpha virt. eigenvalues --   -0.00403   0.00781   0.01198   0.01758   0.02243
 Alpha virt. eigenvalues --    0.05098   0.06206   0.06234   0.06737   0.06930
 Alpha virt. eigenvalues --    0.07546   0.08001   0.08347   0.08634   0.08887
 Alpha virt. eigenvalues --    0.09542   0.09670   0.09878   0.09986   0.11395
 Alpha virt. eigenvalues --    0.11667   0.11812   0.11862   0.12569   0.12597
 Alpha virt. eigenvalues --    0.13530   0.13675   0.13804   0.14105   0.14432
 Alpha virt. eigenvalues --    0.14616   0.15098   0.16239   0.16392   0.16748
 Alpha virt. eigenvalues --    0.17342   0.17442   0.18178   0.18498   0.18667
 Alpha virt. eigenvalues --    0.19083   0.19414   0.19562   0.19899   0.22778
 Alpha virt. eigenvalues --    0.22822   0.22931   0.25352   0.25720   0.26564
 Alpha virt. eigenvalues --    0.26690   0.26999   0.27088   0.27359   0.27566
 Alpha virt. eigenvalues --    0.27667   0.27777   0.28594   0.28682   0.28758
 Alpha virt. eigenvalues --    0.29541   0.29764   0.30317   0.30481   0.30653
 Alpha virt. eigenvalues --    0.30928   0.31513   0.32048   0.32371   0.32612
 Alpha virt. eigenvalues --    0.32784   0.33356   0.33685   0.34566   0.34758
 Alpha virt. eigenvalues --    0.35454   0.36466   0.37275   0.37566   0.37869
 Alpha virt. eigenvalues --    0.37957   0.38413   0.38473   0.38913   0.39341
 Alpha virt. eigenvalues --    0.40467   0.40706   0.41137   0.41577   0.41839
 Alpha virt. eigenvalues --    0.42016   0.43563   0.43940   0.44271   0.44528
 Alpha virt. eigenvalues --    0.44743   0.45246   0.45319   0.45893   0.46081
 Alpha virt. eigenvalues --    0.46593   0.47122   0.47314   0.47815   0.48221
 Alpha virt. eigenvalues --    0.48287   0.48410   0.48830   0.48967   0.49000
 Alpha virt. eigenvalues --    0.49129   0.49371   0.49506   0.49722   0.49954
 Alpha virt. eigenvalues --    0.50274   0.50535   0.50714   0.51351   0.51448
 Alpha virt. eigenvalues --    0.52346   0.52569   0.53267   0.53423   0.53930
 Alpha virt. eigenvalues --    0.54256   0.54983   0.55143   0.55510   0.55851
 Alpha virt. eigenvalues --    0.56262   0.56559   0.57111   0.57426   0.57586
 Alpha virt. eigenvalues --    0.57851   0.58239   0.58634   0.58851   0.59677
 Alpha virt. eigenvalues --    0.60090   0.60497   0.61341   0.61464   0.61543
 Alpha virt. eigenvalues --    0.62387   0.62750   0.63254   0.63797   0.64345
 Alpha virt. eigenvalues --    0.65049   0.65778   0.66078   0.66722   0.67121
 Alpha virt. eigenvalues --    0.67477   0.68035   0.68117   0.68427   0.68555
 Alpha virt. eigenvalues --    0.68770   0.69071   0.69238   0.69337   0.69485
 Alpha virt. eigenvalues --    0.69579   0.69873   0.70021   0.70219   0.70441
 Alpha virt. eigenvalues --    0.70577   0.70757   0.70964   0.71361   0.71423
 Alpha virt. eigenvalues --    0.71753   0.71950   0.72072   0.72256   0.72548
 Alpha virt. eigenvalues --    0.72683   0.72849   0.73069   0.73377   0.73634
 Alpha virt. eigenvalues --    0.74604   0.74898   0.75149   0.75545   0.75681
 Alpha virt. eigenvalues --    0.76403   0.76463   0.76687   0.77004   0.77312
 Alpha virt. eigenvalues --    0.77532   0.78011   0.78433   0.78734   0.79412
 Alpha virt. eigenvalues --    0.80295   0.80407   0.80758   0.80954   0.81080
 Alpha virt. eigenvalues --    0.81642   0.82185   0.82377   0.83086   0.83180
 Alpha virt. eigenvalues --    0.84149   0.84264   0.84539   0.85121   0.86189
 Alpha virt. eigenvalues --    0.86990   0.87549   0.87859   0.88204   0.88788
 Alpha virt. eigenvalues --    0.89412   0.89994   0.90494   0.90644   0.90998
 Alpha virt. eigenvalues --    0.91569   0.91639   0.94214   0.95065   0.95317
 Alpha virt. eigenvalues --    0.95644   0.96658   0.96882   0.97206   0.97799
 Alpha virt. eigenvalues --    1.02824   1.03397   1.04334   1.05508   1.07087
 Alpha virt. eigenvalues --    1.07747   1.08813   1.10893   1.11147   1.11677
 Alpha virt. eigenvalues --    1.13593   1.14259   1.14807   1.16233   1.16551
 Alpha virt. eigenvalues --    1.17180   1.18875   1.20967   1.21555   1.21997
 Alpha virt. eigenvalues --    1.22280   1.24424   1.24544   1.25494   1.26111
 Alpha virt. eigenvalues --    1.27422   1.27869   1.29028   1.29819   1.30160
 Alpha virt. eigenvalues --    1.30613   1.31027   1.31893   1.32507   1.35456
 Alpha virt. eigenvalues --    1.38123   1.39063   1.39266   1.39484   1.41623
 Alpha virt. eigenvalues --    1.43214   1.43675   1.44079   1.44519   1.45276
 Alpha virt. eigenvalues --    1.46441   1.46662   1.47514   1.47633   1.48561
 Alpha virt. eigenvalues --    1.48933   1.49294   1.49489   1.49674   1.49811
 Alpha virt. eigenvalues --    1.50390   1.50559   1.50848   1.52046   1.52193
 Alpha virt. eigenvalues --    1.52596   1.53436   1.54193   1.54597   1.54820
 Alpha virt. eigenvalues --    1.56627   1.57551   1.61246   1.61548   1.62218
 Alpha virt. eigenvalues --    1.65949   1.68751   1.71557   1.71912   1.72901
 Alpha virt. eigenvalues --    1.73176   1.73644   1.74091   1.74418   1.74722
 Alpha virt. eigenvalues --    1.75392   1.75632   1.76701   1.76757   1.76857
 Alpha virt. eigenvalues --    1.77644   1.77854   1.79893   1.81234   1.81274
 Alpha virt. eigenvalues --    1.81792   1.82762   1.83494   1.83960   1.84151
 Alpha virt. eigenvalues --    1.84751   1.85447   1.85862   1.86091   1.86263
 Alpha virt. eigenvalues --    1.87022   1.87117   1.87409   1.87921   1.88501
 Alpha virt. eigenvalues --    1.89126   1.89508   1.89862   1.94052   1.94206
 Alpha virt. eigenvalues --    1.95075   1.96192   1.99546   1.99761   2.00059
 Alpha virt. eigenvalues --    2.00347   2.00843   2.00999   2.01504   2.02035
 Alpha virt. eigenvalues --    2.02933   2.03501   2.04729   2.06122   2.06488
 Alpha virt. eigenvalues --    2.06964   2.08308   2.08353   2.08862   2.09240
 Alpha virt. eigenvalues --    2.09740   2.09911   2.11251   2.12891   2.14682
 Alpha virt. eigenvalues --    2.15184   2.16484   2.17113   2.17319   2.18044
 Alpha virt. eigenvalues --    2.19082   2.19346   2.20204   2.20601   2.21893
 Alpha virt. eigenvalues --    2.22742   2.23149   2.23637   2.23672   2.24796
 Alpha virt. eigenvalues --    2.25694   2.26136   2.26946   2.27588   2.28043
 Alpha virt. eigenvalues --    2.28199   2.29025   2.29513   2.29822   2.31584
 Alpha virt. eigenvalues --    2.31642   2.32122   2.32201   2.33373   2.33412
 Alpha virt. eigenvalues --    2.34912   2.35374   2.35546   2.37676   2.38133
 Alpha virt. eigenvalues --    2.41158   2.41945   2.42064   2.43894   2.45244
 Alpha virt. eigenvalues --    2.45264   2.46955   2.47271   2.47706   2.48899
 Alpha virt. eigenvalues --    2.49106   2.50144   2.50857   2.51129   2.53868
 Alpha virt. eigenvalues --    2.53935   2.54932   2.55352   2.56779   2.57337
 Alpha virt. eigenvalues --    2.57828   2.58398   2.59905   2.61529   2.61987
[...]
 0.00002230,0.00000918,-0.00000863,0.00001494,-0.00000016,0.00000025,-0
 .00000101,0.00000117,-0.00000784,0.00001235,0.00000274,0.00001352,-0.0
 0002936,-0.00001699,0.00000838,0.00000601,0.00001897,0.00000838,0.0000
 1193,-0.00000928,-0.00001503,-0.00000974,0.00000475,-0.00001394,0.0000
 1387,-0.00000283,-0.00000823,-0.00001410,-0.00000826,-0.00001689,-0.00
 000137,-0.00000357,0.00000145,-0.00000398,0.00000067,-0.00000924,-0.00
 000210,-0.00000569,0.00000287,0.00001582,0.00000055,0.00001349,-0.0000
 1691,0.00000912,-0.00002597,0.00006920,-0.00001896,0.00003646,-0.00000
 146,-0.00003505,-0.00009940,0.00028887,-0.00009579,0.00007842,0.000043
 35,0.00011975,0.00001634,-0.00007127,-0.00008821,0.00014141,0.00021578
 ,-0.00019514,-0.00007737,-0.00000140,-0.00004938,0.00001781,-0.0000029
 9,-0.00002298,-0.00000471,0.00000968,-0.00000176,0.00001456,0.00000328
 ,-0.00001574,-0.00000067,-0.00000605,0.00001950,-0.00000951,-0.0000010
 8,-0.00000532,0.00000723,0.00001015,0.00000160,0.00000566,-0.00000993,
 0.00000128,0.00006057,-0.00000027,-0.00000194,-0.00034304,-0.00048999,
 -0.00040281,0.00345971,-0.00224188,0.00219603,-0.00133001,-0.00732042,
 -0.00968406,0.02003265,-0.11856148,-0.27711766,0.00346364,-0.00416846,
 -0.00709503,-0.00189956,-0.00240058,0.00169745,-0.00009836,0.00049588,
 0.00049448,0.00002778,-0.00005426,0.00004916,0.00000138,0.00000088,0.0
 0000483,-0.00000202,0.00000068,-0.00000188,-0.00000300,0.00000191,-0.0
 0000266,-0.00000059,0.00000450,0.00000320,0.00000139,-0.00000697,-0.00
 000737,-0.00000227,0.00000605,-0.00000210,0.00000008,-0.00000458,-0.00
 000459,-0.00000435,0.00000253,0.00000083,0.00001024,-0.00001112,-0.000
 00008,-0.00000318,-0.00000541,-0.00000143,-0.00000376,-0.00000279,-0.0
 0000234,-0.00000141,-0.00000486,-0.00000098,0.00000224,-0.00000221,0.0
 0000150,-0.00000832,0.00001157,-0.00000200,0.00000473,0.00001606,0.000
 01265,-0.00000907,-0.00000094,-0.00000472,0.00000918,-0.00000161,0.000
 00063,0.00000578,-0.00000136,-0.00000448,0.00000264,0.00000094,-0.0000
 0595,-0.00000068,0.00000176,-0.00000584,-0.00000030,-0.00000341,0.0000
 0153,0.00000140,0.00000183,0.00000276,-0.00000091,0.00000116,-0.000004
 89,-0.00000704,-0.00000460,0.00000545,0.00004372,-0.00005854,0.0000581
 6,-0.00054887,0.00233449,-0.00019301,-0.02260407,0.13075895,0.29069790
 ,0.00003422,-0.00000537,0.00002374,-0.00000877,0.00002177,-0.00002286,
 -0.00001205,0.00000013,-0.00000574,-0.00000601,0.00001529,-0.00000488,
 0.00000606,-0.00000853,-0.00000024,0.00000013,0.00000074,-0.00000082,0
 .00000457,-0.00000651,-0.00000178,-0.00000756,0.00001728,0.00000901,-0
 .00000642,-0.00000388,-0.00001105,-0.00000447,-0.00000731,0.00000668,0
 .00000964,0.00000479,-0.00000386,0.00000894,-0.00000754,0.00000254,0.0
 0001053,0.00000436,0.00000725,0.00001146,0.00000603,-0.00000195,0.0000
 0140,-0.00000136,-0.00000125,0.00000501,0.00000708,0.00000070,0.000002
 59,-0.00000638,-0.00000415,-0.00000802,0.00001279,-0.00001592,0.000014
 83,-0.00005822,0.00002110,-0.00002399,-0.00005867,0.00002041,-0.000173
 33,-0.00007918,0.00009612,0.00015761,0.00012813,-0.00017265,-0.0000188
 0,0.00011466,0.00018721,0.00001016,-0.00004509,-0.00001973,0.00004908,
 -0.00000621,-0.00000735,-0.00001731,0.00000462,0.00000844,0.00000696,0
 .00000015,0.00000043,-0.00000572,-0.00000158,0.00001107,0.00000023,0.0
 0000434,-0.00001881,0.00000987,-0.00000086,0.00000519,-0.00000492,-0.0
 0000693,-0.00000241,-0.00000371,0.00000832,-0.00000013,-0.00002467,0.0
 0000269,0.00001209,-0.00006316,0.00021054,-0.00000657,0.00049091,-0.00
 005647,-0.00071593,-0.00202050,-0.00356507,-0.00272709,-0.01651869,0.0
 0168285,0.01462764,-0.26721464,-0.00388599,0.12207232,0.00216078,-0.00
 103989,-0.00089483,0.00200843,-0.00170886,0.00040282,-0.00003959,0.000
 02986,-0.00004143,-0.00000140,-0.00000089,-0.00000266,0.00000089,-0.00
 000070,0.00000148,0.00000140,-0.00000153,0.00000171,0.00000023,-0.0000
 0283,-0.00000193,-0.00000162,0.00000182,0.00000687,-0.00000014,-0.0000
 0255,0.00000124,0.00000249,0.00000494,0.00000259,0.00000332,-0.0000015
 0,-0.00000065,-0.00000642,0.00000671,0.00000227,0.00000188,0.00000373,
 0.00000255,0.00000246,0.00000237,0.00000278,0.00000022,0.00000438,0.00
 000273,-0.00000463,0.00000362,0.00000166,0.00000117,-0.00001235,0.0000
 0954,-0.00003523,-0.00002525,-0.00001080,0.00000850,-0.00000716,0.0000
 0399,-0.00000497,-0.00000052,-0.00000133,-0.00000451,-0.00000052,0.000
 00324,-0.00000212,-0.00000087,0.00000378,0.00000018,-0.00000131,0.0000
 0378,-0.00000072,0.00000224,-0.00000131,-0.00000050,-0.00000138,-0.000
 00258,0.00000028,-0.00000049,0.00000428,0.00000481,0.00000277,-0.00000
 727,0.00003533,-0.00001531,-0.00002512,-0.00086560,0.00007399,0.000669
 01,0.00087465,0.00086125,-0.00057501,0.28070512,-0.00002464,-0.0001005
 8,-0.00008023,-0.00000843,0.00010348,0.00008830,-0.00004316,-0.0000161
 5,-0.00002627,-0.00001156,0.00000569,-0.00000847,0.00000186,-0.0000104
 9,-0.00000213,-0.00000113,0.00000066,-0.00000115,0.00000475,-0.0000105
 7,-0.00000433,-0.00001492,0.00002527,0.00001047,-0.00001207,-0.0000035
 8,-0.00002425,-0.00000462,-0.00002181,0.00001119,0.00001799,0.00000494
 ,-0.00000876,0.00001101,-0.00001152,0.00001237,-0.00000952,0.00002198,
 -0.00000656,0.00000435,-0.00001610,0.00001348,-0.00000599,0.00001491,0
 .00000445,0.00000891,-0.00001322,0.00001097,-0.00000669,-0.00001489,0.
 00000353,-0.00000816,0.00000465,0.00001119,0.00003447,0.00001424,-0.00
 003307,-0.00000808,0.00021035,-0.00004624,0.00048836,0.00031783,-0.000
 02956,0.00025922,-0.00049739,0.00009419,0.00007521,-0.00008620,-0.0000
 6478,-0.00014432,0.00001394,-0.00019640,-0.00002173,0.00003324,-0.0000
 0232,0.00000181,0.00000039,-0.00000560,0.00000387,-0.00000284,0.000001
 69,-0.00000138,-0.00000036,0.00000147,0.00000176,-0.00000460,-0.000003
 25,0.00000168,0.00000069,0.00000063,-0.00000128,-0.00000072,0.00000087
 ,-0.00000129,0.00000012,-0.00000015,0.00000256,-0.00000859,-0.00000942
 ,0.00003424,-0.00048081,0.00052348,0.00015095,-0.00073449,-0.00022888,
 -0.00305395,0.00281143,-0.00322512,-0.01197962,0.00391215,0.00747414,-
 0.00430094,-0.04379157,-0.00817829,0.01261952,0.00431046,-0.00715918,-
 0.00195655,0.00516012,-0.00559805,0.00001225,0.00000303,0.00007397,0.0
 0000087,-0.00000102,-0.00000331,0.00000081,-0.00000057,-0.00000159,0.0
 0000103,0.00000060,0.00000083,-0.00000219,-0.00000386,-0.00000713,-0.0
 0000569,0.00000297,0.00001651,-0.00000260,-0.00000357,0.00000224,0.000
 01052,0.00001711,0.00000774,0.00000329,0.00000120,-0.00000034,0.000001
 04,0.00001477,-0.00000021,0.00000023,0.00000055,-0.00000380,-0.0000002
 0,-0.00000077,-0.00000194,0.00000140,-0.00000160,-0.00000241,0.0000047
 4,-0.00000427,-0.00000474,0.00000417,-0.00000049,-0.00000862,0.0000149
 7,0.00002766,0.00000246,-0.00000020,0.00000085,0.00000122,0.00000193,0
 .00000067,-0.00000036,0.00000064,0.00000085,0.00000024,0.00000057,0.00
 000014,-0.00000023,0.00000028,-0.00000027,0.00000028,0.00000014,-0.000
 00034,-0.00000042,-0.00000039,0.00000053,0.00000043,0.00000057,0.00000
 004,-0.00000034,0.00000082,0.00000288,0.00000626,0.00002548,0.00003549
 ,-0.00003424,-0.00061274,0.00014465,0.00028229,0.00124971,-0.00196160,
 0.00144464,0.00603586,0.03404615,-0.00005770,0.00013253,0.00004354,0.0
 0002708,-0.00015731,-0.00003099,0.00005023,0.00002117,0.00003360,0.000
 02451,-0.00003360,0.00001635,-0.00001004,0.00001932,0.00000365,-0.0000
 0004,0.00000139,0.00000468,-0.00000879,0.00001376,0.00000186,0.0000184
 3,-0.00002738,-0.00000130,0.00002495,0.00000254,0.00002496,0.00000524,
 0.00001610,-0.00002221,-0.00003742,0.00002677,0.00000059,-0.00004300,-
 0.00000045,-0.00003777,-0.00001954,-0.00005094,-0.00000645,-0.00003488
 ,0.00000478,-0.00001205,-0.00000300,-0.00002324,-0.00000018,-0.0000238
 9,0.00000077,-0.00001174,0.00001087,0.00002512,0.00000994,0.00002971,-
 0.00002451,0.00002108,-0.00006351,0.00008552,-0.00003226,0.00004744,-0
 .00008316,0.00011340,0.00124968,0.00030616,0.00018261,-0.00005237,0.00
 015071,-0.00032945,0.00010198,-0.00008375,-0.00028058,-0.00013983,-0.0
 0016729,-0.00010389,-0.00001258,-0.00000831,0.00002452,0.00001091,0.00
 000183,-0.00001527,-0.00000216,0.00000041,-0.00000106,0.00000839,0.000
 00089,-0.00000866,-0.00000215,-0.00000256,0.00001946,-0.00000779,-0.00
 000033,-0.00000384,0.00000447,0.00000624,0.00000069,0.00000234,-0.0000
 0697,0.00000071,0.00001563,0.00000681,0.00000111,-0.00017253,0.0003954
 4,0.00011646,-0.00046570,-0.00008137,-0.00053128,-0.00164789,-0.002971
 06,0.00046803,-0.01244082,-0.00039571,0.00977053,0.12170876,-0.0081994
 1,-0.12282840,0.02584849,0.00052159,-0.00946542,-0.00028833,-0.0057067
 0,-0.00250116,0.00007173,-0.00006024,0.00003297,0.00000196,0.00000479,
 0.00000822,-0.00000063,0.00000245,0.00000214,0.00000120,0.00000052,0.0
 0000009,0.00000002,0.00000210,0.00001464,0.00000779,0.00000148,-0.0000
 2343,0.00000400,-0.00000271,0.00000784,-0.00001697,-0.00002348,-0.0000
 1340,0.00000107,-0.00000708,0.00001008,0.00001659,-0.00000011,-0.00001
 297,-0.00000179,-0.00000714,-0.00000514,-0.00000161,-0.00000467,-0.000
 00461,-0.00000050,-0.00000269,-0.00000261,0.00000129,-0.00000018,-0.00
 000036,-0.00000921,0.00001479,-0.00000509,0.00005055,0.00002537,0.0000
 3172,-0.00000432,0.00000172,-0.00000128,0.00000422,-0.00000066,0.00000
 039,0.00000328,-0.00000018,-0.00000186,0.00000119,0.00000078,-0.000002
 95,0.00000003,0.00000125,-0.00000302,0.00000026,-0.00000194,0.00000151
 ,0.00000065,0.00000065,0.00000298,0.00000004,0.00000066,-0.00000307,-0
 .00000579,-0.00000750,0.00000558,0.00005788,-0.00000806,-0.00000461,-0
 .00060541,-0.00007448,0.00032074,0.00021671,0.00165161,0.00003539,-0.1
 3245824,0.01240364,0.12493198,0.00014539,0.00001885,-0.00011353,0.0006
 7172,-0.00016126,-0.00045644,0.00021752,0.00010248,0.00018870,0.000020
 93,-0.00004042,0.00003824,-0.00001075,0.00002728,-0.00000386,0.0000002
 6,0.00000578,0.00000801,-0.00001400,0.00001911,-0.00000319,0.00001156,
 -0.00002639,-0.00001106,0.00001390,0.00000366,0.00001458,0.00001163,0.
 00000398,-0.00001643,-0.00002213,0.00000890,-0.00000301,-0.00004540,-0
 .00000330,-0.00002453,-0.00006347,-0.00022754,0.00002441,-0.00015006,0
 .00011368,-0.00002462,0.00004274,-0.00004231,0.00002199,-0.00007607,-0
 .00000561,-0.00003888,0.00008887,0.00009702,0.00003437,-0.00001776,-0.
 00011648,-0.00000362,0.00027768,0.00066104,-0.00003810,0.00017938,-0.0
 0016174,-0.00046750,0.00014781,-0.00010219,-0.00169612,-0.00027447,-0.
 00007448,-0.00023565,0.00022774,0.00010988,0.00023138,0.00014262,0.000
 08734,0.00001652,0.00007819,0.00001863,0.00002621,-0.00002580,0.000010
 40,0.00003166,0.00001645,-0.00000258,0.00000034,-0.00001446,-0.0000048
 4,0.00002616,-0.00000266,0.00001205,-0.00002471,0.00001661,-0.00000324
 ,0.00000846,-0.00001147,-0.00001228,-0.00000388,-0.00001197,0.00001396
 ,0.00000528,-0.00006458,0.00000725,-0.00000723,-0.00063367,-0.00070858
 ,-0.00105893,-0.00221891,-0.00004689,0.00435894,0.00014538,0.00057437,
 0.00070290,0.00181279,-0.00110759,0.00144505,0.00569004,0.00184249,0.0
 0290860,-0.23911867,-0.10441502,-0.08553259,-0.01760667,-0.01230772,-0
 .01170724,-0.00040005,-0.00007647,0.00007171,0.00000163,0.00000185,0.0
 0001365,-0.00000525,0.00000096,-0.00000388,-0.00000383,0.00000428,-0.0
 0000199,-0.00000465,0.00000348,0.00000649,-0.00000062,-0.00000871,-0.0
 0000430,-0.00000338,0.00000328,0.00000680,0.00000080,-0.00000186,-0.00
 000602,-0.00000171,-0.00000022,0.00000744,0.00005430,-0.00000761,0.000
 02235,-0.00000211,-0.00001757,-0.00002038,-0.00000800,-0.00000558,-0.0
 0000783,-0.00000218,-0.00001079,0.00000027,0.00000155,-0.00001179,0.00
 000754,-0.00003260,-0.00001704,0.00003389,-0.00018414,-0.00001657,0.00
 003325,0.00001388,-0.00001463,0.00000773,-0.00000798,-0.00000158,-0.00
 000103,-0.00000540,-0.00000167,0.00000436,-0.00000062,-0.00000133,0.00
 000696,0.00000225,-0.00000121,0.00000532,-0.00000312,0.00000102,-0.000
 00350,-0.00000153,-0.00000064,-0.00000410,0.00000232,0.00000002,0.0000
 0674,0.00000361,-0.00000936,-0.00000109,-0.00032622,-0.00001984,0.0001
 9436,-0.00011569,0.00019212,-0.00019901,0.00015787,0.00007866,0.000214
 42,0.00046388,0.00115016,-0.00099115,0.25083070,0.00003086,-0.00124598
 ,-0.00025445,0.00005093,0.00134614,-0.00056123,-0.00002596,0.00003691,
 0.00013243,-0.00004554,0.00006225,-0.00001335,0.00001219,-0.00003810,0
 .00000005,0.00000272,-0.00000212,-0.00001432,-0.00000072,-0.00000645,0
 .00000177,-0.00001499,-0.00001187,-0.00003956,-0.00001504,0.00000032,-
 0.00002003,0.00001211,-0.00001708,0.00001669,0.00002798,-0.00002909,0.
 00001137,0.00007294,0.00005588,0.00014192,0.00001047,0.00000708,-0.000
 04686,-0.00008231,-0.00010278,0.00000025,0.00001276,0.00003635,-0.0000
 0057,0.00002251,-0.00004032,0.00001593,-0.00002482,-0.00004959,0.00002
 528,-0.00003135,-0.00002374,0.00007724,0.00017198,-0.00003294,-0.00027
 384,0.00026255,-0.00015229,-0.00019850,0.00050998,-0.00192286,0.000602
 79,0.00012879,-0.00031122,0.00016854,-0.00004654,0.00021521,-0.0000138
 6,0.00005070,-0.00007057,0.00006336,0.00001012,0.00003471,-0.00001294,
 -0.00000825,-0.00000117,0.00000823,0.00000060,-0.00000435,0.00000414,-
 0.00000384,-0.00000139,0.00000521,-0.00000033,0.00000149,-0.00001230,0
 .00000712,0.00000053,0.00000390,-0.00000428,-0.00000496,0.00000014,-0.
 00000323,0.00000489,0.00000005,-0.00001117,-0.00000101,-0.00000225,0.0
 0011386,0.00005012,-0.00007906,-0.00060266,0.00400635,-0.00177970,0.00
 048826,-0.00030063,0.00027941,-0.00044215,0.00530392,-0.00490744,-0.01
 177807,-0.00165227,-0.00465801,-0.10507425,-0.09724860,-0.05619970,0.0
 0091116,0.00335947,0.00002978,-0.00034380,-0.00004156,0.00028824,-0.00
 000274,-0.00000816,-0.00001565,0.00000038,-0.00000239,-0.00000487,-0.0
 0000451,-0.00000019,-0.00000676,-0.00000373,0.00000012,-0.00001327,-0.
 00001116,-0.00001229,0.00002630,-0.00001260,0.00000559,-0.00000881,0.0
 0003018,0.00002100,0.00000204,-0.00000807,0.00001226,-0.00001258,0.000
 04334,-0.00007337,0.00003865,0.00000239,-0.00000203,0.00000946,0.00000
 320,0.00000428,-0.00000064,0.00000480,0.00000290,-0.00000155,0.0000063
 2,-0.00000124,-0.00000859,0.00003434,-0.00000784,-0.00001833,-0.000029
 45,-0.00000534,0.00000833,0.00000085,-0.00000029,0.00000556,-0.0000018
 8,0.00000050,-0.00000008,-0.00000170,0.00000010,0.00000143,-0.00000015
 ,-0.00000047,0.00000206,0.00000032,-0.00000117,0.00000202,-0.00000050,
 0.00000065,-0.00000167,-0.00000128,0.00000062,-0.00000157,0.00000058,-
 0.00000022,0.00000180,0.00000165,0.00000234,-0.00000113,-0.00001475,0.
 00014171,-0.00007733,0.00017859,-0.00082293,0.00042240,-0.00054166,-0.
 00001077,-0.00024786,0.00135493,-0.00346181,0.00237350,0.11462097,0.09
 300976,-0.00015944,-0.00035868,0.00009684,0.00010666,0.00019298,-0.001
 86130,-0.00019297,0.00001314,-0.00008231,-0.00004971,0.00006586,-0.000
 02004,0.00002823,-0.00004140,0.00000406,0.00000034,0.00000204,-0.00000
 218,0.00002098,-0.00002489,-0.00000113,-0.00002575,0.00005262,0.000034
 41,-0.00002416,-0.00000757,-0.00002515,-0.00001111,-0.00001022,0.00002
 613,0.00003642,-0.00001148,-0.00000032,0.00005299,-0.00003423,0.000009
 78,0.00000670,0.00007549,0.00003914,0.00015629,-0.00001837,0.00010670,
 -0.00005151,0.00000765,-0.00005516,0.00005435,0.00006508,0.00003205,-0
 .00006512,-0.00005903,-0.00005032,-0.00004012,0.00022546,0.00005219,-0
 .00000025,-0.00045091,-0.00014480,0.00066828,-0.00028784,-0.00113889,-
 0.00029912,0.00107900,-0.00070876,-0.00037249,0.00016751,0.00017080,-0
 .00002705,-0.00014651,-0.00003691,0.00008710,0.00013630,0.00014330,-0.
 00002565,-0.00002771,-0.00001550,0.00001328,-0.00001012,0.00000122,-0.
 00000813,0.00000278,-0.00000089,0.00000200,0.00000233,-0.00000887,0.00
 000113,-0.00000189,0.00000441,-0.00000622,0.00000194,-0.00000369,0.000
 00478,0.00000387,0.00000070,0.00000549,-0.00000419,-0.00000334,0.00001
 735,-0.00000273,-0.00000045,0.00060965,0.00035362,0.00046834,0.0029457
 4,-0.00222221,-0.00062421,0.00062172,0.00020194,-0.00054506,0.00249655
 ,-0.00466728,-0.00250176,-0.02367368,-0.01257648,-0.00650487,-0.085976
 80,-0.05607642,-0.09617259,0.01220361,0.00716260,0.01042922,0.00026691
 ,0.00010265,-0.00006771,-0.00000550,-0.00000085,-0.00001329,0.00000620
 ,-0.00000223,0.00000626,0.00000584,-0.00000527,0.00000531,0.00000565,-
 0.00000650,-0.00000909,0.00000043,0.00000575,0.00000999,0.00000237,-0.
 00000378,-0.00000869,0.00000127,0.00000865,0.00001206,0.00000362,-0.00
 000291,-0.00000933,-0.00002970,0.00002619,0.00002707,0.00000744,0.0000
 2793,0.00001463,0.00000825,0.00000678,0.00000893,-0.00000478,0.0000120
 7,0.00000234,-0.00001012,0.00001526,-0.00000523,-0.00003528,0.00001696
 ,-0.00000217,0.00009410,0.00000021,-0.00002469,-0.00000462,0.00000489,
 -0.00000817,0.00000041,0.00000029,0.,0.00000054,0.00000050,-0.00000114
 ,-0.00000107,0.00000022,-0.00000191,-0.00000130,0.00000019,-0.00000101
 ,0.00000147,0.00000090,0.00000166,0.00000082,-0.00000077,0.00000127,-0
 .00000124,-0.00000029,-0.00000159,0.00000090,0.00000515,-0.00000340,0.
 00023460,-0.00005324,-0.00008716,-0.00018304,0.00041949,-0.00017497,-0
 .00100492,-0.00059566,-0.00034473,-0.00046994,0.00250697,0.00004426,0.
 09198030,0.06473839,0.09951969\\-0.00000371,-0.00000149,0.00000083,0.0
 0000045,0.00000280,-0.00000198,-0.00000055,-0.00000288,-0.00000024,-0.
 00000131,0.00000083,-0.00000069,0.00000027,-0.00000026,-0.00000142,-0.
 00000055,-0.00000023,-0.00000060,0.00000126,0.00000042,0.00000070,-0.0
 0000304,0.00000304,-0.00000166,0.00000314,-0.00000619,0.00000048,-0.00
 000349,0.00000260,0.00000051,0.00000045,0.00000271,-0.00000174,0.00000
 122,-0.00000102,0.00000237,-0.00000118,0.00000129,0.00000033,0.0000016
 9,-0.00000183,0.00000063,0.00000032,0.00000024,0.00000027,-0.00000082,
 -0.00000106,-0.00000096,0.00000123,-0.00000051,-0.00000030,0.00000032,
 0.00000016,0.00000003,-0.00000330,-0.00000104,-0.00000172,0.00000523,-
 0.00000139,0.00000050,-0.00000695,-0.00000013,0.00000201,0.00000088,0.
 00000170,-0.00000415,0.00000187,0.,0.00000102,0.00000080,0.00000075,0.
 00000365,0.00000145,-0.00000052,-0.00000108,0.00000035,-0.00000089,0.0
 0000152,0.00000111,0.,-0.00000016,-0.00000148,-0.00000341,-0.00000026,
 0.00000413,-0.00000174,-0.00000243,-0.00000409,0.00000653,0.00000766,0
 .00000027,-0.00000748,0.00000321,0.00000401,-0.00000138,-0.00000853,-0
 .00000201,0.00000367,-0.00000117,0.00000071,-0.00000051,-0.00000103,-0
 .00000248,-0.00000047,0.00000120,-0.00000075,-0.00000032,-0.00000009,0
 .00000094,0.00000027,0.00000107,-0.00000145,0.00000014,0.00000038,-0.0
 0000036,-0.00000030,-0.00000132,0.00000470,0.00000199,0.00000115,0.000
 00369,0.00000007,0.00000245,0.00000040,0.00000062,0.00000057,-0.000000
 13,0.00000091,0.00000018,-0.00000027,0.00000013,0.00000007,-0.00000049
 ,0.00000098,0.00000151,-0.00000021,-0.00000094,0.00000075,0.00000186,-
 0.00000012,0.00000009,0.00000046,0.00000021,0.00000058,-0.00000017,-0.
 00000140,0.00000089,0.00000087,0.00000045,0.00000004,0.00000005,0.0000
 0063,-0.00000010,-0.00000037,0.00000061,-0.00000041,0.00000010,0.00000
 046,-0.00000020,-0.00000005,0.00000009,-0.00000023,0.00000056,0.000000
 73,-0.00000057,-0.00000383,-0.00000170,-0.00000012,-0.00000063,-0.0000
 0011,-0.00000073,0.00000021,-0.00000009,-0.00000077,0.00000037,0.00000
 041,0.00000011,-0.00000027,0.00000258,-0.00000145,0.00000024,0.0000008
 7,0.00000098,-0.00000053,0.00000207,-0.00000248,-0.00000016,0.00000229
 ,0.00000296,-0.00000186,-0.00000143,0.00000034,0.00000079,0.,0.0000002
 8,0.00000006,-0.00000043,-0.00000060,0.00000054,-0.00000042,-0.0000005
 0,-0.00000011,-0.00000067,-0.00000029,0.00000012,-0.00000054,-0.000000
 05,-0.00000052,-0.00000032,-0.00000128\\\@
 The archive entry for this job was punched.


 Discoveries are often made by not following instructions,
 by going off the main road, by trying the untried.
 -- Frank Tyger
 Job cpu time:       0 days  8 hours 28 minutes 47.7 seconds.
 Elapsed time:       0 days  0 hours 16 minutes  1.2 seconds.
 File lengths (MBytes):  RWF=   2911 Int=      0 D2E=      0 Chk=     35 Scr=      1
 Normal termination of Gaussian 16 at Thu Jan 23 12:18:47 2025.
