 Entering Gaussian System, Link 0=g16
 Initial command:
 /public/software/apps/Gaussian/g16/l1.exe "/tmp/Gau-130070.inp" -scrdir="/tmp/"
 Entering Link 1 = /public/software/apps/Gaussian/g16/l1.exe PID=    130071.
  
 Copyright (c) 1988-2019, Gaussian, Inc.  All Rights Reserved.
  
 This is part of the Gaussian(R) 16 program.  It is based on
 the Gaussian(R) 09 system (copyright 2009, Gaussian, Inc.),
 the Gaussian(R) 03 system (copyright 2003, Gaussian, Inc.),
 the Gaussian(R) 98 system (copyright 1998, Gaussian, Inc.),
 the Gaussian(R) 94 system (copyright 1995, Gaussian, Inc.),
 the Gaussian 92(TM) system (copyright 1992, Gaussian, Inc.),
 the Gaussian 90(TM) system (copyright 1990, Gaussian, Inc.),
 the Gaussian 88(TM) system (copyright 1988, Gaussian, Inc.),
 the Gaussian 86(TM) system (copyright 1986, Carnegie Mellon
 University), and the Gaussian 82(TM) system (copyright 1983,
 Carnegie Mellon University). Gaussian is a federally registered
 trademark of Gaussian, Inc.
  
 This software contains proprietary and confidential information,
 including trade secrets, belonging to Gaussian, Inc.
  
 This software is provided under written license and may be
 used, copied, transmitted, or stored only in accord with that
 written license.
  
 The following legend is applicable only to US Government
 contracts under FAR:
  
                    RESTRICTED RIGHTS LEGEND
  
 Use, reproduction and disclosure by the US Government is
 subject to restrictions as set forth in subparagraphs (a)
 and (c) of the Commercial Computer Software - Restricted
 Rights clause in FAR 52.227-19.
  
 Gaussian, Inc.
 340 Quinnipiac St., Bldg. 40, Wallingford CT 06492
  
  
 ---------------------------------------------------------------
 Warning -- This program may not be used in any manner that
 competes with the business of Gaussian, Inc. or will provide
 assistance to any competitor of Gaussian, Inc.  The licensee
 of this program is prohibited from giving any competitor of
 Gaussian, Inc. access to this program.  By using this program,
 the user acknowledges that Gaussian, Inc. is engaged in the
 business of creating and licensing software in the field of
 computational chemistry and represents and warrants to the
 licensee that it is not a competitor of Gaussian, Inc. and that
 it will not use this program in any manner prohibited above.
 ---------------------------------------------------------------
  

 Cite this work as:
 Gaussian 16, Revision C.01,
 M. J. Frisch, G. W. Trucks, H. B. Schlegel, G. E. Scuseria, 
 M. A. Robb, J. R. Cheeseman, G. Scalmani, V. Barone, 
 G. A. Petersson, H. Nakatsuji, X. Li, M. Caricato, A. V. Marenich, 
 J. Bloino, B. G. Janesko, R. Gomperts, B. Mennucci, H. P. Hratchian, 
 J. V. Ortiz, A. F. Izmaylov, J. L. Sonnenberg, D. Williams-Young, 
 F. Ding, F. Lipparini, F. Egidi, J. Goings, B. Peng, A. Petrone, 
 T. Henderson, D. Ranasinghe, V. G. Zakrzewski, J. Gao, N. Rega, 
 G. Zheng, W. Liang, M. Hada, M. Ehara, K. Toyota, R. Fukuda, 
 J. Hasegawa, M. Ishida, T. Nakajima, Y. Honda, O. Kitao, H. Nakai, 
 T. Vreven, K. Throssell, J. A. Montgomery, Jr., J. E. Peralta, 
 F. Ogliaro, M. J. Bearpark, J. J. Heyd, E. N. Brothers, K. N. Kudin, 
 V. N. Staroverov, T. A. Keith, R. Kobayashi, J. Normand, 
 K. Raghavachari, A. P. Rendell, J. C. Burant, S. S. Iyengar, 
 J. Tomasi, M. Cossi, J. M. Millam, M. Klene, C. Adamo, R. Cammi, 
 J. W. Ochterski, R. L. Martin, K. Morokuma, O. Farkas, 
 J. B. Foresman, and D. J. Fox, Gaussian, Inc., Wallingford CT, 2019.
 
 ******************************************
 Gaussian 16:  ES64L-G16RevC.01  3-Jul-2019
                23-Jan-2025 
 ******************************************
 %nprocshared=32
 Will use up to   32 processors via shared memory.
 %mem=100GB
 ------------------------------------------
 #p opt freq b3lyp/def2svpp em=gd3bj nosymm
 ------------------------------------------
 1/18=20,19=15,26=3,38=1/1,3;
 2/9=110,12=2,15=1,17=6,18=5,40=1/2;
 3/5=43,7=202,11=2,25=1,30=1,71=1,74=-5,124=41/1,2,3;
 4//1;
 5/5=2,38=5/2;
 6/7=2,8=2,9=2,10=2,28=1/1;
 7/30=1/1,2,3,16;
 1/18=20,19=15,26=3/3(2);
 2/9=110,15=1/2;
 99//99;
 2/9=110,15=1/2;
 3/5=43,7=202,11=2,25=1,30=1,71=1,74=-5,124=41/1,2,3;
 4/5=5,16=3,69=1/1;
 5/5=2,38=5/2;
 7/30=1/1,2,3,16;
 1/18=20,19=15,26=3/3(-5);
 2/9=110,15=1/2;
 6/7=2,8=2,9=2,10=2,19=2,28=1/1;
 99/9=1/99;
 Leave Link    1 at Thu Jan 23 15:37:03 2025, MaxMem= 13421772800 cpu:               1.7 elap:               0.1
 (Enter /public/software/apps/Gaussian/g16/l101.exe)
 ----------------------
 $$$$Singlemol####0????
 ----------------------
 Symbolic Z-matrix:
 Charge =  0 Multiplicity = 1
 C                    -8.42832   4.3869   -1.13234 
 C                    -7.18842   3.55896  -0.81677 
 C                    -6.4471    3.18488  -2.09128 
 C                    -6.27834   4.29417   0.1555 
 S                    -7.84758   2.01368  -0.00204 
 C                    -6.34086   1.12118   0.33724 
 C                    -5.8272    0.24337  -0.60524 
 C                    -4.65817  -0.44387  -0.34274 
 C                    -3.99619  -0.27451   0.87008 
 C                    -2.76451  -1.0214    1.17094 
 C                    -2.61862  -1.6751    2.36841 
 C                    -1.46372  -2.41832   2.67687 
 C                    -1.32377  -3.10563   3.89994 
 C                    -0.19948  -3.83502   4.16792 
 C                     0.83013  -3.91655   3.21859 
 C                     0.72714  -3.25935   2.02425 
 C                    -0.41394  -2.48479   1.72451 
 C                    -0.55207  -1.78197   0.49884 
 C                     0.55161  -1.78203  -0.49844 
 C                     1.70519  -1.07161  -0.22659 
 O                     1.85081  -0.36644   0.92615 
 C                     2.76366  -1.02085  -1.17105 
 C                     3.99523  -0.27361  -0.87063 
 C                     4.65781  -0.44307   0.34183 
 C                     5.82716   0.24389   0.60364 
 C                     6.34038   1.12174  -0.33905 
 S                     7.84758   2.01377  -0.00073 
 C                     7.18961   3.55779   0.81737 
 C                     8.43001   4.3852    1.1324 
 C                     6.45012   3.18187   2.09239 
 C                     6.27815   4.2944   -0.15254 
 C                     5.69947   1.28578  -1.55777 
 C                     4.53436   0.59168  -1.81966 
 C                     2.61803  -1.67527  -2.36817 
 C                     1.46354  -2.4193   -2.67609 
 C                     1.32399  -3.10762  -3.89865 
 C                     0.20021  -3.83799  -4.16602 
 C                    -0.82934  -3.91944  -3.2166 
 C                    -0.72678  -3.26122  -2.02279 
 C                     0.41383  -2.48573  -1.72364 
 C                    -1.70595  -1.07223   0.22654 
 O                    -1.85178  -0.36779  -0.92659 
 C                    -4.53582   0.59068   1.8189 
 C                    -5.70076   1.28485   1.55643 
 H                    -8.97352   4.61834  -0.22014 
 H                    -8.14077   5.31936  -1.6147 
 H                    -9.09217   3.83912  -1.79728 
 H                    -5.56189   2.59212  -1.86783 
 H                    -6.132     4.08824  -2.61162 
 H                    -7.09349   2.61273  -2.75345 
 H                    -5.95542   5.23681  -0.28405 
 H                    -6.80546   4.50808   1.08288 
 H                    -5.39396   3.70205   0.38404 
 H                    -6.34875   0.09806  -1.5391 
 H                    -4.26205  -1.12618  -1.07872 
 H                    -3.42248  -1.64401   3.08939 
 H                    -2.12744  -3.04607   4.61966 
 H                    -0.09915  -4.35931   5.10654 
 H                     1.70712  -4.50787   3.43635 
 H                     1.51699  -3.33574   1.2908 
 H                     1.06554  -0.49064   1.47808 
 H                     4.26201  -1.12536   1.07801 
 H                     6.34935   0.09828   1.53709 
 H                     8.14313   5.3171    1.61622 
 H                     8.97413   4.61769   0.21983 
 H                     9.09461   3.83658   1.79588 
 H                     7.09746   2.60872   2.75277 
 H                     6.13582   4.08447   2.61453 
 H                     5.56455   2.5895    1.86936 
 H                     5.95488   5.23585   0.28927 
 H                     5.39403   3.70209  -0.38163 
 H                     6.80432   4.51066  -1.07992 
 H                     6.11758   1.95398  -2.29545 
 H                     4.02659   0.73222  -2.76308 
 H                     3.42189  -1.6442   -3.08916 
 H                     2.12765  -3.04809  -4.61839 
 H                     0.1002   -4.36311  -5.10421 
 H                    -1.70594  -4.51151  -3.43391 
 H                    -1.51659  -3.3375   -1.28928 
 H                    -1.06651  -0.49203  -1.47851 
 H                    -4.02863   0.73112   2.76265 
 H                    -6.11934   1.95288   2.294 
 
 ITRead=  0  0  0  0  0  0  0  0  0  0  0  0  0  0  0  0  0  0  0  0
 ITRead=  0  0  0  0  0  0  0  0  0  0  0  0  0  0  0  0  0  0  0  0
 ITRead=  0  0  0  0  0  0  0  0  0  0  0  0  0  0  0  0  0  0  0  0
 ITRead=  0  0  0  0  0  0  0  0  0  0  0  0  0  0  0  0  0  0  0  0
 ITRead=  0  0
 MicOpt= -1 -1 -1 -1 -1 -1 -1 -1 -1 -1 -1 -1 -1 -1 -1 -1 -1 -1 -1 -1
 MicOpt= -1 -1 -1 -1 -1 -1 -1 -1 -1 -1 -1 -1 -1 -1 -1 -1 -1 -1 -1 -1
 MicOpt= -1 -1 -1 -1 -1 -1 -1 -1 -1 -1 -1 -1 -1 -1 -1 -1 -1 -1 -1 -1
 MicOpt= -1 -1 -1 -1 -1 -1 -1 -1 -1 -1 -1 -1 -1 -1 -1 -1 -1 -1 -1 -1
 MicOpt= -1 -1
 NAtoms=     82 NQM=       82 NQMF=       0 NMMI=      0 NMMIF=      0
                NMic=       0 NMicF=      0.
                    Isotopes and Nuclear Properties:
 (Nuclear quadrupole moments (NQMom) in fm**2, nuclear magnetic moments (NMagM)
  in nuclear magnetons)

  Atom         1           2           3           4           5           6           7           8           9          10
 IAtWgt=          12          12          12          12          32          12          12          12          12          12
 AtmWgt=  12.0000000  12.0000000  12.0000000  12.0000000  31.9720718  12.0000000  12.0000000  12.0000000  12.0000000  12.0000000
 NucSpn=           0           0           0           0           0           0           0           0           0           0
 AtZEff=  -0.0000000  -0.0000000  -0.0000000  -0.0000000  -0.0000000  -0.0000000  -0.0000000  -0.0000000  -0.0000000  -0.0000000
 NQMom=    0.0000000   0.0000000   0.0000000   0.0000000   0.0000000   0.0000000   0.0000000   0.0000000   0.0000000   0.0000000
 NMagM=    0.0000000   0.0000000   0.0000000   0.0000000   0.0000000   0.0000000   0.0000000   0.0000000   0.0000000   0.0000000
 AtZNuc=   6.0000000   6.0000000   6.0000000   6.0000000  16.0000000   6.0000000   6.0000000   6.0000000   6.0000000   6.0000000

  Atom        11          12          13          14          15          16          17          18          19          20
 IAtWgt=          12          12          12          12          12          12          12          12          12          12
 AtmWgt=  12.0000000  12.0000000  12.0000000  12.0000000  12.0000000  12.0000000  12.0000000  12.0000000  12.0000000  12.0000000
 NucSpn=           0           0           0           0           0           0           0           0           0           0
 AtZEff=  -0.0000000  -0.0000000  -0.0000000  -0.0000000  -0.0000000  -0.0000000  -0.0000000  -0.0000000  -0.0000000  -0.0000000
 NQMom=    0.0000000   0.0000000   0.0000000   0.0000000   0.0000000   0.0000000   0.0000000   0.0000000   0.0000000   0.0000000
 NMagM=    0.0000000   0.0000000   0.0000000   0.0000000   0.0000000   0.0000000   0.0000000   0.0000000   0.0000000   0.0000000
 AtZNuc=   6.0000000   6.0000000   6.0000000   6.0000000   6.0000000   6.0000000   6.0000000   6.0000000   6.0000000   6.0000000

  Atom        21          22          23          24          25          26          27          28          29          30
 IAtWgt=          16          12          12          12          12          12          32          12          12          12
 AtmWgt=  15.9949146  12.0000000  12.0000000  12.0000000  12.0000000  12.0000000  31.9720718  12.0000000  12.0000000  12.0000000
 NucSpn=           0           0           0           0           0           0           0           0           0           0
 AtZEff=  -0.0000000  -0.0000000  -0.0000000  -0.0000000  -0.0000000  -0.0000000  -0.0000000  -0.0000000  -0.0000000  -0.0000000
 NQMom=    0.0000000   0.0000000   0.0000000   0.0000000   0.0000000   0.0000000   0.0000000   0.0000000   0.0000000   0.0000000
 NMagM=    0.0000000   0.0000000   0.0000000   0.0000000   0.0000000   0.0000000   0.0000000   0.0000000   0.0000000   0.0000000
 AtZNuc=   8.0000000   6.0000000   6.0000000   6.0000000   6.0000000   6.0000000  16.0000000   6.0000000   6.0000000   6.0000000

  Atom        31          32          33          34          35          36          37          38          39          40
 IAtWgt=          12          12          12          12          12          12          12          12          12          12
 AtmWgt=  12.0000000  12.0000000  12.0000000  12.0000000  12.0000000  12.0000000  12.0000000  12.0000000  12.0000000  12.0000000
 NucSpn=           0           0           0           0           0           0           0           0           0           0
 AtZEff=  -0.0000000  -0.0000000  -0.0000000  -0.0000000  -0.0000000  -0.0000000  -0.0000000  -0.0000000  -0.0000000  -0.0000000
 NQMom=    0.0000000   0.0000000   0.0000000   0.0000000   0.0000000   0.0000000   0.0000000   0.0000000   0.0000000   0.0000000
 NMagM=    0.0000000   0.0000000   0.0000000   0.0000000   0.0000000   0.0000000   0.0000000   0.0000000   0.0000000   0.0000000
 AtZNuc=   6.0000000   6.0000000   6.0000000   6.0000000   6.0000000   6.0000000   6.0000000   6.0000000   6.0000000   6.0000000

  Atom        41          42          43          44          45          46          47          48          49          50
 IAtWgt=          12          16          12          12           1           1           1           1           1           1
 AtmWgt=  12.0000000  15.9949146  12.0000000  12.0000000   1.0078250   1.0078250   1.0078250   1.0078250   1.0078250   1.0078250
 NucSpn=           0           0           0           0           1           1           1           1           1           1
 AtZEff=  -0.0000000  -0.0000000  -0.0000000  -0.0000000  -0.0000000  -0.0000000  -0.0000000  -0.0000000  -0.0000000  -0.0000000
 NQMom=    0.0000000   0.0000000   0.0000000   0.0000000   0.0000000   0.0000000   0.0000000   0.0000000   0.0000000   0.0000000
 NMagM=    0.0000000   0.0000000   0.0000000   0.0000000   2.7928460   2.7928460   2.7928460   2.7928460   2.7928460   2.7928460
 AtZNuc=   6.0000000   8.0000000   6.0000000   6.0000000   1.0000000   1.0000000   1.0000000   1.0000000   1.0000000   1.0000000

  Atom        51          52          53          54          55          56          57          58          59          60
 IAtWgt=           1           1           1           1           1           1           1           1           1           1
 AtmWgt=   1.0078250   1.0078250   1.0078250   1.0078250   1.0078250   1.0078250   1.0078250   1.0078250   1.0078250   1.0078250
 NucSpn=           1           1           1           1           1           1           1           1           1           1
 AtZEff=  -0.0000000  -0.0000000  -0.0000000  -0.0000000  -0.0000000  -0.0000000  -0.0000000  -0.0000000  -0.0000000  -0.0000000
 NQMom=    0.0000000   0.0000000   0.0000000   0.0000000   0.0000000   0.0000000   0.0000000   0.0000000   0.0000000   0.0000000
 NMagM=    2.7928460   2.7928460   2.7928460   2.7928460   2.7928460   2.7928460   2.7928460   2.7928460   2.7928460   2.7928460
 AtZNuc=   1.0000000   1.0000000   1.0000000   1.0000000   1.0000000   1.0000000   1.0000000   1.0000000   1.0000000   1.0000000

  Atom        61          62          63          64          65          66          67          68          69          70
 IAtWgt=           1           1           1           1           1           1           1           1           1           1
 AtmWgt=   1.0078250   1.0078250   1.0078250   1.0078250   1.0078250   1.0078250   1.0078250   1.0078250   1.0078250   1.0078250
 NucSpn=           1           1           1           1           1           1           1           1           1           1
 AtZEff=  -0.0000000  -0.0000000  -0.0000000  -0.0000000  -0.0000000  -0.0000000  -0.0000000  -0.0000000  -0.0000000  -0.0000000
 NQMom=    0.0000000   0.0000000   0.0000000   0.0000000   0.0000000   0.0000000   0.0000000   0.0000000   0.0000000   0.0000000
 NMagM=    2.7928460   2.7928460   2.7928460   2.7928460   2.7928460   2.7928460   2.7928460   2.7928460   2.7928460   2.7928460
 AtZNuc=   1.0000000   1.0000000   1.0000000   1.0000000   1.0000000   1.0000000   1.0000000   1.0000000   1.0000000   1.0000000

  Atom        71          72          73          74          75          76          77          78          79          80
 IAtWgt=           1           1           1           1           1           1           1           1           1           1
 AtmWgt=   1.0078250   1.0078250   1.0078250   1.0078250   1.0078250   1.0078250   1.0078250   1.0078250   1.0078250   1.0078250
 NucSpn=           1           1           1           1           1           1           1           1           1           1
 AtZEff=  -0.0000000  -0.0000000  -0.0000000  -0.0000000  -0.0000000  -0.0000000  -0.0000000  -0.0000000  -0.0000000  -0.0000000
 NQMom=    0.0000000   0.0000000   0.0000000   0.0000000   0.0000000   0.0000000   0.0000000   0.0000000   0.0000000   0.0000000
 NMagM=    2.7928460   2.7928460   2.7928460   2.7928460   2.7928460   2.7928460   2.7928460   2.7928460   2.7928460   2.7928460
 AtZNuc=   1.0000000   1.0000000   1.0000000   1.0000000   1.0000000   1.0000000   1.0000000   1.0000000   1.0000000   1.0000000

  Atom        81          82
 IAtWgt=           1           1
 AtmWgt=   1.0078250   1.0078250
 NucSpn=           1           1
 AtZEff=  -0.0000000  -0.0000000
 NQMom=    0.0000000   0.0000000
 NMagM=    2.7928460   2.7928460
 AtZNuc=   1.0000000   1.0000000
 Leave Link  101 at Thu Jan 23 15:37:03 2025, MaxMem= 13421772800 cpu:               7.2 elap:               0.2
 (Enter /public/software/apps/Gaussian/g16/l103.exe)

 GradGradGradGradGradGradGradGradGradGradGradGradGradGradGradGradGradGrad
 Berny optimization.
 Initialization pass.
                           ----------------------------
                           !    Initial Parameters    !
                           ! (Angstroms and Degrees)  !
 --------------------------                            --------------------------
 ! Name  Definition              Value          Derivative Info.                !
 --------------------------------------------------------------------------------
 ! R1    R(1,2)                  1.5239         estimate D2E/DX2                !
 ! R2    R(1,45)                 1.0876         estimate D2E/DX2                !
 ! R3    R(1,46)                 1.0885         estimate D2E/DX2                !
 ! R4    R(1,47)                 1.0876         estimate D2E/DX2                !
 ! R5    R(2,3)                  1.5211         estimate D2E/DX2                !
 ! R6    R(2,4)                  1.5212         estimate D2E/DX2                !
 ! R7    R(2,5)                  1.8671         estimate D2E/DX2                !
 ! R8    R(3,48)                 1.0885         estimate D2E/DX2                !
 ! R9    R(3,49)                 1.0891         estimate D2E/DX2                !
 ! R10   R(3,50)                 1.088          estimate D2E/DX2                !
 ! R11   R(4,51)                 1.0891         estimate D2E/DX2                !
 ! R12   R(4,52)                 1.088          estimate D2E/DX2                !
 ! R13   R(4,53)                 1.0886         estimate D2E/DX2                !
 ! R14   R(5,6)                  1.7838         estimate D2E/DX2                !
 ! R15   R(6,7)                  1.3866         estimate D2E/DX2                !
 ! R16   R(6,44)                 1.3867         estimate D2E/DX2                !
 ! R17   R(7,8)                  1.3813         estimate D2E/DX2                !
 ! R18   R(7,54)                 1.0795         estimate D2E/DX2                !
 ! R19   R(8,9)                  1.3921         estimate D2E/DX2                !
 ! R20   R(8,55)                 1.0789         estimate D2E/DX2                !
 ! R21   R(9,10)                 1.4715         estimate D2E/DX2                !
 ! R22   R(9,43)                 1.3929         estimate D2E/DX2                !
 ! R23   R(10,11)                1.3721         estimate D2E/DX2                !
 ! R24   R(10,41)                1.4195         estimate D2E/DX2                !
 ! R25   R(11,12)                1.4076         estimate D2E/DX2                !
 ! R26   R(11,56)                1.0803         estimate D2E/DX2                !
 ! R27   R(12,13)                1.4099         estimate D2E/DX2                !
 ! R28   R(12,17)                1.419          estimate D2E/DX2                !
 ! R29   R(13,14)                1.3667         estimate D2E/DX2                !
 ! R30   R(13,57)                1.0805         estimate D2E/DX2                !
 ! R31   R(14,15)                1.4028         estimate D2E/DX2                !
 ! R32   R(14,58)                1.0798         estimate D2E/DX2                !
 ! R33   R(15,16)                1.3671         estimate D2E/DX2                !
 ! R34   R(15,59)                1.0799         estimate D2E/DX2                !
 ! R35   R(16,17)                1.4113         estimate D2E/DX2                !
 ! R36   R(16,60)                1.0806         estimate D2E/DX2                !
 ! R37   R(17,18)                1.4196         estimate D2E/DX2                !
 ! R38   R(18,19)                1.4875         estimate D2E/DX2                !
 ! R39   R(18,41)                1.3818         estimate D2E/DX2                !
 ! R40   R(19,20)                1.3818         estimate D2E/DX2                !
 ! R41   R(19,40)                1.4196         estimate D2E/DX2                !
 ! R42   R(20,21)                1.3591         estimate D2E/DX2                !
 ! R43   R(20,22)                1.4195         estimate D2E/DX2                !
 ! R44   R(21,61)                0.9678         estimate D2E/DX2                !
 ! R45   R(22,23)                1.4715         estimate D2E/DX2                !
 ! R46   R(22,34)                1.3721         estimate D2E/DX2                !
 ! R47   R(23,24)                1.392          estimate D2E/DX2                !
 ! R48   R(23,33)                1.3928         estimate D2E/DX2                !
 ! R49   R(24,25)                1.3812         estimate D2E/DX2                !
 ! R50   R(24,62)                1.0789         estimate D2E/DX2                !
 ! R51   R(25,26)                1.3866         estimate D2E/DX2                !
 ! R52   R(25,63)                1.0795         estimate D2E/DX2                !
 ! R53   R(26,27)                1.7838         estimate D2E/DX2                !
 ! R54   R(26,32)                1.3867         estimate D2E/DX2                !
 ! R55   R(27,28)                1.8671         estimate D2E/DX2                !
 ! R56   R(28,29)                1.524          estimate D2E/DX2                !
 ! R57   R(28,30)                1.5211         estimate D2E/DX2                !
 ! R58   R(28,31)                1.5212         estimate D2E/DX2                !
 ! R59   R(29,64)                1.0885         estimate D2E/DX2                !
 ! R60   R(29,65)                1.0876         estimate D2E/DX2                !
 ! R61   R(29,66)                1.0876         estimate D2E/DX2                !
 ! R62   R(30,67)                1.088          estimate D2E/DX2                !
 ! R63   R(30,68)                1.0891         estimate D2E/DX2                !
 ! R64   R(30,69)                1.0885         estimate D2E/DX2                !
 ! R65   R(31,70)                1.0891         estimate D2E/DX2                !
 ! R66   R(31,71)                1.0886         estimate D2E/DX2                !
 ! R67   R(31,72)                1.088          estimate D2E/DX2                !
 ! R68   R(32,33)                1.3812         estimate D2E/DX2                !
 ! R69   R(32,73)                1.0796         estimate D2E/DX2                !
 ! R70   R(33,74)                1.0806         estimate D2E/DX2                !
 ! R71   R(34,35)                1.4076         estimate D2E/DX2                !
 ! R72   R(34,75)                1.0803         estimate D2E/DX2                !
 ! R73   R(35,36)                1.4099         estimate D2E/DX2                !
 ! R74   R(35,40)                1.419          estimate D2E/DX2                !
 ! R75   R(36,37)                1.3667         estimate D2E/DX2                !
 ! R76   R(36,76)                1.0805         estimate D2E/DX2                !
 ! R77   R(37,38)                1.4029         estimate D2E/DX2                !
 ! R78   R(37,77)                1.0798         estimate D2E/DX2                !
 ! R79   R(38,39)                1.3671         estimate D2E/DX2                !
 ! R80   R(38,78)                1.0799         estimate D2E/DX2                !
 ! R81   R(39,40)                1.4113         estimate D2E/DX2                !
 ! R82   R(39,79)                1.0806         estimate D2E/DX2                !
 ! R83   R(41,42)                1.3591         estimate D2E/DX2                !
 ! R84   R(42,80)                0.9678         estimate D2E/DX2                !
 ! R85   R(43,44)                1.3812         estimate D2E/DX2                !
 ! R86   R(43,81)                1.0806         estimate D2E/DX2                !
 ! R87   R(44,82)                1.0796         estimate D2E/DX2                !
 ! A1    A(2,1,45)             110.4737         estimate D2E/DX2                !
 ! A2    A(2,1,46)             110.013          estimate D2E/DX2                !
 ! A3    A(2,1,47)             110.4614         estimate D2E/DX2                !
 ! A4    A(45,1,46)            108.7723         estimate D2E/DX2                !
 ! A5    A(45,1,47)            108.2989         estimate D2E/DX2                !
 ! A6    A(46,1,47)            108.7698         estimate D2E/DX2                !
 ! A7    A(1,2,3)              110.8925         estimate D2E/DX2                !
 ! A8    A(1,2,4)              110.8871         estimate D2E/DX2                !
 ! A9    A(1,2,5)              104.6412         estimate D2E/DX2                !
 ! A10   A(3,2,4)              111.2725         estimate D2E/DX2                !
 ! A11   A(3,2,5)              109.5194         estimate D2E/DX2                !
 ! A12   A(4,2,5)              109.4089         estimate D2E/DX2                !
 ! A13   A(2,3,48)             110.9924         estimate D2E/DX2                !
 ! A14   A(2,3,49)             109.7147         estimate D2E/DX2                !
 ! A15   A(2,3,50)             110.471          estimate D2E/DX2                !
 ! A16   A(48,3,49)            108.3292         estimate D2E/DX2                !
 ! A17   A(48,3,50)            108.7671         estimate D2E/DX2                !
 ! A18   A(49,3,50)            108.5007         estimate D2E/DX2                !
 ! A19   A(2,4,51)             109.7402         estimate D2E/DX2                !
 ! A20   A(2,4,52)             110.4857         estimate D2E/DX2                !
 ! A21   A(2,4,53)             110.9371         estimate D2E/DX2                !
 ! A22   A(51,4,52)            108.5125         estimate D2E/DX2                !
 ! A23   A(51,4,53)            108.3404         estimate D2E/DX2                !
 ! A24   A(52,4,53)            108.7603         estimate D2E/DX2                !
 ! A25   A(2,5,6)              101.4722         estimate D2E/DX2                !
 ! A26   A(5,6,7)              120.025          estimate D2E/DX2                !
 ! A27   A(5,6,44)             119.8721         estimate D2E/DX2                !
 ! A28   A(7,6,44)             120.0877         estimate D2E/DX2                !
 ! A29   A(6,7,8)              119.956          estimate D2E/DX2                !
 ! A30   A(6,7,54)             119.6213         estimate D2E/DX2                !
 ! A31   A(8,7,54)             120.4218         estimate D2E/DX2                !
 ! A32   A(7,8,9)              120.499          estimate D2E/DX2                !
 ! A33   A(7,8,55)             119.718          estimate D2E/DX2                !
 ! A34   A(9,8,55)             119.7787         estimate D2E/DX2                !
 ! A35   A(8,9,10)             120.958          estimate D2E/DX2                !
 ! A36   A(8,9,43)             119.0014         estimate D2E/DX2                !
 ! A37   A(10,9,43)            120.0189         estimate D2E/DX2                !
 ! A38   A(9,10,11)            120.6144         estimate D2E/DX2                !
 ! A39   A(9,10,41)            120.4196         estimate D2E/DX2                !
 ! A40   A(11,10,41)           118.9656         estimate D2E/DX2                !
 ! A41   A(10,11,12)           122.0095         estimate D2E/DX2                !
 ! A42   A(10,11,56)           119.3173         estimate D2E/DX2                !
 ! A43   A(12,11,56)           118.6521         estimate D2E/DX2                !
 ! A44   A(11,12,13)           121.9336         estimate D2E/DX2                !
 ! A45   A(11,12,17)           118.9907         estimate D2E/DX2                !
 ! A46   A(13,12,17)           119.0742         estimate D2E/DX2                !
 ! A47   A(12,13,14)           120.7918         estimate D2E/DX2                !
 ! A48   A(12,13,57)           118.498          estimate D2E/DX2                !
 ! A49   A(14,13,57)           120.7098         estimate D2E/DX2                !
 ! A50   A(13,14,15)           120.1384         estimate D2E/DX2                !
 ! A51   A(13,14,58)           120.3989         estimate D2E/DX2                !
 ! A52   A(15,14,58)           119.4608         estimate D2E/DX2                !
 ! A53   A(14,15,16)           120.5287         estimate D2E/DX2                !
 ! A54   A(14,15,59)           119.4328         estimate D2E/DX2                !
 ! A55   A(16,15,59)           120.038          estimate D2E/DX2                !
 ! A56   A(15,16,17)           120.6825         estimate D2E/DX2                !
 ! A57   A(15,16,60)           120.2604         estimate D2E/DX2                !
 ! A58   A(17,16,60)           119.0538         estimate D2E/DX2                !
 ! A59   A(12,17,16)           118.7723         estimate D2E/DX2                !
 ! A60   A(12,17,18)           118.966          estimate D2E/DX2                !
 ! A61   A(16,17,18)           122.2587         estimate D2E/DX2                !
 ! A62   A(17,18,19)           120.4395         estimate D2E/DX2                !
 ! A63   A(17,18,41)           120.3772         estimate D2E/DX2                !
 ! A64   A(19,18,41)           119.1759         estimate D2E/DX2                !
 ! A65   A(18,19,20)           119.177          estimate D2E/DX2                !
 ! A66   A(18,19,40)           120.4397         estimate D2E/DX2                !
 ! A67   A(20,19,40)           120.3759         estimate D2E/DX2                !
 ! A68   A(19,20,21)           121.5369         estimate D2E/DX2                !
 ! A69   A(19,20,22)           120.6644         estimate D2E/DX2                !
 ! A70   A(21,20,22)           117.7663         estimate D2E/DX2                !
 ! A71   A(20,21,61)           109.2785         estimate D2E/DX2                !
 ! A72   A(20,22,23)           120.4243         estimate D2E/DX2                !
 ! A73   A(20,22,34)           118.9676         estimate D2E/DX2                !
 ! A74   A(23,22,34)           120.6079         estimate D2E/DX2                !
 ! A75   A(22,23,24)           120.9545         estimate D2E/DX2                !
 ! A76   A(22,23,33)           120.0203         estimate D2E/DX2                !
 ! A77   A(24,23,33)           119.0029         estimate D2E/DX2                !
 ! A78   A(23,24,25)           120.4973         estimate D2E/DX2                !
 ! A79   A(23,24,62)           119.7799         estimate D2E/DX2                !
 ! A80   A(25,24,62)           119.7184         estimate D2E/DX2                !
 ! A81   A(24,25,26)           119.9573         estimate D2E/DX2                !
 ! A82   A(24,25,63)           120.4214         estimate D2E/DX2                !
 ! A83   A(26,25,63)           119.6204         estimate D2E/DX2                !
 ! A84   A(25,26,27)           120.0262         estimate D2E/DX2                !
 ! A85   A(25,26,32)           120.0873         estimate D2E/DX2                !
 ! A86   A(27,26,32)           119.8713         estimate D2E/DX2                !
 ! A87   A(26,27,28)           101.4721         estimate D2E/DX2                !
 ! A88   A(27,28,29)           104.6389         estimate D2E/DX2                !
 ! A89   A(27,28,30)           109.5246         estimate D2E/DX2                !
 ! A90   A(27,28,31)           109.4026         estimate D2E/DX2                !
 ! A91   A(29,28,30)           110.8912         estimate D2E/DX2                !
 ! A92   A(29,28,31)           110.8906         estimate D2E/DX2                !
 ! A93   A(30,28,31)           111.2736         estimate D2E/DX2                !
 ! A94   A(28,29,64)           110.0104         estimate D2E/DX2                !
 ! A95   A(28,29,65)           110.4761         estimate D2E/DX2                !
 ! A96   A(28,29,66)           110.4635         estimate D2E/DX2                !
 ! A97   A(64,29,65)           108.7712         estimate D2E/DX2                !
 ! A98   A(64,29,66)           108.7692         estimate D2E/DX2                !
 ! A99   A(65,29,66)           108.2987         estimate D2E/DX2                !
 ! A100  A(28,30,67)           110.4704         estimate D2E/DX2                !
 ! A101  A(28,30,68)           109.7146         estimate D2E/DX2                !
 ! A102  A(28,30,69)           110.9931         estimate D2E/DX2                !
 ! A103  A(67,30,68)           108.5            estimate D2E/DX2                !
 ! A104  A(67,30,69)           108.7689         estimate D2E/DX2                !
 ! A105  A(68,30,69)           108.3281         estimate D2E/DX2                !
 ! A106  A(28,31,70)           109.7425         estimate D2E/DX2                !
 ! A107  A(28,31,71)           110.9371         estimate D2E/DX2                !
 ! A108  A(28,31,72)           110.4849         estimate D2E/DX2                !
 ! A109  A(70,31,71)           108.3401         estimate D2E/DX2                !
 ! A110  A(70,31,72)           108.5137         estimate D2E/DX2                !
 ! A111  A(71,31,72)           108.758          estimate D2E/DX2                !
 ! A112  A(26,32,33)           119.805          estimate D2E/DX2                !
 ! A113  A(26,32,73)           119.6532         estimate D2E/DX2                !
 ! A114  A(33,32,73)           120.5417         estimate D2E/DX2                !
 ! A115  A(23,33,32)           120.63           estimate D2E/DX2                !
 ! A116  A(23,33,74)           119.5901         estimate D2E/DX2                !
 ! A117  A(32,33,74)           119.7727         estimate D2E/DX2                !
 ! A118  A(22,34,35)           122.008          estimate D2E/DX2                !
 ! A119  A(22,34,75)           119.3155         estimate D2E/DX2                !
 ! A120  A(35,34,75)           118.6552         estimate D2E/DX2                !
 ! A121  A(34,35,36)           121.9324         estimate D2E/DX2                !
 ! A122  A(34,35,40)           118.9909         estimate D2E/DX2                !
 ! A123  A(36,35,40)           119.0752         estimate D2E/DX2                !
 ! A124  A(35,36,37)           120.7915         estimate D2E/DX2                !
 ! A125  A(35,36,76)           118.496          estimate D2E/DX2                !
 ! A126  A(37,36,76)           120.7121         estimate D2E/DX2                !
 ! A127  A(36,37,38)           120.138          estimate D2E/DX2                !
 ! A128  A(36,37,77)           120.4            estimate D2E/DX2                !
 ! A129  A(38,37,77)           119.46           estimate D2E/DX2                !
 ! A130  A(37,38,39)           120.5292         estimate D2E/DX2                !
 ! A131  A(37,38,78)           119.4307         estimate D2E/DX2                !
 ! A132  A(39,38,78)           120.0395         estimate D2E/DX2                !
 ! A133  A(38,39,40)           120.683          estimate D2E/DX2                !
 ! A134  A(38,39,79)           120.2613         estimate D2E/DX2                !
 ! A135  A(40,39,79)           119.0524         estimate D2E/DX2                !
 ! A136  A(19,40,35)           118.9669         estimate D2E/DX2                !
 ! A137  A(19,40,39)           122.2591         estimate D2E/DX2                !
 ! A138  A(35,40,39)           118.771          estimate D2E/DX2                !
 ! A139  A(10,41,18)           120.6649         estimate D2E/DX2                !
 ! A140  A(10,41,42)           117.7672         estimate D2E/DX2                !
 ! A141  A(18,41,42)           121.5355         estimate D2E/DX2                !
 ! A142  A(41,42,80)           109.2826         estimate D2E/DX2                !
 ! A143  A(9,43,44)            120.6299         estimate D2E/DX2                !
 ! A144  A(9,43,81)            119.5929         estimate D2E/DX2                !
 ! A145  A(44,43,81)           119.77           estimate D2E/DX2                !
 ! A146  A(6,44,43)            119.8055         estimate D2E/DX2                !
 ! A147  A(6,44,82)            119.6526         estimate D2E/DX2                !
 ! A148  A(43,44,82)           120.5418         estimate D2E/DX2                !
 ! D1    D(45,1,2,3)           177.8441         estimate D2E/DX2                !
 ! D2    D(45,1,2,4)           -58.0091         estimate D2E/DX2                !
 ! D3    D(45,1,2,5)            59.851          estimate D2E/DX2                !
 ! D4    D(46,1,2,3)           -62.0519         estimate D2E/DX2                !
 ! D5    D(46,1,2,4)            62.0949         estimate D2E/DX2                !
 ! D6    D(46,1,2,5)           179.955          estimate D2E/DX2                !
 ! D7    D(47,1,2,3)            58.0411         estimate D2E/DX2                !
 ! D8    D(47,1,2,4)          -177.8121         estimate D2E/DX2                !
 ! D9    D(47,1,2,5)           -59.952          estimate D2E/DX2                !
 ! D10   D(1,2,3,48)          -179.9143         estimate D2E/DX2                !
 ! D11   D(1,2,3,49)            60.3958         estimate D2E/DX2                !
 ! D12   D(1,2,3,50)           -59.1796         estimate D2E/DX2                !
 ! D13   D(4,2,3,48)            56.1587         estimate D2E/DX2                !
 ! D14   D(4,2,3,49)           -63.5312         estimate D2E/DX2                !
 ! D15   D(4,2,3,50)           176.8935         estimate D2E/DX2                !
 ! D16   D(5,2,3,48)           -64.9302         estimate D2E/DX2                !
 ! D17   D(5,2,3,49)           175.38           estimate D2E/DX2                !
 ! D18   D(5,2,3,50)            55.8046         estimate D2E/DX2                !
 ! D19   D(1,2,4,51)           -60.5022         estimate D2E/DX2                !
 ! D20   D(1,2,4,52)            59.1131         estimate D2E/DX2                !
 ! D21   D(1,2,4,53)           179.8124         estimate D2E/DX2                !
 ! D22   D(3,2,4,51)            63.4278         estimate D2E/DX2                !
 ! D23   D(3,2,4,52)          -176.9569         estimate D2E/DX2                !
 ! D24   D(3,2,4,53)           -56.2576         estimate D2E/DX2                !
 ! D25   D(5,2,4,51)          -175.4187         estimate D2E/DX2                !
 ! D26   D(5,2,4,52)           -55.8034         estimate D2E/DX2                !
 ! D27   D(5,2,4,53)            64.896          estimate D2E/DX2                !
 ! D28   D(1,2,5,6)           -179.648          estimate D2E/DX2                !
 ! D29   D(3,2,5,6)             61.4265         estimate D2E/DX2                !
 ! D30   D(4,2,5,6)            -60.7832         estimate D2E/DX2                !
 ! D31   D(2,5,6,7)            -89.8008         estimate D2E/DX2                !
 ! D32   D(2,5,6,44)            91.6142         estimate D2E/DX2                !
 ! D33   D(5,6,7,8)            179.7993         estimate D2E/DX2                !
 ! D34   D(5,6,7,54)            -0.5322         estimate D2E/DX2                !
 ! D35   D(44,6,7,8)            -1.6188         estimate D2E/DX2                !
 ! D36   D(44,6,7,54)          178.0497         estimate D2E/DX2                !
 ! D37   D(5,6,44,43)          179.8482         estimate D2E/DX2                !
 ! D38   D(5,6,44,82)           -0.003          estimate D2E/DX2                !
 ! D39   D(7,6,44,43)            1.264          estimate D2E/DX2                !
 ! D40   D(7,6,44,82)         -178.5871         estimate D2E/DX2                !
 ! D41   D(6,7,8,9)              0.7401         estimate D2E/DX2                !
 ! D42   D(6,7,8,55)           179.9829         estimate D2E/DX2                !
 ! D43   D(54,7,8,9)          -178.9258         estimate D2E/DX2                !
 ! D44   D(54,7,8,55)            0.3171         estimate D2E/DX2                !
 ! D45   D(7,8,9,10)           178.7872         estimate D2E/DX2                !
 ! D46   D(7,8,9,43)             0.481          estimate D2E/DX2                !
 ! D47   D(55,8,9,10)           -0.4552         estimate D2E/DX2                !
 ! D48   D(55,8,9,43)         -178.7614         estimate D2E/DX2                !
 ! D49   D(8,9,10,11)         -131.7066         estimate D2E/DX2                !
 ! D50   D(8,9,10,41)           48.5184         estimate D2E/DX2                !
 ! D51   D(43,9,10,11)          46.5826         estimate D2E/DX2                !
 ! D52   D(43,9,10,41)        -133.1924         estimate D2E/DX2                !
 ! D53   D(8,9,43,44)           -0.8374         estimate D2E/DX2                !
 ! D54   D(8,9,43,81)         -179.8542         estimate D2E/DX2                !
 ! D55   D(10,9,43,44)        -179.1599         estimate D2E/DX2                !
 ! D56   D(10,9,43,81)           1.8232         estimate D2E/DX2                !
 ! D57   D(9,10,11,12)         178.811          estimate D2E/DX2                !
 ! D58   D(9,10,11,56)           0.5057         estimate D2E/DX2                !
 ! D59   D(41,10,11,12)         -1.4108         estimate D2E/DX2                !
 ! D60   D(41,10,11,56)       -179.7161         estimate D2E/DX2                !
 ! D61   D(9,10,41,18)        -179.4162         estimate D2E/DX2                !
 ! D62   D(9,10,41,42)           2.6234         estimate D2E/DX2                !
 ! D63   D(11,10,41,18)          0.8052         estimate D2E/DX2                !
 ! D64   D(11,10,41,42)       -177.1552         estimate D2E/DX2                !
 ! D65   D(10,11,12,13)       -179.0494         estimate D2E/DX2                !
 ! D66   D(10,11,12,17)          0.5061         estimate D2E/DX2                !
 ! D67   D(56,11,12,13)         -0.7332         estimate D2E/DX2                !
 ! D68   D(56,11,12,17)        178.8224         estimate D2E/DX2                !
 ! D69   D(11,12,13,14)        179.1213         estimate D2E/DX2                !
 ! D70   D(11,12,13,57)         -0.6385         estimate D2E/DX2                !
 ! D71   D(17,12,13,14)         -0.4338         estimate D2E/DX2                !
 ! D72   D(17,12,13,57)        179.8063         estimate D2E/DX2                !
 ! D73   D(11,12,17,16)       -178.3872         estimate D2E/DX2                !
 ! D74   D(11,12,17,18)          0.9982         estimate D2E/DX2                !
 ! D75   D(13,12,17,16)          1.1812         estimate D2E/DX2                !
 ! D76   D(13,12,17,18)       -179.4333         estimate D2E/DX2                !
 ! D77   D(12,13,14,15)         -0.4806         estimate D2E/DX2                !
 ! D78   D(12,13,14,58)       -179.9715         estimate D2E/DX2                !
 ! D79   D(57,13,14,15)        179.2739         estimate D2E/DX2                !
 ! D80   D(57,13,14,58)         -0.217          estimate D2E/DX2                !
 ! D81   D(13,14,15,16)          0.6378         estimate D2E/DX2                !
 ! D82   D(13,14,15,59)       -179.1076         estimate D2E/DX2                !
 ! D83   D(58,14,15,16)       -179.8665         estimate D2E/DX2                !
 ! D84   D(58,14,15,59)          0.3881         estimate D2E/DX2                !
 ! D85   D(14,15,16,17)          0.14           estimate D2E/DX2                !
 ! D86   D(14,15,16,60)       -179.1886         estimate D2E/DX2                !
 ! D87   D(59,15,16,17)        179.8838         estimate D2E/DX2                !
 ! D88   D(59,15,16,60)          0.5552         estimate D2E/DX2                !
 ! D89   D(15,16,17,12)         -1.0443         estimate D2E/DX2                !
 ! D90   D(15,16,17,18)        179.5916         estimate D2E/DX2                !
 ! D91   D(60,16,17,12)        178.2924         estimate D2E/DX2                !
 ! D92   D(60,16,17,18)         -1.0718         estimate D2E/DX2                !
 ! D93   D(12,17,18,19)        177.4154         estimate D2E/DX2                !
 ! D94   D(12,17,18,41)         -1.5869         estimate D2E/DX2                !
 ! D95   D(16,17,18,19)         -3.2217         estimate D2E/DX2                !
 ! D96   D(16,17,18,41)        177.7761         estimate D2E/DX2                !
 ! D97   D(17,18,19,20)        -71.124          estimate D2E/DX2                !
 ! D98   D(17,18,19,40)        109.8584         estimate D2E/DX2                !
 ! D99   D(41,18,19,20)        107.8901         estimate D2E/DX2                !
 ! D100  D(41,18,19,40)        -71.1275         estimate D2E/DX2                !
 ! D101  D(17,18,41,10)          0.6936         estimate D2E/DX2                !
 ! D102  D(17,18,41,42)        178.5761         estimate D2E/DX2                !
 ! D103  D(19,18,41,10)       -178.3212         estimate D2E/DX2                !
 ! D104  D(19,18,41,42)         -0.4387         estimate D2E/DX2                !
 ! D105  D(18,19,20,21)         -0.4337         estimate D2E/DX2                !
 ! D106  D(18,19,20,22)       -178.3179         estimate D2E/DX2                !
 ! D107  D(40,19,20,21)        178.5846         estimate D2E/DX2                !
 ! D108  D(40,19,20,22)          0.7003         estimate D2E/DX2                !
 ! D109  D(18,19,40,35)        177.4112         estimate D2E/DX2                !
 ! D110  D(18,19,40,39)         -3.2315         estimate D2E/DX2                !
 ! D111  D(20,19,40,35)         -1.5946         estimate D2E/DX2                !
 ! D112  D(20,19,40,39)        177.7628         estimate D2E/DX2                !
 ! D113  D(19,20,21,61)          2.3347         estimate D2E/DX2                !
 ! D114  D(22,20,21,61)       -179.722          estimate D2E/DX2                !
 ! D115  D(19,20,22,23)       -179.3976         estimate D2E/DX2                !
 ! D116  D(19,20,22,34)          0.8064         estimate D2E/DX2                !
 ! D117  D(21,20,22,23)          2.6403         estimate D2E/DX2                !
 ! D118  D(21,20,22,34)       -177.1557         estimate D2E/DX2                !
 ! D119  D(20,22,23,24)         48.5597         estimate D2E/DX2                !
 ! D120  D(20,22,23,33)       -133.1717         estimate D2E/DX2                !
 ! D121  D(34,22,23,24)       -131.6477         estimate D2E/DX2                !
 ! D122  D(34,22,23,33)         46.6209         estimate D2E/DX2                !
 ! D123  D(20,22,34,35)         -1.4191         estimate D2E/DX2                !
 ! D124  D(20,22,34,75)       -179.7161         estimate D2E/DX2                !
 ! D125  D(23,22,34,35)        178.7853         estimate D2E/DX2                !
 ! D126  D(23,22,34,75)          0.4883         estimate D2E/DX2                !
 ! D127  D(22,23,24,25)        178.7488         estimate D2E/DX2                !
 ! D128  D(22,23,24,62)         -0.4832         estimate D2E/DX2                !
 ! D129  D(33,23,24,25)          0.4629         estimate D2E/DX2                !
 ! D130  D(33,23,24,62)       -178.7692         estimate D2E/DX2                !
 ! D131  D(22,23,33,32)       -179.1344         estimate D2E/DX2                !
 ! D132  D(22,23,33,74)          1.8492         estimate D2E/DX2                !
 ! D133  D(24,23,33,32)         -0.8321         estimate D2E/DX2                !
 ! D134  D(24,23,33,74)       -179.8484         estimate D2E/DX2                !
 ! D135  D(23,24,25,26)          0.7539         estimate D2E/DX2                !
 ! D136  D(23,24,25,63)       -178.9059         estimate D2E/DX2                !
 ! D137  D(62,24,25,26)        179.9865         estimate D2E/DX2                !
 ! D138  D(62,24,25,63)          0.3266         estimate D2E/DX2                !
 ! D139  D(24,25,26,27)        179.8046         estimate D2E/DX2                !
 ! D140  D(24,25,26,32)         -1.6155         estimate D2E/DX2                !
 ! D141  D(63,25,26,27)         -0.5328         estimate D2E/DX2                !
 ! D142  D(63,25,26,32)        178.0471         estimate D2E/DX2                !
 ! D143  D(25,26,27,28)        -89.7091         estimate D2E/DX2                !
 ! D144  D(32,26,27,28)         91.7079         estimate D2E/DX2                !
 ! D145  D(25,26,32,33)          1.248          estimate D2E/DX2                !
 ! D146  D(25,26,32,73)       -178.5998         estimate D2E/DX2                !
 ! D147  D(27,26,32,33)        179.8301         estimate D2E/DX2                !
 ! D148  D(27,26,32,73)         -0.0177         estimate D2E/DX2                !
 ! D149  D(26,27,28,29)       -179.6534         estimate D2E/DX2                !
 ! D150  D(26,27,28,30)         61.4213         estimate D2E/DX2                !
 ! D151  D(26,27,28,31)        -60.7891         estimate D2E/DX2                !
 ! D152  D(27,28,29,64)        179.9294         estimate D2E/DX2                !
 ! D153  D(27,28,29,65)         59.827          estimate D2E/DX2                !
 ! D154  D(27,28,29,66)        -59.9787         estimate D2E/DX2                !
 ! D155  D(30,28,29,64)        -62.0733         estimate D2E/DX2                !
 ! D156  D(30,28,29,65)        177.8243         estimate D2E/DX2                !
 ! D157  D(30,28,29,66)         58.0186         estimate D2E/DX2                !
 ! D158  D(31,28,29,64)         62.0764         estimate D2E/DX2                !
 ! D159  D(31,28,29,65)        -58.0259         estimate D2E/DX2                !
 ! D160  D(31,28,29,66)       -177.8316         estimate D2E/DX2                !
 ! D161  D(27,28,30,67)         55.8056         estimate D2E/DX2                !
 ! D162  D(27,28,30,68)        175.3797         estimate D2E/DX2                !
 ! D163  D(27,28,30,69)        -64.9314         estimate D2E/DX2                !
 ! D164  D(29,28,30,67)        -59.1781         estimate D2E/DX2                !
 ! D165  D(29,28,30,68)         60.396          estimate D2E/DX2                !
 ! D166  D(29,28,30,69)       -179.9151         estimate D2E/DX2                !
 ! D167  D(31,28,30,67)        176.8908         estimate D2E/DX2                !
 ! D168  D(31,28,30,68)        -63.5352         estimate D2E/DX2                !
 ! D169  D(31,28,30,69)         56.1537         estimate D2E/DX2                !
 ! D170  D(27,28,31,70)       -175.4836         estimate D2E/DX2                !
 ! D171  D(27,28,31,71)         64.8299         estimate D2E/DX2                !
 ! D172  D(27,28,31,72)        -55.866          estimate D2E/DX2                !
 ! D173  D(29,28,31,70)        -60.5717         estimate D2E/DX2                !
 ! D174  D(29,28,31,71)        179.7419         estimate D2E/DX2                !
 ! D175  D(29,28,31,72)         59.0459         estimate D2E/DX2                !
 ! D176  D(30,28,31,70)         63.3598         estimate D2E/DX2                !
 ! D177  D(30,28,31,71)        -56.3266         estimate D2E/DX2                !
 ! D178  D(30,28,31,72)       -177.0225         estimate D2E/DX2                !
 ! D179  D(26,32,33,23)         -0.0186         estimate D2E/DX2                !
 ! D180  D(26,32,33,74)        178.9959         estimate D2E/DX2                !
 ! D181  D(73,32,33,23)        179.8278         estimate D2E/DX2                !
 ! D182  D(73,32,33,74)         -1.1577         estimate D2E/DX2                !
 ! D183  D(22,34,35,36)       -179.0336         estimate D2E/DX2                !
 ! D184  D(22,34,35,40)          0.5133         estimate D2E/DX2                !
 ! D185  D(75,34,35,36)         -0.7258         estimate D2E/DX2                !
 ! D186  D(75,34,35,40)        178.8212         estimate D2E/DX2                !
 ! D187  D(34,35,36,37)        179.1093         estimate D2E/DX2                !
 ! D188  D(34,35,36,76)         -0.6447         estimate D2E/DX2                !
 ! D189  D(40,35,36,37)         -0.4373         estimate D2E/DX2                !
 ! D190  D(40,35,36,76)        179.8088         estimate D2E/DX2                !
 ! D191  D(34,35,40,19)          0.9992         estimate D2E/DX2                !
 ! D192  D(34,35,40,39)       -178.3809         estimate D2E/DX2                !
 ! D193  D(36,35,40,19)       -179.4408         estimate D2E/DX2                !
 ! D194  D(36,35,40,39)          1.1792         estimate D2E/DX2                !
 ! D195  D(35,36,37,38)         -0.476          estimate D2E/DX2                !
 ! D196  D(35,36,37,77)       -179.967          estimate D2E/DX2                !
 ! D197  D(76,36,37,38)        179.2725         estimate D2E/DX2                !
 ! D198  D(76,36,37,77)         -0.2185         estimate D2E/DX2                !
 ! D199  D(36,37,38,39)          0.6377         estimate D2E/DX2                !
 ! D200  D(36,37,38,78)       -179.1102         estimate D2E/DX2                !
 ! D201  D(77,37,38,39)       -179.8666         estimate D2E/DX2                !
 ! D202  D(77,37,38,78)          0.3856         estimate D2E/DX2                !
 ! D203  D(37,38,39,40)          0.1346         estimate D2E/DX2                !
 ! D204  D(37,38,39,79)       -179.1914         estimate D2E/DX2                !
 ! D205  D(78,38,39,40)        179.8809         estimate D2E/DX2                !
 ! D206  D(78,38,39,79)          0.5549         estimate D2E/DX2                !
 ! D207  D(38,39,40,19)        179.6036         estimate D2E/DX2                !
 ! D208  D(38,39,40,35)         -1.0378         estimate D2E/DX2                !
 ! D209  D(79,39,40,19)         -1.0623         estimate D2E/DX2                !
 ! D210  D(79,39,40,35)        178.2962         estimate D2E/DX2                !
 ! D211  D(10,41,42,80)       -179.7139         estimate D2E/DX2                !
 ! D212  D(18,41,42,80)          2.3445         estimate D2E/DX2                !
 ! D213  D(9,43,44,6)           -0.0303         estimate D2E/DX2                !
 ! D214  D(9,43,44,82)         179.8195         estimate D2E/DX2                !
 ! D215  D(81,43,44,6)         178.9849         estimate D2E/DX2                !
 ! D216  D(81,43,44,82)         -1.1653         estimate D2E/DX2                !
 --------------------------------------------------------------------------------
 Trust Radius=3.00D-01 FncErr=1.00D-07 GrdErr=1.00D-06 EigMax=2.50D+02 EigMin=1.00D-04
 Number of steps in this run=    461 maximum allowed number of steps=    492.
 GradGradGradGradGradGradGradGradGradGradGradGradGradGradGradGradGradGrad

 Leave Link  103 at Thu Jan 23 15:37:03 2025, MaxMem= 13421772800 cpu:               0.8 elap:               0.0
 (Enter /public/software/apps/Gaussian/g16/l202.exe)
 Symmetry turned off by external request.
 Stoichiometry    C40H38O2S2
 Framework group  C1[X(C40H38O2S2)]
 Deg. of freedom   240
 Full point group                 C1      NOp   1
                          Input orientation:                          
 ---------------------------------------------------------------------
 Center     Atomic      Atomic             Coordinates (Angstroms)
 Number     Number       Type             X           Y           Z
 ---------------------------------------------------------------------
      1          6           0       -8.428320    4.386902   -1.132339
      2          6           0       -7.188423    3.558962   -0.816770
      3          6           0       -6.447101    3.184882   -2.091276
      4          6           0       -6.278337    4.294171    0.155496
      5         16           0       -7.847580    2.013679   -0.002036
      6          6           0       -6.340858    1.121175    0.337236
      7          6           0       -5.827204    0.243367   -0.605238
      8          6           0       -4.658168   -0.443874   -0.342735
      9          6           0       -3.996189   -0.274514    0.870078
     10          6           0       -2.764512   -1.021399    1.170938
     11          6           0       -2.618619   -1.675098    2.368413
     12          6           0       -1.463722   -2.418318    2.676872
     13          6           0       -1.323766   -3.105626    3.899939
     14          6           0       -0.199479   -3.835022    4.167924
     15          6           0        0.830132   -3.916551    3.218592
     16          6           0        0.727136   -3.259354    2.024245
     17          6           0       -0.413935   -2.484793    1.724513
     18          6           0       -0.552068   -1.781968    0.498842
     19          6           0        0.551609   -1.782028   -0.498436
     20          6           0        1.705189   -1.071607   -0.226593
     21          8           0        1.850808   -0.366441    0.926151
     22          6           0        2.763663   -1.020848   -1.171054
     23          6           0        3.995232   -0.273605   -0.870630
     24          6           0        4.657807   -0.443073    0.341832
     25          6           0        5.827159    0.243893    0.603640
     26          6           0        6.340383    1.121737   -0.339048
     27         16           0        7.847579    2.013772   -0.000731
     28          6           0        7.189611    3.557793    0.817370
     29          6           0        8.430009    4.385197    1.132401
     30          6           0        6.450124    3.181867    2.092387
     31          6           0        6.278151    4.294402   -0.152543
     32          6           0        5.699470    1.285776   -1.557772
     33          6           0        4.534357    0.591678   -1.819658
     34          6           0        2.618034   -1.675272   -2.368169
     35          6           0        1.463535   -2.419302   -2.676087
     36          6           0        1.323991   -3.107620   -3.898648
     37          6           0        0.200205   -3.837987   -4.166024
     38          6           0       -0.829344   -3.919441   -3.216596
     39          6           0       -0.726780   -3.261217   -2.022790
     40          6           0        0.413827   -2.485725   -1.723637
     41          6           0       -1.705945   -1.072232    0.226541
     42          8           0       -1.851784   -0.367788   -0.926593
     43          6           0       -4.535823    0.590680    1.818904
     44          6           0       -5.700758    1.284853    1.556434
     45          1           0       -8.973522    4.618337   -0.220139
     46          1           0       -8.140768    5.319362   -1.614703
     47          1           0       -9.092167    3.839123   -1.797278
     48          1           0       -5.561891    2.592123   -1.867829
     49          1           0       -6.131997    4.088241   -2.611622
     50          1           0       -7.093493    2.612731   -2.753445
     51          1           0       -5.955423    5.236809   -0.284054
     52          1           0       -6.805457    4.508084    1.082883
     53          1           0       -5.393956    3.702051    0.384042
     54          1           0       -6.348746    0.098062   -1.539100
     55          1           0       -4.262054   -1.126182   -1.078716
     56          1           0       -3.422484   -1.644009    3.089386
     57          1           0       -2.127442   -3.046067    4.619660
     58          1           0       -0.099146   -4.359312    5.106542
     59          1           0        1.707122   -4.507872    3.436350
     60          1           0        1.516989   -3.335739    1.290799
     61          1           0        1.065536   -0.490642    1.478084
     62          1           0        4.262013   -1.125360    1.078008
     63          1           0        6.349346    0.098278    1.537091
     64          1           0        8.143127    5.317100    1.616223
     65          1           0        8.974132    4.617693    0.219833
     66          1           0        9.094615    3.836580    1.795882
     67          1           0        7.097461    2.608723    2.752773
     68          1           0        6.135825    4.084472    2.614525
     69          1           0        5.564549    2.589501    1.869359
     70          1           0        5.954875    5.235853    0.289270
     71          1           0        5.394030    3.702094   -0.381632
     72          1           0        6.804322    4.510664   -1.079917
     73          1           0        6.117581    1.953975   -2.295452
     74          1           0        4.026586    0.732218   -2.763079
     75          1           0        3.421885   -1.644201   -3.089156
     76          1           0        2.127648   -3.048093   -4.618392
     77          1           0        0.100195   -4.363110   -5.104210
     78          1           0       -1.705943   -4.511505   -3.433909
     79          1           0       -1.516586   -3.337499   -1.289279
     80          1           0       -1.066506   -0.492031   -1.478508
     81          1           0       -4.028627    0.731115    2.762650
     82          1           0       -6.119337    1.952879    2.294002
 ---------------------------------------------------------------------
 Rotational constants (GHZ):           0.0832152           0.0301341           0.0271839
 Leave Link  202 at Thu Jan 23 15:37:03 2025, MaxMem= 13421772800 cpu:               1.4 elap:               0.1
 (Enter /public/software/apps/Gaussian/g16/l301.exe)
 Standard basis: def2SVPP (5D, 7F)
 Ernie: Thresh=  0.10000D-02 Tol=  0.10000D-05 Strict=F.
   700 basis functions,  1276 primitive gaussians,   744 cartesian basis functions
   163 alpha electrons      163 beta electrons
       nuclear repulsion energy      5253.9368193932 Hartrees.
 IExCor=  402 DFT=T Ex+Corr=B3LYP ExCW=0 ScaHFX=  0.200000
 ScaDFX=  0.800000  0.720000  1.000000  0.810000 ScalE2=  1.000000  1.000000
 IRadAn=      5 IRanWt=     -1 IRanGd=            0 ICorTp=0 IEmpDi=141
 NAtoms=   82 NActive=   82 NUniq=   82 SFac= 1.00D+00 NAtFMM=   60 NAOKFM=T Big=T
 Integral buffers will be    131072 words long.
 Raffenetti 2 integral format.
 Two-electron integral symmetry is turned off.
 R6Disp:  Grimme-D3(BJ) Dispersion energy=       -0.2161817817 Hartrees.
 Nuclear repulsion after empirical dispersion term =     5253.7206376115 Hartrees.
 Leave Link  301 at Thu Jan 23 15:37:03 2025, MaxMem= 13421772800 cpu:               1.5 elap:               0.1
 (Enter /public/software/apps/Gaussian/g16/l302.exe)
 NPDir=0 NMtPBC=     1 NCelOv=     1 NCel=       1 NClECP=     1 NCelD=      1
         NCelK=      1 NCelE2=     1 NClLst=     1 CellRange=     0.0.
 One-electron integrals computed using PRISM.
   1 Symmetry operations used in ECPInt.
 ECPInt:  NShTT=   59340 NPrTT=  240484 LenC2=   42781 LenP2D=  103829.
 LDataN:  DoStor=T MaxTD1= 4 Len=   56
 NBasis=   700 RedAO= T EigKep=  1.56D-04  NBF=   700
 NBsUse=   700 1.00D-06 EigRej= -1.00D+00 NBFU=   700
 Precomputing XC quadrature grid using
 IXCGrd= 4 IRadAn=           5 IRanWt=          -1 IRanGd=           0 AccXCQ= 0.00D+00.
 Generated NRdTot=       0 NPtTot=           0 NUsed=           0 NTot=          32
 NSgBfM=   689   686   687   689   689 MxSgAt=    82 MxSgA2=    82.
 Leave Link  302 at Thu Jan 23 15:37:05 2025, MaxMem= 13421772800 cpu:              35.3 elap:               1.1
 (Enter /public/software/apps/Gaussian/g16/l303.exe)
 DipDrv:  MaxL=1.
 Leave Link  303 at Thu Jan 23 15:37:05 2025, MaxMem= 13421772800 cpu:               4.6 elap:               0.2
 (Enter /public/software/apps/Gaussian/g16/l401.exe)
 ExpMin= 1.22D-01 ExpMax= 9.18D+03 ExpMxC= 1.38D+03 IAcc=3 IRadAn=         5 AccDes= 0.00D+00
 Harris functional with IExCor=  402 and IRadAn=       5 diagonalized for initial guess.
 HarFok:  IExCor=  402 AccDes= 0.00D+00 IRadAn=         5 IDoV= 1 UseB2=F ITyADJ=14
 ICtDFT=  3500011 ScaDFX=  1.000000  1.000000  1.000000  1.000000
 FoFCou: FMM=F IPFlag=           0 FMFlag=      100000 FMFlg1=        2001
         NFxFlg=           0 DoJE=T BraDBF=F KetDBF=T FulRan=T
         wScrn=  0.000000 ICntrl=       500 IOpCl=  0 I1Cent=   200000004 NGrid=           0
         NMat0=    1 NMatS0=      1 NMatT0=    0 NMatD0=    1 NMtDS0=    0 NMtDT0=    0
 Symmetry not used in FoFCou.
 Harris En= -2492.62341710378    
 JPrj=0 DoOrth=F DoCkMO=F.
 Leave Link  401 at Thu Jan 23 15:37:07 2025, MaxMem= 13421772800 cpu:              65.3 elap:               2.1
 (Enter /public/software/apps/Gaussian/g16/l502.exe)
 Two-electron integral symmetry not used.
 Closed shell SCF:
 Using DIIS extrapolation, IDIIS=  1040.
 NGot= 13421772800 LenX= 13420633606 LenY= 13420079326
 Requested convergence on RMS density matrix=1.00D-08 within 128 cycles.
 Requested convergence on MAX density matrix=1.00D-06.
 Requested convergence on             energy=1.00D-06.
 No special actions if energy rises.
 Fock matrices will be formed incrementally for  20 cycles.
 Integral accuracy reduced to 1.0D-05 until final iterations.

 Cycle   1  Pass 0  IDiag  1:
 FoFJK:  IHMeth= 1 ICntrl=       0 DoSepK=F KAlg= 0 I1Cent=           0 FoldK=F
 IRaf= 810000000 NMat=       1 IRICut=       1 DoRegI=T DoRafI=F ISym2E= 0 IDoP0=0 IntGTp=1.
 FoFCou: FMM=T IPFlag=           0 FMFlag=      100000 FMFlg1=        2001
         NFxFlg=           0 DoJE=F BraDBF=F KetDBF=F FulRan=T
         wScrn=  0.000000 ICntrl=         0 IOpCl=  0 I1Cent=           0 NGrid=           0
         NMat0=    1 NMatS0=      1 NMatT0=    0 NMatD0=    1 NMtDS0=    0 NMtDT0=    0
 Symmetry not used in FoFCou.
 FMM levels:  10  Number of levels for PrismC:   9
 E= -2491.66348784767    
 DIIS: error= 4.67D-02 at cycle   1 NSaved=   1.
 NSaved= 1 IEnMin= 1 EnMin= -2491.66348784767     IErMin= 1 ErrMin= 4.67D-02
 ErrMax= 4.67D-02  0.00D+00 EMaxC= 1.00D-01 BMatC= 9.11D-01 BMatP= 9.11D-01
 IDIUse=3 WtCom= 5.33D-01 WtEn= 4.67D-01
 Coeff-Com:  0.100D+01
 Coeff-En:   0.100D+01
 Coeff:      0.100D+01
 Gap=     0.269 Goal=   None    Shift=    0.000
 GapD=    0.269 DampG=1.000 DampE=0.500 DampFc=0.5000 IDamp=-1.
 Damping current iteration by 5.00D-01
 RMSDP=4.63D-03 MaxDP=1.91D-01              OVMax= 1.73D-01

 Cycle   2  Pass 0  IDiag  1:
 RMSU=  2.14D-03    CP:  9.47D-01
 E= -2492.12035663892     Delta-E=       -0.456868791252 Rises=F Damp=T
 DIIS: error= 4.96D-03 at cycle   2 NSaved=   2.
 NSaved= 2 IEnMin= 2 EnMin= -2492.12035663892     IErMin= 2 ErrMin= 4.96D-03
 ErrMax= 4.96D-03  0.00D+00 EMaxC= 1.00D-01 BMatC= 4.80D-02 BMatP= 9.11D-01
 IDIUse=3 WtCom= 9.50D-01 WtEn= 4.96D-02
 Coeff-Com:  0.651D-01 0.935D+00
 Coeff-En:   0.105D+00 0.895D+00
 Coeff:      0.671D-01 0.933D+00
 Gap=     0.177 Goal=   None    Shift=    0.000
 RMSDP=1.57D-03 MaxDP=1.02D-01 DE=-4.57D-01 OVMax= 1.42D-01

 Cycle   3  Pass 0  IDiag  1:
 RMSU=  1.48D-03    CP:  9.15D-01  1.04D+00
 E= -2492.64697155768     Delta-E=       -0.526614918761 Rises=F Damp=F
 DIIS: error= 6.42D-03 at cycle   3 NSaved=   3.
 NSaved= 3 IEnMin= 3 EnMin= -2492.64697155768     IErMin= 2 ErrMin= 4.96D-03
 ErrMax= 6.42D-03  0.00D+00 EMaxC= 1.00D-01 BMatC= 4.29D-02 BMatP= 4.80D-02
 IDIUse=3 WtCom= 9.36D-01 WtEn= 6.42D-02
 Coeff-Com: -0.666D-02 0.484D+00 0.523D+00
 Coeff-En:   0.000D+00 0.000D+00 0.100D+01
 Coeff:     -0.623D-02 0.453D+00 0.553D+00
 Gap=     0.165 Goal=   None    Shift=    0.000
 RMSDP=7.16D-04 MaxDP=2.91D-02 DE=-5.27D-01 OVMax= 8.35D-02

 Cycle   4  Pass 0  IDiag  1:
 RMSU=  5.76D-04    CP:  9.15D-01  1.12D+00  7.40D-01
 E= -2492.67960766619     Delta-E=       -0.032636108514 Rises=F Damp=F
 DIIS: error= 4.35D-03 at cycle   4 NSaved=   4.
 NSaved= 4 IEnMin= 4 EnMin= -2492.67960766619     IErMin= 4 ErrMin= 4.35D-03
 ErrMax= 4.35D-03  0.00D+00 EMaxC= 1.00D-01 BMatC= 1.31D-02 BMatP= 4.29D-02
 IDIUse=3 WtCom= 9.56D-01 WtEn= 4.35D-02
 Coeff-Com: -0.111D-01 0.152D+00 0.367D+00 0.492D+00
 Coeff-En:   0.000D+00 0.000D+00 0.274D+00 0.726D+00
 Coeff:     -0.106D-01 0.146D+00 0.363D+00 0.502D+00
 Gap=     0.161 Goal=   None    Shift=    0.000
 RMSDP=3.51D-04 MaxDP=1.92D-02 DE=-3.26D-02 OVMax= 4.70D-02

 Cycle   5  Pass 0  IDiag  1:
 RMSU=  2.09D-04    CP:  9.13D-01  1.10D+00  8.10D-01  5.52D-01
 E= -2492.69328147719     Delta-E=       -0.013673811002 Rises=F Damp=F
 DIIS: error= 1.18D-03 at cycle   5 NSaved=   5.
 NSaved= 5 IEnMin= 5 EnMin= -2492.69328147719     IErMin= 5 ErrMin= 1.18D-03
 ErrMax= 1.18D-03  0.00D+00 EMaxC= 1.00D-01 BMatC= 1.67D-03 BMatP= 1.31D-02
 IDIUse=3 WtCom= 9.88D-01 WtEn= 1.18D-02
 Coeff-Com: -0.609D-02 0.387D-01 0.171D+00 0.329D+00 0.468D+00
 Coeff-En:   0.000D+00 0.000D+00 0.000D+00 0.971D-01 0.903D+00
 Coeff:     -0.602D-02 0.382D-01 0.169D+00 0.326D+00 0.473D+00
 Gap=     0.155 Goal=   None    Shift=    0.000
 RMSDP=1.04D-04 MaxDP=4.20D-03 DE=-1.37D-02 OVMax= 1.49D-02

 Cycle   6  Pass 0  IDiag  1:
 RMSU=  6.52D-05    CP:  9.13D-01  1.11D+00  8.10D-01  6.15D-01  6.55D-01
 E= -2492.69512996558     Delta-E=       -0.001848488390 Rises=F Damp=F
 DIIS: error= 3.01D-04 at cycle   6 NSaved=   6.
 NSaved= 6 IEnMin= 6 EnMin= -2492.69512996558     IErMin= 6 ErrMin= 3.01D-04
 ErrMax= 3.01D-04  0.00D+00 EMaxC= 1.00D-01 BMatC= 1.13D-04 BMatP= 1.67D-03
 IDIUse=3 WtCom= 9.97D-01 WtEn= 3.01D-03
 Coeff-Com: -0.212D-02 0.490D-02 0.532D-01 0.127D+00 0.266D+00 0.550D+00
 Coeff-En:   0.000D+00 0.000D+00 0.000D+00 0.000D+00 0.000D+00 0.100D+01
 Coeff:     -0.211D-02 0.488D-02 0.531D-01 0.127D+00 0.266D+00 0.552D+00
 Gap=     0.155 Goal=   None    Shift=    0.000
 RMSDP=3.03D-05 MaxDP=1.27D-03 DE=-1.85D-03 OVMax= 4.14D-03

 Cycle   7  Pass 0  IDiag  1:
 RMSU=  2.56D-05    CP:  9.13D-01  1.11D+00  8.12D-01  6.13D-01  6.69D-01
                    CP:  7.62D-01
 E= -2492.69527800458     Delta-E=       -0.000148038995 Rises=F Damp=F
 DIIS: error= 1.15D-04 at cycle   7 NSaved=   7.
 NSaved= 7 IEnMin= 7 EnMin= -2492.69527800458     IErMin= 7 ErrMin= 1.15D-04
 ErrMax= 1.15D-04  0.00D+00 EMaxC= 1.00D-01 BMatC= 1.60D-05 BMatP= 1.13D-04
 IDIUse=3 WtCom= 9.99D-01 WtEn= 1.15D-03
 Coeff-Com: -0.793D-03-0.363D-03 0.180D-01 0.499D-01 0.122D+00 0.341D+00
 Coeff-Com:  0.470D+00
 Coeff-En:   0.000D+00 0.000D+00 0.000D+00 0.000D+00 0.000D+00 0.000D+00
 Coeff-En:   0.100D+01
 Coeff:     -0.792D-03-0.362D-03 0.180D-01 0.498D-01 0.122D+00 0.341D+00
 Coeff:      0.470D+00
 Gap=     0.155 Goal=   None    Shift=    0.000
 RMSDP=1.56D-05 MaxDP=6.23D-04 DE=-1.48D-04 OVMax= 1.37D-03

 Cycle   8  Pass 0  IDiag  1:
 RMSU=  1.47D-05    CP:  9.13D-01  1.11D+00  8.12D-01  6.14D-01  6.60D-01
                    CP:  8.07D-01  8.53D-01
 E= -2492.69531274496     Delta-E=       -0.000034740383 Rises=F Damp=F
 DIIS: error= 4.11D-05 at cycle   8 NSaved=   8.
 NSaved= 8 IEnMin= 8 EnMin= -2492.69531274496     IErMin= 8 ErrMin= 4.11D-05
 ErrMax= 4.11D-05  0.00D+00 EMaxC= 1.00D-01 BMatC= 1.57D-06 BMatP= 1.60D-05
 IDIUse=1 WtCom= 1.00D+00 WtEn= 0.00D+00
 Coeff-Com: -0.287D-03-0.640D-03 0.633D-02 0.192D-01 0.517D-01 0.163D+00
 Coeff-Com:  0.292D+00 0.469D+00
 Coeff:     -0.287D-03-0.640D-03 0.633D-02 0.192D-01 0.517D-01 0.163D+00
 Coeff:      0.292D+00 0.469D+00
 Gap=     0.155 Goal=   None    Shift=    0.000
 RMSDP=1.11D-05 MaxDP=4.33D-04 DE=-3.47D-05 OVMax= 3.40D-04

 Cycle   9  Pass 0  IDiag  1:
 RMSU=  8.43D-06    CP:  9.13D-01  1.11D+00  8.12D-01  6.15D-01  6.60D-01
                    CP:  8.09D-01  1.02D+00  1.39D+00
 E= -2492.69531697260     Delta-E=       -0.000004227641 Rises=F Damp=F
 DIIS: error= 2.62D-05 at cycle   9 NSaved=   9.
 NSaved= 9 IEnMin= 9 EnMin= -2492.69531697260     IErMin= 9 ErrMin= 2.62D-05
 ErrMax= 2.62D-05  0.00D+00 EMaxC= 1.00D-01 BMatC= 2.55D-07 BMatP= 1.57D-06
 IDIUse=1 WtCom= 1.00D+00 WtEn= 0.00D+00
 Coeff-Com: -0.764D-04-0.354D-03 0.174D-02 0.563D-02 0.168D-01 0.584D-01
 Coeff-Com:  0.124D+00 0.293D+00 0.500D+00
 Coeff:     -0.764D-04-0.354D-03 0.174D-02 0.563D-02 0.168D-01 0.584D-01
 Coeff:      0.124D+00 0.293D+00 0.500D+00
 Gap=     0.155 Goal=   None    Shift=    0.000
 RMSDP=1.23D-05 MaxDP=4.32D-04 DE=-4.23D-06 OVMax= 8.76D-05

 Cycle  10  Pass 0  IDiag  1:
 RMSU=  6.95D-06    CP:  9.13D-01  1.11D+00  8.12D-01  6.15D-01  6.59D-01
                    CP:  8.17D-01  1.15D+00  1.85D+00  1.82D+00
 E= -2492.69532399342     Delta-E=       -0.000007020819 Rises=F Damp=F
 DIIS: error= 2.74D-05 at cycle  10 NSaved=  10.
 NSaved=10 IEnMin=10 EnMin= -2492.69532399342     IErMin= 9 ErrMin= 2.62D-05
 ErrMax= 2.74D-05  0.00D+00 EMaxC= 1.00D-01 BMatC= 2.25D-07 BMatP= 2.55D-07
 IDIUse=1 WtCom= 1.00D+00 WtEn= 0.00D+00
 Coeff-Com: -0.771D-04-0.363D-03 0.176D-02 0.571D-02 0.171D-01 0.596D-01
 Coeff-Com:  0.128D+00 0.304D+00 0.528D+00-0.434D-01
 Coeff:     -0.771D-04-0.363D-03 0.176D-02 0.571D-02 0.171D-01 0.596D-01
 Coeff:      0.128D+00 0.304D+00 0.528D+00-0.434D-01
 Gap=     0.155 Goal=   None    Shift=    0.000
 RMSDP=1.11D-06 MaxDP=4.45D-05 DE=-7.02D-06 OVMax= 3.04D-06

 Initial convergence to 1.0D-05 achieved.  Increase integral accuracy.
 Cycle  11  Pass 1  IDiag  1:
 E= -2492.69497609055     Delta-E=        0.000347902875 Rises=F Damp=F
 DIIS: error= 6.64D-04 at cycle   1 NSaved=   1.
 NSaved= 1 IEnMin= 1 EnMin= -2492.69497609055     IErMin= 1 ErrMin= 6.64D-04
 ErrMax= 6.64D-04  0.00D+00 EMaxC= 1.00D-01 BMatC= 1.05D-04 BMatP= 1.05D-04
 IDIUse=3 WtCom= 9.93D-01 WtEn= 6.64D-03
 Coeff-Com:  0.100D+01
 Coeff-En:   0.100D+01
 Coeff:      0.100D+01
 Gap=     0.155 Goal=   None    Shift=    0.000
 RMSDP=1.11D-06 MaxDP=4.45D-05 DE= 3.48D-04 OVMax= 1.04D-03

 Cycle  12  Pass 1  IDiag  1:
 RMSU=  6.06D-04    CP:  9.97D-01
 E= -2492.69509220623     Delta-E=       -0.000116115686 Rises=F Damp=F
 DIIS: error= 9.05D-06 at cycle   2 NSaved=   2.
 NSaved= 2 IEnMin= 2 EnMin= -2492.69509220623     IErMin= 2 ErrMin= 9.05D-06
 ErrMax= 9.05D-06  0.00D+00 EMaxC= 1.00D-01 BMatC= 5.21D-08 BMatP= 1.05D-04
 IDIUse=1 WtCom= 1.00D+00 WtEn= 0.00D+00
 Coeff-Com: -0.950D-02 0.101D+01
 Coeff:     -0.950D-02 0.101D+01
 Gap=     0.155 Goal=   None    Shift=    0.000
 RMSDP=7.96D-06 MaxDP=2.27D-04 DE=-1.16D-04 OVMax= 1.11D-04

 Cycle  13  Pass 1  IDiag  1:
 RMSU=  2.59D-06    CP:  9.97D-01  1.01D+00
 E= -2492.69509212580     Delta-E=        0.000000080436 Rises=F Damp=F
 DIIS: error= 1.02D-05 at cycle   3 NSaved=   3.
 NSaved= 3 IEnMin= 2 EnMin= -2492.69509220623     IErMin= 2 ErrMin= 9.05D-06
 ErrMax= 1.02D-05  0.00D+00 EMaxC= 1.00D-01 BMatC= 1.34D-07 BMatP= 5.21D-08
 IDIUse=1 WtCom= 1.00D+00 WtEn= 0.00D+00
 Coeff-Com: -0.651D-02 0.652D+00 0.355D+00
 Coeff:     -0.651D-02 0.652D+00 0.355D+00
 Gap=     0.155 Goal=   None    Shift=    0.000
 RMSDP=7.92D-07 MaxDP=3.59D-05 DE= 8.04D-08 OVMax= 7.52D-05

 Cycle  14  Pass 1  IDiag  1:
 RMSU=  6.96D-07    CP:  9.97D-01  1.01D+00  8.55D-01
 E= -2492.69509227293     Delta-E=       -0.000000147133 Rises=F Damp=F
 DIIS: error= 1.33D-06 at cycle   4 NSaved=   4.
 NSaved= 4 IEnMin= 4 EnMin= -2492.69509227293     IErMin= 4 ErrMin= 1.33D-06
 ErrMax= 1.33D-06  0.00D+00 EMaxC= 1.00D-01 BMatC= 2.25D-09 BMatP= 5.21D-08
 IDIUse=1 WtCom= 1.00D+00 WtEn= 0.00D+00
 Coeff-Com: -0.253D-02 0.249D+00 0.169D+00 0.584D+00
 Coeff:     -0.253D-02 0.249D+00 0.169D+00 0.584D+00
 Gap=     0.155 Goal=   None    Shift=    0.000
 RMSDP=1.66D-07 MaxDP=1.28D-05 DE=-1.47D-07 OVMax= 1.92D-05

 Cycle  15  Pass 1  IDiag  1:
 RMSU=  1.47D-07    CP:  9.97D-01  1.01D+00  8.75D-01  9.27D-01
 E= -2492.69509227436     Delta-E=       -0.000000001427 Rises=F Damp=F
 DIIS: error= 9.71D-07 at cycle   5 NSaved=   5.
 NSaved= 5 IEnMin= 5 EnMin= -2492.69509227436     IErMin= 5 ErrMin= 9.71D-07
 ErrMax= 9.71D-07  0.00D+00 EMaxC= 1.00D-01 BMatC= 9.19D-10 BMatP= 2.25D-09
 IDIUse=1 WtCom= 1.00D+00 WtEn= 0.00D+00
 Coeff-Com: -0.386D-03 0.364D-01 0.422D-01 0.405D+00 0.517D+00
 Coeff:     -0.386D-03 0.364D-01 0.422D-01 0.405D+00 0.517D+00
 Gap=     0.155 Goal=   None    Shift=    0.000
 RMSDP=8.48D-08 MaxDP=5.59D-06 DE=-1.43D-09 OVMax= 1.21D-05

 Cycle  16  Pass 1  IDiag  1:
 RMSU=  5.30D-08    CP:  9.97D-01  1.01D+00  8.76D-01  9.58D-01  5.82D-01
 E= -2492.69509227516     Delta-E=       -0.000000000801 Rises=F Damp=F
 DIIS: error= 2.63D-07 at cycle   6 NSaved=   6.
 NSaved= 6 IEnMin= 6 EnMin= -2492.69509227516     IErMin= 6 ErrMin= 2.63D-07
 ErrMax= 2.63D-07  0.00D+00 EMaxC= 1.00D-01 BMatC= 9.96D-11 BMatP= 9.19D-10
 IDIUse=1 WtCom= 1.00D+00 WtEn= 0.00D+00
 Coeff-Com: -0.196D-05-0.966D-03 0.108D-01 0.201D+00 0.331D+00 0.458D+00
 Coeff:     -0.196D-05-0.966D-03 0.108D-01 0.201D+00 0.331D+00 0.458D+00
 Gap=     0.155 Goal=   None    Shift=    0.000
 RMSDP=2.63D-08 MaxDP=9.22D-07 DE=-8.01D-10 OVMax= 3.50D-06

 Cycle  17  Pass 1  IDiag  1:
 RMSU=  1.20D-08    CP:  9.97D-01  1.01D+00  8.78D-01  9.58D-01  6.19D-01
                    CP:  5.86D-01
 E= -2492.69509227532     Delta-E=       -0.000000000164 Rises=F Damp=F
 DIIS: error= 4.78D-08 at cycle   7 NSaved=   7.
 NSaved= 7 IEnMin= 7 EnMin= -2492.69509227532     IErMin= 7 ErrMin= 4.78D-08
 ErrMax= 4.78D-08  0.00D+00 EMaxC= 1.00D-01 BMatC= 3.72D-12 BMatP= 9.96D-11
 IDIUse=1 WtCom= 1.00D+00 WtEn= 0.00D+00
 Coeff-Com:  0.213D-04-0.265D-02 0.349D-02 0.867D-01 0.153D+00 0.248D+00
 Coeff-Com:  0.511D+00
 Coeff:      0.213D-04-0.265D-02 0.349D-02 0.867D-01 0.153D+00 0.248D+00
 Coeff:      0.511D+00
 Gap=     0.155 Goal=   None    Shift=    0.000
 RMSDP=5.17D-09 MaxDP=2.01D-07 DE=-1.64D-10 OVMax= 6.33D-07

 SCF Done:  E(RB3LYP) =  -2492.69509228     A.U. after   17 cycles
            NFock= 17  Conv=0.52D-08     -V/T= 2.0073
 KE= 2.474668728338D+03 PE=-1.633100047894D+04 EE= 6.109916020720D+03
 Leave Link  502 at Thu Jan 23 15:38:05 2025, MaxMem= 13421772800 cpu:            1847.7 elap:              58.6
 (Enter /public/software/apps/Gaussian/g16/l601.exe)
 Copying SCF densities to generalized density rwf, IOpCl= 0 IROHF=0.

 **********************************************************************

            Population analysis using the SCF Density.

 **********************************************************************

 Alpha  occ. eigenvalues --  -88.82195 -88.82194 -19.17125 -19.17118 -10.26316
 Alpha  occ. eigenvalues --  -10.26315 -10.21936 -10.21936 -10.20730 -10.20729
 Alpha  occ. eigenvalues --  -10.20700 -10.20697 -10.20591 -10.20590 -10.20357
 Alpha  occ. eigenvalues --  -10.20339 -10.20106 -10.20106 -10.20034 -10.20034
 Alpha  occ. eigenvalues --  -10.19810 -10.19809 -10.19316 -10.19316 -10.19249
 Alpha  occ. eigenvalues --  -10.19249 -10.19035 -10.19033 -10.18999 -10.18999
 Alpha  occ. eigenvalues --  -10.18943 -10.18943 -10.18873 -10.18873 -10.18786
[...]
 5,0.00001411,0.00007176,-0.00019618,0.00011328,-0.00007119,0.00018000,
 -0.00002733,-0.00004260,-0.00001851,-0.00000489,0.00002718,0.00003887,
 0.00002158,-0.00002386,-0.00003818,-0.00000567,-0.00000591,-0.00000651
 ,-0.00000338,-0.00000347,-0.00000260,0.00000176,-0.00000043,0.00000195
 ,0.,-0.00000012,-0.00000146,-0.00000027,-0.00000170,-0.00000108,-0.000
 00171,0.00000151,0.00000050,0.00000283,-0.00000251,-0.00000086,-0.0000
 0152,0.00000113,0.00000023,-0.00000110,-0.00000005,-0.00000081,-0.0000
 0078,-0.00000015,0.00000058,0.00000124,0.00000035,0.00000028,0.0000019
 1,0.00000061,0.00000126,0.00000558,0.00000159,-0.00000321,0.00000121,-
 0.00000075,-0.00000525,-0.00000131,0.00000024,0.00000212,0.00000114,-0
 .00000171,-0.00000391,0.00000025,0.00000308,0.00000362,-0.00000425,-0.
 00000209,-0.00000691,0.00001953,0.00001549,0.00001459,-0.00025370,0.00
 012022,0.00025846,0.00000848,0.00000250,-0.00017164,-0.10020888,0.0026
 4523,-0.10927637,-0.00611197,-0.00177768,-0.02491775,0.00000206,-0.000
 01685,0.00000318,-0.00001582,0.00004540,-0.00000516,0.00001493,-0.0000
 1621,0.00001889,0.00000002,-0.00000436,0.00000902,0.00001674,0.0000102
 2,-0.00001779,-0.00001107,-0.00000071,0.00000877,0.00002179,0.00002166
 ,0.00001487,-0.00002975,0.00000548,-0.00000585,0.00000716,-0.00002182,
 -0.00001202,-0.00028579,-0.00041368,0.00008691,0.00049293,0.00015946,0
 .00059791,-0.00010583,0.00047198,0.00025368,-0.00000032,-0.00000296,0.
 00001357,0.00000324,-0.00000658,0.00000416,0.00000135,-0.00000102,0.00
 000117,-0.00000047,-0.00000131,-0.00000179,-0.00002947,0.00001102,0.00
 001429,-0.00000257,0.00000161,-0.00000132,-0.00000016,0.00000006,0.000
 00068,0.00000016,0.00000105,0.00000028,0.00000026,-0.00000017,-0.00000
 043,0.00000030,-0.00000059,0.00000024,0.00000048,-0.00000059,0.,-0.000
 00071,0.00000070,0.00000009,0.00000080,0.00000035,0.00000016,-0.000000
 64,0.00000054,0.00000017,0.00000087,0.00000016,0.00000037,0.00000039,-
 0.00000030,-0.00000028,0.00000023,0.00000056,-0.00000047,-0.00000075,-
 0.00000021,0.00000101,0.00000058,-0.00000083,-0.00000167,0.00000077,0.
 00000011,-0.00000131,0.00000004,-0.00000063,-0.00000156,-0.00000103,-0
 .00000234,-0.00000182,0.00000248,0.00000323,0.00000665,-0.00001457,0.0
 0001799,0.00002332,0.10027735,-0.00004188,-0.00005655,0.00001069,0.000
 07368,0.00018322,-0.00001096,-0.00002357,-0.00004591,0.00000634,0.0000
 2039,-0.00008158,0.00004462,0.00050192,-0.00019409,0.00039375,0.005097
 47,0.00291816,-0.00159928,0.00004721,-0.00060023,0.00003274,0.00438116
 ,0.00170202,-0.00300730,-0.00785939,0.00394254,-0.01496833,-0.00178841
 ,-0.00217375,0.00090567,0.00093810,-0.00077332,-0.00086622,-0.00017579
 ,0.00002323,0.00040140,0.00006132,-0.00005706,0.00000968,-0.00006579,0
 .00001652,-0.00000673,0.00003856,0.00000499,-0.00005572,0.00001055,-0.
 00003712,0.00006824,-0.00006521,0.00009021,-0.00012206,0.00002078,-0.0
 0013562,0.00022125,0.00001749,0.00000299,-0.00001961,-0.00000865,0.000
 02335,0.00004067,-0.00002915,-0.00003872,-0.00000809,0.00001101,-0.000
 00262,-0.00001341,0.00000762,0.00000873,0.00000996,-0.00000312,-0.0000
 0195,-0.00000435,0.00000053,-0.00000175,0.00000068,-0.00000027,0.00000
 022,0.00000139,0.00000379,-0.00000446,-0.00000142,-0.00000684,0.000009
 43,0.00000404,0.00000332,-0.00000266,-0.00000124,0.00000089,-0.0000018
 2,0.00000019,0.00000095,-0.00000128,-0.00000197,-0.00000217,-0.0000022
 0,0.00000013,-0.00000451,-0.00000490,-0.00000444,-0.00000468,0.0000032
 6,0.00001533,-0.00001002,-0.00000060,0.00000863,0.00000064,0.00000123,
 0.00000493,-0.00000663,-0.00000204,0.00000714,0.00000167,-0.00000729,-
 0.00000651,0.00001715,0.00000839,0.00001049,-0.00003889,-0.00002627,-0
 .00002241,-0.00031087,0.00055962,-0.00020941,-0.00004290,-0.00014933,0
 .00016260,0.00319758,-0.04557261,-0.01680635,0.00770459,0.00435989,0.0
 1609730,0.00000218,0.00001115,0.00000071,0.00000758,-0.00002021,0.0000
 0434,-0.00001877,0.00000707,-0.00002098,0.00000065,0.00000415,0.000004
 02,-0.00000978,-0.00001351,0.00001902,-0.00000160,-0.00000009,-0.00001
 483,-0.00001788,-0.00001974,-0.00000890,0.00000843,0.00000885,0.000002
 62,-0.00000037,0.00002171,0.00002412,-0.00040719,-0.00052202,0.0002339
 4,-0.00033215,0.00018434,-0.00082762,0.00038916,-0.00137860,0.00029939
 ,0.00000250,-0.00001717,0.00002750,-0.00000143,0.00001011,-0.00000196,
 -0.00000805,0.00000586,-0.00000096,-0.00001505,0.00001159,0.00000004,0
 .00003950,0.00005443,0.00001231,0.00000301,0.00000099,0.00000306,-0.00
 000124,0.00000120,-0.00000094,-0.00000109,-0.00000227,-0.00000071,0.00
 000019,0.00000079,-0.00000019,0.00000009,0.00000055,0.00000066,0.00000
 071,0.00000050,0.00000066,-0.00000039,-0.00000370,-0.00000183,-0.00000
 180,0.00000320,0.00000114,-0.00000015,-0.00000371,-0.00000036,-0.00000
 164,0.00000271,0.00000112,0.00000059,0.00000061,-0.00000031,-0.0000017
 6,-0.00000031,0.00000113,0.00000021,0.00000278,-0.00000050,-0.00000207
 ,0.00000227,0.00000236,-0.00000191,0.00000102,0.00000264,-0.00000113,0
 .00000203,0.00000220,0.00000048,0.00000500,0.00000035,-0.00000984,-0.0
 0000475,-0.00001133,0.00000356,0.00000209,-0.00000060,-0.00882155,0.03
 997487,0.00005005,0.00005011,-0.00000848,-0.00006635,-0.00017099,0.000
 04635,0.00002027,0.00003936,0.00000101,-0.00001077,0.00006849,-0.00003
 847,-0.00003133,-0.00001742,-0.00010698,-0.00154996,-0.00075429,0.0023
 6225,0.00068362,-0.00017922,0.00053991,0.00203858,-0.00400459,-0.00110
 243,-0.01062208,0.00045480,-0.01639604,-0.00114708,0.00213151,-0.00021
 713,0.00008162,0.00097995,0.00038268,0.00021050,-0.00025803,0.00037564
 ,-0.00003649,0.00007808,-0.00006513,0.00009682,-0.00002563,-0.00004003
 ,-0.00003391,-0.00002125,0.00008493,-0.00006471,0.00003120,-0.00004593
 ,-0.00008746,-0.00007856,0.00018205,-0.00019925,0.00014082,-0.00021901
 ,0.00005887,-0.00000925,0.00000593,-0.00001375,-0.00005245,-0.00007012
 ,-0.00004234,0.00004377,0.00008630,-0.00000166,0.00000689,0.00000524,0
 .00000249,0.00000337,0.00000550,-0.00000046,0.00000204,-0.00000338,-0.
 00000056,0.00000025,0.00000251,0.00000041,0.00000238,0.00000114,0.0000
 0165,-0.00000181,0.00000107,-0.00000262,0.00000243,-0.00000101,0.00000
 152,-0.00000128,0.00000032,0.00000132,0.00000024,0.00000150,0.00000091
 ,-0.00000003,-0.00000007,-0.00000083,-0.00000077,0.00000047,-0.0000034
 7,-0.00000057,-0.00000315,-0.00000878,-0.00000346,0.00000371,-0.000003
 43,0.00000549,0.00001192,0.00000203,-0.00000224,-0.00000406,0.00000064
 ,0.00000345,0.00001066,0.00000002,-0.00000815,-0.00000161,0.00001076,0
 .00000588,0.00001994,-0.00002710,-0.00002664,-0.00002666,0.00070320,-0
 .00009479,-0.00031613,0.00004895,-0.00004863,0.00032322,-0.10773352,-0
 .01702646,-0.28479650,-0.00059781,-0.00147141,-0.00168172,-0.00000247,
 -0.00000926,0.00000263,-0.00001215,0.00002049,-0.00000765,0.00000915,-
 0.00001031,0.00001058,-0.00001283,-0.00002190,0.00000612,0.00000797,0.
 00002318,-0.00001923,0.00000471,-0.00000644,0.00001338,0.00001303,0.00
 002735,0.00000027,0.00000003,-0.00001396,0.00000079,-0.00002171,-0.000
 03490,-0.00000608,0.00007270,0.00021787,-0.00012789,-0.00066605,0.0000
 5886,-0.00083509,-0.00052297,-0.00004079,0.00034847,0.00000577,-0.0000
 0582,0.00000596,-0.00000398,0.00000153,-0.00000652,-0.00000568,0.00000
 341,-0.00000061,-0.00001337,0.00000413,-0.00000438,0.00005509,-0.00000
 658,-0.00001509,0.00000344,-0.00000268,0.00000174,0.00000104,-0.000000
 05,-0.00000063,-0.00000002,-0.00000088,-0.00000065,-0.00000081,0.00000
 015,0.00000092,0.00000001,0.00000051,-0.00000027,-0.00000022,0.0000004
 3,0.00000021,0.00000106,0.00000023,-0.00000002,-0.00000084,-0.00000120
 ,-0.00000097,0.00000096,-0.00000024,-0.00000066,-0.00000084,-0.0000001
 8,-0.00000114,-0.00000126,0.00000035,0.00000091,-0.00000081,-0.0000010
 4,0.00000036,0.00000101,0.00000050,-0.00000038,-0.00000124,0.00000135,
 0.00000208,-0.00000157,0.00000085,0.00000195,-0.00000117,0.00000264,0.
 00000225,0.00000091,0.00000860,0.00000256,-0.00001113,-0.00000094,-0.0
 0001675,-0.00000067,-0.00002736,-0.00001369,0.11872029,0.01869323,0.30
 094729,-0.00015343,-0.00020890,-0.00000763,0.00055541,0.00046192,0.000
 43289,-0.00003006,-0.00018564,-0.00000999,0.00017470,0.00004081,-0.000
 24133,-0.00017547,-0.00202124,-0.00010504,0.00696908,-0.00675919,-0.01
 062710,0.00110240,0.00229147,-0.00347449,-0.00053104,-0.00033497,-0.00
 057326,-0.00118952,0.00502229,-0.00314383,-0.00001758,0.00035063,0.001
 04668,-0.00009596,-0.00012651,0.00002892,0.00001602,0.00001067,-0.0000
 3467,-0.00002776,-0.00000509,0.00002445,-0.00002057,0.00000904,0.00000
 094,-0.00001096,0.00001763,-0.00002463,0.00002607,-0.00001234,-0.00000
 301,-0.00002795,0.00002251,-0.00001893,-0.00004190,-0.00007951,0.00006
 866,-0.00000534,0.00002253,-0.00001711,0.00000286,0.00002024,0.0000324
 3,-0.00001402,-0.00002715,-0.00001861,0.00001052,-0.00000186,-0.000007
 22,0.00000587,0.00000632,0.00000574,-0.00000300,-0.00000198,-0.0000023
 0,0.00000067,-0.00000116,0.00000029,-0.00000019,0.00000012,0.00000103,
 0.00000282,-0.00000310,-0.00000157,-0.00000512,0.00000667,0.00000339,0
 .00000242,-0.00000184,-0.00000101,0.00000082,-0.00000115,0.00000004,0.
 00000082,-0.00000065,-0.00000147,-0.00000165,-0.00000121,-0.00000034,-
 0.00000279,-0.00000325,-0.00000256,-0.00000219,0.00000229,0.00000958,-
 0.00000623,-0.00000156,0.00000203,0.00000044,0.00000174,0.00000395,-0.
 00000514,-0.00000214,0.00000245,0.00000013,-0.00000381,-0.00000637,0.0
 0000907,0.00000710,0.00000233,-0.00001996,-0.00001536,-0.00001082,-0.0
 0019083,0.00022776,-0.00028017,0.00000525,-0.00003318,0.00009182,-0.00
 559394,0.01404042,0.01935501,-0.09929906,0.07323287,0.08304182,-0.0000
 0726,0.00002605,0.00001055,0.00004996,-0.00006059,0.00003917,-0.000029
 27,0.00001012,-0.00000665,-0.00001678,0.00001331,0.00000022,-0.0000556
 9,-0.00001692,0.00006282,0.00000599,-0.00001470,-0.00003074,-0.0001058
 8,0.00001818,-0.00006872,0.00009664,0.00007753,-0.00001750,-0.00018243
 ,-0.00003261,0.00026553,0.00057194,-0.00033589,-0.00052026,-0.00028290
 ,-0.00041779,0.00019999,0.00006267,-0.00001156,0.00000385,0.00000720,0
 .00000224,-0.00000136,-0.00000244,0.00000587,-0.00000381,-0.00000192,0
 .00000294,-0.00000162,-0.00000445,0.00000226,0.00000156,0.00001987,0.0
 0002999,0.00001010,0.00000202,0.00000084,0.00000212,-0.00000119,0.0000
 0074,-0.00000072,-0.00000080,-0.00000173,-0.00000041,0.00000024,0.0000
 0056,-0.00000026,-0.00000010,0.00000045,0.00000045,0.00000018,0.000000
 44,0.00000037,-0.00000024,-0.00000286,-0.00000126,-0.00000122,0.000002
 25,0.00000104,-0.00000010,-0.00000267,-0.00000017,-0.00000119,0.000001
 78,0.00000088,0.00000053,0.00000043,-0.00000039,-0.00000104,-0.0000001
 1,0.00000084,0.00000023,0.00000176,-0.00000081,-0.00000121,0.00000122,
 0.00000169,-0.00000125,0.00000031,0.00000155,-0.00000053,0.00000083,0.
 00000154,0.00000063,0.00000103,-0.00000008,-0.00000388,-0.00000518,-0.
 00000310,0.00000941,0.00000185,-0.00001172,-0.00048151,-0.00247160,0.0
 0065607,0.09894207,-0.00011701,-0.00014644,0.00004953,0.00066422,0.000
 23631,0.00057929,-0.00000776,-0.00009630,-0.00003128,-0.00027734,-0.00
 000685,0.00013791,-0.00170201,-0.00147186,0.00081697,0.00113218,0.0022
 6275,0.00087632,0.00223907,0.00413832,-0.00095070,-0.00031833,-0.00026
 466,0.00068976,0.00492988,0.00372070,0.00008169,0.00021045,-0.00006904
 ,-0.00055648,-0.00001318,-0.00002747,-0.00006957,0.00002432,-0.0000045
 4,0.00004188,0.00002539,0.00000634,-0.00003688,0.00000964,-0.00000870,
 0.00000477,0.00000592,-0.00000540,0.00000377,-0.00000639,-0.00001023,0
 .00001428,-0.00000808,0.00001345,0.00000206,0.00004493,0.00001456,-0.0
 0003115,0.00001794,-0.00001758,0.00001718,-0.00000170,-0.00000731,-0.0
 0001037,0.00000958,0.00000325,0.00000470,-0.00000511,0.00000094,0.0000
 0090,-0.00000290,-0.00000328,-0.00000314,0.00000219,0.00000090,0.00000
 056,-0.00000040,0.00000007,-0.00000059,0.00000047,-0.00000086,-0.00000
 084,-0.00000125,0.00000074,0.00000077,0.00000197,-0.00000165,-0.000001
 21,-0.00000114,0.00000089,0.00000048,-0.00000066,0.00000045,-0.0000001
 5,-0.00000059,0.00000007,0.00000073,0.00000091,0.00000007,0.00000053,0
 .00000186,0.00000090,0.00000097,0.00000278,-0.00000036,-0.00000397,0.0
 0000276,0.00000136,-0.00000145,-0.00000056,-0.00000103,-0.00000047,0.0
 0000208,0.00000007,-0.00000079,0.00000124,0.00000156,0.00000392,-0.000
 00400,-0.00000523,-0.00000145,0.00000939,0.00000808,0.00000925,0.00005
 552,-0.00015478,0.00009132,0.00000679,0.00000488,0.00000080,0.00570830
 ,-0.00464575,-0.01262726,0.07272948,-0.13150042,-0.11804203,0.00000999
 ,-0.00000088,-0.00001888,0.00004330,-0.00004662,-0.00000382,-0.0000222
 0,-0.00000394,-0.00000034,-0.00000835,0.00000190,-0.00001577,-0.000025
 26,-0.00000130,0.00002040,0.00000469,-0.00002228,-0.00002072,0.0000412
 7,0.00000659,-0.00001203,0.00004616,-0.00021203,0.00002173,-0.00002805
 ,-0.00037858,0.00029884,0.00006160,0.00028074,0.00001500,-0.00038366,-
 0.00062485,0.00016332,0.00003731,-0.00004482,-0.00001105,-0.00000509,-
 0.00000045,0.00000603,0.00000336,-0.00000392,0.00000355,0.00000132,-0.
 00000090,0.00000184,0.00000202,-0.00000031,-0.00000045,-0.00001139,-0.
 00000585,-0.00000511,-0.00000161,0.00000031,-0.00000101,0.00000041,0.0
 0000016,0.00000052,0.00000014,0.00000067,0.00000008,0.00000002,-0.0000
 0014,-0.00000026,0.00000032,-0.00000045,0.00000022,0.00000053,-0.00000
 050,0.00000009,-0.00000046,0.00000048,-0.00000001,0.00000055,0.0000001
 1,-0.00000030,-0.00000045,0.00000018,-0.00000007,0.00000061,0.00000023
 ,0.00000010,0.00000013,-0.00000025,-0.00000007,0.00000011,0.00000042,-
 0.00000027,-0.00000056,-0.00000031,0.00000104,0.00000050,-0.00000026,-
 0.00000115,0.00000072,0.00000034,-0.00000097,0.00000011,-0.00000013,-0
 .00000154,-0.00000111,0.00000018,-0.00000065,0.00000131,0.00000459,0.0
 0000085,-0.00001766,0.00000106,0.00000352,-0.00233052,-0.00221607,0.00
 132627,-0.08279103,0.13129996,0.00009423,0.00017156,0.00001430,-0.0004
 1154,0.00010476,-0.00037465,0.00009434,-0.00006505,0.00007128,-0.00013
 463,-0.00015393,0.00005092,0.00169159,0.00022984,0.00128104,0.01288895
 ,-0.01637897,-0.01637229,-0.00427892,-0.00015615,-0.00345285,-0.000628
 36,0.00062752,-0.00001399,-0.00230333,-0.00020605,0.00134035,-0.000211
 45,0.00016097,0.00026191,0.00002874,-0.00001255,-0.00001201,-0.0000064
 4,0.00000246,-0.00000977,0.00000063,0.00000118,-0.00000206,0.00000591,
 -0.00000277,-0.00000384,0.00000120,-0.00000379,0.00000641,-0.00000508,
 0.00000287,-0.00000039,0.00001451,-0.00000815,0.00000746,-0.00001753,-
 0.00000904,0.00000715,-0.00001073,0.00000152,0.00000220,-0.00000156,-0
 .00000293,-0.00000079,0.00000885,0.00000644,-0.00000347,-0.00000469,-0
 .00000115,0.00000241,-0.00000380,-0.00000363,-0.00000279,0.00000152,0.
 00000055,0.00000143,0.00000033,0.00000078,-0.00000023,-0.00000008,-0.0
 0000079,-0.00000058,-0.00000177,0.00000219,-0.00000016,0.00000301,-0.0
 0000419,-0.00000049,-0.00000153,0.00000128,0.00000014,-0.00000052,0.00
 000063,-0.00000075,-0.00000047,0.00000041,0.00000044,0.00000080,0.0000
 0047,0.00000011,0.00000203,0.00000208,0.00000169,0.00000040,-0.0000004
 4,-0.00000380,0.00000322,0.00000031,-0.00000086,-0.00000022,-0.0000010
 0,-0.00000208,0.00000272,0.00000184,0.00000055,0.00000036,0.00000072,0
 .00000330,-0.00000414,-0.00000393,0.00000168,0.00000742,0.00000436,0.0
 0000273,-0.00006928,0.00002680,-0.00001321,0.00003217,0.00001438,-0.00
 000543,-0.00439643,0.00449113,0.00813424,0.08161928,-0.11635752,-0.202
 61721,-0.00001777,-0.00000140,0.00000420,-0.00004847,0.00001678,-0.000
 00965,0.00003578,0.00000665,0.00002094,-0.00005236,-0.00005408,0.00000
 189,-0.00004959,-0.00000643,0.00001783,0.00002153,0.00000342,0.0000212
 3,0.00010255,-0.00009681,0.00017417,-0.00017999,0.00026091,0.00004195,
 0.00036529,0.00008322,-0.00024598,0.00063253,-0.00088511,-0.00080278,0
 .00019139,0.00016538,-0.00006091,-0.00000387,0.00002663,-0.00000637,0.
 00000034,0.00000329,-0.00000190,0.00000023,-0.00000071,0.00000164,0.00
 000199,-0.00000100,0.00000052,0.00000222,-0.00000136,-0.00000072,-0.00
 001049,-0.00000860,0.00000131,-0.00000130,0.00000035,-0.00000106,0.,-0
 .00000036,0.00000050,0.00000037,0.00000099,0.00000060,0.00000029,-0.00
 000035,-0.00000029,-0.00000020,-0.00000024,-0.00000020,-0.00000048,-0.
 00000012,-0.00000036,-0.00000017,0.00000098,0.00000083,0.00000088,-0.0
 0000071,0.00000012,-0.00000018,0.00000153,0.00000057,0.00000081,-0.000
 00108,-0.00000007,0.00000021,-0.00000035,-0.00000031,0.00000084,0.0000
 0027,-0.00000057,-0.00000047,-0.00000113,0.00000037,0.00000097,-0.0000
 0062,-0.00000118,0.00000133,0.00000002,-0.00000082,0.00000009,-0.00000
 047,-0.00000118,-0.00000067,0.00000136,0.00000089,0.00000097,0.0000034
 4,-0.00000139,-0.00000708,-0.00000328,0.00000567,0.00113458,0.00083347
 ,0.00039904,-0.08613178,0.12717049,0.21214343\\-0.00000061,-0.00000064
 ,0.00000017,-0.00000076,-0.00000049,-0.00000102,-0.00000016,0.00000012
 ,0.00000020,-0.00000002,-0.00000096,-0.00000072,0.00000149,0.00000132,
 0.00000261,-0.00000209,0.00000032,-0.00000361,0.00000086,0.00000066,-0
 .00000007,0.00000010,0.00000023,-0.00000055,-0.00000042,-0.00000023,0.
 00000094,0.00000093,-0.00000032,0.00000052,0.00000038,-0.00000131,0.00
 000056,-0.00000143,0.00000084,0.00000090,0.00000006,-0.00000052,-0.000
 00008,-0.00000065,0.00000025,0.00000013,0.00000074,0.00000013,-0.00000
 042,0.00000066,-0.00000096,0.00000021,-0.00000089,0.00000109,-0.000001
 72,0.00000133,-0.00000236,0.00000493,-0.00000128,-0.00000233,-0.000004
 99,0.00000190,0.00000177,0.00000273,0.00000105,-0.00000038,-0.00000090
 ,-0.00000134,-0.00000051,-0.00000053,0.00000072,-0.00000003,-0.0000007
 3,-0.00000018,-0.00000015,-0.00000011,-0.00000003,-0.00000016,-0.00000
 064,0.00000217,0.00000045,0.00000310,-0.00000109,-0.00000047,-0.000001
 71,0.00000148,-0.00000140,0.00000122,-0.00000048,-0.00000012,0.0000002
 7,0.,0.00000101,-0.00000021,-0.00000019,0.00000044,0.00000106,0.000000
 28,-0.00000062,-0.00000126,-0.00000162,0.00000152,-0.00000038,-0.00000
 011,-0.00000130,-0.00000025,0.00000140,0.00000084,-0.00000096,0.000000
 01,-0.00000047,0.00000012,0.00000066,0.00000024,-0.00000018,-0.0000007
 8,0.00000010,0.00000033,-0.00000062,-0.00000098,-0.00000019,0.00000096
 ,0.00000116,0.00000175,-0.00000175,0.00000119,-0.00000274,-0.00000044,
 -0.00000015,0.00000064,0.00000031,0.00000090,0.00000056,-0.00000064,0.
 00000064,0.00000062,0.00000017,0.,-0.00000044,-0.00000015,0.,-0.000000
 04,0.00000042,0.00000015,-0.00000018,0.00000029,0.00000011,0.00000002,
 -0.00000010,-0.00000027,-0.00000017,0.00000027,-0.00000006,0.00000012,
 0.00000044,-0.00000021,0.00000041,0.00000007,-0.00000002,-0.00000015,-
 0.00000019,-0.00000086,0.00000041,0.,-0.00000064,-0.00000019,0.0000005
 0,0.00000005,-0.00000047,-0.00000018,0.00000032,-0.00000028,-0.0000000
 2,-0.00000002,-0.00000008,-0.00000008,-0.00000005,-0.00000018,-0.00000
 024,0.00000002,0.00000016,0.,0.00000063,-0.00000051,-0.00000067,0.0000
 0032,0.00000041,-0.00000073,0.00000024,0.00000052,-0.00000009,0.000000
 08,0.00000041,0.00000030,0.00000032,-0.00000022,-0.00000015,0.00000002
 ,0.00000026,-0.00000087,0.,0.00000001,-0.00000026,-0.00000008,-0.00000
 005,0.00000023,-0.00000023,0.00000021,0.00000016,0.00000026,0.00000028
 ,-0.00000083,0.00000002,-0.00000062,0.00000038,0.00000003,0.00000028,0
 .00000009,0.00000008,0.00000026,0.00000011,0.00000022,0.00000039,0.000
 00005,-0.00000069,0.00000018,0.00000014,0.00000039,0.00000032,0.,-0.00
 000002,0.00000009,0.00000007,-0.00000009,0.00000014,0.00000017,-0.0000
 0003,-0.00000017,-0.00000011,0.00000061,0.00000058,0.00000079,0.000000
 32,-0.00000050,-0.00000008,-0.00000054,-0.00000020,0.00000013,0.000001
 23,-0.00000058\\\@
 The archive entry for this job was punched.


 Statistics are no substitute for judgment.
                            -- Henry Clay
 Job cpu time:       0 days  9 hours 39 minutes 13.5 seconds.
 Elapsed time:       0 days  0 hours 18 minutes 12.8 seconds.
 File lengths (MBytes):  RWF=   4413 Int=      0 D2E=      0 Chk=     44 Scr=      1
 Normal termination of Gaussian 16 at Thu Jan 23 16:10:06 2025.
