 Entering Gaussian System, Link 0=g16
 Initial command:
 /public/software/apps/Gaussian/g16/l1.exe "/tmp/Gau-67501.inp" -scrdir="/tmp/"
 Entering Link 1 = /public/software/apps/Gaussian/g16/l1.exe PID=     67502.
  
 Copyright (c) 1988-2019, Gaussian, Inc.  All Rights Reserved.
  
 This is part of the Gaussian(R) 16 program.  It is based on
 the Gaussian(R) 09 system (copyright 2009, Gaussian, Inc.),
 the Gaussian(R) 03 system (copyright 2003, Gaussian, Inc.),
 the Gaussian(R) 98 system (copyright 1998, Gaussian, Inc.),
 the Gaussian(R) 94 system (copyright 1995, Gaussian, Inc.),
 the Gaussian 92(TM) system (copyright 1992, Gaussian, Inc.),
 the Gaussian 90(TM) system (copyright 1990, Gaussian, Inc.),
 the Gaussian 88(TM) system (copyright 1988, Gaussian, Inc.),
 the Gaussian 86(TM) system (copyright 1986, Carnegie Mellon
 University), and the Gaussian 82(TM) system (copyright 1983,
 Carnegie Mellon University). Gaussian is a federally registered
 trademark of Gaussian, Inc.
  
 This software contains proprietary and confidential information,
 including trade secrets, belonging to Gaussian, Inc.
  
 This software is provided under written license and may be
 used, copied, transmitted, or stored only in accord with that
 written license.
  
 The following legend is applicable only to US Government
 contracts under FAR:
  
                    RESTRICTED RIGHTS LEGEND
  
 Use, reproduction and disclosure by the US Government is
 subject to restrictions as set forth in subparagraphs (a)
 and (c) of the Commercial Computer Software - Restricted
 Rights clause in FAR 52.227-19.
  
 Gaussian, Inc.
 340 Quinnipiac St., Bldg. 40, Wallingford CT 06492
  
  
 ---------------------------------------------------------------
 Warning -- This program may not be used in any manner that
 competes with the business of Gaussian, Inc. or will provide
 assistance to any competitor of Gaussian, Inc.  The licensee
 of this program is prohibited from giving any competitor of
 Gaussian, Inc. access to this program.  By using this program,
 the user acknowledges that Gaussian, Inc. is engaged in the
 business of creating and licensing software in the field of
 computational chemistry and represents and warrants to the
 licensee that it is not a competitor of Gaussian, Inc. and that
 it will not use this program in any manner prohibited above.
 ---------------------------------------------------------------
  

 Cite this work as:
 Gaussian 16, Revision C.01,
 M. J. Frisch, G. W. Trucks, H. B. Schlegel, G. E. Scuseria, 
 M. A. Robb, J. R. Cheeseman, G. Scalmani, V. Barone, 
 G. A. Petersson, H. Nakatsuji, X. Li, M. Caricato, A. V. Marenich, 
 J. Bloino, B. G. Janesko, R. Gomperts, B. Mennucci, H. P. Hratchian, 
 J. V. Ortiz, A. F. Izmaylov, J. L. Sonnenberg, D. Williams-Young, 
 F. Ding, F. Lipparini, F. Egidi, J. Goings, B. Peng, A. Petrone, 
 T. Henderson, D. Ranasinghe, V. G. Zakrzewski, J. Gao, N. Rega, 
 G. Zheng, W. Liang, M. Hada, M. Ehara, K. Toyota, R. Fukuda, 
 J. Hasegawa, M. Ishida, T. Nakajima, Y. Honda, O. Kitao, H. Nakai, 
 T. Vreven, K. Throssell, J. A. Montgomery, Jr., J. E. Peralta, 
 F. Ogliaro, M. J. Bearpark, J. J. Heyd, E. N. Brothers, K. N. Kudin, 
 V. N. Staroverov, T. A. Keith, R. Kobayashi, J. Normand, 
 K. Raghavachari, A. P. Rendell, J. C. Burant, S. S. Iyengar, 
 J. Tomasi, M. Cossi, J. M. Millam, M. Klene, C. Adamo, R. Cammi, 
 J. W. Ochterski, R. L. Martin, K. Morokuma, O. Farkas, 
 J. B. Foresman, and D. J. Fox, Gaussian, Inc., Wallingford CT, 2019.
 
 ******************************************
 Gaussian 16:  ES64L-G16RevC.01  3-Jul-2019
                23-Jan-2025 
 ******************************************
 %nprocshared=32
 Will use up to   32 processors via shared memory.
 %mem=100GB
 ------------------------------------------
 #p opt freq b3lyp/def2svpp em=gd3bj nosymm
 ------------------------------------------
 1/18=20,19=15,26=3,38=1/1,3;
 2/9=110,12=2,15=1,17=6,18=5,40=1/2;
 3/5=43,7=202,11=2,25=1,30=1,71=1,74=-5,124=41/1,2,3;
 4//1;
 5/5=2,38=5/2;
 6/7=2,8=2,9=2,10=2,28=1/1;
 7/30=1/1,2,3,16;
 1/18=20,19=15,26=3/3(2);
 2/9=110,15=1/2;
 99//99;
 2/9=110,15=1/2;
 3/5=43,7=202,11=2,25=1,30=1,71=1,74=-5,124=41/1,2,3;
 4/5=5,16=3,69=1/1;
 5/5=2,38=5/2;
 7/30=1/1,2,3,16;
 1/18=20,19=15,26=3/3(-5);
 2/9=110,15=1/2;
 6/7=2,8=2,9=2,10=2,19=2,28=1/1;
 99/9=1/99;
 Leave Link    1 at Thu Jan 23 17:27:50 2025, MaxMem= 13421772800 cpu:               1.2 elap:               0.0
 (Enter /public/software/apps/Gaussian/g16/l101.exe)
 ----------------------
 $$$$Singlemol####0????
 ----------------------
 Symbolic Z-matrix:
 Charge =  0 Multiplicity = 1
 O                    -1.3903   -1.1142    0.5087 
 C                    -1.6139   -0.3115    1.6328 
 C                    -2.8211    0.4035    1.7967 
 C                    -3.9357    0.2811    0.8332 
 C                    -4.5431   -0.9788    0.5989 
 C                    -5.6183   -1.1045   -0.2986 
 C                    -6.0819    0.0485   -0.9378 
 C                    -5.4878    1.2735   -0.7098 
 C                    -4.4215    1.4292    0.1721 
 C                    -6.1527    2.1816   -1.5026 
 C                    -5.9901    3.556    -1.6675 
 C                    -6.8594    4.2158   -2.5535 
 C                    -7.8623    3.4982   -3.2414 
 C                    -8.0047    2.1107   -3.0566 
 C                    -7.122     1.4691   -2.1816 
 N                    -7.0884    0.1555   -1.8421 
 C                    -7.9376   -0.8949   -2.333 
 C                    -8.039    -1.137    -3.7122 
 C                    -8.8668   -2.1583   -4.1887 
 C                    -9.5977   -2.9429   -3.292 
 C                    -9.5015   -2.7073   -1.9175 
 C                    -8.6743   -1.6869   -1.438 
 C                    -2.9834    1.2439    2.9059 
 C                    -1.9734    1.3671    3.8665 
 C                    -2.157     2.2102    4.9744 
 C                    -1.1547    2.3362    5.937 
 C                     0.0378    1.6255    5.8027 
 C                     0.2355    0.7823    4.707 
 C                    -0.7672    0.6376    3.7238 
 C                    -0.5959   -0.2079    2.6007 
 C                     0.6552   -0.9855    2.4076 
 C                     1.645    -0.4712    1.5476 
 O                     1.3871    0.7254    0.8699 
 C                     2.8585   -1.1717    1.3662 
 C                     3.9507   -0.6343    0.526 
 C                     4.5275    0.6268    0.8245 
 C                     5.5787    1.1415    0.0453 
 C                     6.0532    0.3667   -1.0165 
 C                     5.4922   -0.8612   -1.3044 
 C                     4.4482   -1.3957   -0.5533 
 C                     6.1598   -1.3445   -2.407 
 C                     6.025    -2.535    -3.1189 
 C                     6.8892   -2.7478   -4.2069 
 C                     7.859    -1.7813   -4.552 
 C                     7.9735   -0.5874   -3.8167 
 C                     7.0966   -0.3874   -2.7455 
 N                     7.0407    0.6702   -1.8969 
 C                     7.8497    1.8577   -1.9274 
 C                     8.5895    2.2406   -0.7973 
 C                     9.3746    3.3974   -0.8287 
 C                     9.4259    4.1776   -1.9874 
 C                     8.6922    3.8019   -3.1162 
 C                     7.9063    2.6458   -3.0879 
 C                     3.0516   -2.4       2.0122 
 C                     2.0681   -2.9306    2.8543 
 C                     2.2832   -4.16      3.4985 
 C                     1.3079   -4.6929    4.3424 
 C                     0.1122   -4.0062    4.5515 
 C                    -0.1163   -2.782     3.9191 
 C                     0.8581   -2.2241    3.0634 
 H                    -2.0278   -1.1621   -0.2753 
 H                    -4.1807   -1.8602    1.1132 
 H                    -6.0642   -2.0724   -0.4836 
 H                    -3.9752    2.4024    0.3353 
 H                    -5.2251    4.1013   -1.1302 
 H                    -6.7631    5.2833   -2.7043 
 H                    -8.5302    4.0207   -3.9137 
 H                    -8.7831    1.5675   -3.5755 
 H                    -7.4694   -0.5409   -4.4139 
 H                    -8.9407   -2.3425   -5.2527 
 H                    -10.2383  -3.733    -3.6619 
 H                    -10.0692  -3.3139   -1.2238 
 H                    -8.6142   -1.5053   -0.3724 
 H                    -3.9112    1.7933    3.0271 
 H                    -3.0756    2.7718    5.0959 
 H                    -1.3023    2.9879    6.7885 
 H                     0.8128    1.7282    6.5509 
 H                     1.1753    0.25      4.637 
 H                     1.9972    1.1018    0.1562 
 H                     4.159     1.2085    1.6605 
 H                     5.9984    2.1129    0.2685 
 H                     4.0265   -2.3621   -0.8004 
 H                     5.2853   -3.2756   -2.8436 
 H                     6.8141   -3.6621   -4.7809 
 H                     8.5234   -1.9622   -5.3869 
 H                     8.7272    0.1438   -4.0754 
 H                     8.5632    1.6379    0.1017 
 H                     9.9444    3.6884    0.0442 
 H                     10.0336   5.0729   -2.0104 
 H                     8.7309    4.4078   -4.0123 
 H                     7.3337    2.3682   -3.9638 
 H                     3.9841   -2.936     1.87 
 H                     3.2054   -4.7088    3.349 
 H                     1.4797   -5.6408    4.8361 
 H                    -0.6414   -4.4243    5.2063 
 H                    -1.0572   -2.2807    4.105 
 
 ITRead=  0  0  0  0  0  0  0  0  0  0  0  0  0  0  0  0  0  0  0  0
 ITRead=  0  0  0  0  0  0  0  0  0  0  0  0  0  0  0  0  0  0  0  0
 ITRead=  0  0  0  0  0  0  0  0  0  0  0  0  0  0  0  0  0  0  0  0
 ITRead=  0  0  0  0  0  0  0  0  0  0  0  0  0  0  0  0  0  0  0  0
 ITRead=  0  0  0  0  0  0  0  0  0  0  0  0  0  0  0  0
 MicOpt= -1 -1 -1 -1 -1 -1 -1 -1 -1 -1 -1 -1 -1 -1 -1 -1 -1 -1 -1 -1
 MicOpt= -1 -1 -1 -1 -1 -1 -1 -1 -1 -1 -1 -1 -1 -1 -1 -1 -1 -1 -1 -1
 MicOpt= -1 -1 -1 -1 -1 -1 -1 -1 -1 -1 -1 -1 -1 -1 -1 -1 -1 -1 -1 -1
 MicOpt= -1 -1 -1 -1 -1 -1 -1 -1 -1 -1 -1 -1 -1 -1 -1 -1 -1 -1 -1 -1
 MicOpt= -1 -1 -1 -1 -1 -1 -1 -1 -1 -1 -1 -1 -1 -1 -1 -1
 NAtoms=     96 NQM=       96 NQMF=       0 NMMI=      0 NMMIF=      0
                NMic=       0 NMicF=      0.
                    Isotopes and Nuclear Properties:
 (Nuclear quadrupole moments (NQMom) in fm**2, nuclear magnetic moments (NMagM)
  in nuclear magnetons)

  Atom         1           2           3           4           5           6           7           8           9          10
 IAtWgt=          16          12          12          12          12          12          12          12          12          12
 AtmWgt=  15.9949146  12.0000000  12.0000000  12.0000000  12.0000000  12.0000000  12.0000000  12.0000000  12.0000000  12.0000000
 NucSpn=           0           0           0           0           0           0           0           0           0           0
 AtZEff=  -0.0000000  -0.0000000  -0.0000000  -0.0000000  -0.0000000  -0.0000000  -0.0000000  -0.0000000  -0.0000000  -0.0000000
 NQMom=    0.0000000   0.0000000   0.0000000   0.0000000   0.0000000   0.0000000   0.0000000   0.0000000   0.0000000   0.0000000
 NMagM=    0.0000000   0.0000000   0.0000000   0.0000000   0.0000000   0.0000000   0.0000000   0.0000000   0.0000000   0.0000000
 AtZNuc=   8.0000000   6.0000000   6.0000000   6.0000000   6.0000000   6.0000000   6.0000000   6.0000000   6.0000000   6.0000000

  Atom        11          12          13          14          15          16          17          18          19          20
 IAtWgt=          12          12          12          12          12          14          12          12          12          12
 AtmWgt=  12.0000000  12.0000000  12.0000000  12.0000000  12.0000000  14.0030740  12.0000000  12.0000000  12.0000000  12.0000000
 NucSpn=           0           0           0           0           0           2           0           0           0           0
 AtZEff=  -0.0000000  -0.0000000  -0.0000000  -0.0000000  -0.0000000  -0.0000000  -0.0000000  -0.0000000  -0.0000000  -0.0000000
 NQMom=    0.0000000   0.0000000   0.0000000   0.0000000   0.0000000   2.0440000   0.0000000   0.0000000   0.0000000   0.0000000
 NMagM=    0.0000000   0.0000000   0.0000000   0.0000000   0.0000000   0.4037610   0.0000000   0.0000000   0.0000000   0.0000000
 AtZNuc=   6.0000000   6.0000000   6.0000000   6.0000000   6.0000000   7.0000000   6.0000000   6.0000000   6.0000000   6.0000000

  Atom        21          22          23          24          25          26          27          28          29          30
 IAtWgt=          12          12          12          12          12          12          12          12          12          12
 AtmWgt=  12.0000000  12.0000000  12.0000000  12.0000000  12.0000000  12.0000000  12.0000000  12.0000000  12.0000000  12.0000000
 NucSpn=           0           0           0           0           0           0           0           0           0           0
 AtZEff=  -0.0000000  -0.0000000  -0.0000000  -0.0000000  -0.0000000  -0.0000000  -0.0000000  -0.0000000  -0.0000000  -0.0000000
 NQMom=    0.0000000   0.0000000   0.0000000   0.0000000   0.0000000   0.0000000   0.0000000   0.0000000   0.0000000   0.0000000
 NMagM=    0.0000000   0.0000000   0.0000000   0.0000000   0.0000000   0.0000000   0.0000000   0.0000000   0.0000000   0.0000000
 AtZNuc=   6.0000000   6.0000000   6.0000000   6.0000000   6.0000000   6.0000000   6.0000000   6.0000000   6.0000000   6.0000000

  Atom        31          32          33          34          35          36          37          38          39          40
 IAtWgt=          12          12          16          12          12          12          12          12          12          12
 AtmWgt=  12.0000000  12.0000000  15.9949146  12.0000000  12.0000000  12.0000000  12.0000000  12.0000000  12.0000000  12.0000000
 NucSpn=           0           0           0           0           0           0           0           0           0           0
 AtZEff=  -0.0000000  -0.0000000  -0.0000000  -0.0000000  -0.0000000  -0.0000000  -0.0000000  -0.0000000  -0.0000000  -0.0000000
 NQMom=    0.0000000   0.0000000   0.0000000   0.0000000   0.0000000   0.0000000   0.0000000   0.0000000   0.0000000   0.0000000
 NMagM=    0.0000000   0.0000000   0.0000000   0.0000000   0.0000000   0.0000000   0.0000000   0.0000000   0.0000000   0.0000000
 AtZNuc=   6.0000000   6.0000000   8.0000000   6.0000000   6.0000000   6.0000000   6.0000000   6.0000000   6.0000000   6.0000000

  Atom        41          42          43          44          45          46          47          48          49          50
 IAtWgt=          12          12          12          12          12          12          14          12          12          12
 AtmWgt=  12.0000000  12.0000000  12.0000000  12.0000000  12.0000000  12.0000000  14.0030740  12.0000000  12.0000000  12.0000000
 NucSpn=           0           0           0           0           0           0           2           0           0           0
 AtZEff=  -0.0000000  -0.0000000  -0.0000000  -0.0000000  -0.0000000  -0.0000000  -0.0000000  -0.0000000  -0.0000000  -0.0000000
 NQMom=    0.0000000   0.0000000   0.0000000   0.0000000   0.0000000   0.0000000   2.0440000   0.0000000   0.0000000   0.0000000
 NMagM=    0.0000000   0.0000000   0.0000000   0.0000000   0.0000000   0.0000000   0.4037610   0.0000000   0.0000000   0.0000000
 AtZNuc=   6.0000000   6.0000000   6.0000000   6.0000000   6.0000000   6.0000000   7.0000000   6.0000000   6.0000000   6.0000000

  Atom        51          52          53          54          55          56          57          58          59          60
 IAtWgt=          12          12          12          12          12          12          12          12          12          12
 AtmWgt=  12.0000000  12.0000000  12.0000000  12.0000000  12.0000000  12.0000000  12.0000000  12.0000000  12.0000000  12.0000000
 NucSpn=           0           0           0           0           0           0           0           0           0           0
 AtZEff=  -0.0000000  -0.0000000  -0.0000000  -0.0000000  -0.0000000  -0.0000000  -0.0000000  -0.0000000  -0.0000000  -0.0000000
 NQMom=    0.0000000   0.0000000   0.0000000   0.0000000   0.0000000   0.0000000   0.0000000   0.0000000   0.0000000   0.0000000
 NMagM=    0.0000000   0.0000000   0.0000000   0.0000000   0.0000000   0.0000000   0.0000000   0.0000000   0.0000000   0.0000000
 AtZNuc=   6.0000000   6.0000000   6.0000000   6.0000000   6.0000000   6.0000000   6.0000000   6.0000000   6.0000000   6.0000000

  Atom        61          62          63          64          65          66          67          68          69          70
 IAtWgt=           1           1           1           1           1           1           1           1           1           1
 AtmWgt=   1.0078250   1.0078250   1.0078250   1.0078250   1.0078250   1.0078250   1.0078250   1.0078250   1.0078250   1.0078250
 NucSpn=           1           1           1           1           1           1           1           1           1           1
 AtZEff=  -0.0000000  -0.0000000  -0.0000000  -0.0000000  -0.0000000  -0.0000000  -0.0000000  -0.0000000  -0.0000000  -0.0000000
 NQMom=    0.0000000   0.0000000   0.0000000   0.0000000   0.0000000   0.0000000   0.0000000   0.0000000   0.0000000   0.0000000
 NMagM=    2.7928460   2.7928460   2.7928460   2.7928460   2.7928460   2.7928460   2.7928460   2.7928460   2.7928460   2.7928460
 AtZNuc=   1.0000000   1.0000000   1.0000000   1.0000000   1.0000000   1.0000000   1.0000000   1.0000000   1.0000000   1.0000000

  Atom        71          72          73          74          75          76          77          78          79          80
 IAtWgt=           1           1           1           1           1           1           1           1           1           1
 AtmWgt=   1.0078250   1.0078250   1.0078250   1.0078250   1.0078250   1.0078250   1.0078250   1.0078250   1.0078250   1.0078250
 NucSpn=           1           1           1           1           1           1           1           1           1           1
 AtZEff=  -0.0000000  -0.0000000  -0.0000000  -0.0000000  -0.0000000  -0.0000000  -0.0000000  -0.0000000  -0.0000000  -0.0000000
 NQMom=    0.0000000   0.0000000   0.0000000   0.0000000   0.0000000   0.0000000   0.0000000   0.0000000   0.0000000   0.0000000
 NMagM=    2.7928460   2.7928460   2.7928460   2.7928460   2.7928460   2.7928460   2.7928460   2.7928460   2.7928460   2.7928460
 AtZNuc=   1.0000000   1.0000000   1.0000000   1.0000000   1.0000000   1.0000000   1.0000000   1.0000000   1.0000000   1.0000000

  Atom        81          82          83          84          85          86          87          88          89          90
 IAtWgt=           1           1           1           1           1           1           1           1           1           1
 AtmWgt=   1.0078250   1.0078250   1.0078250   1.0078250   1.0078250   1.0078250   1.0078250   1.0078250   1.0078250   1.0078250
 NucSpn=           1           1           1           1           1           1           1           1           1           1
 AtZEff=  -0.0000000  -0.0000000  -0.0000000  -0.0000000  -0.0000000  -0.0000000  -0.0000000  -0.0000000  -0.0000000  -0.0000000
 NQMom=    0.0000000   0.0000000   0.0000000   0.0000000   0.0000000   0.0000000   0.0000000   0.0000000   0.0000000   0.0000000
 NMagM=    2.7928460   2.7928460   2.7928460   2.7928460   2.7928460   2.7928460   2.7928460   2.7928460   2.7928460   2.7928460
 AtZNuc=   1.0000000   1.0000000   1.0000000   1.0000000   1.0000000   1.0000000   1.0000000   1.0000000   1.0000000   1.0000000

  Atom        91          92          93          94          95          96
 IAtWgt=           1           1           1           1           1           1
 AtmWgt=   1.0078250   1.0078250   1.0078250   1.0078250   1.0078250   1.0078250
 NucSpn=           1           1           1           1           1           1
 AtZEff=  -0.0000000  -0.0000000  -0.0000000  -0.0000000  -0.0000000  -0.0000000
 NQMom=    0.0000000   0.0000000   0.0000000   0.0000000   0.0000000   0.0000000
 NMagM=    2.7928460   2.7928460   2.7928460   2.7928460   2.7928460   2.7928460
 AtZNuc=   1.0000000   1.0000000   1.0000000   1.0000000   1.0000000   1.0000000
 Leave Link  101 at Thu Jan 23 17:27:51 2025, MaxMem= 13421772800 cpu:               5.0 elap:               0.2
 (Enter /public/software/apps/Gaussian/g16/l103.exe)

 GradGradGradGradGradGradGradGradGradGradGradGradGradGradGradGradGradGrad
 Berny optimization.
 Initialization pass.
                           ----------------------------
                           !    Initial Parameters    !
                           ! (Angstroms and Degrees)  !
 --------------------------                            --------------------------
 ! Name  Definition              Value          Derivative Info.                !
 --------------------------------------------------------------------------------
 ! R1    R(1,2)                  1.3993         estimate D2E/DX2                !
 ! R2    R(1,61)                 1.0116         estimate D2E/DX2                !
 ! R3    R(2,3)                  1.4126         estimate D2E/DX2                !
 ! R4    R(2,30)                 1.4085         estimate D2E/DX2                !
 ! R5    R(3,4)                  1.4784         estimate D2E/DX2                !
 ! R6    R(3,23)                 1.401          estimate D2E/DX2                !
 ! R7    R(4,5)                  1.4182         estimate D2E/DX2                !
 ! R8    R(4,9)                  1.4111         estimate D2E/DX2                !
 ! R9    R(5,6)                  1.4062         estimate D2E/DX2                !
 ! R10   R(5,62)                 1.0829         estimate D2E/DX2                !
 ! R11   R(6,7)                  1.3975         estimate D2E/DX2                !
 ! R12   R(6,63)                 1.0816         estimate D2E/DX2                !
 ! R13   R(7,8)                  1.3804         estimate D2E/DX2                !
 ! R14   R(7,16)                 1.3573         estimate D2E/DX2                !
 ! R15   R(8,9)                  1.3925         estimate D2E/DX2                !
 ! R16   R(8,10)                 1.3767         estimate D2E/DX2                !
 ! R17   R(9,64)                 1.083          estimate D2E/DX2                !
 ! R18   R(10,11)                1.3938         estimate D2E/DX2                !
 ! R19   R(10,15)                1.3814         estimate D2E/DX2                !
 ! R20   R(11,12)                1.4057         estimate D2E/DX2                !
 ! R21   R(11,65)                1.0823         estimate D2E/DX2                !
 ! R22   R(12,13)                1.4121         estimate D2E/DX2                !
 ! R23   R(12,66)                1.0824         estimate D2E/DX2                !
 ! R24   R(13,14)                1.407          estimate D2E/DX2                !
 ! R25   R(13,67)                1.0822         estimate D2E/DX2                !
 ! R26   R(14,15)                1.3987         estimate D2E/DX2                !
 ! R27   R(14,68)                1.0818         estimate D2E/DX2                !
 ! R28   R(15,16)                1.3572         estimate D2E/DX2                !
 ! R29   R(16,17)                1.4372         estimate D2E/DX2                !
 ! R30   R(17,18)                1.404          estimate D2E/DX2                !
 ! R31   R(17,22)                1.4039         estimate D2E/DX2                !
 ! R32   R(18,19)                1.3983         estimate D2E/DX2                !
 ! R33   R(18,69)                1.0827         estimate D2E/DX2                !
 ! R34   R(19,20)                1.3978         estimate D2E/DX2                !
 ! R35   R(19,70)                1.0824         estimate D2E/DX2                !
 ! R36   R(20,21)                1.3979         estimate D2E/DX2                !
 ! R37   R(20,71)                1.0823         estimate D2E/DX2                !
 ! R38   R(21,22)                1.3984         estimate D2E/DX2                !
 ! R39   R(21,72)                1.0823         estimate D2E/DX2                !
 ! R40   R(22,73)                1.0826         estimate D2E/DX2                !
 ! R41   R(23,24)                1.3993         estimate D2E/DX2                !
 ! R42   R(23,74)                1.0851         estimate D2E/DX2                !
 ! R43   R(24,25)                1.4043         estimate D2E/DX2                !
 ! R44   R(24,29)                1.4168         estimate D2E/DX2                !
 ! R45   R(25,26)                1.3954         estimate D2E/DX2                !
 ! R46   R(25,75)                1.0835         estimate D2E/DX2                !
 ! R47   R(26,27)                1.3947         estimate D2E/DX2                !
 ! R48   R(26,76)                1.0824         estimate D2E/DX2                !
 ! R49   R(27,28)                1.3966         estimate D2E/DX2                !
 ! R50   R(27,77)                1.0821         estimate D2E/DX2                !
 ! R51   R(28,29)                1.4117         estimate D2E/DX2                !
 ! R52   R(28,78)                1.0823         estimate D2E/DX2                !
 ! R53   R(29,30)                1.4162         estimate D2E/DX2                !
 ! R54   R(30,31)                1.4857         estimate D2E/DX2                !
 ! R55   R(31,32)                1.4085         estimate D2E/DX2                !
 ! R56   R(31,60)                1.4161         estimate D2E/DX2                !
 ! R57   R(32,33)                1.3992         estimate D2E/DX2                !
 ! R58   R(32,34)                1.4129         estimate D2E/DX2                !
 ! R59   R(33,79)                1.0116         estimate D2E/DX2                !
 ! R60   R(34,35)                1.4791         estimate D2E/DX2                !
 ! R61   R(34,54)                1.4012         estimate D2E/DX2                !
 ! R62   R(35,36)                1.4185         estimate D2E/DX2                !
 ! R63   R(35,40)                1.4114         estimate D2E/DX2                !
 ! R64   R(36,37)                1.4061         estimate D2E/DX2                !
 ! R65   R(36,80)                1.0831         estimate D2E/DX2                !
 ! R66   R(37,38)                1.3975         estimate D2E/DX2                !
 ! R67   R(37,81)                1.0815         estimate D2E/DX2                !
 ! R68   R(38,39)                1.3803         estimate D2E/DX2                !
 ! R69   R(38,47)                1.3573         estimate D2E/DX2                !
 ! R70   R(39,40)                1.3928         estimate D2E/DX2                !
 ! R71   R(39,41)                1.3766         estimate D2E/DX2                !
 ! R72   R(40,82)                1.083          estimate D2E/DX2                !
 ! R73   R(41,42)                1.3937         estimate D2E/DX2                !
 ! R74   R(41,46)                1.3814         estimate D2E/DX2                !
 ! R75   R(42,43)                1.4057         estimate D2E/DX2                !
 ! R76   R(42,83)                1.0823         estimate D2E/DX2                !
 ! R77   R(43,44)                1.412          estimate D2E/DX2                !
 ! R78   R(43,84)                1.0822         estimate D2E/DX2                !
 ! R79   R(44,45)                1.4068         estimate D2E/DX2                !
 ! R80   R(44,85)                1.0822         estimate D2E/DX2                !
 ! R81   R(45,46)                1.3987         estimate D2E/DX2                !
 ! R82   R(45,86)                1.0815         estimate D2E/DX2                !
 ! R83   R(46,47)                1.3571         estimate D2E/DX2                !
 ! R84   R(47,48)                1.4372         estimate D2E/DX2                !
 ! R85   R(48,49)                1.4039         estimate D2E/DX2                !
 ! R86   R(48,53)                1.4039         estimate D2E/DX2                !
 ! R87   R(49,50)                1.3984         estimate D2E/DX2                !
 ! R88   R(49,87)                1.0827         estimate D2E/DX2                !
 ! R89   R(50,51)                1.3978         estimate D2E/DX2                !
 ! R90   R(50,88)                1.0823         estimate D2E/DX2                !
 ! R91   R(51,52)                1.3977         estimate D2E/DX2                !
 ! R92   R(51,89)                1.0823         estimate D2E/DX2                !
 ! R93   R(52,53)                1.3982         estimate D2E/DX2                !
 ! R94   R(52,90)                1.0824         estimate D2E/DX2                !
 ! R95   R(53,91)                1.0827         estimate D2E/DX2                !
 ! R96   R(54,55)                1.3993         estimate D2E/DX2                !
 ! R97   R(54,92)                1.0849         estimate D2E/DX2                !
 ! R98   R(55,56)                1.4045         estimate D2E/DX2                !
 ! R99   R(55,60)                1.4167         estimate D2E/DX2                !
 ! R100  R(56,57)                1.3955         estimate D2E/DX2                !
 ! R101  R(56,93)                1.0835         estimate D2E/DX2                !
 ! R102  R(57,58)                1.3946         estimate D2E/DX2                !
 ! R103  R(57,94)                1.0825         estimate D2E/DX2                !
 ! R104  R(58,59)                1.3967         estimate D2E/DX2                !
 ! R105  R(58,95)                1.0824         estimate D2E/DX2                !
 ! R106  R(59,60)                1.4117         estimate D2E/DX2                !
 ! R107  R(59,96)                1.0822         estimate D2E/DX2                !
 ! A1    A(2,1,61)             123.3026         estimate D2E/DX2                !
 ! A2    A(1,2,3)              121.3416         estimate D2E/DX2                !
 ! A3    A(1,2,30)             118.6038         estimate D2E/DX2                !
 ! A4    A(3,2,30)             120.0464         estimate D2E/DX2                !
 ! A5    A(2,3,4)              121.7882         estimate D2E/DX2                !
 ! A6    A(2,3,23)             119.6348         estimate D2E/DX2                !
 ! A7    A(4,3,23)             118.5737         estimate D2E/DX2                !
 ! A8    A(3,4,5)              120.2739         estimate D2E/DX2                !
 ! A9    A(3,4,9)              119.8364         estimate D2E/DX2                !
 ! A10   A(5,4,9)              119.8659         estimate D2E/DX2                !
 ! A11   A(4,5,6)              120.8206         estimate D2E/DX2                !
 ! A12   A(4,5,62)             120.0853         estimate D2E/DX2                !
 ! A13   A(6,5,62)             119.0941         estimate D2E/DX2                !
 ! A14   A(5,6,7)              118.1538         estimate D2E/DX2                !
 ! A15   A(5,6,63)             120.2902         estimate D2E/DX2                !
 ! A16   A(7,6,63)             121.5557         estimate D2E/DX2                !
 ! A17   A(6,7,8)              120.9206         estimate D2E/DX2                !
 ! A18   A(6,7,16)             128.0093         estimate D2E/DX2                !
 ! A19   A(8,7,16)             111.0529         estimate D2E/DX2                !
 ! A20   A(7,8,9)              122.2352         estimate D2E/DX2                !
 ! A21   A(7,8,10)             106.4026         estimate D2E/DX2                !
 ! A22   A(9,8,10)             131.3612         estimate D2E/DX2                !
 ! A23   A(4,9,8)              117.9935         estimate D2E/DX2                !
 ! A24   A(4,9,64)             121.2418         estimate D2E/DX2                !
 ! A25   A(8,9,64)             120.762          estimate D2E/DX2                !
 ! A26   A(8,10,11)            131.4714         estimate D2E/DX2                !
 ! A27   A(8,10,15)            106.3635         estimate D2E/DX2                !
 ! A28   A(11,10,15)           122.1624         estimate D2E/DX2                !
 ! A29   A(10,11,12)           117.7279         estimate D2E/DX2                !
 ! A30   A(10,11,65)           121.3711         estimate D2E/DX2                !
 ! A31   A(12,11,65)           120.9003         estimate D2E/DX2                !
 ! A32   A(11,12,13)           120.5127         estimate D2E/DX2                !
 ! A33   A(11,12,66)           119.7164         estimate D2E/DX2                !
 ! A34   A(13,12,66)           119.7696         estimate D2E/DX2                !
 ! A35   A(12,13,14)           120.6005         estimate D2E/DX2                !
 ! A36   A(12,13,67)           119.711          estimate D2E/DX2                !
 ! A37   A(14,13,67)           119.688          estimate D2E/DX2                !
 ! A38   A(13,14,15)           118.0764         estimate D2E/DX2                !
 ! A39   A(13,14,68)           120.3321         estimate D2E/DX2                !
 ! A40   A(15,14,68)           121.5898         estimate D2E/DX2                !
 ! A41   A(10,15,14)           120.9113         estimate D2E/DX2                !
 ! A42   A(10,15,16)           111.0322         estimate D2E/DX2                !
 ! A43   A(14,15,16)           128.0308         estimate D2E/DX2                !
 ! A44   A(7,16,15)            105.1487         estimate D2E/DX2                !
 ! A45   A(7,16,17)            127.454          estimate D2E/DX2                !
 ! A46   A(15,16,17)           127.3972         estimate D2E/DX2                !
 ! A47   A(16,17,18)           120.2823         estimate D2E/DX2                !
 ! A48   A(16,17,22)           120.3062         estimate D2E/DX2                !
 ! A49   A(18,17,22)           119.4114         estimate D2E/DX2                !
 ! A50   A(17,18,19)           120.2288         estimate D2E/DX2                !
 ! A51   A(17,18,69)           120.2487         estimate D2E/DX2                !
 ! A52   A(19,18,69)           119.5198         estimate D2E/DX2                !
 ! A53   A(18,19,20)           120.0597         estimate D2E/DX2                !
 ! A54   A(18,19,70)           119.9801         estimate D2E/DX2                !
 ! A55   A(20,19,70)           119.9601         estimate D2E/DX2                !
 ! A56   A(19,20,21)           120.0127         estimate D2E/DX2                !
 ! A57   A(19,20,71)           119.9994         estimate D2E/DX2                !
 ! A58   A(21,20,71)           119.9879         estimate D2E/DX2                !
 ! A59   A(20,21,22)           120.0577         estimate D2E/DX2                !
 ! A60   A(20,21,72)           119.9773         estimate D2E/DX2                !
 ! A61   A(22,21,72)           119.9649         estimate D2E/DX2                !
 ! A62   A(17,22,21)           120.2297         estimate D2E/DX2                !
 ! A63   A(17,22,73)           120.2458         estimate D2E/DX2                !
 ! A64   A(21,22,73)           119.5214         estimate D2E/DX2                !
 ! A65   A(3,23,24)            120.8429         estimate D2E/DX2                !
 ! A66   A(3,23,74)            119.4196         estimate D2E/DX2                !
 ! A67   A(24,23,74)           119.7307         estimate D2E/DX2                !
 ! A68   A(23,24,25)           120.0064         estimate D2E/DX2                !
 ! A69   A(23,24,29)           120.0005         estimate D2E/DX2                !
 ! A70   A(25,24,29)           119.9927         estimate D2E/DX2                !
 ! A71   A(24,25,26)           120.302          estimate D2E/DX2                !
 ! A72   A(24,25,75)           120.6975         estimate D2E/DX2                !
 ! A73   A(26,25,75)           119.0005         estimate D2E/DX2                !
 ! A74   A(25,26,27)           120.114          estimate D2E/DX2                !
 ! A75   A(25,26,76)           119.9414         estimate D2E/DX2                !
 ! A76   A(27,26,76)           119.9445         estimate D2E/DX2                !
 ! A77   A(26,27,28)           120.2795         estimate D2E/DX2                !
 ! A78   A(26,27,77)           119.8293         estimate D2E/DX2                !
 ! A79   A(28,27,77)           119.8912         estimate D2E/DX2                !
 ! A80   A(27,28,29)           120.5118         estimate D2E/DX2                !
 ! A81   A(27,28,78)           118.071          estimate D2E/DX2                !
 ! A82   A(29,28,78)           121.4171         estimate D2E/DX2                !
 ! A83   A(24,29,28)           118.7993         estimate D2E/DX2                !
 ! A84   A(24,29,30)           119.3567         estimate D2E/DX2                !
 ! A85   A(28,29,30)           121.8431         estimate D2E/DX2                !
 ! A86   A(2,30,29)            120.0966         estimate D2E/DX2                !
 ! A87   A(2,30,31)            118.7393         estimate D2E/DX2                !
 ! A88   A(29,30,31)           121.1596         estimate D2E/DX2                !
 ! A89   A(30,31,32)           118.6877         estimate D2E/DX2                !
 ! A90   A(30,31,60)           121.2156         estimate D2E/DX2                !
 ! A91   A(32,31,60)           120.0959         estimate D2E/DX2                !
 ! A92   A(31,32,33)           118.5872         estimate D2E/DX2                !
 ! A93   A(31,32,34)           120.062          estimate D2E/DX2                !
 ! A94   A(33,32,34)           121.3424         estimate D2E/DX2                !
 ! A95   A(32,33,79)           123.2843         estimate D2E/DX2                !
 ! A96   A(32,34,35)           121.8051         estimate D2E/DX2                !
 ! A97   A(32,34,54)           119.5905         estimate D2E/DX2                !
 ! A98   A(35,34,54)           118.5965         estimate D2E/DX2                !
 ! A99   A(34,35,36)           120.2482         estimate D2E/DX2                !
 ! A100  A(34,35,40)           119.9121         estimate D2E/DX2                !
 ! A101  A(36,35,40)           119.8136         estimate D2E/DX2                !
 ! A102  A(35,36,37)           120.8512         estimate D2E/DX2                !
 ! A103  A(35,36,80)           120.1032         estimate D2E/DX2                !
 ! A104  A(37,36,80)           119.0455         estimate D2E/DX2                !
 ! A105  A(36,37,38)           118.161          estimate D2E/DX2                !
 ! A106  A(36,37,81)           120.3018         estimate D2E/DX2                !
 ! A107  A(38,37,81)           121.5369         estimate D2E/DX2                !
 ! A108  A(37,38,39)           120.9093         estimate D2E/DX2                !
 ! A109  A(37,38,47)           128.0163         estimate D2E/DX2                !
 ! A110  A(39,38,47)           111.0574         estimate D2E/DX2                !
 ! A111  A(38,39,40)           122.2461         estimate D2E/DX2                !
 ! A112  A(38,39,41)           106.3957         estimate D2E/DX2                !
 ! A113  A(40,39,41)           131.3566         estimate D2E/DX2                !
 ! A114  A(35,40,39)           118.0069         estimate D2E/DX2                !
 ! A115  A(35,40,82)           121.2393         estimate D2E/DX2                !
 ! A116  A(39,40,82)           120.7504         estimate D2E/DX2                !
 ! A117  A(39,41,42)           131.4638         estimate D2E/DX2                !
 ! A118  A(39,41,46)           106.374          estimate D2E/DX2                !
 ! A119  A(42,41,46)           122.1598         estimate D2E/DX2                !
 ! A120  A(41,42,43)           117.7254         estimate D2E/DX2                !
 ! A121  A(41,42,83)           121.3789         estimate D2E/DX2                !
 ! A122  A(43,42,83)           120.8949         estimate D2E/DX2                !
 ! A123  A(42,43,44)           120.5183         estimate D2E/DX2                !
 ! A124  A(42,43,84)           119.7222         estimate D2E/DX2                !
 ! A125  A(44,43,84)           119.7585         estimate D2E/DX2                !
 ! A126  A(43,44,45)           120.6005         estimate D2E/DX2                !
 ! A127  A(43,44,85)           119.7221         estimate D2E/DX2                !
 ! A128  A(45,44,85)           119.6768         estimate D2E/DX2                !
 ! A129  A(44,45,46)           118.0732         estimate D2E/DX2                !
 ! A130  A(44,45,86)           120.3621         estimate D2E/DX2                !
 ! A131  A(46,45,86)           121.5625         estimate D2E/DX2                !
 ! A132  A(41,46,45)           120.9142         estimate D2E/DX2                !
 ! A133  A(41,46,47)           111.0255         estimate D2E/DX2                !
 ! A134  A(45,46,47)           128.0342         estimate D2E/DX2                !
 ! A135  A(38,47,46)           105.147          estimate D2E/DX2                !
 ! A136  A(38,47,48)           127.4477         estimate D2E/DX2                !
 ! A137  A(46,47,48)           127.4049         estimate D2E/DX2                !
 ! A138  A(47,48,49)           120.3234         estimate D2E/DX2                !
 ! A139  A(47,48,53)           120.2683         estimate D2E/DX2                !
 ! A140  A(49,48,53)           119.4082         estimate D2E/DX2                !
 ! A141  A(48,49,50)           120.2236         estimate D2E/DX2                !
 ! A142  A(48,49,87)           120.2501         estimate D2E/DX2                !
 ! A143  A(50,49,87)           119.524          estimate D2E/DX2                !
 ! A144  A(49,50,51)           120.0617         estimate D2E/DX2                !
 ! A145  A(49,50,88)           119.993          estimate D2E/DX2                !
 ! A146  A(51,50,88)           119.9452         estimate D2E/DX2                !
 ! A147  A(50,51,52)           120.0096         estimate D2E/DX2                !
 ! A148  A(50,51,89)           119.9955         estimate D2E/DX2                !
 ! A149  A(52,51,89)           119.9949         estimate D2E/DX2                !
 ! A150  A(51,52,53)           120.0627         estimate D2E/DX2                !
 ! A151  A(51,52,90)           119.9575         estimate D2E/DX2                !
 ! A152  A(53,52,90)           119.9797         estimate D2E/DX2                !
 ! A153  A(48,53,52)           120.2341         estimate D2E/DX2                !
 ! A154  A(48,53,91)           120.2311         estimate D2E/DX2                !
 ! A155  A(52,53,91)           119.5318         estimate D2E/DX2                !
 ! A156  A(34,54,55)           120.8644         estimate D2E/DX2                !
 ! A157  A(34,54,92)           119.4133         estimate D2E/DX2                !
 ! A158  A(55,54,92)           119.7131         estimate D2E/DX2                !
 ! A159  A(54,55,56)           120.0202         estimate D2E/DX2                !
 ! A160  A(54,55,60)           120.0033         estimate D2E/DX2                !
 ! A161  A(56,55,60)           119.9755         estimate D2E/DX2                !
 ! A162  A(55,56,57)           120.3046         estimate D2E/DX2                !
 ! A163  A(55,56,93)           120.6914         estimate D2E/DX2                !
 ! A164  A(57,56,93)           119.004          estimate D2E/DX2                !
 ! A165  A(56,57,58)           120.1224         estimate D2E/DX2                !
 ! A166  A(56,57,94)           119.9528         estimate D2E/DX2                !
 ! A167  A(58,57,94)           119.9248         estimate D2E/DX2                !
 ! A168  A(57,58,59)           120.2617         estimate D2E/DX2                !
 ! A169  A(57,58,95)           119.8315         estimate D2E/DX2                !
 ! A170  A(59,58,95)           119.9068         estimate D2E/DX2                !
 ! A171  A(58,59,60)           120.5247         estimate D2E/DX2                !
 ! A172  A(58,59,96)           118.0648         estimate D2E/DX2                !
 ! A173  A(60,59,96)           121.4105         estimate D2E/DX2                !
 ! A174  A(31,60,55)           119.3547         estimate D2E/DX2                !
 ! A175  A(31,60,59)           121.8343         estimate D2E/DX2                !
 ! A176  A(55,60,59)           118.8104         estimate D2E/DX2                !
 ! D1    D(61,1,2,3)             5.7345         estimate D2E/DX2                !
 ! D2    D(61,1,2,30)         -173.2256         estimate D2E/DX2                !
 ! D3    D(1,2,3,4)              3.5458         estimate D2E/DX2                !
 ! D4    D(1,2,3,23)          -177.1271         estimate D2E/DX2                !
 ! D5    D(30,2,3,4)          -177.5089         estimate D2E/DX2                !
 ! D6    D(30,2,3,23)            1.8182         estimate D2E/DX2                !
 ! D7    D(1,2,30,29)          177.469          estimate D2E/DX2                !
 ! D8    D(1,2,30,31)           -1.7679         estimate D2E/DX2                !
 ! D9    D(3,2,30,29)           -1.505          estimate D2E/DX2                !
 ! D10   D(3,2,30,31)          179.2581         estimate D2E/DX2                !
 ! D11   D(2,3,4,5)             59.8786         estimate D2E/DX2                !
 ! D12   D(2,3,4,9)           -121.8961         estimate D2E/DX2                !
 ! D13   D(23,3,4,5)          -119.4554         estimate D2E/DX2                !
 ! D14   D(23,3,4,9)            58.7699         estimate D2E/DX2                !
 ! D15   D(2,3,23,24)           -1.0953         estimate D2E/DX2                !
 ! D16   D(2,3,23,74)          179.8545         estimate D2E/DX2                !
 ! D17   D(4,3,23,24)          178.2534         estimate D2E/DX2                !
 ! D18   D(4,3,23,74)           -0.7968         estimate D2E/DX2                !
 ! D19   D(3,4,5,6)            178.9516         estimate D2E/DX2                !
 ! D20   D(3,4,5,62)            -1.0532         estimate D2E/DX2                !
 ! D21   D(9,4,5,6)              0.7268         estimate D2E/DX2                !
 ! D22   D(9,4,5,62)          -179.2779         estimate D2E/DX2                !
 ! D23   D(3,4,9,8)           -178.8931         estimate D2E/DX2                !
 ! D24   D(3,4,9,64)             1.6987         estimate D2E/DX2                !
 ! D25   D(5,4,9,8)             -0.6605         estimate D2E/DX2                !
 ! D26   D(5,4,9,64)           179.9313         estimate D2E/DX2                !
 ! D27   D(4,5,6,7)             -0.8572         estimate D2E/DX2                !
 ! D28   D(4,5,6,63)           178.9532         estimate D2E/DX2                !
 ! D29   D(62,5,6,7)           179.1476         estimate D2E/DX2                !
 ! D30   D(62,5,6,63)           -1.0421         estimate D2E/DX2                !
 ! D31   D(5,6,7,8)              0.96           estimate D2E/DX2                !
 ! D32   D(5,6,7,16)           179.3094         estimate D2E/DX2                !
 ! D33   D(63,6,7,8)          -178.8478         estimate D2E/DX2                !
 ! D34   D(63,6,7,16)           -0.4984         estimate D2E/DX2                !
 ! D35   D(6,7,8,9)             -0.9512         estimate D2E/DX2                !
 ! D36   D(6,7,8,10)           178.7148         estimate D2E/DX2                !
 ! D37   D(16,7,8,9)          -179.5578         estimate D2E/DX2                !
 ! D38   D(16,7,8,10)            0.1083         estimate D2E/DX2                !
 ! D39   D(6,7,16,15)         -178.5364         estimate D2E/DX2                !
 ! D40   D(6,7,16,17)            1.5659         estimate D2E/DX2                !
 ! D41   D(8,7,16,15)           -0.0537         estimate D2E/DX2                !
 ! D42   D(8,7,16,17)         -179.9514         estimate D2E/DX2                !
 ! D43   D(7,8,9,4)              0.7806         estimate D2E/DX2                !
 ! D44   D(7,8,9,64)          -179.8082         estimate D2E/DX2                !
 ! D45   D(10,8,9,4)          -178.7926         estimate D2E/DX2                !
 ! D46   D(10,8,9,64)            0.6186         estimate D2E/DX2                !
 ! D47   D(7,8,10,11)          179.2736         estimate D2E/DX2                !
 ! D48   D(7,8,10,15)           -0.116          estimate D2E/DX2                !
 ! D49   D(9,8,10,11)           -1.1027         estimate D2E/DX2                !
 ! D50   D(9,8,10,15)          179.5077         estimate D2E/DX2                !
 ! D51   D(8,10,11,12)        -178.9127         estimate D2E/DX2                !
 ! D52   D(8,10,11,65)           0.8015         estimate D2E/DX2                !
 ! D53   D(15,10,11,12)          0.3955         estimate D2E/DX2                !
 ! D54   D(15,10,11,65)       -179.8904         estimate D2E/DX2                !
 ! D55   D(8,10,15,14)         178.3893         estimate D2E/DX2                !
 ! D56   D(8,10,15,16)           0.0885         estimate D2E/DX2                !
 ! D57   D(11,10,15,14)         -1.0704         estimate D2E/DX2                !
 ! D58   D(11,10,15,16)       -179.3712         estimate D2E/DX2                !
 ! D59   D(10,11,12,13)          0.2772         estimate D2E/DX2                !
 ! D60   D(10,11,12,66)        179.8709         estimate D2E/DX2                !
 ! D61   D(65,11,12,13)       -179.4384         estimate D2E/DX2                !
 ! D62   D(65,11,12,66)          0.1553         estimate D2E/DX2                !
 ! D63   D(11,12,13,14)         -0.2889         estimate D2E/DX2                !
 ! D64   D(11,12,13,67)        179.4524         estimate D2E/DX2                !
 ! D65   D(66,12,13,14)       -179.8824         estimate D2E/DX2                !
 ! D66   D(66,12,13,67)         -0.141          estimate D2E/DX2                !
 ! D67   D(12,13,14,15)         -0.357          estimate D2E/DX2                !
 ! D68   D(12,13,14,68)        179.1654         estimate D2E/DX2                !
 ! D69   D(67,13,14,15)        179.9016         estimate D2E/DX2                !
 ! D70   D(67,13,14,68)         -0.576          estimate D2E/DX2                !
 ! D71   D(13,14,15,10)          1.024          estimate D2E/DX2                !
 ! D72   D(13,14,15,16)        179.0104         estimate D2E/DX2                !
 ! D73   D(68,14,15,10)       -178.4921         estimate D2E/DX2                !
 ! D74   D(68,14,15,16)         -0.5057         estimate D2E/DX2                !
 ! D75   D(10,15,16,7)          -0.0225         estimate D2E/DX2                !
 ! D76   D(10,15,16,17)        179.8753         estimate D2E/DX2                !
 ! D77   D(14,15,16,7)        -178.1716         estimate D2E/DX2                !
 ! D78   D(14,15,16,17)          1.7262         estimate D2E/DX2                !
 ! D79   D(7,16,17,18)        -124.4524         estimate D2E/DX2                !
 ! D80   D(7,16,17,22)          55.6251         estimate D2E/DX2                !
 ! D81   D(15,16,17,18)         55.6719         estimate D2E/DX2                !
 ! D82   D(15,16,17,22)       -124.2507         estimate D2E/DX2                !
 ! D83   D(16,17,18,19)       -179.9252         estimate D2E/DX2                !
 ! D84   D(16,17,18,69)          0.6848         estimate D2E/DX2                !
 ! D85   D(22,17,18,19)         -0.0019         estimate D2E/DX2                !
 ! D86   D(22,17,18,69)       -179.392          estimate D2E/DX2                !
 ! D87   D(16,17,22,21)        179.9112         estimate D2E/DX2                !
 ! D88   D(16,17,22,73)          0.56           estimate D2E/DX2                !
 ! D89   D(18,17,22,21)         -0.012          estimate D2E/DX2                !
 ! D90   D(18,17,22,73)       -179.3632         estimate D2E/DX2                !
 ! D91   D(17,18,19,20)          0.0139         estimate D2E/DX2                !
 ! D92   D(17,18,19,70)       -179.8997         estimate D2E/DX2                !
 ! D93   D(69,18,19,20)        179.4083         estimate D2E/DX2                !
 ! D94   D(69,18,19,70)         -0.5053         estimate D2E/DX2                !
 ! D95   D(18,19,20,21)         -0.0118         estimate D2E/DX2                !
 ! D96   D(18,19,20,71)        179.9864         estimate D2E/DX2                !
 ! D97   D(70,19,20,21)        179.9017         estimate D2E/DX2                !
 ! D98   D(70,19,20,71)         -0.1            estimate D2E/DX2                !
 ! D99   D(19,20,21,22)         -0.0021         estimate D2E/DX2                !
 ! D100  D(19,20,21,72)        179.8796         estimate D2E/DX2                !
 ! D101  D(71,20,21,22)        179.9996         estimate D2E/DX2                !
 ! D102  D(71,20,21,72)         -0.1187         estimate D2E/DX2                !
 ! D103  D(20,21,22,17)          0.0141         estimate D2E/DX2                !
 ! D104  D(20,21,22,73)        179.37           estimate D2E/DX2                !
 ! D105  D(72,21,22,17)       -179.8676         estimate D2E/DX2                !
 ! D106  D(72,21,22,73)         -0.5117         estimate D2E/DX2                !
 ! D107  D(3,23,24,25)        -179.7282         estimate D2E/DX2                !
 ! D108  D(3,23,24,29)           0.053          estimate D2E/DX2                !
 ! D109  D(74,23,24,25)         -0.6809         estimate D2E/DX2                !
 ! D110  D(74,23,24,29)        179.1003         estimate D2E/DX2                !
 ! D111  D(23,24,25,26)        179.9076         estimate D2E/DX2                !
 ! D112  D(23,24,25,75)         -0.0969         estimate D2E/DX2                !
 ! D113  D(29,24,25,26)          0.1263         estimate D2E/DX2                !
 ! D114  D(29,24,25,75)       -179.8782         estimate D2E/DX2                !
 ! D115  D(23,24,29,28)        179.9187         estimate D2E/DX2                !
 ! D116  D(23,24,29,30)          0.2677         estimate D2E/DX2                !
 ! D117  D(25,24,29,28)         -0.3            estimate D2E/DX2                !
 ! D118  D(25,24,29,30)       -179.9511         estimate D2E/DX2                !
 ! D119  D(24,25,26,27)          0.0877         estimate D2E/DX2                !
 ! D120  D(24,25,26,76)        179.9847         estimate D2E/DX2                !
 ! D121  D(75,25,26,27)       -179.9079         estimate D2E/DX2                !
 ! D122  D(75,25,26,76)         -0.0109         estimate D2E/DX2                !
 ! D123  D(25,26,27,28)         -0.1232         estimate D2E/DX2                !
 ! D124  D(25,26,27,77)        179.8766         estimate D2E/DX2                !
 ! D125  D(76,26,27,28)        179.9797         estimate D2E/DX2                !
 ! D126  D(76,26,27,77)         -0.0204         estimate D2E/DX2                !
 ! D127  D(26,27,28,29)         -0.0565         estimate D2E/DX2                !
 ! D128  D(26,27,28,78)        179.8367         estimate D2E/DX2                !
 ! D129  D(77,27,28,29)        179.9436         estimate D2E/DX2                !
 ! D130  D(77,27,28,78)         -0.1632         estimate D2E/DX2                !
 ! D131  D(27,28,29,24)          0.2662         estimate D2E/DX2                !
 ! D132  D(27,28,29,30)        179.9082         estimate D2E/DX2                !
 ! D133  D(78,28,29,24)       -179.6233         estimate D2E/DX2                !
 ! D134  D(78,28,29,30)          0.0187         estimate D2E/DX2                !
 ! D135  D(24,29,30,2)           0.4602         estimate D2E/DX2                !
 ! D136  D(24,29,30,31)        179.6782         estimate D2E/DX2                !
 ! D137  D(28,29,30,2)        -179.1799         estimate D2E/DX2                !
 ! D138  D(28,29,30,31)          0.0382         estimate D2E/DX2                !
 ! D139  D(2,30,31,32)          81.354          estimate D2E/DX2                !
 ! D140  D(2,30,31,60)         -98.3012         estimate D2E/DX2                !
 ! D141  D(29,30,31,32)        -97.8744         estimate D2E/DX2                !
 ! D142  D(29,30,31,60)         82.4704         estimate D2E/DX2                !
 ! D143  D(30,31,32,33)         -2.4644         estimate D2E/DX2                !
 ! D144  D(30,31,32,34)        178.5737         estimate D2E/DX2                !
 ! D145  D(60,31,32,33)        177.1948         estimate D2E/DX2                !
 ! D146  D(60,31,32,34)         -1.7672         estimate D2E/DX2                !
 ! D147  D(30,31,60,55)       -179.7921         estimate D2E/DX2                !
 ! D148  D(30,31,60,59)          0.4925         estimate D2E/DX2                !
 ! D149  D(32,31,60,55)          0.5575         estimate D2E/DX2                !
 ! D150  D(32,31,60,59)       -179.1579         estimate D2E/DX2                !
 ! D151  D(31,32,33,79)       -172.5867         estimate D2E/DX2                !
 ! D152  D(34,32,33,79)          6.3614         estimate D2E/DX2                !
 ! D153  D(31,32,34,35)       -176.8944         estimate D2E/DX2                !
 ! D154  D(31,32,34,54)          2.0728         estimate D2E/DX2                !
 ! D155  D(33,32,34,35)          4.1729         estimate D2E/DX2                !
 ! D156  D(33,32,34,54)       -176.8599         estimate D2E/DX2                !
 ! D157  D(32,34,35,36)         58.4582         estimate D2E/DX2                !
 ! D158  D(32,34,35,40)       -123.4059         estimate D2E/DX2                !
 ! D159  D(54,34,35,36)       -120.5189         estimate D2E/DX2                !
 ! D160  D(54,34,35,40)         57.617          estimate D2E/DX2                !
 ! D161  D(32,34,54,55)         -1.1791         estimate D2E/DX2                !
 ! D162  D(32,34,54,92)        179.9322         estimate D2E/DX2                !
 ! D163  D(35,34,54,55)        177.8212         estimate D2E/DX2                !
 ! D164  D(35,34,54,92)         -1.0675         estimate D2E/DX2                !
 ! D165  D(34,35,36,37)        179.1228         estimate D2E/DX2                !
 ! D166  D(34,35,36,80)         -0.9708         estimate D2E/DX2                !
 ! D167  D(40,35,36,37)          0.9851         estimate D2E/DX2                !
 ! D168  D(40,35,36,80)       -179.1086         estimate D2E/DX2                !
 ! D169  D(34,35,40,39)       -178.9356         estimate D2E/DX2                !
 ! D170  D(34,35,40,82)          1.733          estimate D2E/DX2                !
 ! D171  D(36,35,40,39)         -0.7916         estimate D2E/DX2                !
 ! D172  D(36,35,40,82)        179.877          estimate D2E/DX2                !
 ! D173  D(35,36,37,38)         -1.0361         estimate D2E/DX2                !
 ! D174  D(35,36,37,81)        178.7502         estimate D2E/DX2                !
 ! D175  D(80,36,37,38)        179.0566         estimate D2E/DX2                !
 ! D176  D(80,36,37,81)         -1.1571         estimate D2E/DX2                !
 ! D177  D(36,37,38,39)          0.9365         estimate D2E/DX2                !
 ! D178  D(36,37,38,47)        179.296          estimate D2E/DX2                !
 ! D179  D(81,37,38,39)       -178.847          estimate D2E/DX2                !
 ! D180  D(81,37,38,47)         -0.4876         estimate D2E/DX2                !
 ! D181  D(37,38,39,40)         -0.8002         estimate D2E/DX2                !
 ! D182  D(37,38,39,41)        178.7867         estimate D2E/DX2                !
 ! D183  D(47,38,39,40)       -179.4153         estimate D2E/DX2                !
 ! D184  D(47,38,39,41)          0.1717         estimate D2E/DX2                !
 ! D185  D(37,38,47,46)       -178.5883         estimate D2E/DX2                !
 ! D186  D(37,38,47,48)          1.2022         estimate D2E/DX2                !
 ! D187  D(39,38,47,46)         -0.0965         estimate D2E/DX2                !
 ! D188  D(39,38,47,48)        179.694          estimate D2E/DX2                !
 ! D189  D(38,39,40,35)          0.7103         estimate D2E/DX2                !
 ! D190  D(38,39,40,82)       -179.9549         estimate D2E/DX2                !
 ! D191  D(41,39,40,35)       -178.7618         estimate D2E/DX2                !
 ! D192  D(41,39,40,82)          0.573          estimate D2E/DX2                !
 ! D193  D(38,39,41,42)        179.2516         estimate D2E/DX2                !
 ! D194  D(38,39,41,46)         -0.1725         estimate D2E/DX2                !
 ! D195  D(40,39,41,42)         -1.2139         estimate D2E/DX2                !
 ! D196  D(40,39,41,46)        179.3621         estimate D2E/DX2                !
 ! D197  D(39,41,42,43)       -178.904          estimate D2E/DX2                !
 ! D198  D(39,41,42,83)          0.762          estimate D2E/DX2                !
 ! D199  D(46,41,42,43)          0.4432         estimate D2E/DX2                !
 ! D200  D(46,41,42,83)       -179.8908         estimate D2E/DX2                !
 ! D201  D(39,41,46,45)        178.4089         estimate D2E/DX2                !
 ! D202  D(39,41,46,47)          0.121          estimate D2E/DX2                !
 ! D203  D(42,41,46,45)         -1.0812         estimate D2E/DX2                !
 ! D204  D(42,41,46,47)       -179.3691         estimate D2E/DX2                !
 ! D205  D(41,42,43,44)          0.2151         estimate D2E/DX2                !
 ! D206  D(41,42,43,84)        179.8706         estimate D2E/DX2                !
 ! D207  D(83,42,43,44)       -179.4527         estimate D2E/DX2                !
 ! D208  D(83,42,43,84)          0.2028         estimate D2E/DX2                !
 ! D209  D(42,43,44,45)         -0.2478         estimate D2E/DX2                !
 ! D210  D(42,43,44,85)        179.4753         estimate D2E/DX2                !
 ! D211  D(84,43,44,45)       -179.9032         estimate D2E/DX2                !
 ! D212  D(84,43,44,85)         -0.1801         estimate D2E/DX2                !
 ! D213  D(43,44,45,46)         -0.3601         estimate D2E/DX2                !
 ! D214  D(43,44,45,86)        179.1039         estimate D2E/DX2                !
 ! D215  D(85,44,45,46)        179.9167         estimate D2E/DX2                !
 ! D216  D(85,44,45,86)         -0.6193         estimate D2E/DX2                !
 ! D217  D(44,45,46,41)          1.0119         estimate D2E/DX2                !
 ! D218  D(44,45,46,47)        178.9828         estimate D2E/DX2                !
 ! D219  D(86,45,46,41)       -178.4453         estimate D2E/DX2                !
 ! D220  D(86,45,46,47)         -0.4744         estimate D2E/DX2                !
 ! D221  D(41,46,47,38)         -0.0167         estimate D2E/DX2                !
 ! D222  D(41,46,47,48)       -179.8073         estimate D2E/DX2                !
 ! D223  D(45,46,47,38)       -178.1517         estimate D2E/DX2                !
 ! D224  D(45,46,47,48)          2.0576         estimate D2E/DX2                !
 ! D225  D(38,47,48,49)         55.8453         estimate D2E/DX2                !
 ! D226  D(38,47,48,53)       -124.1098         estimate D2E/DX2                !
 ! D227  D(46,47,48,49)       -124.4093         estimate D2E/DX2                !
 ! D228  D(46,47,48,53)         55.6356         estimate D2E/DX2                !
 ! D229  D(47,48,49,50)       -179.9161         estimate D2E/DX2                !
 ! D230  D(47,48,49,87)          0.6231         estimate D2E/DX2                !
 ! D231  D(53,48,49,50)          0.0393         estimate D2E/DX2                !
 ! D232  D(53,48,49,87)       -179.4215         estimate D2E/DX2                !
 ! D233  D(47,48,53,52)        179.9154         estimate D2E/DX2                !
 ! D234  D(47,48,53,91)          0.5487         estimate D2E/DX2                !
 ! D235  D(49,48,53,52)         -0.0401         estimate D2E/DX2                !
 ! D236  D(49,48,53,91)       -179.4068         estimate D2E/DX2                !
 ! D237  D(48,49,50,51)         -0.0175         estimate D2E/DX2                !
 ! D238  D(48,49,50,88)       -179.9214         estimate D2E/DX2                !
 ! D239  D(87,49,50,51)        179.4472         estimate D2E/DX2                !
 ! D240  D(87,49,50,88)         -0.4567         estimate D2E/DX2                !
 ! D241  D(49,50,51,52)         -0.004          estimate D2E/DX2                !
 ! D242  D(49,50,51,89)        179.9776         estimate D2E/DX2                !
 ! D243  D(88,50,51,52)        179.9            estimate D2E/DX2                !
 ! D244  D(88,50,51,89)         -0.1184         estimate D2E/DX2                !
 ! D245  D(50,51,52,53)          0.0033         estimate D2E/DX2                !
 ! D246  D(50,51,52,90)        179.8711         estimate D2E/DX2                !
 ! D247  D(89,51,52,53)       -179.9783         estimate D2E/DX2                !
 ! D248  D(89,51,52,90)         -0.1105         estimate D2E/DX2                !
 ! D249  D(51,52,53,48)          0.0189         estimate D2E/DX2                !
 ! D250  D(51,52,53,91)        179.3901         estimate D2E/DX2                !
 ! D251  D(90,52,53,48)       -179.8489         estimate D2E/DX2                !
 ! D252  D(90,52,53,91)         -0.4777         estimate D2E/DX2                !
 ! D253  D(34,54,55,56)       -179.6647         estimate D2E/DX2                !
 ! D254  D(34,54,55,60)         -0.0266         estimate D2E/DX2                !
 ! D255  D(92,54,55,56)         -0.7793         estimate D2E/DX2                !
 ! D256  D(92,54,55,60)        178.8588         estimate D2E/DX2                !
 ! D257  D(54,55,56,57)        179.8269         estimate D2E/DX2                !
 ! D258  D(54,55,56,93)         -0.196          estimate D2E/DX2                !
 ! D259  D(60,55,56,57)          0.1887         estimate D2E/DX2                !
 ! D260  D(60,55,56,93)       -179.8341         estimate D2E/DX2                !
 ! D261  D(54,55,60,31)          0.3408         estimate D2E/DX2                !
 ! D262  D(54,55,60,59)       -179.9352         estimate D2E/DX2                !
 ! D263  D(56,55,60,31)        179.979          estimate D2E/DX2                !
 ! D264  D(56,55,60,59)         -0.297          estimate D2E/DX2                !
 ! D265  D(55,56,57,58)         -0.0206         estimate D2E/DX2                !
 ! D266  D(55,56,57,94)       -179.9929         estimate D2E/DX2                !
 ! D267  D(93,56,57,58)       -179.9981         estimate D2E/DX2                !
 ! D268  D(93,56,57,94)          0.0296         estimate D2E/DX2                !
 ! D269  D(56,57,58,59)         -0.0351         estimate D2E/DX2                !
 ! D270  D(56,57,58,95)        179.9445         estimate D2E/DX2                !
 ! D271  D(94,57,58,59)        179.9372         estimate D2E/DX2                !
 ! D272  D(94,57,58,95)         -0.0832         estimate D2E/DX2                !
 ! D273  D(57,58,59,60)         -0.0788         estimate D2E/DX2                !
 ! D274  D(57,58,59,96)        179.8754         estimate D2E/DX2                !
 ! D275  D(95,58,59,60)        179.9417         estimate D2E/DX2                !
 ! D276  D(95,58,59,96)         -0.1041         estimate D2E/DX2                !
 ! D277  D(58,59,60,31)        179.9601         estimate D2E/DX2                !
 ! D278  D(58,59,60,55)          0.2432         estimate D2E/DX2                !
 ! D279  D(96,59,60,31)          0.0075         estimate D2E/DX2                !
 ! D280  D(96,59,60,55)       -179.7094         estimate D2E/DX2                !
 --------------------------------------------------------------------------------
 Trust Radius=3.00D-01 FncErr=1.00D-07 GrdErr=1.00D-06 EigMax=2.50D+02 EigMin=1.00D-04
 Number of steps in this run=    573 maximum allowed number of steps=    576.
 GradGradGradGradGradGradGradGradGradGradGradGradGradGradGradGradGradGrad

 Leave Link  103 at Thu Jan 23 17:27:51 2025, MaxMem= 13421772800 cpu:               0.9 elap:               0.0
 (Enter /public/software/apps/Gaussian/g16/l202.exe)
 Symmetry turned off by external request.
 Stoichiometry    C56H36N2O2
 Framework group  C1[X(C56H36N2O2)]
 Deg. of freedom   282
 Full point group                 C1      NOp   1
                          Input orientation:                          
 ---------------------------------------------------------------------
 Center     Atomic      Atomic             Coordinates (Angstroms)
 Number     Number       Type             X           Y           Z
 ---------------------------------------------------------------------
      1          8           0       -1.390300   -1.114200    0.508700
      2          6           0       -1.613900   -0.311500    1.632800
      3          6           0       -2.821100    0.403500    1.796700
      4          6           0       -3.935700    0.281100    0.833200
      5          6           0       -4.543100   -0.978800    0.598900
      6          6           0       -5.618300   -1.104500   -0.298600
      7          6           0       -6.081900    0.048500   -0.937800
      8          6           0       -5.487800    1.273500   -0.709800
      9          6           0       -4.421500    1.429200    0.172100
     10          6           0       -6.152700    2.181600   -1.502600
     11          6           0       -5.990100    3.556000   -1.667500
     12          6           0       -6.859400    4.215800   -2.553500
     13          6           0       -7.862300    3.498200   -3.241400
     14          6           0       -8.004700    2.110700   -3.056600
     15          6           0       -7.122000    1.469100   -2.181600
     16          7           0       -7.088400    0.155500   -1.842100
     17          6           0       -7.937600   -0.894900   -2.333000
     18          6           0       -8.039000   -1.137000   -3.712200
     19          6           0       -8.866800   -2.158300   -4.188700
     20          6           0       -9.597700   -2.942900   -3.292000
     21          6           0       -9.501500   -2.707300   -1.917500
     22          6           0       -8.674300   -1.686900   -1.438000
     23          6           0       -2.983400    1.243900    2.905900
     24          6           0       -1.973400    1.367100    3.866500
     25          6           0       -2.157000    2.210200    4.974400
     26          6           0       -1.154700    2.336200    5.937000
     27          6           0        0.037800    1.625500    5.802700
     28          6           0        0.235500    0.782300    4.707000
     29          6           0       -0.767200    0.637600    3.723800
     30          6           0       -0.595900   -0.207900    2.600700
     31          6           0        0.655200   -0.985500    2.407600
     32          6           0        1.645000   -0.471200    1.547600
     33          8           0        1.387100    0.725400    0.869900
     34          6           0        2.858500   -1.171700    1.366200
     35          6           0        3.950700   -0.634300    0.526000
     36          6           0        4.527500    0.626800    0.824500
     37          6           0        5.578700    1.141500    0.045300
     38          6           0        6.053200    0.366700   -1.016500
     39          6           0        5.492200   -0.861200   -1.304400
     40          6           0        4.448200   -1.395700   -0.553300
     41          6           0        6.159800   -1.344500   -2.407000
     42          6           0        6.025000   -2.535000   -3.118900
     43          6           0        6.889200   -2.747800   -4.206900
     44          6           0        7.859000   -1.781300   -4.552000
     45          6           0        7.973500   -0.587400   -3.816700
     46          6           0        7.096600   -0.387400   -2.745500
     47          7           0        7.040700    0.670200   -1.896900
     48          6           0        7.849700    1.857700   -1.927400
     49          6           0        8.589500    2.240600   -0.797300
     50          6           0        9.374600    3.397400   -0.828700
     51          6           0        9.425900    4.177600   -1.987400
     52          6           0        8.692200    3.801900   -3.116200
     53          6           0        7.906300    2.645800   -3.087900
     54          6           0        3.051600   -2.400000    2.012200
     55          6           0        2.068100   -2.930600    2.854300
     56          6           0        2.283200   -4.160000    3.498500
     57          6           0        1.307900   -4.692900    4.342400
     58          6           0        0.112200   -4.006200    4.551500
     59          6           0       -0.116300   -2.782000    3.919100
     60          6           0        0.858100   -2.224100    3.063400
     61          1           0       -2.027800   -1.162100   -0.275300
     62          1           0       -4.180700   -1.860200    1.113200
     63          1           0       -6.064200   -2.072400   -0.483600
     64          1           0       -3.975200    2.402400    0.335300
     65          1           0       -5.225100    4.101300   -1.130200
     66          1           0       -6.763100    5.283300   -2.704300
     67          1           0       -8.530200    4.020700   -3.913700
     68          1           0       -8.783100    1.567500   -3.575500
     69          1           0       -7.469400   -0.540900   -4.413900
     70          1           0       -8.940700   -2.342500   -5.252700
     71          1           0      -10.238300   -3.733000   -3.661900
     72          1           0      -10.069200   -3.313900   -1.223800
     73          1           0       -8.614200   -1.505300   -0.372400
     74          1           0       -3.911200    1.793300    3.027100
     75          1           0       -3.075600    2.771800    5.095900
     76          1           0       -1.302300    2.987900    6.788500
     77          1           0        0.812800    1.728200    6.550900
     78          1           0        1.175300    0.250000    4.637000
     79          1           0        1.997200    1.101800    0.156200
     80          1           0        4.159000    1.208500    1.660500
     81          1           0        5.998400    2.112900    0.268500
     82          1           0        4.026500   -2.362100   -0.800400
     83          1           0        5.285300   -3.275600   -2.843600
     84          1           0        6.814100   -3.662100   -4.780900
     85          1           0        8.523400   -1.962200   -5.386900
     86          1           0        8.727200    0.143800   -4.075400
     87          1           0        8.563200    1.637900    0.101700
     88          1           0        9.944400    3.688400    0.044200
     89          1           0       10.033600    5.072900   -2.010400
     90          1           0        8.730900    4.407800   -4.012300
     91          1           0        7.333700    2.368200   -3.963800
     92          1           0        3.984100   -2.936000    1.870000
     93          1           0        3.205400   -4.708800    3.349000
     94          1           0        1.479700   -5.640800    4.836100
     95          1           0       -0.641400   -4.424300    5.206300
     96          1           0       -1.057200   -2.280700    4.105000
 ---------------------------------------------------------------------
 Rotational constants (GHZ):           0.0518094           0.0174429           0.0158891
 Leave Link  202 at Thu Jan 23 17:27:51 2025, MaxMem= 13421772800 cpu:               1.4 elap:               0.1
 (Enter /public/software/apps/Gaussian/g16/l301.exe)
 Standard basis: def2SVPP (5D, 7F)
 Ernie: Thresh=  0.10000D-02 Tol=  0.10000D-05 Strict=F.
   912 basis functions,  1644 primitive gaussians,   972 cartesian basis functions
   201 alpha electrons      201 beta electrons
       nuclear repulsion energy      7202.7360853765 Hartrees.
 IExCor=  402 DFT=T Ex+Corr=B3LYP ExCW=0 ScaHFX=  0.200000
 ScaDFX=  0.800000  0.720000  1.000000  0.810000 ScalE2=  1.000000  1.000000
 IRadAn=      5 IRanWt=     -1 IRanGd=            0 ICorTp=0 IEmpDi=141
 NAtoms=   96 NActive=   96 NUniq=   96 SFac= 1.00D+00 NAtFMM=   60 NAOKFM=T Big=T
 Integral buffers will be    131072 words long.
 Raffenetti 2 integral format.
 Two-electron integral symmetry is turned off.
 R6Disp:  Grimme-D3(BJ) Dispersion energy=       -0.2600363161 Hartrees.
 Nuclear repulsion after empirical dispersion term =     7202.4760490605 Hartrees.
 Leave Link  301 at Thu Jan 23 17:27:51 2025, MaxMem= 13421772800 cpu:               0.8 elap:               0.0
 (Enter /public/software/apps/Gaussian/g16/l302.exe)
 NPDir=0 NMtPBC=     1 NCelOv=     1 NCel=       1 NClECP=     1 NCelD=      1
         NCelK=      1 NCelE2=     1 NClLst=     1 CellRange=     0.0.
 One-electron integrals computed using PRISM.
   1 Symmetry operations used in ECPInt.
 ECPInt:  NShTT=   93528 NPrTT=  374568 LenC2=   56309 LenP2D=  132508.
 LDataN:  DoStor=T MaxTD1= 4 Len=   56
 NBasis=   912 RedAO= T EigKep=  1.69D-04  NBF=   912
 NBsUse=   912 1.00D-06 EigRej= -1.00D+00 NBFU=   912
 Precomputing XC quadrature grid using
 IXCGrd= 4 IRadAn=           5 IRanWt=          -1 IRanGd=           0 AccXCQ= 0.00D+00.
 Generated NRdTot=       0 NPtTot=           0 NUsed=           0 NTot=          32
 NSgBfM=   872   870   871   871   872 MxSgAt=    96 MxSgA2=    96.
 Leave Link  302 at Thu Jan 23 17:27:53 2025, MaxMem= 13421772800 cpu:              70.9 elap:               2.3
 (Enter /public/software/apps/Gaussian/g16/l303.exe)
 DipDrv:  MaxL=1.
 Leave Link  303 at Thu Jan 23 17:27:53 2025, MaxMem= 13421772800 cpu:               5.6 elap:               0.2
 (Enter /public/software/apps/Gaussian/g16/l401.exe)
 ExpMin= 1.22D-01 ExpMax= 2.27D+03 ExpMxC= 3.41D+02 IAcc=3 IRadAn=         5 AccDes= 0.00D+00
 Harris functional with IExCor=  402 and IRadAn=       5 diagonalized for initial guess.
 HarFok:  IExCor=  402 AccDes= 0.00D+00 IRadAn=         5 IDoV= 1 UseB2=F ITyADJ=14
 ICtDFT=  3500011 ScaDFX=  1.000000  1.000000  1.000000  1.000000
 FoFCou: FMM=F IPFlag=           0 FMFlag=      100000 FMFlg1=        2001
         NFxFlg=           0 DoJE=T BraDBF=F KetDBF=T FulRan=T
         wScrn=  0.000000 ICntrl=       500 IOpCl=  0 I1Cent=   200000004 NGrid=           0
         NMat0=    1 NMatS0=      1 NMatT0=    0 NMatD0=    1 NMtDS0=    0 NMtDT0=    0
 Symmetry not used in FoFCou.
 Harris En= -2413.97161022823    
 JPrj=0 DoOrth=F DoCkMO=F.
 Leave Link  401 at Thu Jan 23 17:27:56 2025, MaxMem= 13421772800 cpu:              86.3 elap:               2.7
 (Enter /public/software/apps/Gaussian/g16/l502.exe)
 Two-electron integral symmetry not used.
 Closed shell SCF:
 Using DIIS extrapolation, IDIIS=  1040.
 NGot= 13421772800 LenX= 13419842110 LenY= 13418896354
 Requested convergence on RMS density matrix=1.00D-08 within 128 cycles.
 Requested convergence on MAX density matrix=1.00D-06.
 Requested convergence on             energy=1.00D-06.
 No special actions if energy rises.
 Fock matrices will be formed incrementally for  20 cycles.
 Integral accuracy reduced to 1.0D-05 until final iterations.

 Cycle   1  Pass 0  IDiag  1:
 FoFJK:  IHMeth= 1 ICntrl=       0 DoSepK=F KAlg= 0 I1Cent=           0 FoldK=F
 IRaf= 640000000 NMat=       1 IRICut=       1 DoRegI=T DoRafI=F ISym2E= 0 IDoP0=0 IntGTp=1.
 FoFCou: FMM=T IPFlag=           0 FMFlag=      100000 FMFlg1=        2001
         NFxFlg=           0 DoJE=F BraDBF=F KetDBF=F FulRan=T
         wScrn=  0.000000 ICntrl=         0 IOpCl=  0 I1Cent=           0 NGrid=           0
         NMat0=    1 NMatS0=      1 NMatT0=    0 NMatD0=    1 NMtDS0=    0 NMtDT0=    0
 Symmetry not used in FoFCou.
 FMM levels:  10  Number of levels for PrismC:   9
 E= -2412.95342199447    
 DIIS: error= 2.67D-02 at cycle   1 NSaved=   1.
 NSaved= 1 IEnMin= 1 EnMin= -2412.95342199447     IErMin= 1 ErrMin= 2.67D-02
 ErrMax= 2.67D-02  0.00D+00 EMaxC= 1.00D-01 BMatC= 9.52D-01 BMatP= 9.52D-01
 IDIUse=3 WtCom= 7.33D-01 WtEn= 2.67D-01
 Coeff-Com:  0.100D+01
 Coeff-En:   0.100D+01
 Coeff:      0.100D+01
 Gap=     0.215 Goal=   None    Shift=    0.000
 GapD=    0.215 DampG=1.000 DampE=0.500 DampFc=0.5000 IDamp=-1.
 Damping current iteration by 5.00D-01
[...]
 0.00002684,0.00000385,0.00001717,-0.00001705,-0.00001147,0.00002723,-0
 .00002511,0.00001658,0.00002090,0.00009382,-0.00001829,0.00013417,0.00
 008077,-0.00108471,0.00032009,0.00048902,-0.00018098,-0.00035735,-0.00
 011573,-0.00008275,-0.00017048,0.00016462,0.00022464,-0.00015856,0.000
 05364,0.00000545,0.00002458,0.00000104,-0.00001690,0.00001640,0.000002
 79,-0.00000161,0.00000206,0.00000462,0.00002356,0.00001668,-0.00002068
 ,-0.00001031,-0.00001690,-0.00000234,0.00000098,-0.00001444,-0.0000043
 4,0.00000181,-0.00000097,-0.00000532,-0.00000055,-0.00000309,-0.000001
 28,-0.00000322,-0.00000084,0.00000292,-0.00000096,0.00000337,0.0000026
 6,0.00000149,0.00000123,-0.00000109,-0.00000468,-0.00001205,0.00000375
 ,-0.00003031,-0.00001190,0.00002992,0.00001152,0.00002346,-0.00000079,
 -0.00000235,-0.00000509,-0.00000133,0.00000145,0.00000169,0.00000089,-
 0.00000098,-0.00000207,0.00000049,-0.00000030,0.00000101,-0.00000058,-
 0.00000339,-0.00000413,0.00000127,-0.00011616,0.00011482,-0.00046834,0
 .00026731,-0.00070239,-0.00010434,0.00366866,-0.00010514,0.00132109,0.
 01194432,0.00931006,-0.01067422,-0.06460652,-0.09001456,0.07031683,-0.
 02031483,-0.00556869,0.01779103,0.00382107,-0.00213794,0.00478183,-0.0
 0001530,-0.00000248,-0.00000093,-0.00000568,0.00000123,0.00000806,-0.0
 0000078,0.00000016,0.00000209,-0.00000121,0.00000133,0.,-0.00000060,0.
 00000013,0.00000058,-0.00000036,0.00000005,0.00000037,-0.00000027,0.00
 000007,0.00000025,-0.00000028,0.,0.00000028,-0.00000030,0.00000047,-0.
 00000015,-0.00000034,0.00000018,-0.00000043,-0.00000046,0.00000004,-0.
 00000018,0.00000004,0.00000064,0.00000044,-0.00000021,-0.00000023,0.00
 000010,0.00000175,-0.00000502,0.00000073,0.00000137,-0.00000595,-0.000
 00035,-0.00000071,-0.00000907,-0.00000073,-0.00001160,-0.00001499,-0.0
 0000288,0.00000464,0.00000086,0.00002195,0.00003296,-0.00001858,0.0000
 0091,0.00000692,0.00000345,0.00000238,-0.00000134,-0.00000244,0.000001
 17,0.00000294,-0.00000161,-0.00000287,0.00000074,-0.00000090,-0.000000
 86,-0.00000006,0.00000105,0.00000087,-0.00000070,0.00000031,0.00000122
 ,-0.00000077,-0.00000068,0.00000072,0.00000215,0.00000039,0.00000124,-
 0.00000075,-0.00000063,-0.00000059,-0.00000042,-0.00000091,0.00000019,
 -0.00000010,-0.00000073,0.00000069,0.00000007,0.00000089,-0.00000128,-
 0.00004397,0.00000386,0.00005121,0.00063985,0.00031911,-0.00042913,-0.
 00145443,-0.00001758,-0.00108622,0.06830037,0.08927001,-0.00003670,-0.
 00009729,-0.00007067,0.00000373,0.00011008,0.00006385,0.00003693,-0.00
 004886,-0.00001351,0.00001136,0.00000002,0.00002557,-0.00001645,0.0000
 2665,-0.00000679,-0.00000467,-0.00000448,-0.00000095,0.00000458,-0.000
 00136,0.00000606,-0.00000173,-0.00000667,0.00000034,-0.00000521,-0.000
 00710,-0.00000594,-0.00000356,-0.00000412,-0.00000215,0.00000102,0.000
 00196,0.00000154,-0.00000054,-0.00000118,0.00000025,-0.00000012,0.0000
 0074,0.00000034,0.00000040,-0.00000193,0.00000081,0.00000001,0.0000080
 7,-0.00000322,-0.00001314,-0.00001156,-0.00001125,0.00000989,0.0000140
 2,0.00000626,-0.00000180,-0.00000168,-0.00000163,0.00000035,0.00000035
 ,0.00000016,-0.00000086,-0.00000285,-0.00000065,0.00000258,0.00000063,
 -0.00000028,-0.00000066,-0.00000499,-0.00000128,-0.00000545,0.00002431
 ,0.00004021,-0.00003590,0.00001143,-0.00000277,-0.00000584,0.00001572,
 0.00002052,-0.00002172,0.00000302,-0.00001047,0.00000926,-0.00000968,-
 0.00001610,0.00004894,-0.00000568,0.00002936,-0.00007641,-0.00005935,-
 0.00003680,0.00017188,0.00008135,0.00014837,0.00070033,-0.00007553,-0.
 00017268,-0.00024913,-0.00021616,-0.00041410,0.00004275,0.00018475,-0.
 00016046,-0.00006615,0.00015821,0.00006646,-0.00002203,-0.00000423,0.0
 0005296,0.00000740,0.00000157,-0.00001995,0.00000800,0.00000229,-0.000
 00949,-0.00002912,-0.00001635,0.00003018,0.00000266,0.00001593,0.00000
 505,0.00000733,0.00000955,-0.00000403,-0.00000389,-0.00000180,0.000004
 12,0.00000090,0.00000779,0.00000249,0.00000525,0.00000258,-0.00000561,
 0.00000051,-0.00000624,-0.00000439,-0.00000272,-0.00000134,0.00000218,
 0.00000700,0.00001449,-0.00000436,0.00003208,0.00001012,-0.00003414,-0
 .00001112,-0.00002449,0.00000091,0.00000270,0.00000434,0.00000211,-0.0
 0000127,-0.00000198,-0.00000122,0.00000083,0.00000183,-0.00000096,0.00
 000050,-0.00000100,0.00000066,0.00000379,0.00000444,-0.00000110,-0.000
 27537,-0.00039693,-0.00033505,-0.00057133,-0.00020186,-0.00014540,0.00
 195396,0.00070836,0.00364839,0.00170636,0.00291595,0.00041159,0.126233
 54,0.07062673,-0.15483039,0.01133942,0.00425727,-0.00494278,0.00122995
 ,0.00516828,0.00469805,0.00002570,0.00002604,0.00000307,0.00000966,0.0
 0000689,-0.00000466,-0.00000473,0.00000036,-0.00000708,0.00000289,-0.0
 0000558,0.00000189,-0.00000007,-0.00000089,-0.00000078,0.00000044,-0.0
 0000066,-0.00000001,0.00000027,-0.00000007,-0.00000016,-0.00000063,0.0
 0000055,-0.00000088,-0.00000047,-0.00000002,0.00000101,-0.00000028,0.0
 0000010,0.00000026,-0.00000074,0.00000030,-0.00000063,-0.00000286,-0.0
 0000067,-0.00000030,-0.00000004,0.00000299,-0.00000026,-0.00000319,0.0
 0000720,0.00000070,-0.00000328,0.00000685,0.00000057,-0.00000202,0.000
 00356,0.00000224,-0.00000011,-0.00000325,-0.00000131,-0.00002093,-0.00
 001847,-0.00001709,-0.00002016,0.00001539,0.00001080,-0.00000390,-0.00
 001036,-0.00000241,0.00000203,0.00000255,-0.00000107,-0.00000094,0.000
 00196,0.00000887,-0.00000046,0.00000119,0.00000286,0.00000095,-0.00000
 209,-0.00000157,0.00000133,-0.00000044,-0.00000155,0.00000094,0.000000
 82,-0.00000046,-0.00000268,0.00000008,-0.00000121,0.00000020,0.0000003
 2,0.00000076,0.00000040,0.00000120,-0.00000009,0.00000007,0.00000109,-
 0.00000101,-0.00000028,-0.00000099,0.00000127,0.00002784,0.00000930,0.
 00002304,0.00012198,0.00021591,0.00001944,-0.00105042,-0.00151353,-0.0
 0143148,-0.13907402,-0.07963068,0.15590442,-0.00002858,-0.00031757,-0.
 00027151,0.00045745,0.00049424,0.00023877,0.00003363,-0.00005677,0.000
 05482,0.00002932,-0.00000208,0.00004683,-0.00002383,0.00002970,-0.0000
 0960,-0.00001109,-0.00000149,-0.00001186,0.00003352,0.00000295,0.00003
 654,-0.00000932,-0.00002506,-0.00000160,-0.00000131,-0.00000770,-0.000
 01082,0.00000105,-0.00000414,0.00000382,0.00000085,-0.00000389,0.00000
 055,-0.00000441,-0.00000034,-0.00000512,-0.00000063,0.00000627,-0.0000
 0122,0.00000234,-0.00000031,0.00000167,-0.00000645,-0.00000826,-0.0000
 1117,-0.00004402,-0.00000233,-0.00004469,0.00001782,0.00003117,0.00001
 586,-0.00000489,-0.00000514,-0.00000409,0.,0.00000079,0.00000135,-0.00
 000135,-0.00000293,-0.00000215,0.00000245,0.00000232,0.00000002,-0.000
 00303,-0.00000804,-0.00000137,-0.00013157,0.00000926,0.00002128,0.0002
 6928,-0.00015833,-0.00010163,-0.00001458,0.00002442,0.00010736,-0.0000
 7472,-0.00000329,-0.00004394,0.00008221,-0.00005395,-0.00014580,-0.000
 13670,0.00008070,-0.00018635,0.00035116,0.00039442,-0.00023914,0.00005
 825,0.00056910,-0.00019454,-0.00065705,0.00064624,-0.00151085,-0.00012
 165,0.00003818,-0.00019921,0.00010127,-0.00013988,0.00011171,0.0000349
 3,-0.00004746,-0.00008429,0.00008596,-0.00001447,-0.00002049,-0.000015
 96,0.00002549,0.00003906,-0.00001906,-0.00001149,0.00002557,0.00004367
 ,0.00001892,-0.00005193,-0.00000872,-0.00002314,-0.00001918,-0.0000114
 3,-0.00002417,0.00001769,0.00000149,-0.00000173,-0.00000550,0.00000073
 ,-0.00000616,-0.00000341,-0.00000610,-0.00000310,0.00000704,-0.0000006
 3,0.00000742,0.00000509,0.00000331,0.00000076,-0.00000219,-0.00000816,
 -0.00001852,0.00000815,-0.00005903,-0.00002737,0.00005681,0.00002247,0
 .00004644,-0.00000223,-0.00000417,-0.00000968,-0.00000379,0.00000319,0
 .00000284,0.00000153,-0.00000167,-0.00000455,0.00000112,-0.00000010,0.
 00000143,-0.00000088,-0.00000628,-0.00000848,0.00000216,-0.00060891,0.
 00089661,-0.00017251,-0.00015727,-0.00170463,0.00387341,0.00035628,-0.
 00081481,0.00001140,0.00292904,0.00192757,0.00170688,0.00021637,0.0004
 8385,0.00209887,-0.25741065,0.12356543,0.04579991,-0.01415634,0.011757
 13,0.00274401,0.00004796,0.00000384,0.00002343,0.00002317,0.00000215,0
 .00000612,-0.00000409,-0.00000253,-0.00000451,0.00000423,-0.00000983,0
 .00000695,0.00000002,-0.00000245,0.00000139,-0.00000045,0.00000167,0.0
 0000005,-0.00000130,0.00000102,-0.00000111,-0.00000150,-0.00000026,-0.
 00000119,-0.00000028,0.00000081,0.00000223,-0.00000057,-0.00000045,-0.
 00000146,-0.00000093,-0.00000084,-0.00000076,-0.00000156,-0.00000096,0
 .00000028,0.00000248,0.00000193,-0.00000151,-0.00001742,0.00001076,-0.
 00000236,-0.00001171,0.00001722,-0.00000250,-0.00000950,0.00001018,0.0
 0001295,-0.00000447,-0.00000509,0.00002034,-0.00013577,-0.00002947,0.0
 0005410,0.00002365,0.00002533,0.00001518,0.00000029,0.00000644,-0.0000
 0432,-0.00000626,-0.00000521,0.00000368,0.00000227,-0.00000783,-0.0000
 1583,-0.00000015,-0.00000196,-0.00000349,-0.00000081,0.00000226,0.0000
 0116,-0.00000180,0.00000065,0.00000206,-0.00000188,-0.00000110,0.00000
 126,0.00000364,0.00000123,0.00000254,-0.00000176,-0.00000077,-0.000001
 02,-0.00000120,-0.00000162,0.00000052,-0.00000069,-0.00000145,0.000001
 64,-0.00000040,0.00000219,-0.00000194,-0.00016834,-0.00005358,0.000260
 63,-0.00027864,-0.00016449,-0.00036323,-0.00002706,0.00000170,0.000186
 56,-0.00029007,-0.00107535,-0.00212581,0.26947251,0.00000414,-0.000354
 60,-0.00059742,-0.00003083,-0.00000182,0.00073034,0.00008101,0.0000132
 6,-0.00000852,0.00005192,-0.00000258,0.00006544,-0.00003502,0.00006623
 ,-0.00002318,-0.00001450,-0.00001204,-0.00001409,0.00003539,0.00000130
 ,0.00004045,-0.00001199,-0.00002706,0.00000025,-0.00001313,-0.00002034
 ,-0.00002282,-0.00000168,-0.00000773,0.00000188,0.00000124,-0.00000194
 ,0.00000163,-0.00000410,-0.00000088,-0.00000401,-0.00000092,0.00000561
 ,-0.00000084,0.00000181,-0.00000111,0.00000171,-0.00000520,-0.00000444
 ,-0.00001204,-0.00005269,-0.00000986,-0.00005239,0.00002354,0.00003904
 ,0.00001877,-0.00000591,-0.00000591,-0.00000485,0.00000010,0.00000107,
 0.00000127,-0.00000213,-0.00000474,-0.00000246,0.00000396,0.00000252,-
 0.00000009,-0.00000332,-0.00001116,-0.00000256,0.00000118,0.00006496,0
 .00009035,-0.00003848,-0.00001537,-0.00012778,0.00003305,0.00001602,0.
 00004379,-0.00007003,-0.00000689,-0.00001022,0.00011231,0.00000408,-0.
 00004786,0.00001055,-0.00001733,0.00004226,-0.00020380,-0.00168465,0.0
 0028139,-0.00030998,-0.00100626,0.00092162,-0.00052970,-0.00091286,-0.
 00077053,0.00020830,0.00007198,-0.00040665,0.00005602,-0.00004137,0.00
 006358,-0.00016527,0.00013760,-0.00009144,0.00003553,-0.00001542,0.000
 00954,0.00000079,0.00000325,0.00000705,-0.00000507,-0.00000528,0.00000
 377,0.00000040,-0.00000243,-0.00000475,0.00000146,-0.00000126,-0.00000
 802,-0.00000161,0.00000380,0.00001423,-0.00000169,-0.00000115,0.000001
 81,0.00000115,0.00000111,-0.00000081,-0.00000063,-0.00000077,0.0000005
 2,0.00000035,0.00000098,0.00000021,0.00000047,-0.00000123,-0.00000076,
 -0.00000007,0.00000359,0.00000309,-0.00000407,-0.00000682,0.00000135,0
 .00000309,0.00000562,-0.00000052,-0.00000024,-0.00000144,-0.00000062,0
 .00000070,0.00000007,-0.00000003,-0.00000012,-0.00000101,-0.00000003,0
 .00000035,-0.00000010,-0.00000003,-0.00000041,-0.00000109,0.00000020,-
 0.00053382,0.00036782,0.00010208,-0.00049965,0.00031933,0.00324580,-0.
 00070100,-0.00030330,0.00024353,0.00095538,-0.00165115,0.00564231,0.02
 399832,-0.00900175,-0.00502347,0.12451964,-0.12334109,-0.01573434,-0.0
 0993249,0.00995312,0.00174478,0.00009040,0.00005118,0.00000687,0.00000
 683,0.00001209,-0.00001774,-0.00000928,-0.00000184,-0.00001150,0.00000
 740,-0.00001495,0.00000785,0.00000014,-0.00000295,0.00000070,-0.000000
 06,0.00000116,-0.00000013,-0.00000096,0.00000087,-0.00000125,-0.000001
 72,0.00000014,-0.00000184,-0.00000048,0.00000062,0.00000273,-0.0000006
 1,-0.00000045,-0.00000099,-0.00000114,-0.00000060,-0.00000106,-0.00000
 345,-0.00000159,-0.00000013,0.00000219,0.00000406,-0.00000148,-0.00001
 876,0.00002537,-0.00000590,-0.00001252,0.00001924,0.00000198,-0.000000
 77,0.00001678,0.00001296,0.00000534,-0.00000120,0.00002585,-0.00002720
 ,-0.00001947,-0.00001447,0.00000743,0.00003296,0.00003482,-0.00000172,
 -0.00000109,-0.00000183,-0.00000218,-0.00000046,0.00000072,0.00000024,
 -0.00000467,-0.00000469,-0.00000029,-0.00000048,-0.00000018,0.00000010
 ,-0.00000016,-0.00000031,-0.00000005,0.00000002,-0.00000002,-0.0000003
 9,0.00000006,0.00000025,0.00000003,0.00000056,0.00000045,-0.00000068,-
 0.00000001,0.00000003,-0.00000039,0.00000003,0.00000021,-0.00000037,0.
 00000002,0.00000021,-0.00000045,0.00000049,-0.00000004,-0.00011025,-0.
 00001376,0.00019018,-0.00017373,-0.00023325,-0.00044768,0.00106404,-0.
 00043583,-0.00014864,-0.00151287,-0.00022857,-0.00229307,-0.13626649,0
 .12819957,-0.00000795,-0.00000766,0.00018081,-0.00020832,0.00022641,-0
 .00045732,-0.00026539,0.00007191,-0.00005153,0.00000062,-0.00002029,-0
 .00002690,0.00000407,0.00003921,-0.00001468,0.00000534,-0.00002661,-0.
 00000065,-0.00004438,-0.00001203,-0.00004817,0.00001232,0.00003178,0.0
 0000963,-0.00000593,0.00001060,-0.00000535,-0.00000578,0.00000004,-0.0
 0000795,0.00000135,0.00001167,0.00000049,0.00000987,-0.00000028,0.0000
 0930,0.00000151,-0.00001294,0.00000196,-0.00000484,0.00000018,-0.00000
 512,0.00001267,0.00001485,0.00001896,0.00005266,-0.00000722,0.00005412
 ,-0.00002109,-0.00003827,-0.00001918,0.00000697,0.00000609,0.00000474,
 0.00000084,-0.00000123,-0.00000203,0.00000186,0.00000242,0.00000248,-0
 .00000238,-0.00000484,0.00000051,0.00000546,0.00000870,0.00000159,0.00
 011904,-0.00004052,-0.00007875,0.00022599,-0.00006636,0.00007898,-0.00
 006209,0.00002519,-0.00000118,0.00005306,-0.00006241,-0.00005120,-0.00
 009245,0.00006982,-0.00006156,0.00000172,-0.00015623,-0.00015949,-0.00
 010867,0.00058266,0.00059771,0.00016091,0.00019222,-0.00017508,-0.0007
 9794,-0.00151250,-0.00103502,-0.00012231,-0.00031117,-0.00009100,-0.00
 004987,0.00014208,0.00002424,-0.00006741,-0.00012395,-0.00006633,-0.00
 003668,0.00003067,0.00004896,0.00000516,-0.00000648,-0.00002864,0.0000
 0999,0.00000900,-0.00001764,-0.00002262,-0.00000775,0.00002861,-0.0000
 0057,0.00000975,0.00001075,0.00000316,0.00001205,-0.00000851,-0.000001
 56,-0.00000047,0.00000299,0.00000008,0.00000494,0.00000121,0.00000246,
 0.00000118,-0.00000430,0.00000044,-0.00000333,-0.00000308,-0.00000176,
 -0.00000106,0.00000022,0.00000455,0.00001241,-0.00000192,0.00002994,0.
 00001065,-0.00003160,-0.00000954,-0.00002130,0.00000124,0.00000175,0.0
 0000399,0.00000224,-0.00000134,-0.00000124,-0.00000049,0.00000056,0.00
 000217,-0.00000082,-0.00000010,-0.00000038,0.00000027,0.00000282,0.000
 00419,-0.00000060,0.00072419,-0.00071220,0.00006473,0.00317161,0.00389
 076,0.00065747,-0.00007351,0.00028041,-0.00067840,0.00233075,0.0051034
 0,0.00344964,-0.01298934,0.00839023,0.00648251,0.04574117,-0.01552092,
 -0.05340874,0.01657814,-0.01040382,0.00096854,-0.00006684,-0.00001127,
 -0.00003620,-0.00003060,-0.00002564,-0.00000820,-0.00000171,0.00000406
 ,0.00000085,-0.00000275,0.00000328,-0.00000434,-0.00000160,0.00000278,
 -0.00000179,0.00000061,-0.00000357,0.00000101,0.00000175,-0.00000182,0
 .00000216,0.00000149,0.00000094,0.00000173,-0.00000051,-0.00000038,-0.
 00000295,0.00000006,0.00000093,0.00000203,0.00000058,0.00000179,0.0000
 0109,0.00000054,0.00000173,-0.00000066,-0.00000534,-0.00000083,0.00000
 241,-0.00000297,-0.00002722,-0.00000778,0.00000475,-0.00000584,-0.0000
 0129,-0.00000770,-0.00000820,-0.00000536,-0.00001439,-0.00001466,-0.00
 001527,-0.00004869,0.00001974,-0.00002092,0.00004508,0.00002552,0.0000
 6780,0.00000470,-0.00000469,0.00000583,0.00000420,0.00000237,-0.000001
 38,-0.00000051,0.00000182,0.00001194,0.00000053,0.00000036,0.00000264,
 0.00000102,-0.00000148,-0.00000068,0.00000109,-0.00000044,-0.00000078,
 0.00000100,0.00000038,-0.00000032,-0.00000160,-0.00000034,-0.00000109,
 0.00000057,0.00000005,0.00000036,0.00000062,0.00000063,-0.00000019,0.0
 0000059,0.00000080,-0.00000096,0.00000035,-0.00000121,0.00000055,0.000
 28407,0.00016922,-0.00007151,-0.00036119,-0.00046046,-0.00060153,-0.00
 050571,0.00046409,0.00027519,-0.00183243,-0.00256583,-0.00250543,-0.05
 174827,0.01231528,0.04675137\\-0.00000010,-0.00000474,-0.00000243,-0.0
 0000849,0.00001091,0.00000620,0.00001052,-0.00000806,-0.00000151,-0.00
 000395,0.00000603,-0.00000203,-0.00000292,-0.00000135,-0.00000257,0.00
 000292,-0.00000029,0.00000177,-0.00000002,-0.00000302,0.00000259,-0.00
 000195,0.00000279,-0.00000372,0.00000525,-0.00000415,0.00000582,0.0000
 0280,-0.00000180,0.00000425,-0.00000275,0.00000466,-0.00000312,0.00000
 417,0.00000016,0.00000359,-0.00000132,-0.00000417,-0.00000011,0.000000
 09,0.00000341,-0.00000085,-0.00000274,0.00000035,-0.00000345,-0.000000
 06,-0.00000124,-0.00000308,-0.00000123,0.00000039,0.00000123,0.0000002
 2,0.00000029,0.00000033,-0.00000067,0.00000034,0.00000096,-0.00000012,
 -0.00000003,-0.00000026,0.00000096,0.00000029,-0.00000125,0.00000043,0
 .00000047,-0.00000016,0.00000161,0.00000097,0.00000366,-0.00001057,0.0
 0000508,-0.00000106,0.00000085,-0.00000237,-0.00000250,0.00000404,-0.0
 0000197,0.00000100,-0.00000261,0.00000260,0.00000204,-0.00000354,-0.00
 000052,-0.00000377,0.00001006,-0.00000586,0.00000125,-0.00000006,-0.00
 000114,-0.00000191,0.00000031,0.00000146,0.00000003,0.00000780,-0.0000
 1161,-0.00000029,-0.00000048,0.00000411,-0.00000032,-0.00001000,0.0000
 0849,0.00000150,0.00000336,-0.00000651,-0.00000432,0.00000323,0.000002
 93,-0.00000197,-0.00000302,-0.00000046,0.00000234,-0.00000024,0.000001
 62,0.00000348,0.00000222,-0.00000091,-0.00000510,-0.00000507,0.0000019
 2,0.00000774,-0.00000327,0.00000003,0.00000490,0.00000304,-0.00000286,
 -0.00000508,-0.00000431,-0.00000141,0.00000327,0.00000160,0.00000440,0
 .00000168,0.00000013,-0.00000262,-0.00000232,0.00000307,0.00000178,-0.
 00000260,-0.00000012,0.00000118,-0.00000191,0.00000185,0.00000033,0.00
 000031,-0.00000025,-0.00000073,-0.00000021,-0.00000098,0.00000039,-0.0
 0000065,0.00000011,-0.00000003,0.00000022,0.00000097,-0.00000038,0.000
 00090,-0.00000096,-0.00000006,0.00000102,-0.00000191,-0.00000289,0.000
 00267,0.00001063,-0.00000445,-0.00000364,-0.00000097,0.00000289,-0.000
 00163,-0.00000403,0.00000103,0.00000152,0.00000242,-0.00000349,0.00000
 030,0.00000309,0.00000167,-0.00000337,-0.00000933,0.00000485,0.0000034
 8,0.00000055,0.00000072,-0.00000003,0.00000069,-0.00000013,-0.00000005
 ,0.00000013,-0.00000057,0.00000020,-0.00000059,0.00000109,-0.00000087,
 0.00000071,-0.00000020,0.00000083,-0.00000046,0.00000056,-0.00000039,-
 0.00000039,0.00000058,-0.00000017,-0.00000045,0.00000012,-0.00000044,0
 .00000006,0.00000013,-0.00000051,0.00000015,0.00000043,-0.00000082,-0.
 00000020,-0.00000012,-0.00000032,-0.00000023,-0.00000025,0.00000040,-0
 .00000030,-0.00000045,0.00000008,-0.00000046,-0.00000048,-0.00000078,-
 0.00000042,0.00000055,0.00000103,-0.00000177,0.00000066,-0.00000020,0.
 00000135,-0.00000148,-0.00000057,0.00000093,-0.00000041,0.00000077,-0.
 00000032,-0.00000058,0.00000057,-0.00000063,0.00000005,0.00000028,0.00
 000027,0.00000055,0.00000042,0.00000057,-0.00000064,-0.00000154,-0.000
 00070,0.00000002,0.00000064,0.00000050,-0.00000001,-0.00000085,0.00000
 035,-0.00000010,-0.00000052,0.00000039,0.00000065,-0.00000031,-0.00000
 007,0.00000022,0.00000062,0.00000026,0.00000007,0.00000085,0.00000020,
 0.00000045,0.00000023,-0.00000008,0.00000029,-0.00000046,0.00000006,0.
 00000020,-0.00000036,0.00000047,0.00000062,-0.00000058,0.00000034,-0.0
 0000128,0.00000038,0.00000171,-0.00000090,-0.00000092,-0.00000138,0.00
 000115,-0.00000017,-0.00000094,-0.00000020,0.00000067\\\@
 The archive entry for this job was punched.


 EVERYBODY NEEDS BEAUTY AS WELL AS BREAD, PLACES TO PLAY IN AND PRAY IN,
 WHERE NATURE MAY HEAL AND CHEER AND GIVE STRENGTH TO BODY AND SOUL ALIKE.

                                    -- JOHN MUIR
 Job cpu time:       0 days 17 hours 27 minutes 24.6 seconds.
 Elapsed time:       0 days  0 hours 32 minutes 56.4 seconds.
 File lengths (MBytes):  RWF=   8649 Int=      0 D2E=      0 Chk=     72 Scr=      1
 Normal termination of Gaussian 16 at Thu Jan 23 18:20:27 2025.
