 Entering Gaussian System, Link 0=g16
 Initial command:
 /public/software/apps/Gaussian/g16/l1.exe "/tmp/Gau-4353.inp" -scrdir="/tmp/"
 Entering Link 1 = /public/software/apps/Gaussian/g16/l1.exe PID=      4354.
  
 Copyright (c) 1988-2019, Gaussian, Inc.  All Rights Reserved.
  
 This is part of the Gaussian(R) 16 program.  It is based on
 the Gaussian(R) 09 system (copyright 2009, Gaussian, Inc.),
 the Gaussian(R) 03 system (copyright 2003, Gaussian, Inc.),
 the Gaussian(R) 98 system (copyright 1998, Gaussian, Inc.),
 the Gaussian(R) 94 system (copyright 1995, Gaussian, Inc.),
 the Gaussian 92(TM) system (copyright 1992, Gaussian, Inc.),
 the Gaussian 90(TM) system (copyright 1990, Gaussian, Inc.),
 the Gaussian 88(TM) system (copyright 1988, Gaussian, Inc.),
 the Gaussian 86(TM) system (copyright 1986, Carnegie Mellon
 University), and the Gaussian 82(TM) system (copyright 1983,
 Carnegie Mellon University). Gaussian is a federally registered
 trademark of Gaussian, Inc.
  
 This software contains proprietary and confidential information,
 including trade secrets, belonging to Gaussian, Inc.
  
 This software is provided under written license and may be
 used, copied, transmitted, or stored only in accord with that
 written license.
  
 The following legend is applicable only to US Government
 contracts under FAR:
  
                    RESTRICTED RIGHTS LEGEND
  
 Use, reproduction and disclosure by the US Government is
 subject to restrictions as set forth in subparagraphs (a)
 and (c) of the Commercial Computer Software - Restricted
 Rights clause in FAR 52.227-19.
  
 Gaussian, Inc.
 340 Quinnipiac St., Bldg. 40, Wallingford CT 06492
  
  
 ---------------------------------------------------------------
 Warning -- This program may not be used in any manner that
 competes with the business of Gaussian, Inc. or will provide
 assistance to any competitor of Gaussian, Inc.  The licensee
 of this program is prohibited from giving any competitor of
 Gaussian, Inc. access to this program.  By using this program,
 the user acknowledges that Gaussian, Inc. is engaged in the
 business of creating and licensing software in the field of
 computational chemistry and represents and warrants to the
 licensee that it is not a competitor of Gaussian, Inc. and that
 it will not use this program in any manner prohibited above.
 ---------------------------------------------------------------
  

 Cite this work as:
 Gaussian 16, Revision C.01,
 M. J. Frisch, G. W. Trucks, H. B. Schlegel, G. E. Scuseria, 
 M. A. Robb, J. R. Cheeseman, G. Scalmani, V. Barone, 
 G. A. Petersson, H. Nakatsuji, X. Li, M. Caricato, A. V. Marenich, 
 J. Bloino, B. G. Janesko, R. Gomperts, B. Mennucci, H. P. Hratchian, 
 J. V. Ortiz, A. F. Izmaylov, J. L. Sonnenberg, D. Williams-Young, 
 F. Ding, F. Lipparini, F. Egidi, J. Goings, B. Peng, A. Petrone, 
 T. Henderson, D. Ranasinghe, V. G. Zakrzewski, J. Gao, N. Rega, 
 G. Zheng, W. Liang, M. Hada, M. Ehara, K. Toyota, R. Fukuda, 
 J. Hasegawa, M. Ishida, T. Nakajima, Y. Honda, O. Kitao, H. Nakai, 
 T. Vreven, K. Throssell, J. A. Montgomery, Jr., J. E. Peralta, 
 F. Ogliaro, M. J. Bearpark, J. J. Heyd, E. N. Brothers, K. N. Kudin, 
 V. N. Staroverov, T. A. Keith, R. Kobayashi, J. Normand, 
 K. Raghavachari, A. P. Rendell, J. C. Burant, S. S. Iyengar, 
 J. Tomasi, M. Cossi, J. M. Millam, M. Klene, C. Adamo, R. Cammi, 
 J. W. Ochterski, R. L. Martin, K. Morokuma, O. Farkas, 
 J. B. Foresman, and D. J. Fox, Gaussian, Inc., Wallingford CT, 2019.
 
 ******************************************
 Gaussian 16:  ES64L-G16RevC.01  3-Jul-2019
                23-Jan-2025 
 ******************************************
 %nprocshared=32
 Will use up to   32 processors via shared memory.
 %mem=100GB
 ------------------------------------------
 #p opt freq b3lyp/def2svpp em=gd3bj nosymm
 ------------------------------------------
 1/18=20,19=15,26=3,38=1/1,3;
 2/9=110,12=2,15=1,17=6,18=5,40=1/2;
 3/5=43,7=202,11=2,25=1,30=1,71=1,74=-5,124=41/1,2,3;
 4//1;
 5/5=2,38=5/2;
 6/7=2,8=2,9=2,10=2,28=1/1;
 7/30=1/1,2,3,16;
 1/18=20,19=15,26=3/3(2);
 2/9=110,15=1/2;
 99//99;
 2/9=110,15=1/2;
 3/5=43,7=202,11=2,25=1,30=1,71=1,74=-5,124=41/1,2,3;
 4/5=5,16=3,69=1/1;
 5/5=2,38=5/2;
 7/30=1/1,2,3,16;
 1/18=20,19=15,26=3/3(-5);
 2/9=110,15=1/2;
 6/7=2,8=2,9=2,10=2,19=2,28=1/1;
 99/9=1/99;
 Leave Link    1 at Thu Jan 23 20:56:41 2025, MaxMem= 13421772800 cpu:               1.6 elap:               0.1
 (Enter /public/software/apps/Gaussian/g16/l101.exe)
 ----------------------
 $$$$Singlemol####0????
 ----------------------
 Symbolic Z-matrix:
 Charge =  0 Multiplicity = 1
 C                    -9.1442    2.4137   -1.4293 
 C                    -9.1301    1.0611   -0.6895 
 C                    -9.8034    1.2315    0.6861 
 C                    -9.9145    0.0173   -1.5095 
 C                    -7.6735    0.5856   -0.4835 
 O                    -7.0135    0.4256   -1.739 
 C                    -5.6865   -0.0014   -1.8917 
 C                    -5.1688   -0.1043   -3.1873 
 C                    -3.8547   -0.5288   -3.3936 
 C                    -3.0431   -0.8535   -2.3046 
 C                    -3.5401   -0.751    -0.9947 
 C                    -2.6879   -1.1132    0.1639 
 C                    -3.1764   -2.0173    1.1165 
 C                    -2.3956   -2.3942    2.2142 
 C                    -2.9012   -3.3072    3.154 
 C                    -2.1272   -3.6909    4.2498 
 C                    -0.8449   -3.1696    4.4177 
 C                    -0.3276   -2.2609    3.4918 
 C                    -1.0938   -1.8589    2.3754 
 C                    -0.5969   -0.9371    1.4209 
 C                     0.761    -0.3534    1.5698 
 C                     1.8714   -1.0198    1.0014 
 O                     1.703    -2.1955    0.2612 
 C                     3.1689   -0.4939    1.1602 
 C                     4.3515   -1.1904    0.5966 
 C                     4.5673   -2.554     0.8572 
 C                     5.6872   -3.2031    0.3341 
 C                     6.6063   -2.498    -0.4456 
 C                     6.4174   -1.137    -0.7089 
 O                     7.3731   -0.4733   -1.4916 
 C                     7.3225    0.9132   -1.8285 
 C                     8.5374    1.3085   -2.6984 
 C                     8.4461    2.8089   -3.0391 
 C                     9.8468    1.0446   -1.9275 
 C                     8.5362    0.4925   -4.0066 
 C                     5.2847   -0.4846   -0.1836 
 C                     3.3504    0.7067    1.8599 
 C                     2.2611    1.3834    2.4185 
 C                     2.4656    2.5825    3.1203 
 C                     1.3852    3.261     3.6852 
 C                     0.094     2.7497    3.558 
 C                    -0.1257    1.5577    2.8642 
 C                     0.9532    0.8563    2.2822 
 C                    -1.4012   -0.5614    0.32 
 O                    -0.9469    0.3727   -0.6178 
 C                    -4.8661   -0.3283   -0.7941 
 H                    -10.1861   2.7797   -1.5549 
 H                    -8.6891    2.3181   -2.4383 
 H                    -8.5721    3.1771   -0.859 
 H                    -9.26      1.9835    1.2981 
 H                    -9.8099    0.2691    1.2419 
 H                    -10.8549   1.5724    0.57 
 H                    -9.4689   -0.1091   -2.5196 
 H                    -9.9058   -0.9693   -0.9975 
 H                    -10.9722   0.3345   -1.6375 
 H                    -7.6705   -0.3858    0.0593 
 H                    -7.1188    1.3313    0.1282 
 H                    -5.7905    0.1429   -4.0385 
 H                    -3.4664   -0.6117   -4.4004 
 H                    -2.033    -1.2006   -2.484 
 H                    -4.1667   -2.4415    0.9914 
 H                    -3.895    -3.7244    3.0407 
 H                    -2.5224   -4.3951    4.9707 
 H                    -0.2482   -3.4711    5.269 
 H                     0.6713   -1.8789    3.6582 
 H                     0.8019   -2.6273    0.1007 
 H                     3.8767   -3.1121    1.4774 
 H                     5.8463   -4.2541    0.5383 
 H                     7.4726   -3.01     -0.8447 
 H                     6.3815    1.1204   -2.3851 
 H                     7.3192    1.5168   -0.8937 
 H                     7.5122    3.0272   -3.6014 
 H                     8.4456    3.4223   -2.112 
 H                     9.3102    3.1232   -3.6639 
 H                     9.9551   -0.0349   -1.6874 
 H                     10.726    1.3523   -2.5337 
 H                     9.8624    1.6174   -0.9754 
 H                     8.628    -0.5945   -3.7952 
 H                     7.5939    0.6604   -4.5716 
 H                     9.3887    0.7901   -4.6545 
 H                     5.117     0.5651   -0.3843 
 H                     4.3508    1.1071    1.9829 
 H                     3.4614    2.9949    3.232 
 H                     1.5493    4.1851    4.2242 
 H                    -0.7409    3.2792    3.9989 
 H                    -1.1422    1.1938    2.7879 
 H                    -0.0371    0.813    -0.5674 
 H                    -5.2463   -0.2485    0.2156 
 
 ITRead=  0  0  0  0  0  0  0  0  0  0  0  0  0  0  0  0  0  0  0  0
 ITRead=  0  0  0  0  0  0  0  0  0  0  0  0  0  0  0  0  0  0  0  0
 ITRead=  0  0  0  0  0  0  0  0  0  0  0  0  0  0  0  0  0  0  0  0
 ITRead=  0  0  0  0  0  0  0  0  0  0  0  0  0  0  0  0  0  0  0  0
 ITRead=  0  0  0  0  0  0  0  0
 MicOpt= -1 -1 -1 -1 -1 -1 -1 -1 -1 -1 -1 -1 -1 -1 -1 -1 -1 -1 -1 -1
 MicOpt= -1 -1 -1 -1 -1 -1 -1 -1 -1 -1 -1 -1 -1 -1 -1 -1 -1 -1 -1 -1
 MicOpt= -1 -1 -1 -1 -1 -1 -1 -1 -1 -1 -1 -1 -1 -1 -1 -1 -1 -1 -1 -1
 MicOpt= -1 -1 -1 -1 -1 -1 -1 -1 -1 -1 -1 -1 -1 -1 -1 -1 -1 -1 -1 -1
 MicOpt= -1 -1 -1 -1 -1 -1 -1 -1
 NAtoms=     88 NQM=       88 NQMF=       0 NMMI=      0 NMMIF=      0
                NMic=       0 NMicF=      0.
                    Isotopes and Nuclear Properties:
 (Nuclear quadrupole moments (NQMom) in fm**2, nuclear magnetic moments (NMagM)
  in nuclear magnetons)

  Atom         1           2           3           4           5           6           7           8           9          10
 IAtWgt=          12          12          12          12          12          16          12          12          12          12
 AtmWgt=  12.0000000  12.0000000  12.0000000  12.0000000  12.0000000  15.9949146  12.0000000  12.0000000  12.0000000  12.0000000
 NucSpn=           0           0           0           0           0           0           0           0           0           0
 AtZEff=  -0.0000000  -0.0000000  -0.0000000  -0.0000000  -0.0000000  -0.0000000  -0.0000000  -0.0000000  -0.0000000  -0.0000000
 NQMom=    0.0000000   0.0000000   0.0000000   0.0000000   0.0000000   0.0000000   0.0000000   0.0000000   0.0000000   0.0000000
 NMagM=    0.0000000   0.0000000   0.0000000   0.0000000   0.0000000   0.0000000   0.0000000   0.0000000   0.0000000   0.0000000
 AtZNuc=   6.0000000   6.0000000   6.0000000   6.0000000   6.0000000   8.0000000   6.0000000   6.0000000   6.0000000   6.0000000

  Atom        11          12          13          14          15          16          17          18          19          20
 IAtWgt=          12          12          12          12          12          12          12          12          12          12
 AtmWgt=  12.0000000  12.0000000  12.0000000  12.0000000  12.0000000  12.0000000  12.0000000  12.0000000  12.0000000  12.0000000
 NucSpn=           0           0           0           0           0           0           0           0           0           0
 AtZEff=  -0.0000000  -0.0000000  -0.0000000  -0.0000000  -0.0000000  -0.0000000  -0.0000000  -0.0000000  -0.0000000  -0.0000000
 NQMom=    0.0000000   0.0000000   0.0000000   0.0000000   0.0000000   0.0000000   0.0000000   0.0000000   0.0000000   0.0000000
 NMagM=    0.0000000   0.0000000   0.0000000   0.0000000   0.0000000   0.0000000   0.0000000   0.0000000   0.0000000   0.0000000
 AtZNuc=   6.0000000   6.0000000   6.0000000   6.0000000   6.0000000   6.0000000   6.0000000   6.0000000   6.0000000   6.0000000

  Atom        21          22          23          24          25          26          27          28          29          30
 IAtWgt=          12          12          16          12          12          12          12          12          12          16
 AtmWgt=  12.0000000  12.0000000  15.9949146  12.0000000  12.0000000  12.0000000  12.0000000  12.0000000  12.0000000  15.9949146
 NucSpn=           0           0           0           0           0           0           0           0           0           0
 AtZEff=  -0.0000000  -0.0000000  -0.0000000  -0.0000000  -0.0000000  -0.0000000  -0.0000000  -0.0000000  -0.0000000  -0.0000000
 NQMom=    0.0000000   0.0000000   0.0000000   0.0000000   0.0000000   0.0000000   0.0000000   0.0000000   0.0000000   0.0000000
 NMagM=    0.0000000   0.0000000   0.0000000   0.0000000   0.0000000   0.0000000   0.0000000   0.0000000   0.0000000   0.0000000
 AtZNuc=   6.0000000   6.0000000   8.0000000   6.0000000   6.0000000   6.0000000   6.0000000   6.0000000   6.0000000   8.0000000

  Atom        31          32          33          34          35          36          37          38          39          40
 IAtWgt=          12          12          12          12          12          12          12          12          12          12
 AtmWgt=  12.0000000  12.0000000  12.0000000  12.0000000  12.0000000  12.0000000  12.0000000  12.0000000  12.0000000  12.0000000
 NucSpn=           0           0           0           0           0           0           0           0           0           0
 AtZEff=  -0.0000000  -0.0000000  -0.0000000  -0.0000000  -0.0000000  -0.0000000  -0.0000000  -0.0000000  -0.0000000  -0.0000000
 NQMom=    0.0000000   0.0000000   0.0000000   0.0000000   0.0000000   0.0000000   0.0000000   0.0000000   0.0000000   0.0000000
 NMagM=    0.0000000   0.0000000   0.0000000   0.0000000   0.0000000   0.0000000   0.0000000   0.0000000   0.0000000   0.0000000
 AtZNuc=   6.0000000   6.0000000   6.0000000   6.0000000   6.0000000   6.0000000   6.0000000   6.0000000   6.0000000   6.0000000

  Atom        41          42          43          44          45          46          47          48          49          50
 IAtWgt=          12          12          12          12          16          12           1           1           1           1
 AtmWgt=  12.0000000  12.0000000  12.0000000  12.0000000  15.9949146  12.0000000   1.0078250   1.0078250   1.0078250   1.0078250
 NucSpn=           0           0           0           0           0           0           1           1           1           1
 AtZEff=  -0.0000000  -0.0000000  -0.0000000  -0.0000000  -0.0000000  -0.0000000  -0.0000000  -0.0000000  -0.0000000  -0.0000000
 NQMom=    0.0000000   0.0000000   0.0000000   0.0000000   0.0000000   0.0000000   0.0000000   0.0000000   0.0000000   0.0000000
 NMagM=    0.0000000   0.0000000   0.0000000   0.0000000   0.0000000   0.0000000   2.7928460   2.7928460   2.7928460   2.7928460
 AtZNuc=   6.0000000   6.0000000   6.0000000   6.0000000   8.0000000   6.0000000   1.0000000   1.0000000   1.0000000   1.0000000

  Atom        51          52          53          54          55          56          57          58          59          60
 IAtWgt=           1           1           1           1           1           1           1           1           1           1
 AtmWgt=   1.0078250   1.0078250   1.0078250   1.0078250   1.0078250   1.0078250   1.0078250   1.0078250   1.0078250   1.0078250
 NucSpn=           1           1           1           1           1           1           1           1           1           1
 AtZEff=  -0.0000000  -0.0000000  -0.0000000  -0.0000000  -0.0000000  -0.0000000  -0.0000000  -0.0000000  -0.0000000  -0.0000000
 NQMom=    0.0000000   0.0000000   0.0000000   0.0000000   0.0000000   0.0000000   0.0000000   0.0000000   0.0000000   0.0000000
 NMagM=    2.7928460   2.7928460   2.7928460   2.7928460   2.7928460   2.7928460   2.7928460   2.7928460   2.7928460   2.7928460
 AtZNuc=   1.0000000   1.0000000   1.0000000   1.0000000   1.0000000   1.0000000   1.0000000   1.0000000   1.0000000   1.0000000

  Atom        61          62          63          64          65          66          67          68          69          70
 IAtWgt=           1           1           1           1           1           1           1           1           1           1
 AtmWgt=   1.0078250   1.0078250   1.0078250   1.0078250   1.0078250   1.0078250   1.0078250   1.0078250   1.0078250   1.0078250
 NucSpn=           1           1           1           1           1           1           1           1           1           1
 AtZEff=  -0.0000000  -0.0000000  -0.0000000  -0.0000000  -0.0000000  -0.0000000  -0.0000000  -0.0000000  -0.0000000  -0.0000000
 NQMom=    0.0000000   0.0000000   0.0000000   0.0000000   0.0000000   0.0000000   0.0000000   0.0000000   0.0000000   0.0000000
 NMagM=    2.7928460   2.7928460   2.7928460   2.7928460   2.7928460   2.7928460   2.7928460   2.7928460   2.7928460   2.7928460
 AtZNuc=   1.0000000   1.0000000   1.0000000   1.0000000   1.0000000   1.0000000   1.0000000   1.0000000   1.0000000   1.0000000

  Atom        71          72          73          74          75          76          77          78          79          80
 IAtWgt=           1           1           1           1           1           1           1           1           1           1
 AtmWgt=   1.0078250   1.0078250   1.0078250   1.0078250   1.0078250   1.0078250   1.0078250   1.0078250   1.0078250   1.0078250
 NucSpn=           1           1           1           1           1           1           1           1           1           1
 AtZEff=  -0.0000000  -0.0000000  -0.0000000  -0.0000000  -0.0000000  -0.0000000  -0.0000000  -0.0000000  -0.0000000  -0.0000000
 NQMom=    0.0000000   0.0000000   0.0000000   0.0000000   0.0000000   0.0000000   0.0000000   0.0000000   0.0000000   0.0000000
 NMagM=    2.7928460   2.7928460   2.7928460   2.7928460   2.7928460   2.7928460   2.7928460   2.7928460   2.7928460   2.7928460
 AtZNuc=   1.0000000   1.0000000   1.0000000   1.0000000   1.0000000   1.0000000   1.0000000   1.0000000   1.0000000   1.0000000

  Atom        81          82          83          84          85          86          87          88
 IAtWgt=           1           1           1           1           1           1           1           1
 AtmWgt=   1.0078250   1.0078250   1.0078250   1.0078250   1.0078250   1.0078250   1.0078250   1.0078250
 NucSpn=           1           1           1           1           1           1           1           1
 AtZEff=  -0.0000000  -0.0000000  -0.0000000  -0.0000000  -0.0000000  -0.0000000  -0.0000000  -0.0000000
 NQMom=    0.0000000   0.0000000   0.0000000   0.0000000   0.0000000   0.0000000   0.0000000   0.0000000
 NMagM=    2.7928460   2.7928460   2.7928460   2.7928460   2.7928460   2.7928460   2.7928460   2.7928460
 AtZNuc=   1.0000000   1.0000000   1.0000000   1.0000000   1.0000000   1.0000000   1.0000000   1.0000000
 Leave Link  101 at Thu Jan 23 20:56:41 2025, MaxMem= 13421772800 cpu:               6.6 elap:               0.2
 (Enter /public/software/apps/Gaussian/g16/l103.exe)

 GradGradGradGradGradGradGradGradGradGradGradGradGradGradGradGradGradGrad
 Berny optimization.
 Initialization pass.
                           ----------------------------
                           !    Initial Parameters    !
                           ! (Angstroms and Degrees)  !
 --------------------------                            --------------------------
 ! Name  Definition              Value          Derivative Info.                !
 --------------------------------------------------------------------------------
 ! R1    R(1,2)                  1.5418         estimate D2E/DX2                !
 ! R2    R(1,47)                 1.1114         estimate D2E/DX2                !
 ! R3    R(1,48)                 1.111          estimate D2E/DX2                !
 ! R4    R(1,49)                 1.1114         estimate D2E/DX2                !
 ! R5    R(2,3)                  1.541          estimate D2E/DX2                !
 ! R6    R(2,4)                  1.5418         estimate D2E/DX2                !
 ! R7    R(2,5)                  1.546          estimate D2E/DX2                !
 ! R8    R(3,50)                 1.1115         estimate D2E/DX2                !
 ! R9    R(3,51)                 1.1114         estimate D2E/DX2                !
 ! R10   R(3,52)                 1.1115         estimate D2E/DX2                !
 ! R11   R(4,53)                 1.1112         estimate D2E/DX2                !
 ! R12   R(4,54)                 1.1116         estimate D2E/DX2                !
 ! R13   R(4,55)                 1.1116         estimate D2E/DX2                !
 ! R14   R(5,6)                  1.4274         estimate D2E/DX2                !
 ! R15   R(5,56)                 1.1128         estimate D2E/DX2                !
 ! R16   R(5,57)                 1.1126         estimate D2E/DX2                !
 ! R17   R(6,7)                  1.4023         estimate D2E/DX2                !
 ! R18   R(7,8)                  1.399          estimate D2E/DX2                !
 ! R19   R(7,46)                 1.4088         estimate D2E/DX2                !
 ! R20   R(8,9)                  1.3963         estimate D2E/DX2                !
 ! R21   R(8,58)                 1.0827         estimate D2E/DX2                !
 ! R22   R(9,10)                 1.3964         estimate D2E/DX2                !
 ! R23   R(9,59)                 1.0823         estimate D2E/DX2                !
 ! R24   R(10,11)                1.4048         estimate D2E/DX2                !
 ! R25   R(10,60)                1.083          estimate D2E/DX2                !
 ! R26   R(11,12)                1.4832         estimate D2E/DX2                !
 ! R27   R(11,46)                1.4061         estimate D2E/DX2                !
 ! R28   R(12,13)                1.4012         estimate D2E/DX2                !
 ! R29   R(12,44)                1.4087         estimate D2E/DX2                !
 ! R30   R(13,14)                1.3988         estimate D2E/DX2                !
 ! R31   R(13,61)                1.0846         estimate D2E/DX2                !
 ! R32   R(14,15)                1.4044         estimate D2E/DX2                !
 ! R33   R(14,19)                1.4168         estimate D2E/DX2                !
 ! R34   R(15,16)                1.3954         estimate D2E/DX2                !
 ! R35   R(15,62)                1.0838         estimate D2E/DX2                !
 ! R36   R(16,17)                1.3944         estimate D2E/DX2                !
 ! R37   R(16,63)                1.0825         estimate D2E/DX2                !
 ! R38   R(17,18)                1.3966         estimate D2E/DX2                !
 ! R39   R(17,64)                1.0824         estimate D2E/DX2                !
 ! R40   R(18,19)                1.4125         estimate D2E/DX2                !
 ! R41   R(18,65)                1.0823         estimate D2E/DX2                !
 ! R42   R(19,20)                1.4169         estimate D2E/DX2                !
 ! R43   R(20,21)                1.4855         estimate D2E/DX2                !
 ! R44   R(20,44)                1.4142         estimate D2E/DX2                !
 ! R45   R(21,22)                1.4143         estimate D2E/DX2                !
 ! R46   R(21,43)                1.417          estimate D2E/DX2                !
 ! R47   R(22,23)                1.3995         estimate D2E/DX2                !
 ! R48   R(22,24)                1.409          estimate D2E/DX2                !
 ! R49   R(23,66)                1.012          estimate D2E/DX2                !
 ! R50   R(24,25)                1.4837         estimate D2E/DX2                !
 ! R51   R(24,37)                1.4014         estimate D2E/DX2                !
 ! R52   R(25,26)                1.405          estimate D2E/DX2                !
 ! R53   R(25,36)                1.4063         estimate D2E/DX2                !
 ! R54   R(26,27)                1.3961         estimate D2E/DX2                !
 ! R55   R(26,67)                1.0831         estimate D2E/DX2                !
 ! R56   R(27,28)                1.3964         estimate D2E/DX2                !
 ! R57   R(27,68)                1.0824         estimate D2E/DX2                !
 ! R58   R(28,29)                1.399          estimate D2E/DX2                !
 ! R59   R(28,69)                1.0825         estimate D2E/DX2                !
 ! R60   R(29,30)                1.4023         estimate D2E/DX2                !
 ! R61   R(29,36)                1.4087         estimate D2E/DX2                !
 ! R62   R(30,31)                1.4277         estimate D2E/DX2                !
 ! R63   R(31,32)                1.5456         estimate D2E/DX2                !
 ! R64   R(31,70)                1.1128         estimate D2E/DX2                !
 ! R65   R(31,71)                1.1127         estimate D2E/DX2                !
 ! R66   R(32,33)                1.5413         estimate D2E/DX2                !
 ! R67   R(32,34)                1.5422         estimate D2E/DX2                !
 ! R68   R(32,35)                1.5418         estimate D2E/DX2                !
 ! R69   R(33,72)                1.1118         estimate D2E/DX2                !
 ! R70   R(33,73)                1.1117         estimate D2E/DX2                !
 ! R71   R(33,74)                1.1117         estimate D2E/DX2                !
 ! R72   R(34,75)                1.1112         estimate D2E/DX2                !
 ! R73   R(34,76)                1.1114         estimate D2E/DX2                !
 ! R74   R(34,77)                1.1112         estimate D2E/DX2                !
 ! R75   R(35,78)                1.1112         estimate D2E/DX2                !
 ! R76   R(35,79)                1.1115         estimate D2E/DX2                !
 ! R77   R(35,80)                1.1113         estimate D2E/DX2                !
 ! R78   R(36,81)                1.0818         estimate D2E/DX2                !
 ! R79   R(37,38)                1.3988         estimate D2E/DX2                !
 ! R80   R(37,82)                1.0846         estimate D2E/DX2                !
 ! R81   R(38,39)                1.4043         estimate D2E/DX2                !
 ! R82   R(38,43)                1.4167         estimate D2E/DX2                !
 ! R83   R(39,40)                1.3953         estimate D2E/DX2                !
 ! R84   R(39,83)                1.0836         estimate D2E/DX2                !
 ! R85   R(40,41)                1.3946         estimate D2E/DX2                !
 ! R86   R(40,84)                1.0823         estimate D2E/DX2                !
 ! R87   R(41,42)                1.3966         estimate D2E/DX2                !
 ! R88   R(41,85)                1.0825         estimate D2E/DX2                !
 ! R89   R(42,43)                1.4123         estimate D2E/DX2                !
 ! R90   R(42,86)                1.0824         estimate D2E/DX2                !
 ! R91   R(44,45)                1.3994         estimate D2E/DX2                !
 ! R92   R(45,87)                1.012          estimate D2E/DX2                !
 ! R93   R(46,88)                1.0819         estimate D2E/DX2                !
 ! A1    A(2,1,47)             110.5913         estimate D2E/DX2                !
 ! A2    A(2,1,48)             110.8883         estimate D2E/DX2                !
 ! A3    A(2,1,49)             110.5888         estimate D2E/DX2                !
 ! A4    A(47,1,48)            108.0415         estimate D2E/DX2                !
 ! A5    A(47,1,49)            108.3205         estimate D2E/DX2                !
 ! A6    A(48,1,49)            108.3159         estimate D2E/DX2                !
 ! A7    A(1,2,3)              109.107          estimate D2E/DX2                !
 ! A8    A(1,2,4)              109.5166         estimate D2E/DX2                !
 ! A9    A(1,2,5)              110.0218         estimate D2E/DX2                !
 ! A10   A(3,2,4)              109.107          estimate D2E/DX2                !
 ! A11   A(3,2,5)              109.0697         estimate D2E/DX2                !
 ! A12   A(4,2,5)              109.9968         estimate D2E/DX2                !
 ! A13   A(2,3,50)             110.6545         estimate D2E/DX2                !
 ! A14   A(2,3,51)             110.6847         estimate D2E/DX2                !
 ! A15   A(2,3,52)             110.7338         estimate D2E/DX2                !
 ! A16   A(50,3,51)            108.2633         estimate D2E/DX2                !
 ! A17   A(50,3,52)            108.2118         estimate D2E/DX2                !
 ! A18   A(51,3,52)            108.1981         estimate D2E/DX2                !
 ! A19   A(2,4,53)             110.8815         estimate D2E/DX2                !
 ! A20   A(2,4,54)             110.6052         estimate D2E/DX2                !
 ! A21   A(2,4,55)             110.6176         estimate D2E/DX2                !
 ! A22   A(53,4,54)            108.3361         estimate D2E/DX2                !
 ! A23   A(53,4,55)            108.019          estimate D2E/DX2                !
 ! A24   A(54,4,55)            108.2853         estimate D2E/DX2                !
 ! A25   A(2,5,6)              110.6653         estimate D2E/DX2                !
 ! A26   A(2,5,56)             109.6347         estimate D2E/DX2                !
 ! A27   A(2,5,57)             109.684          estimate D2E/DX2                !
 ! A28   A(6,5,56)             109.2657         estimate D2E/DX2                !
 ! A29   A(6,5,57)             109.1581         estimate D2E/DX2                !
 ! A30   A(56,5,57)            108.3938         estimate D2E/DX2                !
 ! A31   A(5,6,7)              124.572          estimate D2E/DX2                !
 ! A32   A(6,7,8)              118.2557         estimate D2E/DX2                !
 ! A33   A(6,7,46)             122.4715         estimate D2E/DX2                !
 ! A34   A(8,7,46)             119.2728         estimate D2E/DX2                !
 ! A35   A(7,8,9)              120.4949         estimate D2E/DX2                !
 ! A36   A(7,8,58)             119.9216         estimate D2E/DX2                !
 ! A37   A(9,8,58)             119.5831         estimate D2E/DX2                !
 ! A38   A(8,9,10)             120.1624         estimate D2E/DX2                !
 ! A39   A(8,9,59)             119.8942         estimate D2E/DX2                !
 ! A40   A(10,9,59)            119.9424         estimate D2E/DX2                !
 ! A41   A(9,10,11)            120.3041         estimate D2E/DX2                !
 ! A42   A(9,10,60)            119.1695         estimate D2E/DX2                !
 ! A43   A(11,10,60)           120.5184         estimate D2E/DX2                !
 ! A44   A(10,11,12)           120.4849         estimate D2E/DX2                !
 ! A45   A(10,11,46)           119.2485         estimate D2E/DX2                !
 ! A46   A(12,11,46)           120.2523         estimate D2E/DX2                !
 ! A47   A(11,12,13)           119.2297         estimate D2E/DX2                !
 ! A48   A(11,12,44)           121.0457         estimate D2E/DX2                !
 ! A49   A(13,12,44)           119.7245         estimate D2E/DX2                !
 ! A50   A(12,13,14)           120.8466         estimate D2E/DX2                !
 ! A51   A(12,13,61)           119.4893         estimate D2E/DX2                !
 ! A52   A(14,13,61)           119.6569         estimate D2E/DX2                !
 ! A53   A(13,14,15)           119.9561         estimate D2E/DX2                !
 ! A54   A(13,14,19)           120.0252         estimate D2E/DX2                !
 ! A55   A(15,14,19)           120.0183         estimate D2E/DX2                !
 ! A56   A(14,15,16)           120.303          estimate D2E/DX2                !
 ! A57   A(14,15,62)           120.6917         estimate D2E/DX2                !
 ! A58   A(16,15,62)           119.0053         estimate D2E/DX2                !
 ! A59   A(15,16,17)           120.1236         estimate D2E/DX2                !
 ! A60   A(15,16,63)           119.958          estimate D2E/DX2                !
 ! A61   A(17,16,63)           119.9184         estimate D2E/DX2                !
 ! A62   A(16,17,18)           120.2676         estimate D2E/DX2                !
 ! A63   A(16,17,64)           119.8361         estimate D2E/DX2                !
 ! A64   A(18,17,64)           119.8963         estimate D2E/DX2                !
 ! A65   A(17,18,19)           120.5471         estimate D2E/DX2                !
 ! A66   A(17,18,65)           118.0053         estimate D2E/DX2                !
 ! A67   A(19,18,65)           121.4476         estimate D2E/DX2                !
 ! A68   A(14,19,18)           118.7403         estimate D2E/DX2                !
 ! A69   A(14,19,20)           119.4318         estimate D2E/DX2                !
 ! A70   A(18,19,20)           121.8277         estimate D2E/DX2                !
 ! A71   A(19,20,21)           120.5747         estimate D2E/DX2                !
 ! A72   A(19,20,44)           119.853          estimate D2E/DX2                !
 ! A73   A(21,20,44)           119.5713         estimate D2E/DX2                !
 ! A74   A(20,21,22)           119.4892         estimate D2E/DX2                !
 ! A75   A(20,21,43)           120.6525         estimate D2E/DX2                !
 ! A76   A(22,21,43)           119.8568         estimate D2E/DX2                !
 ! A77   A(21,22,23)           120.9273         estimate D2E/DX2                !
 ! A78   A(21,22,24)           120.1218         estimate D2E/DX2                !
 ! A79   A(23,22,24)           118.9457         estimate D2E/DX2                !
 ! A80   A(22,23,66)           123.3307         estimate D2E/DX2                !
 ! A81   A(22,24,25)           121.0621         estimate D2E/DX2                !
 ! A82   A(22,24,37)           119.689          estimate D2E/DX2                !
 ! A83   A(25,24,37)           119.2488         estimate D2E/DX2                !
 ! A84   A(24,25,26)           120.5037         estimate D2E/DX2                !
 ! A85   A(24,25,36)           120.269          estimate D2E/DX2                !
 ! A86   A(26,25,36)           119.2149         estimate D2E/DX2                !
 ! A87   A(25,26,27)           120.3287         estimate D2E/DX2                !
 ! A88   A(25,26,67)           120.5574         estimate D2E/DX2                !
 ! A89   A(27,26,67)           119.1078         estimate D2E/DX2                !
 ! A90   A(26,27,28)           120.1608         estimate D2E/DX2                !
 ! A91   A(26,27,68)           119.9115         estimate D2E/DX2                !
 ! A92   A(28,27,68)           119.9267         estimate D2E/DX2                !
 ! A93   A(27,28,29)           120.4932         estimate D2E/DX2                !
 ! A94   A(27,28,69)           119.5881         estimate D2E/DX2                !
 ! A95   A(29,28,69)           119.9183         estimate D2E/DX2                !
 ! A96   A(28,29,30)           118.2581         estimate D2E/DX2                !
 ! A97   A(28,29,36)           119.2682         estimate D2E/DX2                !
 ! A98   A(30,29,36)           122.4738         estimate D2E/DX2                !
 ! A99   A(29,30,31)           124.5531         estimate D2E/DX2                !
 ! A100  A(30,31,32)           110.6902         estimate D2E/DX2                !
 ! A101  A(30,31,70)           109.1977         estimate D2E/DX2                !
 ! A102  A(30,31,71)           109.1867         estimate D2E/DX2                !
 ! A103  A(32,31,70)           109.6065         estimate D2E/DX2                !
 ! A104  A(32,31,71)           109.6584         estimate D2E/DX2                !
 ! A105  A(70,31,71)           108.4634         estimate D2E/DX2                !
 ! A106  A(31,32,33)           109.0755         estimate D2E/DX2                !
 ! A107  A(31,32,34)           110.015          estimate D2E/DX2                !
 ! A108  A(31,32,35)           109.9722         estimate D2E/DX2                !
 ! A109  A(33,32,34)           109.1087         estimate D2E/DX2                !
 ! A110  A(33,32,35)           109.123          estimate D2E/DX2                !
 ! A111  A(34,32,35)           109.525          estimate D2E/DX2                !
 ! A112  A(32,33,72)           110.6528         estimate D2E/DX2                !
 ! A113  A(32,33,73)           110.6602         estimate D2E/DX2                !
 ! A114  A(32,33,74)           110.6963         estimate D2E/DX2                !
 ! A115  A(72,33,73)           108.2451         estimate D2E/DX2                !
 ! A116  A(72,33,74)           108.2501         estimate D2E/DX2                !
 ! A117  A(73,33,74)           108.2444         estimate D2E/DX2                !
 ! A118  A(32,34,75)           110.9161         estimate D2E/DX2                !
 ! A119  A(32,34,76)           110.5875         estimate D2E/DX2                !
 ! A120  A(32,34,77)           110.6094         estimate D2E/DX2                !
 ! A121  A(75,34,76)           108.043          estimate D2E/DX2                !
 ! A122  A(75,34,77)           108.3167         estimate D2E/DX2                !
 ! A123  A(76,34,77)           108.2716         estimate D2E/DX2                !
 ! A124  A(32,35,78)           110.8697         estimate D2E/DX2                !
 ! A125  A(32,35,79)           110.6111         estimate D2E/DX2                !
 ! A126  A(32,35,80)           110.6298         estimate D2E/DX2                !
 ! A127  A(78,35,79)           108.3325         estimate D2E/DX2                !
 ! A128  A(78,35,80)           108.029          estimate D2E/DX2                !
 ! A129  A(79,35,80)           108.2722         estimate D2E/DX2                !
 ! A130  A(25,36,29)           120.5303         estimate D2E/DX2                !
 ! A131  A(25,36,81)           119.1467         estimate D2E/DX2                !
 ! A132  A(29,36,81)           120.3202         estimate D2E/DX2                !
 ! A133  A(24,37,38)           120.8634         estimate D2E/DX2                !
 ! A134  A(24,37,82)           119.4965         estimate D2E/DX2                !
 ! A135  A(38,37,82)           119.6328         estimate D2E/DX2                !
 ! A136  A(37,38,39)           119.9503         estimate D2E/DX2                !
 ! A137  A(37,38,43)           120.0355         estimate D2E/DX2                !
 ! A138  A(39,38,43)           120.0135         estimate D2E/DX2                !
 ! A139  A(38,39,40)           120.3174         estimate D2E/DX2                !
 ! A140  A(38,39,83)           120.6838         estimate D2E/DX2                !
 ! A141  A(40,39,83)           118.9988         estimate D2E/DX2                !
 ! A142  A(39,40,41)           120.1141         estimate D2E/DX2                !
 ! A143  A(39,40,84)           119.9621         estimate D2E/DX2                !
 ! A144  A(41,40,84)           119.9237         estimate D2E/DX2                !
 ! A145  A(40,41,42)           120.2576         estimate D2E/DX2                !
 ! A146  A(40,41,85)           119.8421         estimate D2E/DX2                !
 ! A147  A(42,41,85)           119.9002         estimate D2E/DX2                !
 ! A148  A(41,42,43)           120.5579         estimate D2E/DX2                !
 ! A149  A(41,42,86)           118.0156         estimate D2E/DX2                !
 ! A150  A(43,42,86)           121.4265         estimate D2E/DX2                !
 ! A151  A(21,43,38)           119.4216         estimate D2E/DX2                !
 ! A152  A(21,43,42)           121.8391         estimate D2E/DX2                !
 ! A153  A(38,43,42)           118.7392         estimate D2E/DX2                !
 ! A154  A(12,44,20)           120.1103         estimate D2E/DX2                !
 ! A155  A(12,44,45)           118.9286         estimate D2E/DX2                !
 ! A156  A(20,44,45)           120.9547         estimate D2E/DX2                !
 ! A157  A(44,45,87)           123.2905         estimate D2E/DX2                !
 ! A158  A(7,46,11)            120.5155         estimate D2E/DX2                !
 ! A159  A(7,46,88)            120.3565         estimate D2E/DX2                !
 ! A160  A(11,46,88)           119.1257         estimate D2E/DX2                !
 ! D1    D(47,1,2,3)           -58.6458         estimate D2E/DX2                !
 ! D2    D(47,1,2,4)            60.7159         estimate D2E/DX2                !
 ! D3    D(47,1,2,5)          -178.2658         estimate D2E/DX2                !
 ! D4    D(48,1,2,3)          -178.4802         estimate D2E/DX2                !
 ! D5    D(48,1,2,4)           -59.1185         estimate D2E/DX2                !
 ! D6    D(48,1,2,5)            61.8999         estimate D2E/DX2                !
 ! D7    D(49,1,2,3)            61.3429         estimate D2E/DX2                !
 ! D8    D(49,1,2,4)          -179.2954         estimate D2E/DX2                !
 ! D9    D(49,1,2,5)           -58.277          estimate D2E/DX2                !
 ! D10   D(1,2,3,50)           -60.1296         estimate D2E/DX2                !
 ! D11   D(1,2,3,51)           179.8497         estimate D2E/DX2                !
 ! D12   D(1,2,3,52)            59.8587         estimate D2E/DX2                !
 ! D13   D(4,2,3,50)          -179.7452         estimate D2E/DX2                !
 ! D14   D(4,2,3,51)            60.2341         estimate D2E/DX2                !
 ! D15   D(4,2,3,52)           -59.7568         estimate D2E/DX2                !
 ! D16   D(5,2,3,50)            60.0778         estimate D2E/DX2                !
 ! D17   D(5,2,3,51)           -59.9429         estimate D2E/DX2                !
 ! D18   D(5,2,3,52)          -179.9338         estimate D2E/DX2                !
 ! D19   D(1,2,4,53)            59.1344         estimate D2E/DX2                !
 ! D20   D(1,2,4,54)           179.3431         estimate D2E/DX2                !
 ! D21   D(1,2,4,55)           -60.6845         estimate D2E/DX2                !
 ! D22   D(3,2,4,53)           178.4961         estimate D2E/DX2                !
 ! D23   D(3,2,4,54)           -61.2952         estimate D2E/DX2                !
 ! D24   D(3,2,4,55)            58.6772         estimate D2E/DX2                !
 ! D25   D(5,2,4,53)           -61.8991         estimate D2E/DX2                !
 ! D26   D(5,2,4,54)            58.3096         estimate D2E/DX2                !
 ! D27   D(5,2,4,55)           178.282          estimate D2E/DX2                !
 ! D28   D(1,2,5,6)            -59.9428         estimate D2E/DX2                !
 ! D29   D(1,2,5,56)           179.4617         estimate D2E/DX2                !
 ! D30   D(1,2,5,57)            60.5508         estimate D2E/DX2                !
 ! D31   D(3,2,5,6)           -179.5855         estimate D2E/DX2                !
 ! D32   D(3,2,5,56)            59.8191         estimate D2E/DX2                !
 ! D33   D(3,2,5,57)           -59.0919         estimate D2E/DX2                !
 ! D34   D(4,2,5,6)             60.787          estimate D2E/DX2                !
 ! D35   D(4,2,5,56)           -59.8084         estimate D2E/DX2                !
 ! D36   D(4,2,5,57)          -178.7193         estimate D2E/DX2                !
 ! D37   D(2,5,6,7)           -179.6317         estimate D2E/DX2                !
 ! D38   D(56,5,6,7)           -58.8168         estimate D2E/DX2                !
 ! D39   D(57,5,6,7)            59.5618         estimate D2E/DX2                !
 ! D40   D(5,6,7,8)           -179.6113         estimate D2E/DX2                !
 ! D41   D(5,6,7,46)             0.4572         estimate D2E/DX2                !
 ! D42   D(6,7,8,9)           -179.7971         estimate D2E/DX2                !
 ! D43   D(6,7,8,58)            -0.0228         estimate D2E/DX2                !
 ! D44   D(46,7,8,9)             0.1367         estimate D2E/DX2                !
 ! D45   D(46,7,8,58)          179.911          estimate D2E/DX2                !
 ! D46   D(6,7,46,11)         -179.9352         estimate D2E/DX2                !
 ! D47   D(6,7,46,88)           -0.4917         estimate D2E/DX2                !
 ! D48   D(8,7,46,11)            0.134          estimate D2E/DX2                !
 ! D49   D(8,7,46,88)          179.5774         estimate D2E/DX2                !
 ! D50   D(7,8,9,10)            -0.0864         estimate D2E/DX2                !
 ! D51   D(7,8,9,59)           179.5614         estimate D2E/DX2                !
 ! D52   D(58,8,9,10)         -179.8615         estimate D2E/DX2                !
 ! D53   D(58,8,9,59)           -0.2137         estimate D2E/DX2                !
 ! D54   D(8,9,10,11)           -0.2361         estimate D2E/DX2                !
 ! D55   D(8,9,10,60)          178.7434         estimate D2E/DX2                !
 ! D56   D(59,9,10,11)        -179.8838         estimate D2E/DX2                !
 ! D57   D(59,9,10,60)          -0.9043         estimate D2E/DX2                !
 ! D58   D(9,10,11,12)         179.1286         estimate D2E/DX2                !
 ! D59   D(9,10,11,46)           0.5005         estimate D2E/DX2                !
 ! D60   D(60,10,11,12)          0.163          estimate D2E/DX2                !
 ! D61   D(60,10,11,46)       -178.4651         estimate D2E/DX2                !
 ! D62   D(10,11,12,13)       -127.9474         estimate D2E/DX2                !
 ! D63   D(10,11,12,44)         52.1651         estimate D2E/DX2                !
 ! D64   D(46,11,12,13)         50.6669         estimate D2E/DX2                !
 ! D65   D(46,11,12,44)       -129.2206         estimate D2E/DX2                !
 ! D66   D(10,11,46,7)          -0.4498         estimate D2E/DX2                !
 ! D67   D(10,11,46,88)       -179.9001         estimate D2E/DX2                !
 ! D68   D(12,11,46,7)        -179.0812         estimate D2E/DX2                !
 ! D69   D(12,11,46,88)          1.4685         estimate D2E/DX2                !
 ! D70   D(11,12,13,14)        179.2688         estimate D2E/DX2                !
 ! D71   D(11,12,13,61)          0.2453         estimate D2E/DX2                !
 ! D72   D(44,12,13,14)         -0.8422         estimate D2E/DX2                !
 ! D73   D(44,12,13,61)       -179.8656         estimate D2E/DX2                !
 ! D74   D(11,12,44,20)       -178.979          estimate D2E/DX2                !
 ! D75   D(11,12,44,45)          1.9366         estimate D2E/DX2                !
 ! D76   D(13,12,44,20)          1.134          estimate D2E/DX2                !
 ! D77   D(13,12,44,45)       -177.9504         estimate D2E/DX2                !
 ! D78   D(12,13,14,15)       -179.6655         estimate D2E/DX2                !
 ! D79   D(12,13,14,19)          0.1141         estimate D2E/DX2                !
 ! D80   D(61,13,14,15)         -0.6437         estimate D2E/DX2                !
 ! D81   D(61,13,14,19)        179.136          estimate D2E/DX2                !
 ! D82   D(13,14,15,16)        179.8303         estimate D2E/DX2                !
 ! D83   D(13,14,15,62)         -0.1419         estimate D2E/DX2                !
 ! D84   D(19,14,15,16)          0.0506         estimate D2E/DX2                !
 ! D85   D(19,14,15,62)       -179.9216         estimate D2E/DX2                !
 ! D86   D(13,14,19,18)       -179.8314         estimate D2E/DX2                !
 ! D87   D(13,14,19,20)          0.3188         estimate D2E/DX2                !
 ! D88   D(15,14,19,18)         -0.0519         estimate D2E/DX2                !
 ! D89   D(15,14,19,20)       -179.9017         estimate D2E/DX2                !
 ! D90   D(14,15,16,17)         -0.0354         estimate D2E/DX2                !
 ! D91   D(14,15,16,63)       -179.9917         estimate D2E/DX2                !
 ! D92   D(62,15,16,17)        179.9372         estimate D2E/DX2                !
 ! D93   D(62,15,16,63)         -0.019          estimate D2E/DX2                !
 ! D94   D(15,16,17,18)          0.0222         estimate D2E/DX2                !
 ! D95   D(15,16,17,64)       -179.9483         estimate D2E/DX2                !
 ! D96   D(63,16,17,18)        179.9785         estimate D2E/DX2                !
 ! D97   D(63,16,17,64)          0.008          estimate D2E/DX2                !
 ! D98   D(16,17,18,19)         -0.0245         estimate D2E/DX2                !
 ! D99   D(16,17,18,65)        179.9573         estimate D2E/DX2                !
 ! D100  D(64,17,18,19)        179.946          estimate D2E/DX2                !
 ! D101  D(64,17,18,65)         -0.0722         estimate D2E/DX2                !
 ! D102  D(17,18,19,14)          0.0391         estimate D2E/DX2                !
 ! D103  D(17,18,19,20)        179.8851         estimate D2E/DX2                !
 ! D104  D(65,18,19,14)       -179.9421         estimate D2E/DX2                !
 ! D105  D(65,18,19,20)         -0.0961         estimate D2E/DX2                !
 ! D106  D(14,19,20,21)        179.6021         estimate D2E/DX2                !
 ! D107  D(14,19,20,44)         -0.0229         estimate D2E/DX2                !
 ! D108  D(18,19,20,21)         -0.2429         estimate D2E/DX2                !
 ! D109  D(18,19,20,44)       -179.8679         estimate D2E/DX2                !
 ! D110  D(19,20,21,22)         89.1698         estimate D2E/DX2                !
 ! D111  D(19,20,21,43)        -90.3832         estimate D2E/DX2                !
 ! D112  D(44,20,21,22)        -91.2042         estimate D2E/DX2                !
 ! D113  D(44,20,21,43)         89.2429         estimate D2E/DX2                !
 ! D114  D(19,20,44,12)         -0.7037         estimate D2E/DX2                !
 ! D115  D(19,20,44,45)        178.3619         estimate D2E/DX2                !
 ! D116  D(21,20,44,12)        179.6675         estimate D2E/DX2                !
 ! D117  D(21,20,44,45)         -1.2669         estimate D2E/DX2                !
 ! D118  D(20,21,22,23)          2.2684         estimate D2E/DX2                !
 ! D119  D(20,21,22,24)       -178.5731         estimate D2E/DX2                !
 ! D120  D(43,21,22,23)       -178.175          estimate D2E/DX2                !
 ! D121  D(43,21,22,24)          0.9835         estimate D2E/DX2                !
 ! D122  D(20,21,43,38)        179.4342         estimate D2E/DX2                !
 ! D123  D(20,21,43,42)         -0.5804         estimate D2E/DX2                !
 ! D124  D(22,21,43,38)         -0.1171         estimate D2E/DX2                !
 ! D125  D(22,21,43,42)        179.8682         estimate D2E/DX2                !
 ! D126  D(21,22,23,66)         -0.439          estimate D2E/DX2                !
 ! D127  D(24,22,23,66)       -179.6072         estimate D2E/DX2                !
 ! D128  D(21,22,24,25)        178.7339         estimate D2E/DX2                !
 ! D129  D(21,22,24,37)         -1.3245         estimate D2E/DX2                !
 ! D130  D(23,22,24,25)         -2.091          estimate D2E/DX2                !
 ! D131  D(23,22,24,37)        177.8506         estimate D2E/DX2                !
 ! D132  D(22,24,25,26)        -51.2652         estimate D2E/DX2                !
 ! D133  D(22,24,25,36)        130.0233         estimate D2E/DX2                !
 ! D134  D(37,24,25,26)        128.7929         estimate D2E/DX2                !
 ! D135  D(37,24,25,36)        -49.9186         estimate D2E/DX2                !
 ! D136  D(22,24,37,38)          0.8028         estimate D2E/DX2                !
 ! D137  D(22,24,37,82)        179.8129         estimate D2E/DX2                !
 ! D138  D(25,24,37,38)       -179.2545         estimate D2E/DX2                !
 ! D139  D(25,24,37,82)         -0.2444         estimate D2E/DX2                !
 ! D140  D(24,25,26,27)       -179.4698         estimate D2E/DX2                !
 ! D141  D(24,25,26,67)         -0.3743         estimate D2E/DX2                !
 ! D142  D(36,25,26,27)         -0.7448         estimate D2E/DX2                !
 ! D143  D(36,25,26,67)        178.3507         estimate D2E/DX2                !
 ! D144  D(24,25,36,29)        179.2823         estimate D2E/DX2                !
 ! D145  D(24,25,36,81)         -1.3253         estimate D2E/DX2                !
 ! D146  D(26,25,36,29)          0.5543         estimate D2E/DX2                !
 ! D147  D(26,25,36,81)        179.9467         estimate D2E/DX2                !
 ! D148  D(25,26,27,28)          0.4199         estimate D2E/DX2                !
 ! D149  D(25,26,27,68)       -179.9371         estimate D2E/DX2                !
 ! D150  D(67,26,27,28)       -178.6886         estimate D2E/DX2                !
 ! D151  D(67,26,27,68)          0.9544         estimate D2E/DX2                !
 ! D152  D(26,27,28,29)          0.1069         estimate D2E/DX2                !
 ! D153  D(26,27,28,69)        179.8626         estimate D2E/DX2                !
 ! D154  D(68,27,28,29)       -179.536          estimate D2E/DX2                !
 ! D155  D(68,27,28,69)          0.2196         estimate D2E/DX2                !
 ! D156  D(27,28,29,30)        179.6755         estimate D2E/DX2                !
 ! D157  D(27,28,29,36)         -0.2955         estimate D2E/DX2                !
 ! D158  D(69,28,29,30)         -0.0793         estimate D2E/DX2                !
 ! D159  D(69,28,29,36)        179.9497         estimate D2E/DX2                !
 ! D160  D(28,29,30,31)       -179.1997         estimate D2E/DX2                !
 ! D161  D(36,29,30,31)          0.7704         estimate D2E/DX2                !
 ! D162  D(28,29,36,25)         -0.0386         estimate D2E/DX2                !
 ! D163  D(28,29,36,81)       -179.4239         estimate D2E/DX2                !
 ! D164  D(30,29,36,25)        179.9917         estimate D2E/DX2                !
 ! D165  D(30,29,36,81)          0.6064         estimate D2E/DX2                !
 ! D166  D(29,30,31,32)        179.8124         estimate D2E/DX2                !
 ! D167  D(29,30,31,70)        -59.436          estimate D2E/DX2                !
 ! D168  D(29,30,31,71)         59.0036         estimate D2E/DX2                !
 ! D169  D(30,31,32,33)       -179.9717         estimate D2E/DX2                !
 ! D170  D(30,31,32,34)        -60.3275         estimate D2E/DX2                !
 ! D171  D(30,31,32,35)         60.3926         estimate D2E/DX2                !
 ! D172  D(70,31,32,33)         59.52           estimate D2E/DX2                !
 ! D173  D(70,31,32,34)        179.1641         estimate D2E/DX2                !
 ! D174  D(70,31,32,35)        -60.1158         estimate D2E/DX2                !
 ! D175  D(71,31,32,33)        -59.4433         estimate D2E/DX2                !
 ! D176  D(71,31,32,34)         60.2008         estimate D2E/DX2                !
 ! D177  D(71,31,32,35)       -179.0791         estimate D2E/DX2                !
 ! D178  D(31,32,33,72)        -60.1127         estimate D2E/DX2                !
 ! D179  D(31,32,33,73)         59.8682         estimate D2E/DX2                !
 ! D180  D(31,32,33,74)        179.8766         estimate D2E/DX2                !
 ! D181  D(34,32,33,72)        179.6836         estimate D2E/DX2                !
 ! D182  D(34,32,33,73)        -60.3355         estimate D2E/DX2                !
 ! D183  D(34,32,33,74)         59.6729         estimate D2E/DX2                !
 ! D184  D(35,32,33,72)         60.0474         estimate D2E/DX2                !
 ! D185  D(35,32,33,73)       -179.9717         estimate D2E/DX2                !
 ! D186  D(35,32,33,74)        -59.9633         estimate D2E/DX2                !
 ! D187  D(31,32,34,75)         61.733          estimate D2E/DX2                !
 ! D188  D(31,32,34,76)       -178.4151         estimate D2E/DX2                !
 ! D189  D(31,32,34,77)        -58.4768         estimate D2E/DX2                !
 ! D190  D(33,32,34,75)       -178.643          estimate D2E/DX2                !
 ! D191  D(33,32,34,76)        -58.7912         estimate D2E/DX2                !
 ! D192  D(33,32,34,77)         61.1472         estimate D2E/DX2                !
 ! D193  D(35,32,34,75)        -59.2558         estimate D2E/DX2                !
 ! D194  D(35,32,34,76)         60.596          estimate D2E/DX2                !
 ! D195  D(35,32,34,77)       -179.4656         estimate D2E/DX2                !
 ! D196  D(31,32,35,78)        -61.8728         estimate D2E/DX2                !
 ! D197  D(31,32,35,79)         58.3276         estimate D2E/DX2                !
 ! D198  D(31,32,35,80)        178.2954         estimate D2E/DX2                !
 ! D199  D(33,32,35,78)        178.5204         estimate D2E/DX2                !
 ! D200  D(33,32,35,79)        -61.2792         estimate D2E/DX2                !
 ! D201  D(33,32,35,80)         58.6886         estimate D2E/DX2                !
 ! D202  D(34,32,35,78)         59.142          estimate D2E/DX2                !
 ! D203  D(34,32,35,79)        179.3424         estimate D2E/DX2                !
 ! D204  D(34,32,35,80)        -60.6898         estimate D2E/DX2                !
 ! D205  D(24,37,38,39)        179.7528         estimate D2E/DX2                !
 ! D206  D(24,37,38,43)          0.0643         estimate D2E/DX2                !
 ! D207  D(82,37,38,39)          0.744          estimate D2E/DX2                !
 ! D208  D(82,37,38,43)       -178.9444         estimate D2E/DX2                !
 ! D209  D(37,38,39,40)       -179.7414         estimate D2E/DX2                !
 ! D210  D(37,38,39,83)          0.2503         estimate D2E/DX2                !
 ! D211  D(43,38,39,40)         -0.0528         estimate D2E/DX2                !
 ! D212  D(43,38,39,83)        179.9389         estimate D2E/DX2                !
 ! D213  D(37,38,43,21)         -0.4062         estimate D2E/DX2                !
 ! D214  D(37,38,43,42)        179.608          estimate D2E/DX2                !
 ! D215  D(39,38,43,21)        179.9055         estimate D2E/DX2                !
 ! D216  D(39,38,43,42)         -0.0803         estimate D2E/DX2                !
 ! D217  D(38,39,40,41)          0.1269         estimate D2E/DX2                !
 ! D218  D(38,39,40,84)       -179.9514         estimate D2E/DX2                !
 ! D219  D(83,39,40,41)       -179.8649         estimate D2E/DX2                !
 ! D220  D(83,39,40,84)          0.0568         estimate D2E/DX2                !
 ! D221  D(39,40,41,42)         -0.0656         estimate D2E/DX2                !
 ! D222  D(39,40,41,85)        179.9367         estimate D2E/DX2                !
 ! D223  D(84,40,41,42)       -179.9873         estimate D2E/DX2                !
 ! D224  D(84,40,41,85)          0.015          estimate D2E/DX2                !
 ! D225  D(40,41,42,43)         -0.0701         estimate D2E/DX2                !
 ! D226  D(40,41,42,86)        179.9824         estimate D2E/DX2                !
 ! D227  D(85,41,42,43)        179.9276         estimate D2E/DX2                !
 ! D228  D(85,41,42,86)         -0.0199         estimate D2E/DX2                !
 ! D229  D(41,42,43,21)       -179.8437         estimate D2E/DX2                !
 ! D230  D(41,42,43,38)          0.1418         estimate D2E/DX2                !
 ! D231  D(86,42,43,21)          0.1019         estimate D2E/DX2                !
 ! D232  D(86,42,43,38)       -179.9126         estimate D2E/DX2                !
 ! D233  D(12,44,45,87)        179.7252         estimate D2E/DX2                !
 ! D234  D(20,44,45,87)          0.6488         estimate D2E/DX2                !
 --------------------------------------------------------------------------------
 Trust Radius=3.00D-01 FncErr=1.00D-07 GrdErr=1.00D-06 EigMax=2.50D+02 EigMin=1.00D-04
 Number of steps in this run=    497 maximum allowed number of steps=    528.
 GradGradGradGradGradGradGradGradGradGradGradGradGradGradGradGradGradGrad

 Leave Link  103 at Thu Jan 23 20:56:41 2025, MaxMem= 13421772800 cpu:               0.9 elap:               0.0
 (Enter /public/software/apps/Gaussian/g16/l202.exe)
 Symmetry turned off by external request.
 Stoichiometry    C42H42O4
 Framework group  C1[X(C42H42O4)]
 Deg. of freedom   258
 Full point group                 C1      NOp   1
                          Input orientation:                          
 ---------------------------------------------------------------------
 Center     Atomic      Atomic             Coordinates (Angstroms)
 Number     Number       Type             X           Y           Z
 ---------------------------------------------------------------------
      1          6           0       -9.144200    2.413700   -1.429300
      2          6           0       -9.130100    1.061100   -0.689500
      3          6           0       -9.803400    1.231500    0.686100
      4          6           0       -9.914500    0.017300   -1.509500
      5          6           0       -7.673500    0.585600   -0.483500
      6          8           0       -7.013500    0.425600   -1.739000
      7          6           0       -5.686500   -0.001400   -1.891700
      8          6           0       -5.168800   -0.104300   -3.187300
      9          6           0       -3.854700   -0.528800   -3.393600
     10          6           0       -3.043100   -0.853500   -2.304600
     11          6           0       -3.540100   -0.751000   -0.994700
     12          6           0       -2.687900   -1.113200    0.163900
     13          6           0       -3.176400   -2.017300    1.116500
     14          6           0       -2.395600   -2.394200    2.214200
     15          6           0       -2.901200   -3.307200    3.154000
     16          6           0       -2.127200   -3.690900    4.249800
     17          6           0       -0.844900   -3.169600    4.417700
     18          6           0       -0.327600   -2.260900    3.491800
     19          6           0       -1.093800   -1.858900    2.375400
     20          6           0       -0.596900   -0.937100    1.420900
     21          6           0        0.761000   -0.353400    1.569800
     22          6           0        1.871400   -1.019800    1.001400
     23          8           0        1.703000   -2.195500    0.261200
     24          6           0        3.168900   -0.493900    1.160200
     25          6           0        4.351500   -1.190400    0.596600
     26          6           0        4.567300   -2.554000    0.857200
     27          6           0        5.687200   -3.203100    0.334100
     28          6           0        6.606300   -2.498000   -0.445600
     29          6           0        6.417400   -1.137000   -0.708900
     30          8           0        7.373100   -0.473300   -1.491600
     31          6           0        7.322500    0.913200   -1.828500
     32          6           0        8.537400    1.308500   -2.698400
     33          6           0        8.446100    2.808900   -3.039100
     34          6           0        9.846800    1.044600   -1.927500
     35          6           0        8.536200    0.492500   -4.006600
     36          6           0        5.284700   -0.484600   -0.183600
     37          6           0        3.350400    0.706700    1.859900
     38          6           0        2.261100    1.383400    2.418500
     39          6           0        2.465600    2.582500    3.120300
     40          6           0        1.385200    3.261000    3.685200
     41          6           0        0.094000    2.749700    3.558000
     42          6           0       -0.125700    1.557700    2.864200
     43          6           0        0.953200    0.856300    2.282200
     44          6           0       -1.401200   -0.561400    0.320000
     45          8           0       -0.946900    0.372700   -0.617800
     46          6           0       -4.866100   -0.328300   -0.794100
     47          1           0      -10.186100    2.779700   -1.554900
     48          1           0       -8.689100    2.318100   -2.438300
     49          1           0       -8.572100    3.177100   -0.859000
     50          1           0       -9.260000    1.983500    1.298100
     51          1           0       -9.809900    0.269100    1.241900
     52          1           0      -10.854900    1.572400    0.570000
     53          1           0       -9.468900   -0.109100   -2.519600
     54          1           0       -9.905800   -0.969300   -0.997500
     55          1           0      -10.972200    0.334500   -1.637500
     56          1           0       -7.670500   -0.385800    0.059300
     57          1           0       -7.118800    1.331300    0.128200
     58          1           0       -5.790500    0.142900   -4.038500
     59          1           0       -3.466400   -0.611700   -4.400400
     60          1           0       -2.033000   -1.200600   -2.484000
     61          1           0       -4.166700   -2.441500    0.991400
     62          1           0       -3.895000   -3.724400    3.040700
     63          1           0       -2.522400   -4.395100    4.970700
     64          1           0       -0.248200   -3.471100    5.269000
     65          1           0        0.671300   -1.878900    3.658200
     66          1           0        0.801900   -2.627300    0.100700
     67          1           0        3.876700   -3.112100    1.477400
     68          1           0        5.846300   -4.254100    0.538300
     69          1           0        7.472600   -3.010000   -0.844700
     70          1           0        6.381500    1.120400   -2.385100
     71          1           0        7.319200    1.516800   -0.893700
     72          1           0        7.512200    3.027200   -3.601400
     73          1           0        8.445600    3.422300   -2.112000
     74          1           0        9.310200    3.123200   -3.663900
     75          1           0        9.955100   -0.034900   -1.687400
     76          1           0       10.726000    1.352300   -2.533700
     77          1           0        9.862400    1.617400   -0.975400
     78          1           0        8.628000   -0.594500   -3.795200
     79          1           0        7.593900    0.660400   -4.571600
     80          1           0        9.388700    0.790100   -4.654500
     81          1           0        5.117000    0.565100   -0.384300
     82          1           0        4.350800    1.107100    1.982900
     83          1           0        3.461400    2.994900    3.232000
     84          1           0        1.549300    4.185100    4.224200
     85          1           0       -0.740900    3.279200    3.998900
     86          1           0       -1.142200    1.193800    2.787900
     87          1           0       -0.037100    0.813000   -0.567400
     88          1           0       -5.246300   -0.248500    0.215600
 ---------------------------------------------------------------------
 Rotational constants (GHZ):           0.1046088           0.0258288           0.0239772
 Leave Link  202 at Thu Jan 23 20:56:41 2025, MaxMem= 13421772800 cpu:               1.4 elap:               0.1
 (Enter /public/software/apps/Gaussian/g16/l301.exe)
 Standard basis: def2SVPP (5D, 7F)
 Ernie: Thresh=  0.10000D-02 Tol=  0.10000D-05 Strict=F.
   728 basis functions,  1318 primitive gaussians,   774 cartesian basis functions
   163 alpha electrons      163 beta electrons
       nuclear repulsion energy      5157.2524052652 Hartrees.
 IExCor=  402 DFT=T Ex+Corr=B3LYP ExCW=0 ScaHFX=  0.200000
 ScaDFX=  0.800000  0.720000  1.000000  0.810000 ScalE2=  1.000000  1.000000
 IRadAn=      5 IRanWt=     -1 IRanGd=            0 ICorTp=0 IEmpDi=141
 NAtoms=   88 NActive=   88 NUniq=   88 SFac= 1.00D+00 NAtFMM=   60 NAOKFM=T Big=T
 Integral buffers will be    131072 words long.
 Raffenetti 2 integral format.
 Two-electron integral symmetry is turned off.
 R6Disp:  Grimme-D3(BJ) Dispersion energy=       -0.2047077468 Hartrees.
 Nuclear repulsion after empirical dispersion term =     5157.0476975184 Hartrees.
 Leave Link  301 at Thu Jan 23 20:56:41 2025, MaxMem= 13421772800 cpu:               1.4 elap:               0.1
 (Enter /public/software/apps/Gaussian/g16/l302.exe)
 NPDir=0 NMtPBC=     1 NCelOv=     1 NCel=       1 NClECP=     1 NCelD=      1
         NCelK=      1 NCelE2=     1 NClLst=     1 CellRange=     0.0.
 One-electron integrals computed using PRISM.
   1 Symmetry operations used in ECPInt.
 ECPInt:  NShTT=   64980 NPrTT=  260284 LenC2=   43923 LenP2D=  105875.
 LDataN:  DoStor=T MaxTD1= 4 Len=   56
 NBasis=   728 RedAO= T EigKep=  1.66D-04  NBF=   728
 NBsUse=   728 1.00D-06 EigRej= -1.00D+00 NBFU=   728
 Precomputing XC quadrature grid using
 IXCGrd= 4 IRadAn=           5 IRanWt=          -1 IRanGd=           0 AccXCQ= 0.00D+00.
 Generated NRdTot=       0 NPtTot=           0 NUsed=           0 NTot=          32
 NSgBfM=   724   722   723   723   724 MxSgAt=    88 MxSgA2=    88.
 Leave Link  302 at Thu Jan 23 20:56:43 2025, MaxMem= 13421772800 cpu:              50.9 elap:               1.7
 (Enter /public/software/apps/Gaussian/g16/l303.exe)
 DipDrv:  MaxL=1.
 Leave Link  303 at Thu Jan 23 20:56:43 2025, MaxMem= 13421772800 cpu:               6.7 elap:               0.2
 (Enter /public/software/apps/Gaussian/g16/l401.exe)
 ExpMin= 1.22D-01 ExpMax= 2.27D+03 ExpMxC= 3.41D+02 IAcc=3 IRadAn=         5 AccDes= 0.00D+00
 Harris functional with IExCor=  402 and IRadAn=       5 diagonalized for initial guess.
 HarFok:  IExCor=  402 AccDes= 0.00D+00 IRadAn=         5 IDoV= 1 UseB2=F ITyADJ=14
 ICtDFT=  3500011 ScaDFX=  1.000000  1.000000  1.000000  1.000000
 FoFCou: FMM=F IPFlag=           0 FMFlag=      100000 FMFlg1=        2001
         NFxFlg=           0 DoJE=T BraDBF=F KetDBF=T FulRan=T
         wScrn=  0.000000 ICntrl=       500 IOpCl=  0 I1Cent=   200000004 NGrid=           0
         NMat0=    1 NMatS0=      1 NMatT0=    0 NMatD0=    1 NMtDS0=    0 NMtDT0=    0
 Symmetry not used in FoFCou.
 Harris En= -1925.36556550880    
 JPrj=0 DoOrth=F DoCkMO=F.
 Leave Link  401 at Thu Jan 23 20:56:46 2025, MaxMem= 13421772800 cpu:             103.1 elap:               3.4
 (Enter /public/software/apps/Gaussian/g16/l502.exe)
 Two-electron integral symmetry not used.
 Closed shell SCF:
 Using DIIS extrapolation, IDIIS=  1040.
 NGot= 13421772800 LenX= 13420541092 LenY= 13419941242
 Requested convergence on RMS density matrix=1.00D-08 within 128 cycles.
 Requested convergence on MAX density matrix=1.00D-06.
 Requested convergence on             energy=1.00D-06.
 No special actions if energy rises.
 Fock matrices will be formed incrementally for  20 cycles.
 Integral accuracy reduced to 1.0D-05 until final iterations.

 Cycle   1  Pass 0  IDiag  1:
 FoFJK:  IHMeth= 1 ICntrl=       0 DoSepK=F KAlg= 0 I1Cent=           0 FoldK=F
 IRaf= 750000000 NMat=       1 IRICut=       1 DoRegI=T DoRafI=F ISym2E= 0 IDoP0=0 IntGTp=1.
 FoFCou: FMM=T IPFlag=           0 FMFlag=      100000 FMFlg1=        2001
         NFxFlg=           0 DoJE=F BraDBF=F KetDBF=F FulRan=T
         wScrn=  0.000000 ICntrl=         0 IOpCl=  0 I1Cent=           0 NGrid=           0
         NMat0=    1 NMatS0=      1 NMatT0=    0 NMatD0=    1 NMtDS0=    0 NMtDT0=    0
 Symmetry not used in FoFCou.
 FMM levels:  10  Number of levels for PrismC:   9
 E= -1924.37250499763    
 DIIS: error= 5.15D-02 at cycle   1 NSaved=   1.
 NSaved= 1 IEnMin= 1 EnMin= -1924.37250499763     IErMin= 1 ErrMin= 5.15D-02
 ErrMax= 5.15D-02  0.00D+00 EMaxC= 1.00D-01 BMatC= 8.94D-01 BMatP= 8.94D-01
 IDIUse=3 WtCom= 4.85D-01 WtEn= 5.15D-01
 Coeff-Com:  0.100D+01
 Coeff-En:   0.100D+01
 Coeff:      0.100D+01
 Gap=     0.172 Goal=   None    Shift=    0.000
 GapD=    0.172 DampG=1.000 DampE=0.500 DampFc=0.5000 IDamp=-1.
 Damping current iteration by 5.00D-01
 RMSDP=4.40D-03 MaxDP=1.92D-01              OVMax= 2.04D-01

 Cycle   2  Pass 0  IDiag  1:
 RMSU=  2.02D-03    CP:  9.43D-01
 E= -1924.82384167642     Delta-E=       -0.451336678789 Rises=F Damp=T
 DIIS: error= 5.61D-03 at cycle   2 NSaved=   2.
 NSaved= 2 IEnMin= 2 EnMin= -1924.82384167642     IErMin= 2 ErrMin= 5.61D-03
 ErrMax= 5.61D-03  0.00D+00 EMaxC= 1.00D-01 BMatC= 4.91D-02 BMatP= 8.94D-01
 IDIUse=3 WtCom= 9.44D-01 WtEn= 5.61D-02
 Coeff-Com:  0.637D-01 0.936D+00
 Coeff-En:   0.978D-01 0.902D+00
 Coeff:      0.656D-01 0.934D+00
 Gap=     0.175 Goal=   None    Shift=    0.000
 RMSDP=1.44D-03 MaxDP=8.47D-02 DE=-4.51D-01 OVMax= 1.49D-01

 Cycle   3  Pass 0  IDiag  1:
 RMSU=  1.34D-03    CP:  9.09D-01  1.08D+00
 E= -1925.33483972568     Delta-E=       -0.510998049262 Rises=F Damp=F
 DIIS: error= 6.47D-03 at cycle   3 NSaved=   3.
 NSaved= 3 IEnMin= 3 EnMin= -1925.33483972568     IErMin= 2 ErrMin= 5.61D-03
 ErrMax= 6.47D-03  0.00D+00 EMaxC= 1.00D-01 BMatC= 4.62D-02 BMatP= 4.91D-02
 IDIUse=3 WtCom= 9.35D-01 WtEn= 6.47D-02
 Coeff-Com: -0.821D-02 0.493D+00 0.516D+00
 Coeff-En:   0.000D+00 0.000D+00 0.100D+01
 Coeff:     -0.768D-02 0.461D+00 0.547D+00
 Gap=     0.162 Goal=   None    Shift=    0.000
 RMSDP=6.48D-04 MaxDP=2.73D-02 DE=-5.11D-01 OVMax= 7.75D-02

 Cycle   4  Pass 0  IDiag  1:
 RMSU=  5.25D-04    CP:  9.10D-01  1.15D+00  7.31D-01
 E= -1925.37150309488     Delta-E=       -0.036663369193 Rises=F Damp=F
 DIIS: error= 3.75D-03 at cycle   4 NSaved=   4.
 NSaved= 4 IEnMin= 4 EnMin= -1925.37150309488     IErMin= 4 ErrMin= 3.75D-03
 ErrMax= 3.75D-03  0.00D+00 EMaxC= 1.00D-01 BMatC= 1.27D-02 BMatP= 4.62D-02
 IDIUse=3 WtCom= 9.63D-01 WtEn= 3.75D-02
 Coeff-Com: -0.112D-01 0.145D+00 0.356D+00 0.510D+00
 Coeff-En:   0.000D+00 0.000D+00 0.259D+00 0.741D+00
 Coeff:     -0.108D-01 0.139D+00 0.353D+00 0.519D+00
 Gap=     0.156 Goal=   None    Shift=    0.000
 RMSDP=3.08D-04 MaxDP=1.55D-02 DE=-3.67D-02 OVMax= 4.44D-02

 Cycle   5  Pass 0  IDiag  1:
 RMSU=  1.63D-04    CP:  9.09D-01  1.13D+00  8.14D-01  5.56D-01
 E= -1925.38505830235     Delta-E=       -0.013555207476 Rises=F Damp=F
 DIIS: error= 1.10D-03 at cycle   5 NSaved=   5.
 NSaved= 5 IEnMin= 5 EnMin= -1925.38505830235     IErMin= 5 ErrMin= 1.10D-03
 ErrMax= 1.10D-03  0.00D+00 EMaxC= 1.00D-01 BMatC= 1.53D-03 BMatP= 1.27D-02
 IDIUse=3 WtCom= 9.89D-01 WtEn= 1.10D-02
 Coeff-Com: -0.602D-02 0.409D-01 0.173D+00 0.336D+00 0.456D+00
 Coeff-En:   0.000D+00 0.000D+00 0.000D+00 0.728D-01 0.927D+00
 Coeff:     -0.596D-02 0.405D-01 0.171D+00 0.333D+00 0.461D+00
 Gap=     0.155 Goal=   None    Shift=    0.000
 RMSDP=9.31D-05 MaxDP=4.08D-03 DE=-1.36D-02 OVMax= 1.59D-02

 Cycle   6  Pass 0  IDiag  1:
 RMSU=  6.44D-05    CP:  9.08D-01  1.14D+00  8.13D-01  6.18D-01  6.48D-01
 E= -1925.38664994832     Delta-E=       -0.001591645965 Rises=F Damp=F
 DIIS: error= 4.20D-04 at cycle   6 NSaved=   6.
 NSaved= 6 IEnMin= 6 EnMin= -1925.38664994832     IErMin= 6 ErrMin= 4.20D-04
 ErrMax= 4.20D-04  0.00D+00 EMaxC= 1.00D-01 BMatC= 1.72D-04 BMatP= 1.53D-03
 IDIUse=3 WtCom= 9.96D-01 WtEn= 4.20D-03
 Coeff-Com: -0.213D-02 0.608D-02 0.589D-01 0.140D+00 0.292D+00 0.505D+00
 Coeff-En:   0.000D+00 0.000D+00 0.000D+00 0.000D+00 0.796D-01 0.920D+00
 Coeff:     -0.212D-02 0.605D-02 0.587D-01 0.139D+00 0.291D+00 0.507D+00
 Gap=     0.155 Goal=   None    Shift=    0.000
 RMSDP=3.38D-05 MaxDP=1.46D-03 DE=-1.59D-03 OVMax= 5.58D-03

 Cycle   7  Pass 0  IDiag  1:
 RMSU=  2.57D-05    CP:  9.08D-01  1.14D+00  8.14D-01  6.16D-01  7.15D-01
                    CP:  7.08D-01
 E= -1925.38685768079     Delta-E=       -0.000207732471 Rises=F Damp=F
 DIIS: error= 1.46D-04 at cycle   7 NSaved=   7.
 NSaved= 7 IEnMin= 7 EnMin= -1925.38685768079     IErMin= 7 ErrMin= 1.46D-04
 ErrMax= 1.46D-04  0.00D+00 EMaxC= 1.00D-01 BMatC= 2.31D-05 BMatP= 1.72D-04
 IDIUse=3 WtCom= 9.99D-01 WtEn= 1.46D-03
 Coeff-Com: -0.698D-03-0.611D-03 0.183D-01 0.518D-01 0.133D+00 0.327D+00
 Coeff-Com:  0.471D+00
 Coeff-En:   0.000D+00 0.000D+00 0.000D+00 0.000D+00 0.000D+00 0.295D-01
 Coeff-En:   0.971D+00
 Coeff:     -0.697D-03-0.610D-03 0.183D-01 0.517D-01 0.133D+00 0.327D+00
 Coeff:      0.472D+00
 Gap=     0.155 Goal=   None    Shift=    0.000
 RMSDP=1.50D-05 MaxDP=1.06D-03 DE=-2.08D-04 OVMax= 1.59D-03

 Cycle   8  Pass 0  IDiag  1:
 RMSU=  1.33D-05    CP:  9.08D-01  1.14D+00  8.14D-01  6.17D-01  6.84D-01
                    CP:  7.55D-01  8.59D-01
 E= -1925.38689738305     Delta-E=       -0.000039702264 Rises=F Damp=F
 DIIS: error= 4.23D-05 at cycle   8 NSaved=   8.
 NSaved= 8 IEnMin= 8 EnMin= -1925.38689738305     IErMin= 8 ErrMin= 4.23D-05
 ErrMax= 4.23D-05  0.00D+00 EMaxC= 1.00D-01 BMatC= 1.79D-06 BMatP= 2.31D-05
 IDIUse=1 WtCom= 1.00D+00 WtEn= 0.00D+00
 Coeff-Com: -0.255D-03-0.794D-03 0.709D-02 0.218D-01 0.613D-01 0.166D+00
 Coeff-Com:  0.289D+00 0.456D+00
 Coeff:     -0.255D-03-0.794D-03 0.709D-02 0.218D-01 0.613D-01 0.166D+00
 Coeff:      0.289D+00 0.456D+00
 Gap=     0.155 Goal=   None    Shift=    0.000
 RMSDP=8.24D-06 MaxDP=3.29D-04 DE=-3.97D-05 OVMax= 3.95D-04

 Initial convergence to 1.0D-05 achieved.  Increase integral accuracy.
 Cycle   9  Pass 1  IDiag  1:
 E= -1925.38649818816     Delta-E=        0.000399194896 Rises=F Damp=F
 DIIS: error= 7.40D-04 at cycle   1 NSaved=   1.
 NSaved= 1 IEnMin= 1 EnMin= -1925.38649818816     IErMin= 1 ErrMin= 7.40D-04
 ErrMax= 7.40D-04  0.00D+00 EMaxC= 1.00D-01 BMatC= 1.03D-04 BMatP= 1.03D-04
 IDIUse=3 WtCom= 9.93D-01 WtEn= 7.40D-03
 Coeff-Com:  0.100D+01
 Coeff-En:   0.100D+01
 Coeff:      0.100D+01
 Gap=     0.155 Goal=   None    Shift=    0.000
 RMSDP=8.24D-06 MaxDP=3.29D-04 DE= 3.99D-04 OVMax= 1.34D-03

 Cycle  10  Pass 1  IDiag  1:
 RMSU=  5.52D-04    CP:  9.97D-01
 E= -1925.38660988726     Delta-E=       -0.000111699103 Rises=F Damp=F
 DIIS: error= 2.87D-05 at cycle   2 NSaved=   2.
 NSaved= 2 IEnMin= 2 EnMin= -1925.38660988726     IErMin= 2 ErrMin= 2.87D-05
 ErrMax= 2.87D-05  0.00D+00 EMaxC= 1.00D-01 BMatC= 9.91D-07 BMatP= 1.03D-04
 IDIUse=1 WtCom= 1.00D+00 WtEn= 0.00D+00
 Coeff-Com:  0.386D-02 0.996D+00
 Coeff:      0.386D-02 0.996D+00
 Gap=     0.155 Goal=   None    Shift=    0.000
 RMSDP=9.59D-06 MaxDP=4.41D-04 DE=-1.12D-04 OVMax= 8.82D-04

 Cycle  11  Pass 1  IDiag  1:
 RMSU=  6.84D-06    CP:  9.97D-01  1.01D+00
 E= -1925.38660498604     Delta-E=        0.000004901223 Rises=F Damp=F
 DIIS: error= 7.35D-05 at cycle   3 NSaved=   3.
 NSaved= 3 IEnMin= 2 EnMin= -1925.38660988726     IErMin= 2 ErrMin= 2.87D-05
 ErrMax= 7.35D-05  0.00D+00 EMaxC= 1.00D-01 BMatC= 5.31D-06 BMatP= 9.91D-07
 IDIUse=1 WtCom= 1.00D+00 WtEn= 0.00D+00
 Coeff-Com: -0.684D-02 0.704D+00 0.303D+00
 Coeff:     -0.684D-02 0.704D+00 0.303D+00
 Gap=     0.155 Goal=   None    Shift=    0.000
 RMSDP=4.60D-06 MaxDP=3.18D-04 DE= 4.90D-06 OVMax= 6.20D-04

 Cycle  12  Pass 1  IDiag  1:
 RMSU=  1.65D-06    CP:  9.97D-01  1.01D+00  3.73D-01
 E= -1925.38661101064     Delta-E=       -0.000006024605 Rises=F Damp=F
 DIIS: error= 3.99D-06 at cycle   4 NSaved=   4.
 NSaved= 4 IEnMin= 4 EnMin= -1925.38661101064     IErMin= 4 ErrMin= 3.99D-06
 ErrMax= 3.99D-06  0.00D+00 EMaxC= 1.00D-01 BMatC= 1.77D-08 BMatP= 9.91D-07
 IDIUse=1 WtCom= 1.00D+00 WtEn= 0.00D+00
 Coeff-Com: -0.409D-02 0.410D+00 0.179D+00 0.415D+00
 Coeff:     -0.409D-02 0.410D+00 0.179D+00 0.415D+00
 Gap=     0.155 Goal=   None    Shift=    0.000
 RMSDP=3.18D-07 MaxDP=1.95D-05 DE=-6.02D-06 OVMax= 4.68D-05

 Cycle  13  Pass 1  IDiag  1:
 RMSU=  2.98D-07    CP:  9.97D-01  1.01D+00  3.84D-01  9.55D-01
 E= -1925.38661102829     Delta-E=       -0.000000017645 Rises=F Damp=F
 DIIS: error= 1.26D-06 at cycle   5 NSaved=   5.
 NSaved= 5 IEnMin= 5 EnMin= -1925.38661102829     IErMin= 5 ErrMin= 1.26D-06
 ErrMax= 1.26D-06  0.00D+00 EMaxC= 1.00D-01 BMatC= 1.53D-09 BMatP= 1.77D-08
 IDIUse=1 WtCom= 1.00D+00 WtEn= 0.00D+00
 Coeff-Com: -0.150D-02 0.148D+00 0.651D-01 0.245D+00 0.543D+00
 Coeff:     -0.150D-02 0.148D+00 0.651D-01 0.245D+00 0.543D+00
 Gap=     0.155 Goal=   None    Shift=    0.000
 RMSDP=1.11D-07 MaxDP=5.50D-06 DE=-1.76D-08 OVMax= 1.94D-05

 Cycle  14  Pass 1  IDiag  1:
[...]
 09463,-0.00018286,-0.00032869,0.00003189,-0.00000116,0.00014960,0.0000
 4203,0.00001845,-0.00000104,-0.00001564,0.00001129,-0.00001612,-0.0000
 0634,0.00004083,-0.00005874,-0.00010337,0.00003453,-0.00013053,0.00096
 212,-0.00011628,-0.00035293,-0.00002587,0.00002762,-0.00001511,0.00001
 673,-0.00002862,-0.00000046,0.00001353,-0.00000969,-0.00000342,0.00000
 533,0.00001448,0.00001911,-0.00000899,0.00000869,-0.00001301,-0.000003
 03,-0.00000362,0.00001202,-0.00000903,-0.00000585,-0.00000095,0.000014
 76,0.00000577,-0.00000846,-0.00001310,0.00000105,0.00000323,0.00001702
 ,0.00000574,-0.00000619,-0.00000680,-0.00000227,0.00000045,-0.00001047
 ,0.00000276,0.00000884,-0.00000366,-0.00000123,0.00000825,0.00001459,0
 .00000449,-0.00001185,-0.00006648,-0.00002819,0.00001926,0.00001637,0.
 00001293,0.00004618,0.00000760,0.00001972,-0.00001463,-0.00004134,0.00
 001504,0.00002060,-0.00002121,0.00006609,0.00002961,-0.00041748,0.0000
 5848,0.00039207,0.38798834,0.00001057,0.00000796,0.00000822,-0.0000189
 6,0.00000636,-0.00000803,0.00001216,-0.00000100,0.00000799,0.00000510,
 -0.00000571,0.00000292,-0.00005083,0.00001943,0.00011742,0.00027325,-0
 .00006389,-0.00010381,-0.00020315,0.00003397,0.00011648,0.00013373,-0.
 00004074,-0.00005027,-0.00008301,0.00002543,-0.00010538,0.00000288,-0.
 00002526,-0.00001537,0.00026841,0.00004196,-0.00010277,-0.00031707,-0.
 00154367,0.00488900,-0.00142151,0.00066292,-0.00034727,0.00032180,0.00
 003905,0.00013582,0.00001126,0.00006750,-0.00009196,0.00019259,0.00004
 448,0.00005532,-0.00023707,-0.00009924,0.00009297,0.00008917,0.0003746
 2,-0.00047291,-0.00058492,-0.00098314,-0.00006681,-0.00034567,0.000163
 01,-0.00131198,-0.00034765,0.00158517,-0.00126833,0.00100562,-0.000638
 75,-0.00079709,0.00004129,0.00040334,-0.00012534,0.00058042,-0.0000411
 7,-0.00008222,0.00003046,-0.00009840,-0.00002982,0.00001655,0.00002794
 ,-0.00001952,0.00001361,-0.00003072,-0.00002896,-0.00001945,-0.0000365
 1,0.00001958,0.00014070,0.00007267,-0.00007657,-0.00012726,-0.00015615
 ,0.00011696,-0.00000987,0.00012382,-0.00004365,0.00001143,0.00000812,-
 0.00000311,-0.00001511,0.00000532,-0.00000068,-0.00000313,-0.00000243,
 0.00000407,-0.00000776,-0.00000222,-0.00000078,-0.00006072,0.00003832,
 0.00000502,-0.00050175,-0.00054139,-0.00005532,-0.00140265,-0.00021529
 ,0.00023149,0.00011283,0.00010149,0.00003067,-0.00005442,-0.00020285,-
 0.00009803,0.00031965,-0.00025668,0.00011841,0.00073251,-0.00094695,-0
 .00023854,0.00005836,0.00221295,0.00158223,-0.03639181,-0.01614410,-0.
 00621151,-0.09164220,-0.05512641,-0.00820166,-0.00008453,0.00005143,0.
 00004737,0.00000554,-0.00000565,-0.00000113,-0.00000407,0.00000742,-0.
 00000009,-0.00000249,-0.00000222,-0.00000838,-0.00000363,0.00000046,-0
 .00000276,-0.00000311,-0.00000491,0.00000195,0.00000651,-0.00000034,-0
 .00000330,-0.00000691,0.00000201,-0.00000589,-0.00000366,-0.00000545,0
 .00000112,0.00000811,0.00000008,-0.00000140,-0.00000078,-0.00000632,-0
 .00001558,-0.00000146,-0.00000175,-0.00002241,0.00002230,0.00000991,0.
 00000751,-0.00000014,-0.00000175,0.00003059,-0.00015330,-0.00003752,-0
 .00019141,0.00002824,-0.00033271,0.00007023,0.00002470,0.00002482,-0.0
 0001036,0.00001587,0.00000676,-0.00001047,-0.00000667,0.00003299,-0.00
 001882,0.00001523,-0.00001179,0.00003574,-0.00002640,-0.00047378,0.000
 39817,0.00002953,-0.00003506,0.00004245,0.00000280,0.00000154,0.000002
 03,-0.00000459,0.00000270,0.00000552,0.00001063,-0.00000507,0.00001096
 ,0.00000254,-0.00001099,-0.00000687,0.00000530,0.00000293,0.00000892,-
 0.00000323,-0.00000152,-0.00000685,0.00000075,-0.00000560,0.00000231,0
 .00000816,-0.00000578,0.00000115,-0.00000386,-0.00000122,0.00000200,0.
 00000137,0.00000186,-0.00000249,0.00000638,-0.00000743,-0.00000300,0.0
 0000311,0.00000378,0.00000009,-0.00000360,-0.00000104,0.00000311,0.000
 00160,0.00000290,-0.00001822,0.00001688,-0.00002900,-0.00007738,-0.000
 00146,0.00000372,-0.00001665,0.00001472,0.00000565,-0.00002645,0.00000
 936,0.00000414,-0.00006469,0.00013513,0.00013944,-0.00018009,0.1293871
 1,0.07180531,0.00000483,0.00000367,0.00000459,-0.00000885,-0.00000191,
 0.00000048,0.00000595,0.00000167,0.00000626,0.00000238,-0.00000190,0.0
 0000043,-0.00002811,0.00000606,0.00006215,0.00008400,-0.00002277,-0.00
 003967,-0.00012259,0.00007213,-0.00020500,-0.00017068,0.00008133,0.000
 10112,0.00013416,-0.00018175,0.00017819,-0.00025255,-0.00020739,-0.000
 67434,-0.00032411,0.00005068,-0.00038969,0.00104167,0.00541249,-0.0024
 1596,0.00068640,0.00009383,0.00134678,-0.00015599,0.00028193,-0.000391
 52,-0.00016310,-0.00029061,0.00022789,-0.00021524,0.00011197,-0.000298
 33,0.00021749,0.00025303,-0.00002675,0.00021639,-0.00017167,0.00021914
 ,0.00002174,-0.00034723,-0.00046933,0.00126209,0.00272456,-0.00270625,
 0.00214635,0.00026186,0.00095148,-0.00191412,0.00308076,0.00223093,-0.
 00077095,-0.00286051,-0.00151549,0.00020325,0.00062551,0.00006495,-0.0
 0020266,0.00016908,0.00010974,0.00014799,-0.00007784,-0.00006268,-0.00
 007402,0.00002067,0.00000252,0.00010721,0.00002803,-0.00007932,-0.0002
 2967,-0.00016341,0.00022221,0.00024806,0.00025310,-0.00024756,0.000044
 91,-0.00019023,0.00013676,-0.00003289,-0.00000620,0.00000313,0.0000328
 0,-0.00000517,0.00000872,0.00000742,0.00000119,-0.00000426,0.00002942,
 -0.00000090,0.00001344,0.00012285,-0.00016540,-0.00013825,0.00061808,-
 0.00004247,-0.00030261,-0.00073689,-0.00059090,0.00006975,-0.00002351,
 0.00023748,0.00007683,0.00018852,0.00001362,-0.00011803,-0.00023665,-0
 .00021848,0.00016201,0.00050294,-0.00043274,-0.00064357,-0.00083361,-0
 .00175288,-0.00184923,0.02916893,0.00727636,0.01005287,-0.13752556,-0.
 02595947,-0.07213996,0.00027466,-0.00006152,0.00004636,0.00000437,-0.0
 0000171,-0.00000008,-0.00000288,0.00000191,-0.00000495,-0.00000304,-0.
 00000110,-0.00000018,-0.00000264,-0.00000273,-0.00000165,-0.00000127,0
 .00000134,0.00000014,0.00000365,-0.00000074,-0.00000182,-0.00000312,0.
 00000008,-0.00000501,-0.00000240,-0.00000017,0.00000062,0.00000439,-0.
 00000091,0.00000014,-0.00000316,-0.00000077,-0.00000446,-0.00000364,-0
 .00000204,-0.00000598,-0.00000671,0.00001176,0.00000939,-0.00002780,-0
 .00002562,-0.00004467,-0.00047607,-0.00000667,0.00012950,0.00020441,0.
 00007871,-0.00030998,-0.00000602,-0.00001472,0.00001582,-0.00001832,-0
 .00000936,-0.00000950,-0.00001068,0.00001656,-0.00000235,-0.00007115,0
 .00002244,-0.00009834,0.00064514,-0.00017350,0.00021743,-0.00003677,0.
 00005957,-0.00000837,0.00002034,-0.00002481,0.00000420,0.00001811,-0.0
 0000534,0.00000042,-0.00002424,0.00002353,-0.00002198,-0.00001960,0.00
 001068,-0.00001913,-0.00001134,0.00000121,-0.00000833,-0.00000268,-0.0
 0000573,-0.00000263,0.00000265,0.00000906,-0.00000658,-0.00001521,0.00
 000818,0.00000157,0.00000861,0.00000533,-0.00000588,-0.00000611,-0.000
 00822,-0.00000499,-0.00000747,0.00000645,0.00000916,-0.00001209,0.0000
 0377,-0.00000796,0.00000440,0.00000092,-0.00001148,-0.00000927,0.00000
 850,0.00007767,0.00007788,-0.00000599,0.00005438,0.00007063,0.00002972
 ,0.00004472,0.00002575,0.00006006,0.00004175,-0.00002905,0.00009507,0.
 00001686,0.00014047,0.00006164,-0.00022101,0.10607744,0.01246161,0.068
 60677,0.00012102,0.00001947,-0.00001183,-0.00038874,0.00006638,-0.0002
 2653,0.00009808,-0.00001419,0.00001542,0.00007012,-0.00003551,-0.00003
 096,-0.00286801,0.00070164,-0.00128568,0.00028589,-0.00127007,0.002191
 35,0.01212969,0.00204659,-0.01782682,-0.00209639,0.00218055,-0.0022446
 0,-0.00093275,0.00022547,-0.00052852,-0.00491839,0.00239505,0.00007700
 ,-0.00652927,-0.00399318,0.02779872,0.00097233,-0.00135746,0.00157650,
 0.00002500,0.00003956,-0.00028022,-0.00006294,0.00022054,-0.00046931,0
 .00003591,-0.00005063,0.00010833,-0.00009089,-0.00001633,-0.00003570,0
 .00006874,0.00004231,-0.00000821,-0.00000006,-0.00002908,0.00006300,0.
 00017245,0.00011731,-0.00007163,0.00005565,-0.00008871,0.00023343,-0.0
 0005244,-0.00000741,-0.00001208,0.00001119,0.00002214,0.00001451,0.000
 05895,-0.00001446,-0.00003044,-0.00002003,-0.00000831,-0.00000259,-0.0
 0000948,0.00001716,0.00000874,0.00000928,-0.00000921,-0.00000180,-0.00
 000855,0.00000421,0.00000154,0.00001005,0.00000652,-0.00000821,-0.0000
 3222,-0.00002034,0.00002539,0.00003408,0.00002927,-0.00002898,-0.00000
 214,-0.00002072,0.00001104,-0.00000407,-0.00000103,0.00000228,0.000002
 89,-0.00000050,-0.00000050,0.00000103,-0.00000016,-0.00000158,0.000002
 78,0.00000015,0.00000075,0.00001194,-0.00001198,-0.00000762,0.00000968
 ,0.00001562,0.00000236,0.00001625,0.00000276,0.00000039,0.00000436,0.0
 0000865,0.00000242,0.00000979,0.00000024,-0.00000316,0.00000719,-0.000
 01132,-0.00000549,-0.00003981,0.00000093,0.00000312,0.00004491,-0.0000
 1831,-0.00001121,-0.00058139,-0.00038533,-0.00002789,0.00022782,0.0002
 2114,-0.00027626,-0.08511741,-0.00576554,0.08710259,0.00003125,-0.0000
 4196,0.00001507,-0.00001523,0.00000568,0.00000136,-0.00000860,0.000009
 72,-0.00000367,-0.00001338,0.00001194,0.00000930,-0.00002164,-0.000014
 70,0.00000713,0.00004062,-0.00000626,-0.00001452,-0.00001679,0.0000062
 8,0.00000427,-0.00001692,-0.00001575,0.00000001,0.00003704,0.00000158,
 0.00002504,-0.00193227,0.00010022,0.00019834,-0.00124875,0.00049158,0.
 00021311,0.00034308,0.00015024,-0.00101297,0.00000378,-0.00015636,0.00
 001159,-0.00025830,-0.00009794,0.00146031,-0.00021842,0.00087594,-0.00
 005183,-0.00000628,0.00000600,-0.00000872,0.00000188,-0.00001178,0.000
 01077,0.00000643,-0.00000362,0.00000830,0.00001149,-0.00000231,0.00001
 343,-0.00006285,0.00003697,0.00004971,-0.00000366,0.00000561,-0.000001
 77,0.00000062,-0.00000229,0.00000092,0.00000246,-0.00000078,-0.0000004
 5,-0.00000112,0.00000285,0.00000007,-0.00000167,0.00000177,-0.00000197
 ,-0.00000096,-0.00000018,0.00000074,-0.00000101,-0.00000088,-0.0000003
 4,0.00000168,0.00000106,-0.00000117,-0.00000214,0.00000064,0.00000049,
 0.00000215,0.00000093,-0.00000105,-0.00000098,-0.00000081,-0.00000030,
 -0.00000145,0.00000065,0.00000141,-0.00000112,0.00000012,0.00000034,0.
 00000179,0.00000060,-0.00000175,-0.00000327,0.00000070,0.00000403,0.00
 000478,0.00000312,0.00000258,0.00000580,0.00000228,0.00000097,0.000004
 08,0.00000556,0.00000262,-0.00000442,-0.00000283,0.00000025,0.00000208
 ,-0.00000879,-0.00000773,-0.00003807,0.00001367,0.00000573,0.09263619,
 0.00005329,0.00000510,0.00003621,0.00002018,-0.00040182,-0.00018415,0.
 00000817,0.00005337,-0.00000919,-0.00014959,0.00009552,0.00001653,0.00
 033590,-0.00026984,0.00037355,-0.00107562,-0.00268362,-0.00131348,-0.0
 0376318,0.00338090,0.00889637,0.00254257,0.00417075,0.00185954,0.00019
 379,-0.00059602,-0.00015660,0.00208590,0.00501805,0.00096631,0.0000412
 1,0.00352190,-0.00495505,-0.00037339,-0.00375189,-0.00017128,0.0018042
 6,-0.00017788,-0.00000205,-0.00047767,-0.00009580,-0.00001787,0.000073
 11,-0.00005819,0.00010110,-0.00007847,-0.00000557,-0.00007734,0.000093
 84,0.00005185,-0.00001069,-0.00003019,-0.00006927,0.00008303,0.0000714
 6,0.00014888,-0.00018129,-0.00011564,-0.00020748,0.00031980,0.00002240
 ,-0.00000977,-0.00003476,-0.00000472,0.00001533,0.00001211,-0.00002800
 ,-0.00003567,-0.00001719,-0.00000023,-0.00000053,0.00000062,-0.0000005
 6,-0.00000445,-0.00000195,0.00000140,0.00000156,-0.00000140,0.00000073
 ,-0.00000104,-0.00000134,-0.00000134,-0.00000312,0.00000111,0.00001068
 ,0.00000608,-0.00000674,-0.00001059,-0.00001180,0.00000895,0.00000060,
 0.00000906,-0.00000267,0.00000100,0.00000071,-0.00000048,-0.00000095,0
 .00000031,0.00000028,-0.00000024,-0.00000004,0.00000054,-0.00000056,-0
 .00000016,-0.00000004,-0.00000433,0.00000162,0.00000116,-0.00000995,-0
 .00000438,-0.00000058,-0.00000583,-0.00001320,-0.00000406,0.00000550,0
 .00000391,0.00000269,-0.00000314,-0.00001498,-0.00000423,0.00000119,0.
 00001141,0.00000979,-0.00001066,-0.00003900,-0.00000588,-0.00002429,0.
 00006387,0.00001894,-0.00056550,0.00036684,-0.00046568,-0.00000767,-0.
 00013271,-0.00002951,-0.00485418,-0.03799679,0.03445354,-0.00001490,-0
 .00002142,-0.00001402,0.00001066,0.00001226,-0.00000448,0.00000701,-0.
 00003041,-0.00002855,0.00001129,-0.00001851,-0.00001925,-0.00000624,-0
 .00001753,0.00000589,-0.00001641,-0.00000452,0.00000355,0.00000149,0.0
 0001045,0.00000490,-0.00000728,-0.00003036,0.00001695,-0.00003778,-0.0
 0004771,-0.00002837,-0.00105731,0.00022341,0.00017127,0.00149280,-0.00
 055827,-0.00048453,-0.00016418,0.00002145,0.00043315,-0.00014013,-0.00
 062509,-0.00012516,0.00020165,0.00065014,-0.00014252,0.00060013,-0.001
 09303,0.00053962,-0.00001489,-0.00002799,0.00002086,-0.00000425,0.0000
 0731,0.00000033,-0.00000677,0.00000354,-0.00000493,-0.00001289,0.00000
 570,-0.00000956,0.00003035,-0.00001339,-0.00000390,0.00000122,-0.00000
 109,0.00000177,0.00000078,-0.00000020,0.00000021,-0.00000022,0.0000003
 7,0.00000043,0.00000045,-0.00000067,0.00000023,0.00000032,-0.00000094,
 -0.00000036,0.00000035,0.00000026,0.00000017,0.00000007,-0.00000005,-0
 .00000052,-0.00000037,-0.00000033,0.00000035,0.00000068,-0.00000039,0.
 00000004,-0.00000058,-0.00000012,0.00000029,0.00000022,0.00000007,-0.0
 0000033,0.00000059,-0.00000058,-0.00000023,0.00000016,0.00000034,-0.00
 000022,-0.00000051,-0.00000012,0.00000038,0.00000053,-0.00000041,-0.00
 000044,-0.00000037,-0.00000105,-0.00000156,0.00000019,-0.00000233,-0.0
 0000093,-0.00000078,-0.00000127,-0.00000176,-0.00000089,-0.00001093,-0
 .00001082,-0.00001553,0.00002604,-0.00000276,-0.00000694,0.00001394,0.
 00000441,0.00337759,0.03119145,0.00023822,0.00003424,-0.00004440,-0.00
 017929,-0.00022154,0.00078100,-0.00008562,0.00001105,0.00008415,0.0001
 7314,-0.00007705,-0.00007768,0.00147059,-0.00015497,-0.00084171,0.0003
 9518,-0.00089500,0.00070925,0.01118366,0.00206021,-0.01644613,-0.00354
 384,0.00214285,-0.00100100,-0.00066498,-0.00013539,0.00049093,0.000891
 96,0.00052562,0.00198229,0.00083896,0.00130207,-0.00353019,-0.00139642
 ,-0.00043580,-0.00003147,-0.00030937,0.00103506,0.00021852,-0.00018970
 ,-0.00024631,0.00008800,0.00002491,0.00004495,0.00003087,0.00002681,0.
 00000495,0.00000219,-0.00000816,-0.00002134,0.00002801,-0.00003337,-0.
 00001310,-0.00002667,-0.00003600,-0.00003198,-0.00002337,-0.00005422,0
 .00006642,-0.00008899,0.00002745,-0.00004549,-0.00000829,-0.00000022,0
 .00000561,0.00000503,-0.00000380,0.00000142,0.00000596,-0.00000090,0.0
 0000114,-0.00000172,-0.00000023,0.00000245,0.00000089,0.00000190,-0.00
 000104,0.00000005,-0.00000127,0.00000111,0.00000068,0.00000127,0.00000
 093,-0.00000033,-0.00000453,-0.00000235,0.00000244,0.00000495,0.000002
 28,-0.00000204,-0.00000286,-0.00000135,-0.00000084,-0.00000047,-0.0000
 0033,0.00000048,-0.00000027,-0.00000002,-0.00000060,0.,-0.00000007,-0.
 00000042,-0.00000034,0.00000022,-0.00000042,0.00000163,-0.00000100,0.0
 0000076,0.00000091,-0.00000124,-0.00000050,-0.00000047,-0.00000346,-0.
 00000038,-0.00000134,-0.00000064,0.00000081,0.00000006,0.00000001,0.00
 000048,0.00000325,-0.00000245,-0.00000131,-0.00000384,-0.00000024,0.00
 000180,-0.00001004,-0.00000383,-0.00000477,0.00020833,0.00013880,0.000
 26690,-0.00001382,-0.00002319,0.00007520,0.08708296,0.03511072,-0.3079
 2234,0.00003404,-0.00008585,0.00002661,-0.00000174,-0.00000656,0.00001
 336,-0.00001702,0.00000649,-0.00000437,-0.00001382,-0.00000911,0.00000
 152,-0.00001459,0.00000559,0.00000861,0.00002925,-0.00000617,-0.000006
 66,-0.00000111,0.00000423,0.00001800,-0.00002299,-0.00000865,0.0000009
 3,0.00005664,0.00003233,0.00005121,-0.00000279,-0.00081470,0.00024636,
 0.00082498,0.00041818,0.00042088,0.00053661,-0.00001649,-0.00085589,0.
 00000038,-0.00013218,-0.00010187,-0.00000532,0.00023218,-0.00015456,-0
 .00068312,0.00005846,-0.00004691,-0.00000370,-0.00000205,0.00001099,0.
 00000203,-0.00000399,0.00000066,-0.00000116,-0.00000002,0.00000057,-0.
 00000149,-0.00000019,-0.00000813,0.00000533,-0.00000319,-0.00000837,-0
 .00000070,0.00000047,-0.00000061,-0.00000005,-0.00000062,-0.00000017,0
 .00000020,-0.00000016,-0.00000045,0.00000081,0.00000019,0.00000075,0.0
 0000001,0.00000033,0.00000010,0.00000033,-0.00000020,0.00000062,-0.000
 00032,-0.00000005,0.00000019,0.00000054,0.00000009,-0.00000036,-0.0000
 0036,-0.00000019,0.00000013,0.00000065,0.00000022,-0.00000034,-0.00000
 017,0.00000013,0.00000030,-0.00000045,0.00000004,0.00000020,0.00000038
 ,-0.00000031,0.00000062,0.00000060,0.00000031,-0.00000033,-0.00000110,
 -0.00000058,-0.00000045,0.00000035,0.00000060,-0.00000041,0.00000053,-
 0.00000006,-0.00000036,0.00000069,0.00000099,0.00000006,-0.00000048,0.
 00000039,0.00000037,0.00000216,-0.00000158,0.00000002,-0.00001402,-0.0
 0001501,-0.00000415,-0.09674075,-0.03982625,0.32567020\\0.00000024,-0.
 00000015,-0.00000019,-0.00000004,0.00000017,0.00000015,0.00000010,0.00
 000013,0.00000003,0.00000034,0.00000017,-0.00000017,-0.00000020,0.0000
 0069,-0.00000125,-0.00000075,-0.00000032,0.00000052,0.00000008,0.00000
 022,-0.00000050,0.00000041,-0.00000003,-0.00000044,0.00000011,-0.00000
 002,0.00000002,0.00000059,0.00000040,-0.00000035,-0.00000092,-0.000001
 22,0.00000011,0.00000139,0.00000141,-0.00000027,0.00000033,-0.00000085
 ,0.00000136,-0.00000129,0.,-0.00000079,0.00000038,0.00000017,0.0000003
 7,-0.00000006,0.00000015,-0.00000010,-0.00000020,0.00000025,0.00000020
 ,-0.00000027,0.00000004,0.00000014,0.00000104,0.00000088,-0.00000028,-
 0.00000020,-0.00000029,-0.00000065,-0.00000018,0.00000141,0.00000100,0
 .00000120,0.00000080,-0.00000131,-0.00000092,0.00000039,0.00000058,-0.
 00000119,-0.00000143,-0.00000019,-0.00000011,-0.00000003,0.00000073,-0
 .00000028,-0.00000025,0.00000031,0.00000040,-0.00000006,-0.00000028,-0
 .00000032,-0.00000119,0.00000101,-0.00000007,0.00000045,0.00000086,-0.
 00000048,0.00000037,-0.00000150,0.00000084,-0.00000125,0.00000108,0.00
 000008,0.00000026,0.00000014,0.00000002,-0.00000015,0.00000011,-0.0000
 0021,-0.00000026,0.00000012,-0.00000007,-0.00000029,0.00000035,0.00000
 054,0.00000016,-0.00000032,-0.00000139,0.00000195,0.00000089,0.0000025
 0,-0.00000051,-0.00000049,-0.00000096,0.00000046,0.00000015,0.00000053
 ,-0.00000009,-0.00000023,-0.00000046,-0.00000039,-0.00000019,-0.000000
 17,0.00000092,0.00000023,-0.00000082,-0.00000254,-0.00000078,-0.000000
 82,-0.00000080,0.00000073,0.00000048,-0.00000012,0.00000019,0.00000018
 ,0.00000020,0.00000023,0.00000006,0.00000007,-0.00000027,0.00000014,0.
 00000020,-0.00000043,0.00000009,0.00000009,-0.00000024,0.,0.00000022,-
 0.00000018,-0.00000009,0.00000013,-0.00000013,-0.00000004,0.00000017,-
 0.00000021,0.00000011,0.00000011,-0.00000038,0.00000003,0.00000015,-0.
 00000008,0.00000006,0.00000020,-0.00000017,-0.00000036,0.,0.00000012,-
 0.00000020,0.00000009,0.00000011,0.00000007,-0.00000004,0.00000007,0.0
 0000006,-0.00000005,-0.00000009,-0.00000009,0.00000007,0.00000007,0.00
 000008,0.,-0.00000009,-0.00000025,0.00000019,-0.00000013,-0.00000021,0
 .00000024,-0.00000003,-0.00000014,0.00000025,-0.00000012,-0.00000051,-
 0.00000023,0.00000016,0.00000009,-0.00000015,0.00000016,0.00000032,0.0
 0000009,0.,-0.00000017,0.,0.00000026,-0.00000003,0.00000018,0.00000020
 ,0.00000010,0.00000011,-0.00000031,-0.00000015,0.00000011,0.00000007,0
 .00000011,-0.00000021,0.,0.00000013,-0.00000015,0.00000012,0.00000016,
 -0.00000013,0.00000004,0.00000008,-0.00000038,0.00000024,0.00000005,-0
 .00000023,0.00000013,-0.00000002,-0.00000014,0.00000016,0.00000008,-0.
 00000039,0.00000022,0.00000004,-0.00000021,0.00000016,0.00000012,-0.00
 000022,0.00000021,0.00000008,-0.00000021,-0.00000002,0.00000017,-0.000
 00014,0.00000004,0.00000022,-0.00000010,-0.00000004,0.00000011,-0.0000
 0004,-0.00000013,0.00000011,-0.00000011,-0.00000016,0.00000028,0.00000
 018,0.00000004,-0.00000021,0.00000008,-0.00000018,0.00000014,0.0000003
 5,-0.00000052\\\@
 The archive entry for this job was punched.


 SCIENCE AT ITS BEST PROVIDES US WITH BETTER QUESTIONS, 
 NOT ABSOLUTE ANSWERS

                                    -- NORMAN COUSINS, 1976
 Job cpu time:       0 days 10 hours 37 minutes 16.4 seconds.
 Elapsed time:       0 days  0 hours 20 minutes  1.6 seconds.
 File lengths (MBytes):  RWF=   4990 Int=      0 D2E=      0 Chk=     48 Scr=      1
 Normal termination of Gaussian 16 at Thu Jan 23 21:33:35 2025.
