 Entering Gaussian System, Link 0=g16
 Initial command:
 /public/software/apps/Gaussian/g16/l1.exe "/tmp/Gau-27320.inp" -scrdir="/tmp/"
 Entering Link 1 = /public/software/apps/Gaussian/g16/l1.exe PID=     27321.
  
 Copyright (c) 1988-2019, Gaussian, Inc.  All Rights Reserved.
  
 This is part of the Gaussian(R) 16 program.  It is based on
 the Gaussian(R) 09 system (copyright 2009, Gaussian, Inc.),
 the Gaussian(R) 03 system (copyright 2003, Gaussian, Inc.),
 the Gaussian(R) 98 system (copyright 1998, Gaussian, Inc.),
 the Gaussian(R) 94 system (copyright 1995, Gaussian, Inc.),
 the Gaussian 92(TM) system (copyright 1992, Gaussian, Inc.),
 the Gaussian 90(TM) system (copyright 1990, Gaussian, Inc.),
 the Gaussian 88(TM) system (copyright 1988, Gaussian, Inc.),
 the Gaussian 86(TM) system (copyright 1986, Carnegie Mellon
 University), and the Gaussian 82(TM) system (copyright 1983,
 Carnegie Mellon University). Gaussian is a federally registered
 trademark of Gaussian, Inc.
  
 This software contains proprietary and confidential information,
 including trade secrets, belonging to Gaussian, Inc.
  
 This software is provided under written license and may be
 used, copied, transmitted, or stored only in accord with that
 written license.
  
 The following legend is applicable only to US Government
 contracts under FAR:
  
                    RESTRICTED RIGHTS LEGEND
  
 Use, reproduction and disclosure by the US Government is
 subject to restrictions as set forth in subparagraphs (a)
 and (c) of the Commercial Computer Software - Restricted
 Rights clause in FAR 52.227-19.
  
 Gaussian, Inc.
 340 Quinnipiac St., Bldg. 40, Wallingford CT 06492
  
  
 ---------------------------------------------------------------
 Warning -- This program may not be used in any manner that
 competes with the business of Gaussian, Inc. or will provide
 assistance to any competitor of Gaussian, Inc.  The licensee
 of this program is prohibited from giving any competitor of
 Gaussian, Inc. access to this program.  By using this program,
 the user acknowledges that Gaussian, Inc. is engaged in the
 business of creating and licensing software in the field of
 computational chemistry and represents and warrants to the
 licensee that it is not a competitor of Gaussian, Inc. and that
 it will not use this program in any manner prohibited above.
 ---------------------------------------------------------------
  

 Cite this work as:
 Gaussian 16, Revision C.01,
 M. J. Frisch, G. W. Trucks, H. B. Schlegel, G. E. Scuseria, 
 M. A. Robb, J. R. Cheeseman, G. Scalmani, V. Barone, 
 G. A. Petersson, H. Nakatsuji, X. Li, M. Caricato, A. V. Marenich, 
 J. Bloino, B. G. Janesko, R. Gomperts, B. Mennucci, H. P. Hratchian, 
 J. V. Ortiz, A. F. Izmaylov, J. L. Sonnenberg, D. Williams-Young, 
 F. Ding, F. Lipparini, F. Egidi, J. Goings, B. Peng, A. Petrone, 
 T. Henderson, D. Ranasinghe, V. G. Zakrzewski, J. Gao, N. Rega, 
 G. Zheng, W. Liang, M. Hada, M. Ehara, K. Toyota, R. Fukuda, 
 J. Hasegawa, M. Ishida, T. Nakajima, Y. Honda, O. Kitao, H. Nakai, 
 T. Vreven, K. Throssell, J. A. Montgomery, Jr., J. E. Peralta, 
 F. Ogliaro, M. J. Bearpark, J. J. Heyd, E. N. Brothers, K. N. Kudin, 
 V. N. Staroverov, T. A. Keith, R. Kobayashi, J. Normand, 
 K. Raghavachari, A. P. Rendell, J. C. Burant, S. S. Iyengar, 
 J. Tomasi, M. Cossi, J. M. Millam, M. Klene, C. Adamo, R. Cammi, 
 J. W. Ochterski, R. L. Martin, K. Morokuma, O. Farkas, 
 J. B. Foresman, and D. J. Fox, Gaussian, Inc., Wallingford CT, 2019.
 
 ******************************************
 Gaussian 16:  ES64L-G16RevC.01  3-Jul-2019
                23-Jan-2025 
 ******************************************
 %nprocshared=32
 Will use up to   32 processors via shared memory.
 %mem=100GB
 ------------------------------------------
 #p opt freq b3lyp/def2svpp em=gd3bj nosymm
 ------------------------------------------
 1/18=20,19=15,26=3,38=1/1,3;
 2/9=110,12=2,15=1,17=6,18=5,40=1/2;
 3/5=43,7=202,11=2,25=1,30=1,71=1,74=-5,124=41/1,2,3;
 4//1;
 5/5=2,38=5/2;
 6/7=2,8=2,9=2,10=2,28=1/1;
 7/30=1/1,2,3,16;
 1/18=20,19=15,26=3/3(2);
 2/9=110,15=1/2;
 99//99;
 2/9=110,15=1/2;
 3/5=43,7=202,11=2,25=1,30=1,71=1,74=-5,124=41/1,2,3;
 4/5=5,16=3,69=1/1;
 5/5=2,38=5/2;
 7/30=1/1,2,3,16;
 1/18=20,19=15,26=3/3(-5);
 2/9=110,15=1/2;
 6/7=2,8=2,9=2,10=2,19=2,28=1/1;
 99/9=1/99;
 Leave Link    1 at Thu Jan 23 21:20:28 2025, MaxMem= 13421772800 cpu:               0.8 elap:               0.0
 (Enter /public/software/apps/Gaussian/g16/l101.exe)
 ----------------------
 $$$$Singlemol####0????
 ----------------------
 Symbolic Z-matrix:
 Charge =  0 Multiplicity = 1
 C                    -7.6293   -4.98405  -0.02154 
 C                    -6.86604  -4.21217   1.06534 
 C                    -6.90889  -5.00142   2.3776 
 C                    -5.41056  -4.00562   0.63374 
 O                    -7.52839  -2.98732   1.38418 
 C                    -7.54407  -1.96204   0.41656 
 C                    -6.31552  -1.0838    0.42964 
 C                    -5.72502  -0.73818   1.63855 
 C                    -4.60547   0.06851   1.66807 
 C                    -4.04899   0.55153   0.48617 
 C                    -2.86565   1.42503   0.53099 
 C                    -2.80916   2.48231   1.4037 
 C                    -1.69917   3.34631   1.4606 
 C                    -1.65121   4.44296   2.34525 
 C                    -0.56771   5.27579   2.36978 
 C                     0.512     5.05265   1.50252 
 C                     0.49833   3.99647   0.63455 
 C                    -0.59904   3.11008   0.59619 
 C                    -0.6446    1.99859  -0.28549 
 C                     0.5152    1.68451  -1.16276 
 C                     1.66716   1.17257  -0.59648 
 O                     1.75911   0.94553   0.74003 
 C                     2.78074   0.8261   -1.40617 
 C                     4.00843   0.28715  -0.80004 
 C                     4.62119  -0.83725  -1.34801 
 C                     5.78567  -1.33829  -0.80236 
 C                     6.36584  -0.73155   0.30435 
 C                     7.64612  -1.28727   0.88148 
 O                     7.72702  -2.69419   0.85051 
 C                     7.13808  -3.43195   1.92268 
 C                     5.66538  -3.0767    2.15096 
 C                     7.93113  -3.23626   3.22362 
 C                     7.25359  -4.89035   1.46841 
 C                     5.75937   0.39203   0.8484 
 C                     4.59405   0.89747   0.30431 
 C                     2.68944   0.99424  -2.76497 
 C                     1.5375    1.52268  -3.37748 
 C                     1.45289   1.70953  -4.77232 
 C                     0.32827   2.23884  -5.34067 
 C                    -0.7579    2.61375  -4.53595 
 C                    -0.70908   2.44332  -3.18037 
 C                     0.43178   1.88487  -2.56544 
 C                    -1.75722   1.17997  -0.32181 
 O                    -1.81242   0.09518  -1.13823 
 C                    -4.64639   0.21163  -0.72316 
 C                    -5.76683  -0.59665  -0.74847 
 H                    -8.68544  -5.03203   0.23346 
 H                    -7.52537  -4.50881  -0.9943 
 H                    -7.23925  -5.99514  -0.09669 
 H                    -7.94074  -5.13968   2.68805 
 H                    -6.4382   -5.9724    2.2546 
 H                    -6.38841  -4.44843   3.15455 
 H                    -4.86669  -3.44623   1.39089 
 H                    -5.35004  -3.4592   -0.30423 
 H                    -4.93229  -4.97278   0.50047 
 H                    -8.41501  -1.34833   0.68257 
 H                    -7.71194  -2.35867  -0.59209 
 H                    -6.15137  -1.12164   2.55386 
 H                    -4.14406   0.31642   2.61345 
 H                    -3.6502    2.67669   2.0533 
 H                    -2.49234   4.61299   3.00196 
 H                    -0.53817   6.11401   3.05007 
 H                     1.35645   5.72567   1.52209 
 H                     1.32669   3.83511  -0.04036 
 H                     0.93557   1.22036   1.16785 
 H                     4.16931  -1.32818  -2.19823 
 H                     6.25705  -2.21524  -1.22111 
 H                     8.4849   -0.95071   0.25755 
 H                     7.80503  -0.89336   1.89272 
 H                     5.55402  -2.04929   2.48878 
 H                     5.24819  -3.73541   2.90855 
 H                     5.09919  -3.19719   1.23068 
 H                     7.59881  -3.95358   3.96867 
 H                     7.78879  -2.23718   3.62918 
 H                     8.99123  -3.38923   3.03524 
 H                     6.70495  -5.02977   0.54108 
 H                     6.85187  -5.55866   2.22433 
 H                     8.29658  -5.13622   1.28978 
 H                     6.2032    0.87818   1.70656 
 H                     4.13765   1.77501   0.73536 
 H                     3.53431   0.73673  -3.38702 
 H                     2.29901   1.42768  -5.38248 
 H                     0.27052   2.37909  -6.4099 
 H                    -1.63562   3.04336  -4.99582 
 H                    -1.54315   2.74471  -2.56294 
 H                    -0.99767   0.04543  -1.6583 
 H                    -4.23435   0.58599  -1.64743 
 H                    -6.22006  -0.85203  -1.69671 
 
 ITRead=  0  0  0  0  0  0  0  0  0  0  0  0  0  0  0  0  0  0  0  0
 ITRead=  0  0  0  0  0  0  0  0  0  0  0  0  0  0  0  0  0  0  0  0
 ITRead=  0  0  0  0  0  0  0  0  0  0  0  0  0  0  0  0  0  0  0  0
 ITRead=  0  0  0  0  0  0  0  0  0  0  0  0  0  0  0  0  0  0  0  0
 ITRead=  0  0  0  0  0  0  0  0
 MicOpt= -1 -1 -1 -1 -1 -1 -1 -1 -1 -1 -1 -1 -1 -1 -1 -1 -1 -1 -1 -1
 MicOpt= -1 -1 -1 -1 -1 -1 -1 -1 -1 -1 -1 -1 -1 -1 -1 -1 -1 -1 -1 -1
 MicOpt= -1 -1 -1 -1 -1 -1 -1 -1 -1 -1 -1 -1 -1 -1 -1 -1 -1 -1 -1 -1
 MicOpt= -1 -1 -1 -1 -1 -1 -1 -1 -1 -1 -1 -1 -1 -1 -1 -1 -1 -1 -1 -1
 MicOpt= -1 -1 -1 -1 -1 -1 -1 -1
 NAtoms=     88 NQM=       88 NQMF=       0 NMMI=      0 NMMIF=      0
                NMic=       0 NMicF=      0.
                    Isotopes and Nuclear Properties:
 (Nuclear quadrupole moments (NQMom) in fm**2, nuclear magnetic moments (NMagM)
  in nuclear magnetons)

  Atom         1           2           3           4           5           6           7           8           9          10
 IAtWgt=          12          12          12          12          16          12          12          12          12          12
 AtmWgt=  12.0000000  12.0000000  12.0000000  12.0000000  15.9949146  12.0000000  12.0000000  12.0000000  12.0000000  12.0000000
 NucSpn=           0           0           0           0           0           0           0           0           0           0
 AtZEff=  -0.0000000  -0.0000000  -0.0000000  -0.0000000  -0.0000000  -0.0000000  -0.0000000  -0.0000000  -0.0000000  -0.0000000
 NQMom=    0.0000000   0.0000000   0.0000000   0.0000000   0.0000000   0.0000000   0.0000000   0.0000000   0.0000000   0.0000000
 NMagM=    0.0000000   0.0000000   0.0000000   0.0000000   0.0000000   0.0000000   0.0000000   0.0000000   0.0000000   0.0000000
 AtZNuc=   6.0000000   6.0000000   6.0000000   6.0000000   8.0000000   6.0000000   6.0000000   6.0000000   6.0000000   6.0000000

  Atom        11          12          13          14          15          16          17          18          19          20
 IAtWgt=          12          12          12          12          12          12          12          12          12          12
 AtmWgt=  12.0000000  12.0000000  12.0000000  12.0000000  12.0000000  12.0000000  12.0000000  12.0000000  12.0000000  12.0000000
 NucSpn=           0           0           0           0           0           0           0           0           0           0
 AtZEff=  -0.0000000  -0.0000000  -0.0000000  -0.0000000  -0.0000000  -0.0000000  -0.0000000  -0.0000000  -0.0000000  -0.0000000
 NQMom=    0.0000000   0.0000000   0.0000000   0.0000000   0.0000000   0.0000000   0.0000000   0.0000000   0.0000000   0.0000000
 NMagM=    0.0000000   0.0000000   0.0000000   0.0000000   0.0000000   0.0000000   0.0000000   0.0000000   0.0000000   0.0000000
 AtZNuc=   6.0000000   6.0000000   6.0000000   6.0000000   6.0000000   6.0000000   6.0000000   6.0000000   6.0000000   6.0000000

  Atom        21          22          23          24          25          26          27          28          29          30
 IAtWgt=          12          16          12          12          12          12          12          12          16          12
 AtmWgt=  12.0000000  15.9949146  12.0000000  12.0000000  12.0000000  12.0000000  12.0000000  12.0000000  15.9949146  12.0000000
 NucSpn=           0           0           0           0           0           0           0           0           0           0
 AtZEff=  -0.0000000  -0.0000000  -0.0000000  -0.0000000  -0.0000000  -0.0000000  -0.0000000  -0.0000000  -0.0000000  -0.0000000
 NQMom=    0.0000000   0.0000000   0.0000000   0.0000000   0.0000000   0.0000000   0.0000000   0.0000000   0.0000000   0.0000000
 NMagM=    0.0000000   0.0000000   0.0000000   0.0000000   0.0000000   0.0000000   0.0000000   0.0000000   0.0000000   0.0000000
 AtZNuc=   6.0000000   8.0000000   6.0000000   6.0000000   6.0000000   6.0000000   6.0000000   6.0000000   8.0000000   6.0000000

  Atom        31          32          33          34          35          36          37          38          39          40
 IAtWgt=          12          12          12          12          12          12          12          12          12          12
 AtmWgt=  12.0000000  12.0000000  12.0000000  12.0000000  12.0000000  12.0000000  12.0000000  12.0000000  12.0000000  12.0000000
 NucSpn=           0           0           0           0           0           0           0           0           0           0
 AtZEff=  -0.0000000  -0.0000000  -0.0000000  -0.0000000  -0.0000000  -0.0000000  -0.0000000  -0.0000000  -0.0000000  -0.0000000
 NQMom=    0.0000000   0.0000000   0.0000000   0.0000000   0.0000000   0.0000000   0.0000000   0.0000000   0.0000000   0.0000000
 NMagM=    0.0000000   0.0000000   0.0000000   0.0000000   0.0000000   0.0000000   0.0000000   0.0000000   0.0000000   0.0000000
 AtZNuc=   6.0000000   6.0000000   6.0000000   6.0000000   6.0000000   6.0000000   6.0000000   6.0000000   6.0000000   6.0000000

  Atom        41          42          43          44          45          46          47          48          49          50
 IAtWgt=          12          12          12          16          12          12           1           1           1           1
 AtmWgt=  12.0000000  12.0000000  12.0000000  15.9949146  12.0000000  12.0000000   1.0078250   1.0078250   1.0078250   1.0078250
 NucSpn=           0           0           0           0           0           0           1           1           1           1
 AtZEff=  -0.0000000  -0.0000000  -0.0000000  -0.0000000  -0.0000000  -0.0000000  -0.0000000  -0.0000000  -0.0000000  -0.0000000
 NQMom=    0.0000000   0.0000000   0.0000000   0.0000000   0.0000000   0.0000000   0.0000000   0.0000000   0.0000000   0.0000000
 NMagM=    0.0000000   0.0000000   0.0000000   0.0000000   0.0000000   0.0000000   2.7928460   2.7928460   2.7928460   2.7928460
 AtZNuc=   6.0000000   6.0000000   6.0000000   8.0000000   6.0000000   6.0000000   1.0000000   1.0000000   1.0000000   1.0000000

  Atom        51          52          53          54          55          56          57          58          59          60
 IAtWgt=           1           1           1           1           1           1           1           1           1           1
 AtmWgt=   1.0078250   1.0078250   1.0078250   1.0078250   1.0078250   1.0078250   1.0078250   1.0078250   1.0078250   1.0078250
 NucSpn=           1           1           1           1           1           1           1           1           1           1
 AtZEff=  -0.0000000  -0.0000000  -0.0000000  -0.0000000  -0.0000000  -0.0000000  -0.0000000  -0.0000000  -0.0000000  -0.0000000
 NQMom=    0.0000000   0.0000000   0.0000000   0.0000000   0.0000000   0.0000000   0.0000000   0.0000000   0.0000000   0.0000000
 NMagM=    2.7928460   2.7928460   2.7928460   2.7928460   2.7928460   2.7928460   2.7928460   2.7928460   2.7928460   2.7928460
 AtZNuc=   1.0000000   1.0000000   1.0000000   1.0000000   1.0000000   1.0000000   1.0000000   1.0000000   1.0000000   1.0000000

  Atom        61          62          63          64          65          66          67          68          69          70
 IAtWgt=           1           1           1           1           1           1           1           1           1           1
 AtmWgt=   1.0078250   1.0078250   1.0078250   1.0078250   1.0078250   1.0078250   1.0078250   1.0078250   1.0078250   1.0078250
 NucSpn=           1           1           1           1           1           1           1           1           1           1
 AtZEff=  -0.0000000  -0.0000000  -0.0000000  -0.0000000  -0.0000000  -0.0000000  -0.0000000  -0.0000000  -0.0000000  -0.0000000
 NQMom=    0.0000000   0.0000000   0.0000000   0.0000000   0.0000000   0.0000000   0.0000000   0.0000000   0.0000000   0.0000000
 NMagM=    2.7928460   2.7928460   2.7928460   2.7928460   2.7928460   2.7928460   2.7928460   2.7928460   2.7928460   2.7928460
 AtZNuc=   1.0000000   1.0000000   1.0000000   1.0000000   1.0000000   1.0000000   1.0000000   1.0000000   1.0000000   1.0000000

  Atom        71          72          73          74          75          76          77          78          79          80
 IAtWgt=           1           1           1           1           1           1           1           1           1           1
 AtmWgt=   1.0078250   1.0078250   1.0078250   1.0078250   1.0078250   1.0078250   1.0078250   1.0078250   1.0078250   1.0078250
 NucSpn=           1           1           1           1           1           1           1           1           1           1
 AtZEff=  -0.0000000  -0.0000000  -0.0000000  -0.0000000  -0.0000000  -0.0000000  -0.0000000  -0.0000000  -0.0000000  -0.0000000
 NQMom=    0.0000000   0.0000000   0.0000000   0.0000000   0.0000000   0.0000000   0.0000000   0.0000000   0.0000000   0.0000000
 NMagM=    2.7928460   2.7928460   2.7928460   2.7928460   2.7928460   2.7928460   2.7928460   2.7928460   2.7928460   2.7928460
 AtZNuc=   1.0000000   1.0000000   1.0000000   1.0000000   1.0000000   1.0000000   1.0000000   1.0000000   1.0000000   1.0000000

  Atom        81          82          83          84          85          86          87          88
 IAtWgt=           1           1           1           1           1           1           1           1
 AtmWgt=   1.0078250   1.0078250   1.0078250   1.0078250   1.0078250   1.0078250   1.0078250   1.0078250
 NucSpn=           1           1           1           1           1           1           1           1
 AtZEff=  -0.0000000  -0.0000000  -0.0000000  -0.0000000  -0.0000000  -0.0000000  -0.0000000  -0.0000000
 NQMom=    0.0000000   0.0000000   0.0000000   0.0000000   0.0000000   0.0000000   0.0000000   0.0000000
 NMagM=    2.7928460   2.7928460   2.7928460   2.7928460   2.7928460   2.7928460   2.7928460   2.7928460
 AtZNuc=   1.0000000   1.0000000   1.0000000   1.0000000   1.0000000   1.0000000   1.0000000   1.0000000
 Leave Link  101 at Thu Jan 23 21:20:28 2025, MaxMem= 13421772800 cpu:               5.1 elap:               0.2
 (Enter /public/software/apps/Gaussian/g16/l103.exe)

 GradGradGradGradGradGradGradGradGradGradGradGradGradGradGradGradGradGrad
 Berny optimization.
 Initialization pass.
                           ----------------------------
                           !    Initial Parameters    !
                           ! (Angstroms and Degrees)  !
 --------------------------                            --------------------------
 ! Name  Definition              Value          Derivative Info.                !
 --------------------------------------------------------------------------------
 ! R1    R(1,2)                  1.5361         estimate D2E/DX2                !
 ! R2    R(1,47)                 1.0875         estimate D2E/DX2                !
 ! R3    R(1,48)                 1.0876         estimate D2E/DX2                !
 ! R4    R(1,49)                 1.0863         estimate D2E/DX2                !
 ! R5    R(2,3)                  1.5319         estimate D2E/DX2                !
 ! R6    R(2,4)                  1.5321         estimate D2E/DX2                !
 ! R7    R(2,5)                  1.4285         estimate D2E/DX2                !
 ! R8    R(3,50)                 1.0864         estimate D2E/DX2                !
 ! R9    R(3,51)                 1.086          estimate D2E/DX2                !
 ! R10   R(3,52)                 1.0864         estimate D2E/DX2                !
 ! R11   R(4,53)                 1.0872         estimate D2E/DX2                !
 ! R12   R(4,54)                 1.0872         estimate D2E/DX2                !
 ! R13   R(4,55)                 1.0871         estimate D2E/DX2                !
 ! R14   R(5,6)                  1.4099         estimate D2E/DX2                !
 ! R15   R(6,7)                  1.5102         estimate D2E/DX2                !
 ! R16   R(6,56)                 1.0982         estimate D2E/DX2                !
 ! R17   R(6,57)                 1.0967         estimate D2E/DX2                !
 ! R18   R(7,8)                  1.3891         estimate D2E/DX2                !
 ! R19   R(7,46)                 1.3879         estimate D2E/DX2                !
 ! R20   R(8,9)                  1.3802         estimate D2E/DX2                !
 ! R21   R(8,58)                 1.0801         estimate D2E/DX2                !
 ! R22   R(9,10)                 1.3928         estimate D2E/DX2                !
 ! R23   R(9,59)                 1.0808         estimate D2E/DX2                !
 ! R24   R(10,11)                1.4715         estimate D2E/DX2                !
 ! R25   R(10,45)                1.391          estimate D2E/DX2                !
 ! R26   R(11,12)                1.3721         estimate D2E/DX2                !
 ! R27   R(11,43)                1.4198         estimate D2E/DX2                !
 ! R28   R(12,13)                1.4078         estimate D2E/DX2                !
 ! R29   R(12,60)                1.0803         estimate D2E/DX2                !
 ! R30   R(13,14)                1.4098         estimate D2E/DX2                !
 ! R31   R(13,18)                1.4189         estimate D2E/DX2                !
 ! R32   R(14,15)                1.3668         estimate D2E/DX2                !
 ! R33   R(14,61)                1.0806         estimate D2E/DX2                !
 ! R34   R(15,16)                1.4028         estimate D2E/DX2                !
 ! R35   R(15,62)                1.0799         estimate D2E/DX2                !
 ! R36   R(16,17)                1.3671         estimate D2E/DX2                !
 ! R37   R(16,63)                1.08           estimate D2E/DX2                !
 ! R38   R(17,18)                1.4112         estimate D2E/DX2                !
 ! R39   R(17,64)                1.0806         estimate D2E/DX2                !
 ! R40   R(18,19)                1.4195         estimate D2E/DX2                !
 ! R41   R(19,20)                1.4877         estimate D2E/DX2                !
 ! R42   R(19,43)                1.3818         estimate D2E/DX2                !
 ! R43   R(20,21)                1.3819         estimate D2E/DX2                !
 ! R44   R(20,42)                1.4194         estimate D2E/DX2                !
 ! R45   R(21,22)                1.3588         estimate D2E/DX2                !
 ! R46   R(21,23)                1.4198         estimate D2E/DX2                !
 ! R47   R(22,65)                0.9679         estimate D2E/DX2                !
 ! R48   R(23,24)                1.4714         estimate D2E/DX2                !
 ! R49   R(23,36)                1.3722         estimate D2E/DX2                !
 ! R50   R(24,25)                1.3929         estimate D2E/DX2                !
 ! R51   R(24,35)                1.391          estimate D2E/DX2                !
 ! R52   R(25,26)                1.3801         estimate D2E/DX2                !
 ! R53   R(25,66)                1.0808         estimate D2E/DX2                !
 ! R54   R(26,27)                1.3891         estimate D2E/DX2                !
 ! R55   R(26,67)                1.0801         estimate D2E/DX2                !
 ! R56   R(27,28)                1.5103         estimate D2E/DX2                !
 ! R57   R(27,34)                1.3879         estimate D2E/DX2                !
 ! R58   R(28,29)                1.4096         estimate D2E/DX2                !
 ! R59   R(28,68)                1.0982         estimate D2E/DX2                !
 ! R60   R(28,69)                1.0968         estimate D2E/DX2                !
 ! R61   R(29,30)                1.4285         estimate D2E/DX2                !
 ! R62   R(30,31)                1.5321         estimate D2E/DX2                !
 ! R63   R(30,32)                1.5361         estimate D2E/DX2                !
 ! R64   R(30,33)                1.5319         estimate D2E/DX2                !
 ! R65   R(31,70)                1.0872         estimate D2E/DX2                !
 ! R66   R(31,71)                1.0872         estimate D2E/DX2                !
 ! R67   R(31,72)                1.0872         estimate D2E/DX2                !
 ! R68   R(32,73)                1.0863         estimate D2E/DX2                !
 ! R69   R(32,74)                1.0876         estimate D2E/DX2                !
 ! R70   R(32,75)                1.0875         estimate D2E/DX2                !
 ! R71   R(33,76)                1.0864         estimate D2E/DX2                !
 ! R72   R(33,77)                1.086          estimate D2E/DX2                !
 ! R73   R(33,78)                1.0864         estimate D2E/DX2                !
 ! R74   R(34,35)                1.3818         estimate D2E/DX2                !
 ! R75   R(34,79)                1.0816         estimate D2E/DX2                !
 ! R76   R(35,80)                1.079          estimate D2E/DX2                !
 ! R77   R(36,37)                1.4076         estimate D2E/DX2                !
 ! R78   R(36,81)                1.0803         estimate D2E/DX2                !
 ! R79   R(37,38)                1.4098         estimate D2E/DX2                !
 ! R80   R(37,42)                1.4189         estimate D2E/DX2                !
 ! R81   R(38,39)                1.3667         estimate D2E/DX2                !
 ! R82   R(38,82)                1.0806         estimate D2E/DX2                !
 ! R83   R(39,40)                1.4028         estimate D2E/DX2                !
 ! R84   R(39,83)                1.0799         estimate D2E/DX2                !
 ! R85   R(40,41)                1.3671         estimate D2E/DX2                !
 ! R86   R(40,84)                1.08           estimate D2E/DX2                !
 ! R87   R(41,42)                1.4112         estimate D2E/DX2                !
 ! R88   R(41,85)                1.0806         estimate D2E/DX2                !
 ! R89   R(43,44)                1.3588         estimate D2E/DX2                !
 ! R90   R(44,86)                0.9679         estimate D2E/DX2                !
 ! R91   R(45,46)                1.3818         estimate D2E/DX2                !
 ! R92   R(45,87)                1.079          estimate D2E/DX2                !
 ! R93   R(46,88)                1.0816         estimate D2E/DX2                !
 ! A1    A(2,1,47)             109.8033         estimate D2E/DX2                !
 ! A2    A(2,1,48)             111.4558         estimate D2E/DX2                !
 ! A3    A(2,1,49)             109.7689         estimate D2E/DX2                !
 ! A4    A(47,1,48)            108.7706         estimate D2E/DX2                !
 ! A5    A(47,1,49)            108.8962         estimate D2E/DX2                !
 ! A6    A(48,1,49)            108.09           estimate D2E/DX2                !
 ! A7    A(1,2,3)              109.4702         estimate D2E/DX2                !
 ! A8    A(1,2,4)              109.9038         estimate D2E/DX2                !
 ! A9    A(1,2,5)              111.0008         estimate D2E/DX2                !
 ! A10   A(3,2,4)              109.7151         estimate D2E/DX2                !
 ! A11   A(3,2,5)              103.7447         estimate D2E/DX2                !
 ! A12   A(4,2,5)              112.8149         estimate D2E/DX2                !
 ! A13   A(2,3,50)             109.6896         estimate D2E/DX2                !
 ! A14   A(2,3,51)             110.5775         estimate D2E/DX2                !
 ! A15   A(2,3,52)             109.6914         estimate D2E/DX2                !
 ! A16   A(50,3,51)            109.283          estimate D2E/DX2                !
 ! A17   A(50,3,52)            108.3877         estimate D2E/DX2                !
 ! A18   A(51,3,52)            109.1739         estimate D2E/DX2                !
 ! A19   A(2,4,53)             110.3896         estimate D2E/DX2                !
 ! A20   A(2,4,54)             111.3259         estimate D2E/DX2                !
 ! A21   A(2,4,55)             109.4217         estimate D2E/DX2                !
 ! A22   A(53,4,54)            108.3241         estimate D2E/DX2                !
 ! A23   A(53,4,55)            108.847          estimate D2E/DX2                !
 ! A24   A(54,4,55)            108.4738         estimate D2E/DX2                !
 ! A25   A(2,5,6)              118.3928         estimate D2E/DX2                !
 ! A26   A(5,6,7)              114.0735         estimate D2E/DX2                !
 ! A27   A(5,6,56)             104.4168         estimate D2E/DX2                !
 ! A28   A(5,6,57)             111.7098         estimate D2E/DX2                !
 ! A29   A(7,6,56)             108.5465         estimate D2E/DX2                !
 ! A30   A(7,6,57)             110.0462         estimate D2E/DX2                !
 ! A31   A(56,6,57)            107.6672         estimate D2E/DX2                !
 ! A32   A(6,7,8)              119.8697         estimate D2E/DX2                !
 ! A33   A(6,7,46)             121.2221         estimate D2E/DX2                !
 ! A34   A(8,7,46)             118.9039         estimate D2E/DX2                !
 ! A35   A(7,8,9)              120.5866         estimate D2E/DX2                !
 ! A36   A(7,8,58)             118.7752         estimate D2E/DX2                !
 ! A37   A(9,8,58)             120.6344         estimate D2E/DX2                !
 ! A38   A(8,9,10)             120.5723         estimate D2E/DX2                !
 ! A39   A(8,9,59)             119.9378         estimate D2E/DX2                !
 ! A40   A(10,9,59)            119.4822         estimate D2E/DX2                !
 ! A41   A(9,10,11)            120.0873         estimate D2E/DX2                !
 ! A42   A(9,10,45)            118.7782         estimate D2E/DX2                !
 ! A43   A(11,10,45)           121.1248         estimate D2E/DX2                !
 ! A44   A(10,11,12)           120.6563         estimate D2E/DX2                !
 ! A45   A(10,11,43)           120.4677         estimate D2E/DX2                !
 ! A46   A(12,11,43)           118.8739         estimate D2E/DX2                !
 ! A47   A(11,12,13)           122.0786         estimate D2E/DX2                !
 ! A48   A(11,12,60)           119.2783         estimate D2E/DX2                !
 ! A49   A(13,12,60)           118.6263         estimate D2E/DX2                !
 ! A50   A(12,13,14)           121.9777         estimate D2E/DX2                !
 ! A51   A(12,13,18)           118.982          estimate D2E/DX2                !
 ! A52   A(14,13,18)           119.0394         estimate D2E/DX2                !
 ! A53   A(13,14,15)           120.8107         estimate D2E/DX2                !
 ! A54   A(13,14,61)           118.5068         estimate D2E/DX2                !
 ! A55   A(15,14,61)           120.6822         estimate D2E/DX2                !
 ! A56   A(14,15,16)           120.1418         estimate D2E/DX2                !
 ! A57   A(14,15,62)           120.393          estimate D2E/DX2                !
 ! A58   A(16,15,62)           119.4636         estimate D2E/DX2                !
 ! A59   A(15,16,17)           120.5117         estimate D2E/DX2                !
 ! A60   A(15,16,63)           119.4391         estimate D2E/DX2                !
 ! A61   A(17,16,63)           120.0488         estimate D2E/DX2                !
 ! A62   A(16,17,18)           120.6832         estimate D2E/DX2                !
 ! A63   A(16,17,64)           120.2794         estimate D2E/DX2                !
 ! A64   A(18,17,64)           119.0346         estimate D2E/DX2                !
 ! A65   A(13,18,17)           118.8026         estimate D2E/DX2                !
 ! A66   A(13,18,19)           118.9394         estimate D2E/DX2                !
 ! A67   A(17,18,19)           122.2555         estimate D2E/DX2                !
 ! A68   A(18,19,20)           120.4341         estimate D2E/DX2                !
 ! A69   A(18,19,43)           120.4025         estimate D2E/DX2                !
 ! A70   A(20,19,43)           119.1526         estimate D2E/DX2                !
 ! A71   A(19,20,21)           119.1052         estimate D2E/DX2                !
 ! A72   A(19,20,42)           120.4711         estimate D2E/DX2                !
 ! A73   A(21,20,42)           120.4139         estimate D2E/DX2                !
 ! A74   A(20,21,22)           121.4242         estimate D2E/DX2                !
 ! A75   A(20,21,23)           120.6987         estimate D2E/DX2                !
 ! A76   A(22,21,23)           117.8464         estimate D2E/DX2                !
 ! A77   A(21,22,65)           109.2537         estimate D2E/DX2                !
 ! A78   A(21,23,24)           120.5891         estimate D2E/DX2                !
 ! A79   A(21,23,36)           118.8583         estimate D2E/DX2                !
 ! A80   A(24,23,36)           120.5513         estimate D2E/DX2                !
 ! A81   A(23,24,25)           120.0448         estimate D2E/DX2                !
 ! A82   A(23,24,35)           121.1705         estimate D2E/DX2                !
 ! A83   A(25,24,35)           118.7714         estimate D2E/DX2                !
 ! A84   A(24,25,26)           120.578          estimate D2E/DX2                !
 ! A85   A(24,25,66)           119.4885         estimate D2E/DX2                !
 ! A86   A(26,25,66)           119.9263         estimate D2E/DX2                !
 ! A87   A(25,26,27)           120.5854         estimate D2E/DX2                !
 ! A88   A(25,26,67)           120.6445         estimate D2E/DX2                !
 ! A89   A(27,26,67)           118.767          estimate D2E/DX2                !
 ! A90   A(26,27,28)           119.8537         estimate D2E/DX2                !
 ! A91   A(26,27,34)           118.9086         estimate D2E/DX2                !
 ! A92   A(28,27,34)           121.2322         estimate D2E/DX2                !
 ! A93   A(27,28,29)           114.0485         estimate D2E/DX2                !
 ! A94   A(27,28,68)           108.5164         estimate D2E/DX2                !
 ! A95   A(27,28,69)           110.059          estimate D2E/DX2                !
 ! A96   A(29,28,68)           104.451          estimate D2E/DX2                !
 ! A97   A(29,28,69)           111.7402         estimate D2E/DX2                !
 ! A98   A(68,28,69)           107.6429         estimate D2E/DX2                !
 ! A99   A(28,29,30)           118.3801         estimate D2E/DX2                !
 ! A100  A(29,30,31)           112.8536         estimate D2E/DX2                !
 ! A101  A(29,30,32)           110.9162         estimate D2E/DX2                !
 ! A102  A(29,30,33)           103.7701         estimate D2E/DX2                !
 ! A103  A(31,30,32)           109.9095         estimate D2E/DX2                !
 ! A104  A(31,30,33)           109.7202         estimate D2E/DX2                !
 ! A105  A(32,30,33)           109.4813         estimate D2E/DX2                !
 ! A106  A(30,31,70)           111.3384         estimate D2E/DX2                !
 ! A107  A(30,31,71)           109.4033         estimate D2E/DX2                !
 ! A108  A(30,31,72)           110.4123         estimate D2E/DX2                !
 ! A109  A(70,31,71)           108.4651         estimate D2E/DX2                !
 ! A110  A(70,31,72)           108.325          estimate D2E/DX2                !
 ! A111  A(71,31,72)           108.8371         estimate D2E/DX2                !
 ! A112  A(30,32,73)           109.8034         estimate D2E/DX2                !
 ! A113  A(30,32,74)           111.4236         estimate D2E/DX2                !
 ! A114  A(30,32,75)           109.7936         estimate D2E/DX2                !
 ! A115  A(73,32,74)           108.1066         estimate D2E/DX2                !
 ! A116  A(73,32,75)           108.9124         estimate D2E/DX2                !
 ! A117  A(74,32,75)           108.7461         estimate D2E/DX2                !
 ! A118  A(30,33,76)           109.7067         estimate D2E/DX2                !
 ! A119  A(30,33,77)           110.5828         estimate D2E/DX2                !
 ! A120  A(30,33,78)           109.6707         estimate D2E/DX2                !
 ! A121  A(76,33,77)           109.1689         estimate D2E/DX2                !
 ! A122  A(76,33,78)           108.3869         estimate D2E/DX2                !
 ! A123  A(77,33,78)           109.2871         estimate D2E/DX2                !
 ! A124  A(27,34,35)           120.6823         estimate D2E/DX2                !
 ! A125  A(27,34,79)           119.7098         estimate D2E/DX2                !
 ! A126  A(35,34,79)           119.6079         estimate D2E/DX2                !
 ! A127  A(24,35,34)           120.4731         estimate D2E/DX2                !
 ! A128  A(24,35,80)           119.7308         estimate D2E/DX2                !
 ! A129  A(34,35,80)           119.7952         estimate D2E/DX2                !
 ! A130  A(23,36,37)           122.0958         estimate D2E/DX2                !
 ! A131  A(23,36,81)           119.2708         estimate D2E/DX2                !
 ! A132  A(37,36,81)           118.6167         estimate D2E/DX2                !
 ! A133  A(36,37,38)           121.9634         estimate D2E/DX2                !
 ! A134  A(36,37,42)           118.9826         estimate D2E/DX2                !
 ! A135  A(38,37,42)           119.053          estimate D2E/DX2                !
 ! A136  A(37,38,39)           120.8062         estimate D2E/DX2                !
 ! A137  A(37,38,82)           118.4955         estimate D2E/DX2                !
 ! A138  A(39,38,82)           120.698          estimate D2E/DX2                !
 ! A139  A(38,39,40)           120.1369         estimate D2E/DX2                !
 ! A140  A(38,39,83)           120.3993         estimate D2E/DX2                !
 ! A141  A(40,39,83)           119.4622         estimate D2E/DX2                !
 ! A142  A(39,40,41)           120.5198         estimate D2E/DX2                !
 ! A143  A(39,40,84)           119.4263         estimate D2E/DX2                !
 ! A144  A(41,40,84)           120.0536         estimate D2E/DX2                !
 ! A145  A(40,41,42)           120.6817         estimate D2E/DX2                !
 ! A146  A(40,41,85)           120.2793         estimate D2E/DX2                !
 ! A147  A(42,41,85)           119.0363         estimate D2E/DX2                !
 ! A148  A(20,42,37)           118.93           estimate D2E/DX2                !
 ! A149  A(20,42,41)           122.2761         estimate D2E/DX2                !
 ! A150  A(37,42,41)           118.7915         estimate D2E/DX2                !
 ! A151  A(11,43,19)           120.7007         estimate D2E/DX2                !
 ! A152  A(11,43,44)           117.8368         estimate D2E/DX2                !
 ! A153  A(19,43,44)           121.4307         estimate D2E/DX2                !
 ! A154  A(43,44,86)           109.2494         estimate D2E/DX2                !
 ! A155  A(10,45,46)           120.4711         estimate D2E/DX2                !
 ! A156  A(10,45,87)           119.7326         estimate D2E/DX2                !
 ! A157  A(46,45,87)           119.7957         estimate D2E/DX2                !
 ! A158  A(7,46,45)            120.6856         estimate D2E/DX2                !
 ! A159  A(7,46,88)            119.7128         estimate D2E/DX2                !
 ! A160  A(45,46,88)           119.6016         estimate D2E/DX2                !
 ! D1    D(47,1,2,3)            65.7971         estimate D2E/DX2                !
 ! D2    D(47,1,2,4)          -173.6363         estimate D2E/DX2                !
 ! D3    D(47,1,2,5)           -48.1349         estimate D2E/DX2                !
 ! D4    D(48,1,2,3)          -173.6061         estimate D2E/DX2                !
 ! D5    D(48,1,2,4)           -53.0395         estimate D2E/DX2                !
 ! D6    D(48,1,2,5)            72.4619         estimate D2E/DX2                !
 ! D7    D(49,1,2,3)           -53.8849         estimate D2E/DX2                !
 ! D8    D(49,1,2,4)            66.6817         estimate D2E/DX2                !
 ! D9    D(49,1,2,5)          -167.8169         estimate D2E/DX2                !
 ! D10   D(1,2,3,50)           -59.8397         estimate D2E/DX2                !
 ! D11   D(1,2,3,51)            60.757          estimate D2E/DX2                !
 ! D12   D(1,2,3,52)          -178.7809         estimate D2E/DX2                !
 ! D13   D(4,2,3,50)           179.4788         estimate D2E/DX2                !
 ! D14   D(4,2,3,51)           -59.9245         estimate D2E/DX2                !
 ! D15   D(4,2,3,52)            60.5377         estimate D2E/DX2                !
 ! D16   D(5,2,3,50)            58.702          estimate D2E/DX2                !
 ! D17   D(5,2,3,51)           179.2987         estimate D2E/DX2                !
 ! D18   D(5,2,3,52)           -60.2392         estimate D2E/DX2                !
 ! D19   D(1,2,4,53)           179.1194         estimate D2E/DX2                !
 ! D20   D(1,2,4,54)            58.7767         estimate D2E/DX2                !
 ! D21   D(1,2,4,55)           -61.1132         estimate D2E/DX2                !
 ! D22   D(3,2,4,53)           -60.4621         estimate D2E/DX2                !
 ! D23   D(3,2,4,54)           179.1953         estimate D2E/DX2                !
 ! D24   D(3,2,4,55)            59.3053         estimate D2E/DX2                !
 ! D25   D(5,2,4,53)            54.6607         estimate D2E/DX2                !
 ! D26   D(5,2,4,54)           -65.6819         estimate D2E/DX2                !
 ! D27   D(5,2,4,55)           174.4281         estimate D2E/DX2                !
 ! D28   D(1,2,5,6)            -68.8645         estimate D2E/DX2                !
 ! D29   D(3,2,5,6)            173.6545         estimate D2E/DX2                !
 ! D30   D(4,2,5,6)             54.9912         estimate D2E/DX2                !
 ! D31   D(2,5,6,7)            -84.9577         estimate D2E/DX2                !
 ! D32   D(2,5,6,56)           156.7121         estimate D2E/DX2                !
 ! D33   D(2,5,6,57)            40.6319         estimate D2E/DX2                !
 ! D34   D(5,6,7,8)            -37.9602         estimate D2E/DX2                !
 ! D35   D(5,6,7,46)           142.8077         estimate D2E/DX2                !
 ! D36   D(56,6,7,8)            77.9855         estimate D2E/DX2                !
 ! D37   D(56,6,7,46)         -101.2466         estimate D2E/DX2                !
 ! D38   D(57,6,7,8)          -164.4223         estimate D2E/DX2                !
 ! D39   D(57,6,7,46)           16.3455         estimate D2E/DX2                !
 ! D40   D(6,7,8,9)           -179.7068         estimate D2E/DX2                !
 ! D41   D(6,7,8,58)             0.9904         estimate D2E/DX2                !
 ! D42   D(46,7,8,9)            -0.4569         estimate D2E/DX2                !
 ! D43   D(46,7,8,58)         -179.7597         estimate D2E/DX2                !
 ! D44   D(6,7,46,45)          179.6718         estimate D2E/DX2                !
 ! D45   D(6,7,46,88)           -0.3468         estimate D2E/DX2                !
 ! D46   D(8,7,46,45)            0.4324         estimate D2E/DX2                !
 ! D47   D(8,7,46,88)         -179.5862         estimate D2E/DX2                !
 ! D48   D(7,8,9,10)             0.0759         estimate D2E/DX2                !
 ! D49   D(7,8,9,59)          -178.9053         estimate D2E/DX2                !
 ! D50   D(58,8,9,10)          179.3657         estimate D2E/DX2                !
 ! D51   D(58,8,9,59)            0.3845         estimate D2E/DX2                !
 ! D52   D(8,9,10,11)          179.2073         estimate D2E/DX2                !
 ! D53   D(8,9,10,45)            0.3313         estimate D2E/DX2                !
 ! D54   D(59,9,10,11)          -1.8069         estimate D2E/DX2                !
 ! D55   D(59,9,10,45)         179.3171         estimate D2E/DX2                !
 ! D56   D(9,10,11,12)         -46.5736         estimate D2E/DX2                !
 ! D57   D(9,10,11,43)         132.8873         estimate D2E/DX2                !
 ! D58   D(45,10,11,12)        132.2756         estimate D2E/DX2                !
 ! D59   D(45,10,11,43)        -48.2635         estimate D2E/DX2                !
 ! D60   D(9,10,45,46)          -0.3558         estimate D2E/DX2                !
 ! D61   D(9,10,45,87)         179.346          estimate D2E/DX2                !
 ! D62   D(11,10,45,46)       -179.2198         estimate D2E/DX2                !
 ! D63   D(11,10,45,87)          0.4821         estimate D2E/DX2                !
 ! D64   D(10,11,12,13)       -179.2216         estimate D2E/DX2                !
 ! D65   D(10,11,12,60)         -0.7296         estimate D2E/DX2                !
 ! D66   D(43,11,12,13)          1.309          estimate D2E/DX2                !
 ! D67   D(43,11,12,60)        179.801          estimate D2E/DX2                !
 ! D68   D(10,11,43,19)        179.8794         estimate D2E/DX2                !
 ! D69   D(10,11,43,44)         -2.1425         estimate D2E/DX2                !
 ! D70   D(12,11,43,19)         -0.6502         estimate D2E/DX2                !
 ! D71   D(12,11,43,44)        177.3279         estimate D2E/DX2                !
 ! D72   D(11,12,13,14)        179.1072         estimate D2E/DX2                !
 ! D73   D(11,12,13,18)         -0.54           estimate D2E/DX2                !
 ! D74   D(60,12,13,14)          0.6058         estimate D2E/DX2                !
 ! D75   D(60,12,13,18)       -179.0414         estimate D2E/DX2                !
 ! D76   D(12,13,14,15)       -179.2423         estimate D2E/DX2                !
 ! D77   D(12,13,14,61)          0.5471         estimate D2E/DX2                !
 ! D78   D(18,13,14,15)          0.4047         estimate D2E/DX2                !
 ! D79   D(18,13,14,61)       -179.8059         estimate D2E/DX2                !
 ! D80   D(12,13,18,17)        178.5514         estimate D2E/DX2                !
 ! D81   D(12,13,18,19)         -0.8816         estimate D2E/DX2                !
 ! D82   D(14,13,18,17)         -1.1063         estimate D2E/DX2                !
 ! D83   D(14,13,18,19)        179.4607         estimate D2E/DX2                !
 ! D84   D(13,14,15,16)          0.4506         estimate D2E/DX2                !
 ! D85   D(13,14,15,62)        179.988          estimate D2E/DX2                !
 ! D86   D(61,14,15,16)       -179.3341         estimate D2E/DX2                !
 ! D87   D(61,14,15,62)          0.2032         estimate D2E/DX2                !
 ! D88   D(14,15,16,17)         -0.5954         estimate D2E/DX2                !
 ! D89   D(14,15,16,63)        179.1698         estimate D2E/DX2                !
 ! D90   D(62,15,16,17)        179.863          estimate D2E/DX2                !
 ! D91   D(62,15,16,63)         -0.3718         estimate D2E/DX2                !
 ! D92   D(15,16,17,18)         -0.1344         estimate D2E/DX2                !
 ! D93   D(15,16,17,64)        179.2486         estimate D2E/DX2                !
 ! D94   D(63,16,17,18)       -179.8982         estimate D2E/DX2                !
 ! D95   D(63,16,17,64)         -0.5152         estimate D2E/DX2                !
 ! D96   D(16,17,18,13)          0.9807         estimate D2E/DX2                !
 ! D97   D(16,17,18,19)       -179.6061         estimate D2E/DX2                !
 ! D98   D(64,17,18,13)       -178.4098         estimate D2E/DX2                !
 ! D99   D(64,17,18,19)          1.0034         estimate D2E/DX2                !
 ! D100  D(13,18,19,20)       -177.2713         estimate D2E/DX2                !
 ! D101  D(13,18,19,43)          1.522          estimate D2E/DX2                !
 ! D102  D(17,18,19,20)          3.3162         estimate D2E/DX2                !
 ! D103  D(17,18,19,43)       -177.8905         estimate D2E/DX2                !
 ! D104  D(18,19,20,21)         71.6156         estimate D2E/DX2                !
 ! D105  D(18,19,20,42)       -109.5207         estimate D2E/DX2                !
 ! D106  D(43,19,20,21)       -107.1926         estimate D2E/DX2                !
 ! D107  D(43,19,20,42)         71.6711         estimate D2E/DX2                !
 ! D108  D(18,19,43,11)         -0.7647         estimate D2E/DX2                !
 ! D109  D(18,19,43,44)       -178.6693         estimate D2E/DX2                !
 ! D110  D(20,19,43,11)        178.0439         estimate D2E/DX2                !
 ! D111  D(20,19,43,44)          0.1393         estimate D2E/DX2                !
 ! D112  D(19,20,21,22)          0.2999         estimate D2E/DX2                !
 ! D113  D(19,20,21,23)        178.2409         estimate D2E/DX2                !
 ! D114  D(42,20,21,22)       -178.5644         estimate D2E/DX2                !
 ! D115  D(42,20,21,23)         -0.6235         estimate D2E/DX2                !
 ! D116  D(19,20,42,37)       -177.4216         estimate D2E/DX2                !
 ! D117  D(19,20,42,41)          3.1532         estimate D2E/DX2                !
 ! D118  D(21,20,42,37)          1.4272         estimate D2E/DX2                !
 ! D119  D(21,20,42,41)       -177.998          estimate D2E/DX2                !
 ! D120  D(20,21,22,65)         -1.6819         estimate D2E/DX2                !
 ! D121  D(23,21,22,65)       -179.6796         estimate D2E/DX2                !
 ! D122  D(20,21,23,24)        179.7094         estimate D2E/DX2                !
 ! D123  D(20,21,23,36)         -0.7125         estimate D2E/DX2                !
 ! D124  D(22,21,23,24)         -2.2777         estimate D2E/DX2                !
 ! D125  D(22,21,23,36)        177.3004         estimate D2E/DX2                !
 ! D126  D(21,23,24,25)        133.3629         estimate D2E/DX2                !
 ! D127  D(21,23,24,35)        -47.983          estimate D2E/DX2                !
 ! D128  D(36,23,24,25)        -46.208          estimate D2E/DX2                !
 ! D129  D(36,23,24,35)        132.4461         estimate D2E/DX2                !
 ! D130  D(21,23,36,37)          1.2455         estimate D2E/DX2                !
 ! D131  D(21,23,36,81)        179.7394         estimate D2E/DX2                !
 ! D132  D(24,23,36,37)       -179.1763         estimate D2E/DX2                !
 ! D133  D(24,23,36,81)         -0.6823         estimate D2E/DX2                !
 ! D134  D(23,24,25,26)        178.8756         estimate D2E/DX2                !
 ! D135  D(23,24,25,66)         -2.0998         estimate D2E/DX2                !
 ! D136  D(35,24,25,26)          0.1895         estimate D2E/DX2                !
 ! D137  D(35,24,25,66)        179.214          estimate D2E/DX2                !
 ! D138  D(23,24,35,34)       -178.9171         estimate D2E/DX2                !
 ! D139  D(23,24,35,80)          0.7418         estimate D2E/DX2                !
 ! D140  D(25,24,35,34)         -0.2463         estimate D2E/DX2                !
 ! D141  D(25,24,35,80)        179.4126         estimate D2E/DX2                !
 ! D142  D(24,25,26,27)          0.1165         estimate D2E/DX2                !
 ! D143  D(24,25,26,67)        179.4615         estimate D2E/DX2                !
 ! D144  D(66,25,26,27)       -178.9037         estimate D2E/DX2                !
 ! D145  D(66,25,26,67)          0.4412         estimate D2E/DX2                !
 ! D146  D(25,26,27,28)       -179.5232         estimate D2E/DX2                !
 ! D147  D(25,26,27,34)         -0.3633         estimate D2E/DX2                !
 ! D148  D(67,26,27,28)          1.1197         estimate D2E/DX2                !
 ! D149  D(67,26,27,34)       -179.7204         estimate D2E/DX2                !
 ! D150  D(26,27,28,29)        -37.0214         estimate D2E/DX2                !
 ! D151  D(26,27,28,68)         78.9322         estimate D2E/DX2                !
 ! D152  D(26,27,28,69)       -163.5153         estimate D2E/DX2                !
 ! D153  D(34,27,28,29)        143.8387         estimate D2E/DX2                !
 ! D154  D(34,27,28,68)       -100.2077         estimate D2E/DX2                !
 ! D155  D(34,27,28,69)         17.3447         estimate D2E/DX2                !
 ! D156  D(26,27,34,35)          0.3064         estimate D2E/DX2                !
 ! D157  D(26,27,34,79)       -179.6404         estimate D2E/DX2                !
 ! D158  D(28,27,34,35)        179.4542         estimate D2E/DX2                !
 ! D159  D(28,27,34,79)         -0.4925         estimate D2E/DX2                !
 ! D160  D(27,28,29,30)        -85.2634         estimate D2E/DX2                !
 ! D161  D(68,28,29,30)        156.4344         estimate D2E/DX2                !
 ! D162  D(69,28,29,30)         40.3486         estimate D2E/DX2                !
 ! D163  D(28,29,30,31)         54.1792         estimate D2E/DX2                !
 ! D164  D(28,29,30,32)        -69.6482         estimate D2E/DX2                !
 ! D165  D(28,29,30,33)        172.8838         estimate D2E/DX2                !
 ! D166  D(29,30,31,70)        -65.6486         estimate D2E/DX2                !
 ! D167  D(29,30,31,71)        174.4763         estimate D2E/DX2                !
 ! D168  D(29,30,31,72)         54.7187         estimate D2E/DX2                !
 ! D169  D(32,30,31,70)         58.732          estimate D2E/DX2                !
 ! D170  D(32,30,31,71)        -61.143          estimate D2E/DX2                !
 ! D171  D(32,30,31,72)        179.0993         estimate D2E/DX2                !
 ! D172  D(33,30,31,70)        179.171          estimate D2E/DX2                !
 ! D173  D(33,30,31,71)         59.2959         estimate D2E/DX2                !
 ! D174  D(33,30,31,72)        -60.4617         estimate D2E/DX2                !
 ! D175  D(29,30,32,73)       -168.4135         estimate D2E/DX2                !
 ! D176  D(29,30,32,74)         71.8424         estimate D2E/DX2                !
 ! D177  D(29,30,32,75)        -48.6962         estimate D2E/DX2                !
 ! D178  D(31,30,32,73)         66.0918         estimate D2E/DX2                !
 ! D179  D(31,30,32,74)        -53.6523         estimate D2E/DX2                !
 ! D180  D(31,30,32,75)       -174.1909         estimate D2E/DX2                !
 ! D181  D(33,30,32,73)        -54.4916         estimate D2E/DX2                !
 ! D182  D(33,30,32,74)       -174.2356         estimate D2E/DX2                !
 ! D183  D(33,30,32,75)         65.2258         estimate D2E/DX2                !
 ! D184  D(29,30,33,76)        -60.7759         estimate D2E/DX2                !
 ! D185  D(29,30,33,77)        178.7549         estimate D2E/DX2                !
 ! D186  D(29,30,33,78)         58.1621         estimate D2E/DX2                !
 ! D187  D(31,30,33,76)         60.0632         estimate D2E/DX2                !
 ! D188  D(31,30,33,77)        -60.406          estimate D2E/DX2                !
 ! D189  D(31,30,33,78)        179.0012         estimate D2E/DX2                !
 ! D190  D(32,30,33,76)       -179.2383         estimate D2E/DX2                !
 ! D191  D(32,30,33,77)         60.2925         estimate D2E/DX2                !
 ! D192  D(32,30,33,78)        -60.3003         estimate D2E/DX2                !
 ! D193  D(27,34,35,24)         -0.0019         estimate D2E/DX2                !
 ! D194  D(27,34,35,80)       -179.6606         estimate D2E/DX2                !
 ! D195  D(79,34,35,24)        179.9449         estimate D2E/DX2                !
 ! D196  D(79,34,35,80)          0.2862         estimate D2E/DX2                !
 ! D197  D(23,36,37,38)        179.2065         estimate D2E/DX2                !
 ! D198  D(23,36,37,42)         -0.4324         estimate D2E/DX2                !
 ! D199  D(81,36,37,38)          0.7031         estimate D2E/DX2                !
 ! D200  D(81,36,37,42)       -178.9359         estimate D2E/DX2                !
 ! D201  D(36,37,38,39)       -179.2494         estimate D2E/DX2                !
 ! D202  D(36,37,38,82)          0.5538         estimate D2E/DX2                !
 ! D203  D(42,37,38,39)          0.3893         estimate D2E/DX2                !
 ! D204  D(42,37,38,82)       -179.8075         estimate D2E/DX2                !
 ! D205  D(36,37,42,20)         -0.909          estimate D2E/DX2                !
 ! D206  D(36,37,42,41)        178.5364         estimate D2E/DX2                !
 ! D207  D(38,37,42,20)        179.4414         estimate D2E/DX2                !
 ! D208  D(38,37,42,41)         -1.1132         estimate D2E/DX2                !
 ! D209  D(37,38,39,40)          0.472          estimate D2E/DX2                !
 ! D210  D(37,38,39,83)       -179.9992         estimate D2E/DX2                !
 ! D211  D(82,38,39,40)       -179.3269         estimate D2E/DX2                !
 ! D212  D(82,38,39,83)          0.2019         estimate D2E/DX2                !
 ! D213  D(38,39,40,41)         -0.5997         estimate D2E/DX2                !
 ! D214  D(38,39,40,84)        179.1689         estimate D2E/DX2                !
 ! D215  D(83,39,40,41)        179.8671         estimate D2E/DX2                !
 ! D216  D(83,39,40,84)         -0.3644         estimate D2E/DX2                !
 ! D217  D(39,40,41,42)         -0.1529         estimate D2E/DX2                !
 ! D218  D(39,40,41,85)        179.2445         estimate D2E/DX2                !
 ! D219  D(84,40,41,42)       -179.92           estimate D2E/DX2                !
 ! D220  D(84,40,41,85)         -0.5225         estimate D2E/DX2                !
 ! D221  D(40,41,42,20)       -179.5697         estimate D2E/DX2                !
 ! D222  D(40,41,42,37)          1.0044         estimate D2E/DX2                !
 ! D223  D(85,41,42,20)          1.0254         estimate D2E/DX2                !
 ! D224  D(85,41,42,37)       -178.4005         estimate D2E/DX2                !
 ! D225  D(11,43,44,86)       -179.7895         estimate D2E/DX2                !
 ! D226  D(19,43,44,86)         -1.8271         estimate D2E/DX2                !
 ! D227  D(10,45,46,7)          -0.0262         estimate D2E/DX2                !
 ! D228  D(10,45,46,88)        179.9924         estimate D2E/DX2                !
 ! D229  D(87,45,46,7)        -179.7279         estimate D2E/DX2                !
 ! D230  D(87,45,46,88)          0.2907         estimate D2E/DX2                !
 --------------------------------------------------------------------------------
 Trust Radius=3.00D-01 FncErr=1.00D-07 GrdErr=1.00D-06 EigMax=2.50D+02 EigMin=1.00D-04
 Number of steps in this run=    493 maximum allowed number of steps=    528.
 GradGradGradGradGradGradGradGradGradGradGradGradGradGradGradGradGradGrad

 Leave Link  103 at Thu Jan 23 21:20:28 2025, MaxMem= 13421772800 cpu:               0.2 elap:               0.0
 (Enter /public/software/apps/Gaussian/g16/l202.exe)
 Symmetry turned off by external request.
 Stoichiometry    C42H42O4
 Framework group  C1[X(C42H42O4)]
 Deg. of freedom   258
 Full point group                 C1      NOp   1
                          Input orientation:                          
 ---------------------------------------------------------------------
 Center     Atomic      Atomic             Coordinates (Angstroms)
 Number     Number       Type             X           Y           Z
 ---------------------------------------------------------------------
      1          6           0       -7.629300   -4.984051   -0.021539
      2          6           0       -6.866038   -4.212173    1.065345
      3          6           0       -6.908888   -5.001421    2.377605
      4          6           0       -5.410555   -4.005620    0.633736
      5          8           0       -7.528394   -2.987315    1.384175
      6          6           0       -7.544066   -1.962044    0.416556
      7          6           0       -6.315519   -1.083797    0.429636
      8          6           0       -5.725019   -0.738182    1.638552
      9          6           0       -4.605469    0.068513    1.668074
     10          6           0       -4.048993    0.551534    0.486173
     11          6           0       -2.865649    1.425025    0.530992
     12          6           0       -2.809164    2.482306    1.403702
     13          6           0       -1.699165    3.346308    1.460597
     14          6           0       -1.651209    4.442964    2.345253
     15          6           0       -0.567713    5.275793    2.369782
     16          6           0        0.511999    5.052654    1.502519
     17          6           0        0.498328    3.996473    0.634545
     18          6           0       -0.599042    3.110082    0.596186
     19          6           0       -0.644603    1.998591   -0.285492
     20          6           0        0.515202    1.684512   -1.162756
     21          6           0        1.667157    1.172573   -0.596476
     22          8           0        1.759112    0.945534    0.740032
     23          6           0        2.780739    0.826100   -1.406170
     24          6           0        4.008427    0.287150   -0.800035
     25          6           0        4.621185   -0.837252   -1.348013
     26          6           0        5.785673   -1.338291   -0.802362
     27          6           0        6.365842   -0.731553    0.304351
     28          6           0        7.646117   -1.287268    0.881481
     29          8           0        7.727019   -2.694185    0.850505
     30          6           0        7.138080   -3.431950    1.922675
     31          6           0        5.665375   -3.076696    2.150956
     32          6           0        7.931126   -3.236260    3.223619
     33          6           0        7.253585   -4.890354    1.468407
     34          6           0        5.759369    0.392029    0.848399
     35          6           0        4.594045    0.897470    0.304308
     36          6           0        2.689438    0.994237   -2.764973
     37          6           0        1.537502    1.522681   -3.377476
     38          6           0        1.452885    1.709525   -4.772319
     39          6           0        0.328267    2.238839   -5.340673
     40          6           0       -0.757904    2.613746   -4.535952
     41          6           0       -0.709081    2.443320   -3.180373
     42          6           0        0.431775    1.884873   -2.565435
     43          6           0       -1.757218    1.179969   -0.321814
     44          8           0       -1.812422    0.095181   -1.138232
     45          6           0       -4.646390    0.211633   -0.723157
     46          6           0       -5.766831   -0.596649   -0.748467
     47          1           0       -8.685439   -5.032026    0.233460
     48          1           0       -7.525373   -4.508806   -0.994300
     49          1           0       -7.239247   -5.995136   -0.096693
     50          1           0       -7.940740   -5.139677    2.688054
     51          1           0       -6.438198   -5.972399    2.254598
     52          1           0       -6.388408   -4.448432    3.154545
     53          1           0       -4.866690   -3.446228    1.390891
     54          1           0       -5.350040   -3.459201   -0.304234
     55          1           0       -4.932294   -4.972776    0.500465
     56          1           0       -8.415007   -1.348329    0.682570
     57          1           0       -7.711937   -2.358665   -0.592092
     58          1           0       -6.151372   -1.121638    2.553856
     59          1           0       -4.144062    0.316415    2.613453
     60          1           0       -3.650196    2.676693    2.053303
     61          1           0       -2.492344    4.612985    3.001960
     62          1           0       -0.538169    6.114008    3.050071
     63          1           0        1.356454    5.725668    1.522091
     64          1           0        1.326692    3.835105   -0.040355
     65          1           0        0.935573    1.220363    1.167854
     66          1           0        4.169312   -1.328177   -2.198231
     67          1           0        6.257053   -2.215242   -1.221107
     68          1           0        8.484898   -0.950713    0.257546
     69          1           0        7.805028   -0.893364    1.892718
     70          1           0        5.554015   -2.049289    2.488782
     71          1           0        5.248188   -3.735407    2.908553
     72          1           0        5.099193   -3.197191    1.230677
     73          1           0        7.598806   -3.953576    3.968667
     74          1           0        7.788785   -2.237178    3.629183
     75          1           0        8.991226   -3.389230    3.035244
     76          1           0        6.704954   -5.029772    0.541081
     77          1           0        6.851874   -5.558663    2.224334
     78          1           0        8.296578   -5.136219    1.289784
     79          1           0        6.203195    0.878183    1.706562
     80          1           0        4.137649    1.775007    0.735359
     81          1           0        3.534314    0.736733   -3.387020
     82          1           0        2.299014    1.427678   -5.382485
     83          1           0        0.270521    2.379093   -6.409900
     84          1           0       -1.635622    3.043356   -4.995815
     85          1           0       -1.543145    2.744712   -2.562940
     86          1           0       -0.997666    0.045434   -1.658298
     87          1           0       -4.234355    0.585990   -1.647430
     88          1           0       -6.220061   -0.852027   -1.696706
 ---------------------------------------------------------------------
 Rotational constants (GHZ):           0.0737711           0.0317979           0.0269549
 Leave Link  202 at Thu Jan 23 21:20:28 2025, MaxMem= 13421772800 cpu:               1.3 elap:               0.0
 (Enter /public/software/apps/Gaussian/g16/l301.exe)
 Standard basis: def2SVPP (5D, 7F)
 Ernie: Thresh=  0.10000D-02 Tol=  0.10000D-05 Strict=F.
   728 basis functions,  1318 primitive gaussians,   774 cartesian basis functions
   163 alpha electrons      163 beta electrons
       nuclear repulsion energy      5259.7445129078 Hartrees.
 IExCor=  402 DFT=T Ex+Corr=B3LYP ExCW=0 ScaHFX=  0.200000
 ScaDFX=  0.800000  0.720000  1.000000  0.810000 ScalE2=  1.000000  1.000000
 IRadAn=      5 IRanWt=     -1 IRanGd=            0 ICorTp=0 IEmpDi=141
 NAtoms=   88 NActive=   88 NUniq=   88 SFac= 1.00D+00 NAtFMM=   60 NAOKFM=T Big=T
 Integral buffers will be    131072 words long.
 Raffenetti 2 integral format.
 Two-electron integral symmetry is turned off.
 R6Disp:  Grimme-D3(BJ) Dispersion energy=       -0.2143053099 Hartrees.
 Nuclear repulsion after empirical dispersion term =     5259.5302075979 Hartrees.
 Leave Link  301 at Thu Jan 23 21:20:28 2025, MaxMem= 13421772800 cpu:               1.4 elap:               0.1
 (Enter /public/software/apps/Gaussian/g16/l302.exe)
 NPDir=0 NMtPBC=     1 NCelOv=     1 NCel=       1 NClECP=     1 NCelD=      1
         NCelK=      1 NCelE2=     1 NClLst=     1 CellRange=     0.0.
 One-electron integrals computed using PRISM.
   1 Symmetry operations used in ECPInt.
 ECPInt:  NShTT=   64980 NPrTT=  260284 LenC2=   45298 LenP2D=  108770.
 LDataN:  DoStor=T MaxTD1= 4 Len=   56
 NBasis=   728 RedAO= T EigKep=  1.56D-04  NBF=   728
 NBsUse=   728 1.00D-06 EigRej= -1.00D+00 NBFU=   728
 Precomputing XC quadrature grid using
 IXCGrd= 4 IRadAn=           5 IRanWt=          -1 IRanGd=           0 AccXCQ= 0.00D+00.
 Generated NRdTot=       0 NPtTot=           0 NUsed=           0 NTot=          32
 NSgBfM=   697   694   696   697   697 MxSgAt=    88 MxSgA2=    88.
 Leave Link  302 at Thu Jan 23 21:20:29 2025, MaxMem= 13421772800 cpu:              32.8 elap:               1.0
 (Enter /public/software/apps/Gaussian/g16/l303.exe)
 DipDrv:  MaxL=1.
 Leave Link  303 at Thu Jan 23 21:20:29 2025, MaxMem= 13421772800 cpu:               3.7 elap:               0.1
 (Enter /public/software/apps/Gaussian/g16/l401.exe)
 ExpMin= 1.22D-01 ExpMax= 2.27D+03 ExpMxC= 3.41D+02 IAcc=3 IRadAn=         5 AccDes= 0.00D+00
 Harris functional with IExCor=  402 and IRadAn=       5 diagonalized for initial guess.
 HarFok:  IExCor=  402 AccDes= 0.00D+00 IRadAn=         5 IDoV= 1 UseB2=F ITyADJ=14
 ICtDFT=  3500011 ScaDFX=  1.000000  1.000000  1.000000  1.000000
 FoFCou: FMM=F IPFlag=           0 FMFlag=      100000 FMFlg1=        2001
         NFxFlg=           0 DoJE=T BraDBF=F KetDBF=T FulRan=T
         wScrn=  0.000000 ICntrl=       500 IOpCl=  0 I1Cent=   200000004 NGrid=           0
         NMat0=    1 NMatS0=      1 NMatT0=    0 NMatD0=    1 NMtDS0=    0 NMtDT0=    0
 Symmetry not used in FoFCou.
 Harris En= -1925.43589305266    
 JPrj=0 DoOrth=F DoCkMO=F.
 Leave Link  401 at Thu Jan 23 21:20:31 2025, MaxMem= 13421772800 cpu:              64.9 elap:               2.1
 (Enter /public/software/apps/Gaussian/g16/l502.exe)
 Two-electron integral symmetry not used.
 Closed shell SCF:
 Using DIIS extrapolation, IDIIS=  1040.
 NGot= 13421772800 LenX= 13420541092 LenY= 13419941242
 Requested convergence on RMS density matrix=1.00D-08 within 128 cycles.
 Requested convergence on MAX density matrix=1.00D-06.
 Requested convergence on             energy=1.00D-06.
 No special actions if energy rises.
 Fock matrices will be formed incrementally for  20 cycles.
 Integral accuracy reduced to 1.0D-05 until final iterations.

 Cycle   1  Pass 0  IDiag  1:
 FoFJK:  IHMeth= 1 ICntrl=       0 DoSepK=F KAlg= 0 I1Cent=           0 FoldK=F
 IRaf= 770000000 NMat=       1 IRICut=       1 DoRegI=T DoRafI=F ISym2E= 0 IDoP0=0 IntGTp=1.
 FoFCou: FMM=T IPFlag=           0 FMFlag=      100000 FMFlg1=        2001
         NFxFlg=           0 DoJE=F BraDBF=F KetDBF=F FulRan=T
         wScrn=  0.000000 ICntrl=         0 IOpCl=  0 I1Cent=           0 NGrid=           0
         NMat0=    1 NMatS0=      1 NMatT0=    0 NMatD0=    1 NMtDS0=    0 NMtDT0=    0
 Symmetry not used in FoFCou.
 FMM levels:  10  Number of levels for PrismC:   9
 E= -1924.34528728304    
 DIIS: error= 2.76D-02 at cycle   1 NSaved=   1.
 NSaved= 1 IEnMin= 1 EnMin= -1924.34528728304     IErMin= 1 ErrMin= 2.76D-02
 ErrMax= 2.76D-02  0.00D+00 EMaxC= 1.00D-01 BMatC= 9.39D-01 BMatP= 9.39D-01
 IDIUse=3 WtCom= 7.24D-01 WtEn= 2.76D-01
 Coeff-Com:  0.100D+01
 Coeff-En:   0.100D+01
 Coeff:      0.100D+01
 Gap=     0.180 Goal=   None    Shift=    0.000
 GapD=    0.180 DampG=1.000 DampE=0.500 DampFc=0.5000 IDamp=-1.
 Damping current iteration by 5.00D-01
 RMSDP=4.60D-03 MaxDP=1.88D-01              OVMax= 1.69D-01

 Cycle   2  Pass 0  IDiag  1:
 RMSU=  2.13D-03    CP:  9.44D-01
 E= -1924.83622265874     Delta-E=       -0.490935375697 Rises=F Damp=T
 DIIS: error= 3.56D-03 at cycle   2 NSaved=   2.
 NSaved= 2 IEnMin= 2 EnMin= -1924.83622265874     IErMin= 2 ErrMin= 3.56D-03
 ErrMax= 3.56D-03  0.00D+00 EMaxC= 1.00D-01 BMatC= 4.29D-02 BMatP= 9.39D-01
 IDIUse=3 WtCom= 9.64D-01 WtEn= 3.56D-02
 Coeff-Com:  0.350D-01 0.965D+00
 Coeff-En:   0.434D-01 0.957D+00
 Coeff:      0.353D-01 0.965D+00
 Gap=     0.183 Goal=   None    Shift=    0.000
 RMSDP=1.54D-03 MaxDP=1.06D-01 DE=-4.91D-01 OVMax= 1.50D-01

 Cycle   3  Pass 0  IDiag  1:
 RMSU=  1.43D-03    CP:  9.06D-01  1.03D+00
 E= -1925.35054122531     Delta-E=       -0.514318566565 Rises=F Damp=F
 DIIS: error= 7.24D-03 at cycle   3 NSaved=   3.
 NSaved= 3 IEnMin= 3 EnMin= -1925.35054122531     IErMin= 2 ErrMin= 3.56D-03
 ErrMax= 7.24D-03  0.00D+00 EMaxC= 1.00D-01 BMatC= 4.56D-02 BMatP= 4.29D-02
 IDIUse=3 WtCom= 9.28D-01 WtEn= 7.24D-02
 Coeff-Com: -0.185D-01 0.515D+00 0.504D+00
 Coeff-En:   0.000D+00 0.000D+00 0.100D+01
 Coeff:     -0.172D-01 0.477D+00 0.540D+00
 Gap=     0.168 Goal=   None    Shift=    0.000
 RMSDP=7.45D-04 MaxDP=3.01D-02 DE=-5.14D-01 OVMax= 9.49D-02

 Cycle   4  Pass 0  IDiag  1:
 RMSU=  6.03D-04    CP:  9.07D-01  1.12D+00  7.25D-01
 E= -1925.38165919294     Delta-E=       -0.031117967635 Rises=F Damp=F
 DIIS: error= 4.71D-03 at cycle   4 NSaved=   4.
 NSaved= 4 IEnMin= 4 EnMin= -1925.38165919294     IErMin= 2 ErrMin= 3.56D-03
 ErrMax= 4.71D-03  0.00D+00 EMaxC= 1.00D-01 BMatC= 1.66D-02 BMatP= 4.29D-02
 IDIUse=3 WtCom= 9.53D-01 WtEn= 4.71D-02
 Coeff-Com: -0.151D-01 0.153D+00 0.378D+00 0.484D+00
 Coeff-En:   0.000D+00 0.000D+00 0.320D+00 0.680D+00
 Coeff:     -0.144D-01 0.145D+00 0.376D+00 0.493D+00
 Gap=     0.157 Goal=   None    Shift=    0.000
 RMSDP=3.51D-04 MaxDP=1.82D-02 DE=-3.11D-02 OVMax= 4.86D-02

 Cycle   5  Pass 0  IDiag  1:
 RMSU=  1.72D-04    CP:  9.05D-01  1.10D+00  8.13D-01  5.44D-01
 E= -1925.40033589674     Delta-E=       -0.018676703800 Rises=F Damp=F
 DIIS: error= 9.02D-04 at cycle   5 NSaved=   5.
 NSaved= 5 IEnMin= 5 EnMin= -1925.40033589674     IErMin= 5 ErrMin= 9.02D-04
 ErrMax= 9.02D-04  0.00D+00 EMaxC= 1.00D-01 BMatC= 1.20D-03 BMatP= 1.66D-02
 IDIUse=3 WtCom= 9.91D-01 WtEn= 9.02D-03
 Coeff-Com: -0.674D-02 0.406D-01 0.176D+00 0.299D+00 0.491D+00
 Coeff-En:   0.000D+00 0.000D+00 0.000D+00 0.584D-02 0.994D+00
 Coeff:     -0.668D-02 0.402D-01 0.174D+00 0.296D+00 0.496D+00
 Gap=     0.156 Goal=   None    Shift=    0.000
 RMSDP=8.51D-05 MaxDP=3.98D-03 DE=-1.87D-02 OVMax= 1.33D-02

 Cycle   6  Pass 0  IDiag  1:
 RMSU=  6.29D-05    CP:  9.05D-01  1.10D+00  8.12D-01  5.86D-01  7.03D-01
 E= -1925.40155296936     Delta-E=       -0.001217072617 Rises=F Damp=F
 DIIS: error= 3.00D-04 at cycle   6 NSaved=   6.
 NSaved= 6 IEnMin= 6 EnMin= -1925.40155296936     IErMin= 6 ErrMin= 3.00D-04
 ErrMax= 3.00D-04  0.00D+00 EMaxC= 1.00D-01 BMatC= 1.22D-04 BMatP= 1.20D-03
 IDIUse=3 WtCom= 9.97D-01 WtEn= 3.00D-03
 Coeff-Com: -0.192D-02 0.380D-02 0.512D-01 0.108D+00 0.290D+00 0.549D+00
 Coeff-En:   0.000D+00 0.000D+00 0.000D+00 0.000D+00 0.506D-01 0.949D+00
 Coeff:     -0.192D-02 0.379D-02 0.511D-01 0.107D+00 0.289D+00 0.550D+00
 Gap=     0.156 Goal=   None    Shift=    0.000
 RMSDP=3.09D-05 MaxDP=1.33D-03 DE=-1.22D-03 OVMax= 4.80D-03

 Cycle   7  Pass 0  IDiag  1:
 RMSU=  2.49D-05    CP:  9.05D-01  1.10D+00  8.14D-01  5.88D-01  7.39D-01
                    CP:  7.28D-01
 E= -1925.40170605019     Delta-E=       -0.000153080837 Rises=F Damp=F
 DIIS: error= 1.37D-04 at cycle   7 NSaved=   7.
 NSaved= 7 IEnMin= 7 EnMin= -1925.40170605019     IErMin= 7 ErrMin= 1.37D-04
 ErrMax= 1.37D-04  0.00D+00 EMaxC= 1.00D-01 BMatC= 1.81D-05 BMatP= 1.22D-04
 IDIUse=3 WtCom= 9.99D-01 WtEn= 1.37D-03
 Coeff-Com: -0.678D-03-0.762D-03 0.184D-01 0.444D-01 0.143D+00 0.351D+00
 Coeff-Com:  0.444D+00
 Coeff-En:   0.000D+00 0.000D+00 0.000D+00 0.000D+00 0.000D+00 0.000D+00
 Coeff-En:   0.100D+01
 Coeff:     -0.678D-03-0.761D-03 0.184D-01 0.443D-01 0.143D+00 0.351D+00
 Coeff:      0.445D+00
 Gap=     0.156 Goal=   None    Shift=    0.000
 RMSDP=1.42D-05 MaxDP=7.06D-04 DE=-1.53D-04 OVMax= 1.47D-03

 Cycle   8  Pass 0  IDiag  1:
 RMSU=  1.31D-05    CP:  9.05D-01  1.10D+00  8.14D-01  5.89D-01  7.16D-01
                    CP:  7.69D-01  9.10D-01
 E= -1925.40173579611     Delta-E=       -0.000029745912 Rises=F Damp=F
 DIIS: error= 4.59D-05 at cycle   8 NSaved=   8.
 NSaved= 8 IEnMin= 8 EnMin= -1925.40173579611     IErMin= 8 ErrMin= 4.59D-05
 ErrMax= 4.59D-05  0.00D+00 EMaxC= 1.00D-01 BMatC= 1.56D-06 BMatP= 1.81D-05
 IDIUse=1 WtCom= 1.00D+00 WtEn= 0.00D+00
 Coeff-Com: -0.204D-03-0.801D-03 0.620D-02 0.163D-01 0.591D-01 0.162D+00
 Coeff-Com:  0.272D+00 0.485D+00
 Coeff:     -0.204D-03-0.801D-03 0.620D-02 0.163D-01 0.591D-01 0.162D+00
 Coeff:      0.272D+00 0.485D+00
 Gap=     0.156 Goal=   None    Shift=    0.000
 RMSDP=1.01D-05 MaxDP=3.75D-04 DE=-2.97D-05 OVMax= 2.93D-04

 Cycle   9  Pass 0  IDiag  1:
 RMSU=  7.97D-06    CP:  9.05D-01  1.10D+00  8.14D-01  5.90D-01  7.14D-01
                    CP:  7.69D-01  1.08D+00  1.33D+00
 E= -1925.40173424551     Delta-E=        0.000001550601 Rises=F Damp=F
 DIIS: error= 3.18D-05 at cycle   9 NSaved=   9.
 NSaved= 9 IEnMin= 8 EnMin= -1925.40173579611     IErMin= 9 ErrMin= 3.18D-05
 ErrMax= 3.18D-05  0.00D+00 EMaxC= 1.00D-01 BMatC= 3.00D-07 BMatP= 1.56D-06
 IDIUse=1 WtCom= 1.00D+00 WtEn= 0.00D+00
 Coeff-Com: -0.569D-04-0.435D-03 0.206D-02 0.573D-02 0.230D-01 0.667D-01
 Coeff-Com:  0.128D+00 0.315D+00 0.460D+00
 Coeff:     -0.569D-04-0.435D-03 0.206D-02 0.573D-02 0.230D-01 0.667D-01
 Coeff:      0.128D+00 0.315D+00 0.460D+00
 Gap=     0.156 Goal=   None    Shift=    0.000
 RMSDP=1.26D-05 MaxDP=5.71D-04 DE= 1.55D-06 OVMax= 6.53D-05

 Cycle  10  Pass 0  IDiag  1:
 RMSU=  7.35D-06    CP:  9.05D-01  1.10D+00  8.15D-01  5.91D-01  7.13D-01
                    CP:  7.76D-01  1.23D+00  1.82D+00  1.88D+00
 E= -1925.40173479891     Delta-E=       -0.000000553401 Rises=F Damp=F
 DIIS: error= 4.23D-05 at cycle  10 NSaved=  10.
 NSaved=10 IEnMin= 8 EnMin= -1925.40173579611     IErMin= 9 ErrMin= 3.18D-05
 ErrMax= 4.23D-05  0.00D+00 EMaxC= 1.00D-01 BMatC= 3.52D-07 BMatP= 3.00D-07
 IDIUse=1 WtCom= 1.00D+00 WtEn= 0.00D+00
 Coeff-Com: -0.436D-04-0.496D-03 0.186D-02 0.538D-02 0.229D-01 0.687D-01
 Coeff-Com:  0.141D+00 0.388D+00 0.740D+00-0.367D+00
 Coeff:     -0.436D-04-0.496D-03 0.186D-02 0.538D-02 0.229D-01 0.687D-01
 Coeff:      0.141D+00 0.388D+00 0.740D+00-0.367D+00
 Gap=     0.156 Goal=   None    Shift=    0.000
 RMSDP=1.04D-05 MaxDP=4.52D-04 DE=-5.53D-07 OVMax= 3.11D-05

 Cycle  11  Pass 0  IDiag  1:
 RMSU=  4.60D-06    CP:  9.05D-01  1.10D+00  8.15D-01  5.91D-01  7.13D-01
                    CP:  7.73D-01  1.16D+00  1.54D+00  1.16D+00  1.78D-01
 E= -1925.40173851709     Delta-E=       -0.000003718179 Rises=F Damp=F
 DIIS: error= 3.58D-05 at cycle  11 NSaved=  11.
 NSaved=11 IEnMin=11 EnMin= -1925.40173851709     IErMin= 9 ErrMin= 3.18D-05
 ErrMax= 3.58D-05  0.00D+00 EMaxC= 1.00D-01 BMatC= 2.73D-07 BMatP= 3.00D-07
 IDIUse=1 WtCom= 1.00D+00 WtEn= 0.00D+00
 Coeff-Com: -0.325D-04-0.448D-03 0.151D-02 0.445D-02 0.194D-01 0.590D-01
 Coeff-Com:  0.124D+00 0.352D+00 0.724D+00-0.620D+00 0.337D+00
 Coeff:     -0.325D-04-0.448D-03 0.151D-02 0.445D-02 0.194D-01 0.590D-01
 Coeff:      0.124D+00 0.352D+00 0.724D+00-0.620D+00 0.337D+00
 Gap=     0.156 Goal=   None    Shift=    0.000
 RMSDP=5.53D-06 MaxDP=2.46D-04 DE=-3.72D-06 OVMax= 1.20D-05

 Initial convergence to 1.0D-05 achieved.  Increase integral accuracy.
 Cycle  12  Pass 1  IDiag  1:
 E= -1925.40148314849     Delta-E=        0.000255368598 Rises=F Damp=F
 DIIS: error= 6.51D-04 at cycle   1 NSaved=   1.
 NSaved= 1 IEnMin= 1 EnMin= -1925.40148314849     IErMin= 1 ErrMin= 6.51D-04
 ErrMax= 6.51D-04  0.00D+00 EMaxC= 1.00D-01 BMatC= 1.02D-04 BMatP= 1.02D-04
 IDIUse=3 WtCom= 9.93D-01 WtEn= 6.51D-03
 Coeff-Com:  0.100D+01
 Coeff-En:   0.100D+01
 Coeff:      0.100D+01
 Gap=     0.156 Goal=   None    Shift=    0.000
 RMSDP=5.53D-06 MaxDP=2.46D-04 DE= 2.55D-04 OVMax= 1.19D-03

 Cycle  13  Pass 1  IDiag  1:
 RMSU=  5.98D-04    CP:  9.97D-01
 E= -1925.40159637002     Delta-E=       -0.000113221533 Rises=F Damp=F
[...]
 004864,-0.00062015,-0.00003192,0.00008252,-0.00000781,-0.00000977,0.00
 000316,0.00001336,0.00000385,0.00000499,0.00000560,0.00000693,0.000005
 78,0.00000580,-0.00000148,-0.00000493,-0.00000249,-0.00005505,0.000015
 48,-0.00005101,-0.00000329,0.00000360,0.00000198,0.00000134,-0.0000013
 9,-0.00000130,0.00000492,-0.00000398,0.00000122,0.00000142,-0.00000130
 ,0.00000233,0.00000003,-0.00000066,-0.00000363,-0.00000019,-0.00000243
 ,0.00000168,0.00000130,0.00000312,0.00000178,-0.00000042,-0.00000131,0
 .00000123,-0.00000036,-0.00000015,-0.00000162,0.00000145,0.00000026,-0
 .00000036,0.00000001,0.00000123,0.00000071,-0.00000061,-0.00000146,0.0
 0000089,0.00000140,0.00000024,-0.00000056,0.00000157,0.00000062,0.0000
 0325,-0.00000571,-0.00000337,-0.00000375,0.00000418,-0.00000012,-0.000
 00448,0.00000481,-0.00000066,-0.00000432,0.00000560,0.00000065,-0.0000
 1027,-0.00000279,0.00001167,-0.00001351,0.00004080,-0.00006837,-0.0000
 0482,-0.00047750,0.00009075,0.00009617,0.10926085,0.00001760,-0.000036
 99,-0.00000332,-0.00013875,0.00018935,0.00001826,0.00002529,-0.0000320
 1,-0.00000828,0.00002662,-0.00003665,0.00000724,-0.00001295,-0.0003282
 5,0.00016566,0.00017645,0.00025804,0.00067444,-0.00634285,0.00254674,-
 0.00125136,0.00005114,-0.00075702,-0.00043208,-0.00367772,0.00354573,-
 0.00222460,0.00420572,0.00651177,-0.00957201,0.00285117,-0.00179052,0.
 00034925,-0.00027725,-0.00040627,-0.00013561,0.00006569,0.00008852,-0.
 00014513,-0.00001434,-0.00004745,-0.00002228,0.00005230,-0.00001208,-0
 .00001607,-0.00000499,0.00003242,0.00002333,-0.00001868,-0.00004333,0.
 00000908,-0.00003230,0.00006618,0.00009039,-0.00005676,-0.00021989,-0.
 00022653,-0.00002650,-0.00000620,-0.00001153,0.00001130,0.00000374,-0.
 00000861,0.00000660,-0.00002368,0.00001226,-0.00000324,-0.00000083,0.0
 0000888,-0.00000341,0.00000121,-0.00000385,0.00000178,-0.00000027,0.00
 000680,0.00000100,-0.00000176,0.00000012,0.00000096,-0.00000144,0.0000
 0030,-0.00000065,0.00000652,-0.00000023,-0.00000168,-0.00000841,0.0000
 0113,0.00000399,0.00000477,-0.00000288,-0.00000144,-0.00000014,0.00000
 173,-0.00000095,-0.00000050,0.00000072,0.00000008,-0.00000043,0.000000
 74,-0.00000018,-0.00000196,-0.00000025,0.00000070,0.00000019,0.0000019
 9,-0.00000095,0.00000015,-0.00000864,0.00002078,-0.00000844,-0.0000009
 4,0.00001292,-0.00000540,-0.00001423,0.00000246,-0.00001155,0.00000343
 ,0.00001793,-0.00001574,0.00000813,-0.00005910,0.00006064,0.00005636,0
 .00001755,-0.00000303,-0.00006276,-0.00017495,0.00098586,0.00027466,-0
 .00038720,-0.00039138,-0.00022796,-0.04239489,-0.06566981,0.06077867,-
 0.00849311,-0.00047617,0.01727801,0.00000547,0.00000565,-0.00000076,-0
 .00000533,0.00001080,0.00000550,-0.00000469,-0.00001625,-0.00000095,0.
 00000258,0.00000529,-0.00000810,0.00000160,-0.00001096,0.00001198,-0.0
 0000237,0.00000525,-0.00000340,-0.00001502,0.00000832,-0.00000519,-0.0
 0001396,0.00000488,0.00000231,0.00000435,-0.00001860,-0.00000337,-0.00
 006020,0.00001508,-0.00008682,0.00001229,-0.00003547,-0.00005162,0.000
 49889,-0.00063686,0.00007841,0.00012112,0.00034646,-0.00057488,0.00000
 470,-0.00000997,0.00002472,-0.00000402,0.00000353,-0.00000605,-0.00000
 092,0.00000301,0.00000009,-0.00000092,0.00000338,-0.00000316,0.0000050
 6,0.00000410,-0.00000195,-0.00000826,0.00002892,-0.00000188,0.00000067
 ,0.00000156,-0.00000234,0.00000169,-0.00000015,-0.00000015,0.00000012,
 -0.00000091,0.00000070,0.00000045,-0.00000030,-0.00000034,0.00000006,-
 0.00000032,-0.00000092,0.00000048,-0.00000084,0.00000124,0.00000072,0.
 00000113,-0.00000113,0.00000022,-0.00000023,0.00000045,0.00000016,-0.0
 0000044,-0.00000064,-0.00000054,0.00000018,-0.00000012,0.00000011,0.00
 000049,-0.00000097,0.00000039,-0.00000055,0.00000049,-0.00000055,0.000
 00003,-0.00000006,0.00000010,0.00000044,-0.00000027,-0.00000043,0.0000
 0002,-0.00000155,0.00000377,0.00000054,-0.00000043,0.00000529,0.000001
 11,-0.00000049,0.00000583,0.00000280,-0.00000557,-0.00000280,0.0000061
 0,0.00001309,-0.00000222,-0.00006040,-0.00003797,0.00000492,0.00005307
 ,-0.00006481,0.05122591,0.05859214,-0.00000376,0.00000943,0.00000449,0
 .00001734,-0.00008376,0.00000603,-0.00000875,0.00000364,-0.00000272,-0
 .00001933,0.00000933,0.00000379,-0.00003532,0.00005591,-0.00001014,-0.
 00014229,-0.00021393,0.00014727,-0.00027210,-0.00088522,0.00147216,-0.
 00066292,-0.00042149,0.00032047,-0.00268368,-0.00294730,-0.00291024,0.
 01398657,0.00749827,-0.01790802,0.00042639,0.00141705,0.00101434,-0.00
 008463,-0.00039476,-0.00006210,0.00006545,0.00016145,0.00005655,0.0000
 0167,-0.00006819,-0.00005118,0.00004134,0.00004258,0.00002092,-0.00002
 626,0.00000052,0.00001528,-0.00000499,0.00002469,0.00004622,0.00000732
 ,-0.00004224,-0.00008066,0.00000082,0.00026347,0.00026233,-0.00002479,
 0.00009048,-0.00001505,-0.00004343,0.00003557,-0.00005159,0.00004074,-
 0.00001513,0.00003915,-0.00002471,0.00000516,-0.00000223,-0.00000897,0
 .00000637,-0.00001449,0.00000320,-0.00000068,0.00000612,0.00000436,0.0
 0000161,0.00000422,0.00000058,-0.00000388,0.00000144,-0.00000981,0.000
 01931,-0.00000608,0.00000588,-0.00002405,0.00000976,0.00000104,0.00001
 436,-0.00001100,-0.00000212,-0.00000107,0.00000092,0.00000035,-0.00000
 104,0.00000182,-0.00000025,-0.00000087,0.,0.00000059,-0.00000474,-0.00
 000200,0.00000480,-0.00000064,0.00000167,0.00001480,-0.00000949,-0.000
 01278,0.,-0.00000288,0.00000905,-0.00000219,0.00000066,-0.00000481,0.0
 0000853,-0.00000805,-0.00001564,0.00000463,-0.00001769,0.00001105,-0.0
 0004659,0.00001592,0.00001974,0.00005716,-0.00001720,0.00006562,-0.000
 58842,-0.00183099,-0.00174106,0.00186100,0.00057739,0.00104279,0.10888
 136,0.06199893,-0.26828606,-0.00234891,-0.00185814,0.00486240,0.000002
 05,-0.00000167,-0.00000057,0.00000053,-0.00000559,-0.00000420,0.,0.000
 00801,-0.00000059,0.00000261,-0.00000214,0.00000124,-0.00000067,0.0000
 0778,-0.00000144,0.00000253,-0.00000335,0.00000579,0.00000941,-0.00001
 338,0.00000693,0.00000702,-0.00001136,-0.00000760,0.00000071,0.0000159
 3,-0.00000359,0.00003974,0.00004402,-0.00001661,0.00002349,0.00000408,
 0.00000411,-0.00000942,0.00011212,-0.00001817,0.00066125,0.00044158,-0
 .00097870,-0.00002276,0.00010636,0.00001878,-0.00000981,0.00001040,0.0
 0000540,-0.00000055,0.00000561,0.00000069,0.00000248,0.00000805,0.0000
 0105,-0.00000350,-0.00000299,-0.00000283,-0.00004101,0.00001236,-0.000
 04771,-0.00000268,0.00000338,0.00000167,0.00000129,-0.00000098,-0.0000
 0136,0.00000391,-0.00000366,0.00000124,0.00000142,-0.00000110,0.000002
 08,0.00000026,-0.00000019,-0.00000329,0.00000013,-0.00000281,0.0000018
 0,0.00000126,0.00000292,0.00000126,-0.00000022,-0.00000146,0.00000118,
 -0.00000008,0.,-0.00000152,0.00000085,0.00000029,-0.00000022,0.0000002
 2,0.00000114,0.00000047,-0.00000037,-0.00000152,0.00000095,0.00000079,
 0.00000027,-0.00000043,0.00000172,0.00000086,0.00000266,-0.00000486,-0
 .00000238,-0.00000382,0.00000395,0.00000086,-0.00000363,0.00000424,0.0
 0000030,-0.00000367,0.00000434,0.00000229,-0.00000731,-0.00000444,0.00
 001492,-0.00000533,-0.00001039,-0.00003311,0.00001761,0.00019435,0.000
 11279,0.00043838,-0.11921808,-0.06482562,0.28151191,-0.00004514,0.0000
 6288,0.00002143,0.00028583,-0.00032606,0.00003570,-0.00005178,0.000049
 39,0.00001096,-0.00004927,0.00000984,-0.00010343,0.00012353,0.00057079
 ,-0.00067008,-0.00138180,0.00182255,0.00089025,0.00863526,0.00465331,0
 .01223008,0.00112142,-0.00385432,0.00231156,-0.00055048,0.00005960,0.0
 0060461,-0.00060407,-0.00576662,0.00140641,0.00010699,-0.00027975,-0.0
 0107371,-0.00032261,-0.00006523,0.00003148,0.00002072,-0.00012816,0.00
 000957,-0.00003062,0.00001061,0.00003391,-0.00002755,-0.00000954,-0.00
 000032,-0.00000040,-0.00002246,-0.00001504,0.00001662,0.00001467,-0.00
 000479,-0.00000769,-0.00003909,-0.00003634,0.00000802,0.00006744,0.000
 04134,0.00001721,-0.00002073,-0.00000036,-0.00000134,0.00000036,-0.000
 01520,-0.00002047,0.00001027,0.00002974,0.00000271,0.00000023,0.000000
 52,0.00000139,-0.00000042,0.00000590,-0.00000187,-0.00000064,-0.000004
 49,-0.00000056,0.00000171,0.00000018,-0.00000034,0.00000100,0.00000005
 ,0.00000147,-0.00000555,-0.00000014,0.00000021,0.00000750,-0.00000029,
 -0.00000185,-0.00000421,0.00000170,0.00000047,0.00000008,-0.00000119,0
 .00000052,0.00000048,-0.00000048,-0.00000042,0.00000033,-0.00000055,-0
 .00000026,0.00000110,0.00000128,0.00000126,-0.00000237,-0.00000274,-0.
 00000837,0.00000501,0.00000724,-0.00000561,0.00000231,0.00000533,0.000
 00011,0.00000325,0.00000019,-0.00000073,0.00000485,0.00001150,0.000001
 61,0.00000859,-0.00000326,0.00002053,0.00000331,0.00000685,-0.00002492
 ,0.00001538,-0.00003174,0.00010990,-0.00024602,-0.00020277,-0.00007276
 ,0.00021808,0.00021303,-0.00465634,-0.00822396,-0.02338045,-0.07974196
 ,-0.04023499,-0.07702346,-0.00001460,-0.00001382,0.00000275,0.00002159
 ,-0.00000682,-0.00001476,0.00000525,0.00002834,-0.00000536,-0.00001007
 ,-0.00000993,0.00002047,-0.00000302,0.00001596,-0.00002259,0.00000116,
 -0.00000343,-0.00000520,-0.00000749,-0.00000045,0.00000549,0.00003687,
 0.00002819,0.00003624,-0.00002017,-0.00000490,0.00002385,-0.00044966,-
 0.00008289,0.00009962,0.00016047,-0.00011937,0.00022449,0.00028776,0.0
 0016223,0.00070515,-0.00035423,0.00045146,-0.00010896,-0.00002356,0.00
 001998,-0.00002455,0.00000512,0.00000227,0.00000188,-0.00000427,-0.000
 00573,-0.00000338,-0.00000295,-0.00000336,-0.00000056,-0.00000822,-0.0
 0000514,0.00000145,0.00002773,-0.00002046,0.00000293,0.,-0.00000101,0.
 00000161,-0.00000129,0.00000039,-0.00000002,-0.00000031,0.00000065,-0.
 00000054,-0.00000027,0.00000027,0.00000047,0.00000028,0.00000070,0.000
 00094,-0.00000023,0.00000037,-0.00000106,-0.00000039,-0.00000112,0.000
 00060,-0.00000007,0.00000007,-0.00000042,0.00000002,0.00000057,0.00000
 062,0.00000014,-0.00000014,0.00000011,0.00000010,-0.00000051,0.0000007
 9,-0.00000025,0.00000042,-0.00000048,0.00000015,0.00000008,0.00000012,
 0.00000052,-0.00000033,0.00000033,0.00000151,0.00000114,0.00000131,-0.
 00000212,-0.00000187,0.00000109,-0.00000229,-0.00000182,0.00000170,-0.
 00000290,-0.00000373,0.00000313,0.00000091,-0.00001002,0.00000317,-0.0
 0000647,-0.00000362,-0.00001345,-0.00001697,-0.00003414,-0.00005593,-0
 .00068252,0.00277004,-0.00003339,0.07819815,0.00000260,0.00000780,0.00
 002206,-0.00004673,0.00001838,0.00004006,0.00002926,-0.00001923,0.0000
 0744,-0.00000706,0.00006516,0.00008922,-0.00034520,-0.00006576,-0.0002
 6525,0.00236537,-0.00153593,0.00173272,0.00231075,0.00596564,0.0067438
 1,-0.00340323,0.00400756,0.00144576,-0.00013141,-0.00072888,0.00052792
 ,-0.00616466,0.00260127,0.00037500,0.00013138,0.00015687,-0.00083486,-
 0.00017803,-0.00008304,0.00011050,0.00007286,-0.00004322,-0.00002193,-
 0.00003200,-0.00000317,0.00002265,-0.00002120,-0.00000883,0.00000105,-
 0.00000509,-0.00003099,-0.00001788,0.00002865,0.00002016,0.00000288,-0
 .00003791,-0.00004096,-0.00002746,0.00001938,0.00004972,0.00004237,0.0
 0001592,-0.00001947,-0.00000074,-0.00000053,0.00000411,-0.00002207,-0.
 00001917,-0.00000062,0.00003581,0.00000087,-0.00000035,0.00000368,-0.0
 0000017,-0.00000014,0.00000456,-0.00000120,-0.00000093,-0.00000054,-0.
 00000096,-0.00000004,-0.00000027,0.00000042,0.00000016,0.00000011,0.00
 000311,-0.00000239,0.00000087,-0.00000365,0.00000301,-0.00000050,0.000
 00303,-0.00000172,0.00000067,-0.00000091,0.00000043,-0.00000001,-0.000
 00049,0.00000022,-0.00000019,-0.00000028,0.00000015,-0.00000003,-0.000
 00059,0.00000056,0.00000174,0.00000093,-0.00000230,-0.00000162,-0.0000
 0798,0.00000298,0.00000303,-0.00000162,-0.00000044,0.00000597,0.000001
 92,0.00000056,-0.00000354,0.00000140,0.00000056,0.00001191,-0.00000727
 ,0.00000933,-0.00000987,0.00001345,-0.00000087,0.00001313,-0.00002100,
 0.00001188,-0.00003388,0.00002711,-0.00013014,-0.00003592,0.00004392,0
 .00008132,0.00008386,-0.00576955,-0.00224837,-0.01801928,-0.04096020,-
 0.07709408,-0.08204493,0.00001302,0.00000263,-0.00000723,-0.00001204,-
 0.00001060,-0.00001896,-0.00000131,0.00001002,-0.00000744,0.00001207,0
 .00000464,-0.00001360,-0.00000075,-0.00000039,0.00000263,-0.00000599,0
 .00000011,-0.00000395,0.00000439,0.00000177,-0.00001488,0.00001115,-0.
 00003404,-0.00006246,0.00000213,0.00002541,-0.00003442,0.00048294,0.00
 019417,-0.00004893,-0.00002119,-0.00016960,-0.00062204,-0.00000500,0.0
 0030450,0.00042005,0.00046990,-0.00062476,-0.00001086,0.00003877,0.000
 01848,-0.00001390,0.00000363,0.00000351,-0.00000142,-0.00000420,-0.000
 00536,-0.00000439,-0.00000349,-0.00000255,-0.00000176,-0.00000688,-0.0
 0000239,0.00000089,0.00002404,-0.00000947,0.00000229,0.00000078,0.0000
 0002,-0.00000048,0.00000007,0.00000061,-0.00000005,-0.00000119,0.00000
 036,-0.00000003,0.,0.00000019,-0.00000025,0.00000024,0.00000046,0.0000
 0058,0.00000042,-0.00000024,0.00000019,0.00000002,-0.00000028,-0.00000
 090,0.00000029,0.,-0.00000011,0.00000030,0.00000014,0.00000022,-0.0000
 0081,0.00000001,0.00000013,0.00000029,-0.00000010,-0.00000045,0.000000
 38,0.,0.00000008,-0.00000085,0.00000001,0.00000016,0.00000049,-0.00000
 004,-0.00000047,0.00000180,0.00000134,0.00000056,-0.00000065,-0.000000
 25,0.00000102,-0.00000045,-0.00000037,0.00000150,-0.00000268,-0.000001
 29,0.00000328,0.00000117,-0.00000889,0.00000725,-0.00000767,0.00000238
 ,-0.00001598,0.00001992,-0.00000797,-0.00000697,0.00260606,-0.00227630
 ,0.00059833,0.04847666,0.07163816,0.00001018,0.00000697,-0.00006215,0.
 00001257,-0.00003830,-0.00005534,-0.00004123,-0.00001540,-0.00001775,-
 0.00002762,0.00001052,-0.00019961,0.00005016,0.00035831,0.00055670,-0.
 00185127,-0.00189419,0.00002895,-0.01018035,-0.00991530,-0.01905172,0.
 00372309,0.00195560,-0.00295871,0.00069795,0.00060926,0.00038683,0.000
 58121,-0.00016843,0.00186462,0.00024269,0.00004470,0.00000311,-0.00007
 124,0.00003811,0.00002122,-0.00001024,-0.00000599,-0.00001633,-0.00001
 408,0.00001261,0.00002037,-0.00001897,-0.00000954,0.00000851,-0.000003
 04,-0.00001831,-0.00001258,0.00001590,0.00000507,-0.00000412,-0.000017
 89,-0.00002563,-0.00001282,-0.00000048,0.00002469,0.00001105,0.0000113
 4,-0.00001869,-0.00000281,0.00000280,-0.00000236,-0.00000266,-0.000021
 25,0.00000816,0.00001139,0.00000960,-0.00000192,0.00000002,0.00000392,
 -0.00000248,0.00000767,-0.00000189,0.00000003,-0.00000443,-0.00000248,
 -0.00000021,-0.00000190,0.00000002,0.00000196,-0.00000047,0.00000608,-
 0.00001227,0.00000250,-0.00000384,0.00001569,-0.00000437,0.00000004,-0
 .00000926,0.00000571,0.00000056,0.00000056,-0.00000105,-0.00000009,0.0
 0000072,-0.00000111,-0.00000033,0.00000054,-0.00000009,-0.00000088,0.0
 0000271,0.00000146,-0.00000143,-0.00000127,-0.00000187,-0.00000504,0.0
 0000289,0.00000663,-0.00000636,0.00000155,0.00000328,0.00000057,0.0000
 0040,0.00000237,-0.00000355,0.00000231,0.00000167,-0.00000168,0.000001
 49,-0.00000789,0.00001101,-0.00000770,0.00000503,-0.00001926,0.0000085
 6,-0.00002021,0.00000494,-0.00005585,-0.00006553,-0.00007889,0.0000516
 1,0.00004877,0.00134254,0.00104707,0.00250953,-0.07789966,-0.08263431,
 -0.26896994,-0.00000725,-0.00000128,0.00001345,0.00001594,0.00002869,0
 .00004898,0.00000292,-0.00000940,0.00002106,-0.00000375,-0.00000340,0.
 00001431,0.00000354,0.00000334,0.00000816,0.00001453,-0.00000180,0.000
 02701,0.00004636,-0.00003759,0.00008823,-0.00005492,0.00004969,0.00000
 367,0.00001353,0.00000506,0.00005808,0.00021668,0.00025907,-0.00008291
 ,0.00073049,0.00095289,0.00058621,-0.00066314,-0.00062804,-0.00100203,
 -0.00011618,-0.00000371,-0.00004827,-0.00000302,0.00001657,0.00000660,
 0.00000268,0.00000495,-0.00000056,-0.00000203,-0.00000485,-0.00000346,
 -0.00000388,-0.00000314,-0.00000119,-0.00000583,-0.00000247,0.00000171
 ,0.00002535,-0.00001339,0.00000522,0.00000123,-0.00000174,0.00000014,-
 0.00000105,0.00000070,0.00000074,-0.00000221,0.00000204,-0.00000076,-0
 .00000069,0.00000072,-0.00000063,0.00000029,0.00000095,0.00000207,0.00
 000007,0.00000107,-0.00000142,-0.00000076,-0.00000197,-0.00000047,0.00
 000024,0.00000057,-0.00000085,0.00000022,0.00000053,0.00000108,-0.0000
 0068,-0.00000021,0.00000028,0.00000003,-0.00000085,0.00000013,0.000000
 20,0.00000090,-0.00000081,-0.00000063,-0.00000004,0.00000038,0.,-0.000
 00047,-0.00000105,0.00000271,0.00000177,0.00000184,-0.00000220,-0.0000
 0061,0.00000226,-0.00000283,0.00000016,0.00000165,-0.00000118,-0.00000
 075,0.00000340,0.00000160,-0.00000083,-0.00000004,-0.00000423,0.000007
 13,-0.00000445,0.00001278,-0.00001985,-0.00002331,-0.00046941,0.000160
 09,0.00082967,0.08381037,0.08986479,0.28541400\\-0.00000135,0.00000077
 ,0.00000130,0.00000106,0.00000189,0.00000215,-0.00000086,0.00000094,-0
 .00000252,-0.00000216,-0.00000196,0.00000101,0.00000112,-0.00000106,-0
 .00000354,0.00000004,-0.00000018,0.00000271,-0.00000046,0.00000061,0.0
 0000523,-0.00000356,-0.00000288,-0.00000283,0.00000346,0.00000289,-0.0
 0000069,-0.00000147,-0.00000152,0.00000467,0.00000005,0.00000385,0.000
 00223,-0.00000123,-0.00000204,-0.00000014,0.00000133,0.00000318,0.0000
 0035,0.00000026,-0.00000126,-0.00000087,0.00000155,0.00000091,0.000000
 10,-0.00000043,0.00000100,0.00000035,0.00000106,0.00000018,0.00000006,
 -0.00000363,-0.00000089,0.00000041,0.00000409,0.00000110,0.00000030,-0
 .00000386,0.00000044,-0.00000156,-0.00000053,-0.00000334,0.00000520,0.
 00000223,0.00000119,-0.00000311,-0.00000100,0.00000065,-0.00000332,0.0
 0000204,-0.00000328,-0.00000195,-0.00000367,0.00000105,-0.00000098,0.0
 0000344,-0.00000043,0.00000378,0.00000111,-0.00000272,-0.00000334,0.00
 000019,-0.00000089,-0.00000127,-0.00000282,-0.00000023,0.00000283,0.00
 000016,0.00000064,-0.00000217,0.00000194,-0.00000213,0.00000060,0.0000
 0093,-0.00000147,-0.00000065,0.00000025,0.00000246,0.00000164,-0.00000
 438,0.00000261,0.00000048,0.00000273,0.00000077,0.00000330,0.00000146,
 -0.00000071,0.00000124,-0.00000109,0.00000149,-0.00000230,-0.00000005,
 -0.00000062,0.00000122,-0.00000111,0.00000009,-0.00000083,0.00000051,0
 .00000019,-0.00000097,-0.00000084,0.00000002,-0.00000060,0.00000321,-0
 .00000086,0.00000028,0.00000095,-0.00000508,-0.00000294,0.00000063,0.0
 0000326,0.00000189,-0.00000394,-0.00000205,-0.00000442,0.00000415,0.00
 000275,-0.00000258,0.00000100,-0.00000027,-0.00000073,-0.00000010,-0.0
 0000008,0.00000139,-0.00000059,0.00000143,-0.00000012,0.00000144,-0.00
 000032,0.00000092,-0.00000091,0.00000143,0.00000049,-0.00000075,-0.000
 00043,-0.00000031,0.00000029,0.,-0.00000095,0.00000029,0.00000001,0.00
 000107,0.00000036,0.00000219,-0.00000033,0.00000009,0.00000017,-0.0000
 0051,-0.00000054,0.00000064,0.00000002,0.00000103,0.00000035,-0.000000
 60,-0.00000021,-0.00000029,-0.00000146,0.00000088,-0.00000001,-0.00000
 121,0.00000109,0.00000010,-0.00000097,0.00000018,-0.00000097,-0.000001
 08,-0.00000043,-0.00000091,-0.00000021,-0.00000076,0.00000010,0.000000
 43,-0.00000032,0.00000039,-0.00000041,0.00000019,0.00000054,0.00000127
 ,-0.00000116,0.00000003,0.00000042,-0.00000013,-0.00000022,0.00000045,
 0.00000029,0.00000067,-0.00000077,-0.00000029,-0.00000109,-0.00000056,
 -0.00000087,0.00000166,-0.00000094,-0.00000048,0.00000055,0.00000051,0
 .00000041,0.00000103,-0.00000034,0.,-0.00000155,-0.00000074,-0.0000011
 4,0.,0.00000118,0.00000053,-0.00000043,0.00000089,0.00000048,0.0000005
 2,-0.00000083,-0.00000158,-0.00000126,0.00000009,0.00000043,-0.0000012
 2,-0.00000111,-0.00000064,-0.00000115,-0.00000086,-0.00000070,0.000000
 19,0.00000094,-0.00000086,0.00000021,0.00000058,0.00000014,-0.00000038
 ,0.00000130,0.00000081,-0.00000068,0.00000051,0.00000097,-0.00000031,-
 0.00000055,0.00000058,0.00000040,-0.00000025,-0.00000009,-0.00000024,0
 .00000203,-0.00000044,-0.00000011,0.00000162\\\@
 The archive entry for this job was punched.


 SUCCESS IS COUNTED SWEETEST
 BY THOSE WHO NE'ER SUCCEED.
 TO COMPREHEND NECTAR
 REQUIRES SOREST NEED.
           EMILY DICKINSON
 Job cpu time:       0 days 11 hours  8 minutes 47.5 seconds.
 Elapsed time:       0 days  0 hours 21 minutes  3.0 seconds.
 File lengths (MBytes):  RWF=   4989 Int=      0 D2E=      0 Chk=     48 Scr=      1
 Normal termination of Gaussian 16 at Thu Jan 23 21:55:55 2025.
