 Entering Gaussian System, Link 0=g16
 Initial command:
 /public/software/apps/Gaussian/g16/l1.exe "/tmp/Gau-68750.inp" -scrdir="/tmp/"
 Entering Link 1 = /public/software/apps/Gaussian/g16/l1.exe PID=     68761.
  
 Copyright (c) 1988-2019, Gaussian, Inc.  All Rights Reserved.
  
 This is part of the Gaussian(R) 16 program.  It is based on
 the Gaussian(R) 09 system (copyright 2009, Gaussian, Inc.),
 the Gaussian(R) 03 system (copyright 2003, Gaussian, Inc.),
 the Gaussian(R) 98 system (copyright 1998, Gaussian, Inc.),
 the Gaussian(R) 94 system (copyright 1995, Gaussian, Inc.),
 the Gaussian 92(TM) system (copyright 1992, Gaussian, Inc.),
 the Gaussian 90(TM) system (copyright 1990, Gaussian, Inc.),
 the Gaussian 88(TM) system (copyright 1988, Gaussian, Inc.),
 the Gaussian 86(TM) system (copyright 1986, Carnegie Mellon
 University), and the Gaussian 82(TM) system (copyright 1983,
 Carnegie Mellon University). Gaussian is a federally registered
 trademark of Gaussian, Inc.
  
 This software contains proprietary and confidential information,
 including trade secrets, belonging to Gaussian, Inc.
  
 This software is provided under written license and may be
 used, copied, transmitted, or stored only in accord with that
 written license.
  
 The following legend is applicable only to US Government
 contracts under FAR:
  
                    RESTRICTED RIGHTS LEGEND
  
 Use, reproduction and disclosure by the US Government is
 subject to restrictions as set forth in subparagraphs (a)
 and (c) of the Commercial Computer Software - Restricted
 Rights clause in FAR 52.227-19.
  
 Gaussian, Inc.
 340 Quinnipiac St., Bldg. 40, Wallingford CT 06492
  
  
 ---------------------------------------------------------------
 Warning -- This program may not be used in any manner that
 competes with the business of Gaussian, Inc. or will provide
 assistance to any competitor of Gaussian, Inc.  The licensee
 of this program is prohibited from giving any competitor of
 Gaussian, Inc. access to this program.  By using this program,
 the user acknowledges that Gaussian, Inc. is engaged in the
 business of creating and licensing software in the field of
 computational chemistry and represents and warrants to the
 licensee that it is not a competitor of Gaussian, Inc. and that
 it will not use this program in any manner prohibited above.
 ---------------------------------------------------------------
  

 Cite this work as:
 Gaussian 16, Revision C.01,
 M. J. Frisch, G. W. Trucks, H. B. Schlegel, G. E. Scuseria, 
 M. A. Robb, J. R. Cheeseman, G. Scalmani, V. Barone, 
 G. A. Petersson, H. Nakatsuji, X. Li, M. Caricato, A. V. Marenich, 
 J. Bloino, B. G. Janesko, R. Gomperts, B. Mennucci, H. P. Hratchian, 
 J. V. Ortiz, A. F. Izmaylov, J. L. Sonnenberg, D. Williams-Young, 
 F. Ding, F. Lipparini, F. Egidi, J. Goings, B. Peng, A. Petrone, 
 T. Henderson, D. Ranasinghe, V. G. Zakrzewski, J. Gao, N. Rega, 
 G. Zheng, W. Liang, M. Hada, M. Ehara, K. Toyota, R. Fukuda, 
 J. Hasegawa, M. Ishida, T. Nakajima, Y. Honda, O. Kitao, H. Nakai, 
 T. Vreven, K. Throssell, J. A. Montgomery, Jr., J. E. Peralta, 
 F. Ogliaro, M. J. Bearpark, J. J. Heyd, E. N. Brothers, K. N. Kudin, 
 V. N. Staroverov, T. A. Keith, R. Kobayashi, J. Normand, 
 K. Raghavachari, A. P. Rendell, J. C. Burant, S. S. Iyengar, 
 J. Tomasi, M. Cossi, J. M. Millam, M. Klene, C. Adamo, R. Cammi, 
 J. W. Ochterski, R. L. Martin, K. Morokuma, O. Farkas, 
 J. B. Foresman, and D. J. Fox, Gaussian, Inc., Wallingford CT, 2019.
 
 ******************************************
 Gaussian 16:  ES64L-G16RevC.01  3-Jul-2019
                24-Mar-2025 
 ******************************************
 %nprocshared=32
 Will use up to   32 processors via shared memory.
 %mem=100GB
 ------------------------------------------
 #p opt freq b3lyp/def2svpp em=gd3bj nosymm
 ------------------------------------------
 1/18=20,19=15,26=3,38=1/1,3;
 2/9=110,12=2,15=1,17=6,18=5,40=1/2;
 3/5=43,7=202,11=2,25=1,30=1,71=1,74=-5,124=41/1,2,3;
 4//1;
 5/5=2,38=5/2;
 6/7=2,8=2,9=2,10=2,28=1/1;
 7/30=1/1,2,3,16;
 1/18=20,19=15,26=3/3(2);
 2/9=110,15=1/2;
 99//99;
 2/9=110,15=1/2;
 3/5=43,7=202,11=2,25=1,30=1,71=1,74=-5,124=41/1,2,3;
 4/5=5,16=3,69=1/1;
 5/5=2,38=5/2;
 7/30=1/1,2,3,16;
 1/18=20,19=15,26=3/3(-5);
 2/9=110,15=1/2;
 6/7=2,8=2,9=2,10=2,19=2,28=1/1;
 99/9=1/99;
 Leave Link    1 at Mon Mar 24 02:36:43 2025, MaxMem= 13421772800 cpu:               2.0 elap:               0.1
 (Enter /public/software/apps/Gaussian/g16/l101.exe)
 ----------------------
 $$$$Singlemol####0????
 ----------------------
 Symbolic Z-matrix:
 Charge =  0 Multiplicity = 1
 C                    -9.74377   2.04232   3.37556 
 C                    -9.23193   0.77899   2.69495 
 C                    -9.76882   0.64785   1.27237 
 C                    -9.27229  -0.6256    0.57459 
 C                    -7.78382  -0.59993   0.38212 
 C                    -6.93583  -1.30385   1.22726 
 C                    -5.56429  -1.24382   1.06716 
 C                    -5.00358  -0.48536   0.04525 
 C                    -3.53968  -0.40933  -0.10527 
 C                    -2.78693   0.0187    0.95812 
 C                    -1.39119   0.14375   0.86398 
 O                    -0.73126   0.57108   1.9719 
 C                    -0.73876  -0.1656   -0.31449 
 C                     0.74225  -0.06032  -0.37626 
 C                     1.50797  -1.21085  -0.36267 
 O                     0.95865  -2.45312  -0.33999 
 C                     2.91015  -1.13105  -0.33891 
 C                     3.55805   0.07776  -0.33273 
 C                     5.02814   0.09763  -0.24194 
 C                     5.79931  -0.61347  -1.15635 
 C                     7.17721  -0.61224  -1.06428 
 C                     7.82587   0.08746  -0.05325 
 C                     9.32247   0.0499    0.0545 
 C                     9.80971  -1.28031   0.64684 
 C                     9.3376   -1.52169   2.08058 
 C                     10.00446  -0.59901   3.09419 
 C                     7.05325   0.785     0.86644 
 C                     5.67412   0.79357   0.77547 
 C                     2.80333   1.2812   -0.40502 
 C                     3.41118   2.54944  -0.5065 
 C                     2.65974   3.68938  -0.58092 
 C                     1.26035   3.61449  -0.5698 
 C                     0.63766   2.40063  -0.49856 
 C                     1.38446   1.20462  -0.41771 
 C                    -1.4899   -0.61824  -1.43011 
 C                    -0.86337  -0.92751  -2.65785 
 C                    -1.58709  -1.39497  -3.71795 
 C                    -2.97017  -1.58792  -3.59734 
 C                    -3.60973  -1.27545  -2.42999 
 C                    -2.90008  -0.75954  -1.32591 
 C                    -5.85089   0.22412  -0.80165 
 C                    -7.22025   0.16736  -0.63085 
 H                    -9.43032   2.92588   2.82363 
 H                    -10.83085   2.03756   3.42418 
 H                    -9.35549   2.11578   4.38871 
 H                    -8.14034   0.79783   2.66773 
 H                    -9.53581  -0.09437   3.27707 
 H                    -10.86108   0.63374   1.29974 
 H                    -9.4602    1.51922   0.69039 
 H                    -9.76365  -0.7068   -0.39813 
 H                    -9.55456  -1.49467   1.17232 
 H                    -7.35448  -1.90638   2.02092 
 H                    -4.91693  -1.80016   1.72973 
 H                    -3.25379   0.28955   1.8924 
 H                     0.21194   0.65425   1.77286 
 H                    -0.00517  -2.38088  -0.38354 
 H                     3.46445  -2.05564  -0.29342 
 H                     5.30968  -1.15504  -1.95285 
 H                     7.76151  -1.1598   -1.79044 
 H                     9.76024   0.16377  -0.94045 
 H                     9.67321   0.87743   0.67204 
 H                     9.44555  -2.09448   0.01595 
 H                     10.90181  -1.3001    0.62039 
 H                     9.56305  -2.55677   2.34849 
 H                     8.25367  -1.39694   2.12845 
 H                     9.74599   0.44045   2.91023 
 H                     11.08716  -0.6971    3.0445 
 H                     9.68377  -0.852     4.10225 
 H                     7.53548   1.33122   1.66482 
 H                     5.08848   1.32914   1.50927 
 H                     4.48859   2.60824  -0.54205 
 H                     3.14116   4.65286  -0.66031 
 H                     0.67661   4.52088  -0.63375 
 H                    -0.44097   2.33977  -0.51964 
 H                     0.20393  -0.78472  -2.7476 
 H                    -1.0951   -1.62636  -4.65109 
 H                    -3.5279   -1.98314  -4.43344 
 H                    -4.67406  -1.43082  -2.33691 
 H                    -5.42806   0.83597  -1.58582 
 H                    -7.86452   0.72575  -1.29555 
 
 ITRead=  0  0  0  0  0  0  0  0  0  0  0  0  0  0  0  0  0  0  0  0
 ITRead=  0  0  0  0  0  0  0  0  0  0  0  0  0  0  0  0  0  0  0  0
 ITRead=  0  0  0  0  0  0  0  0  0  0  0  0  0  0  0  0  0  0  0  0
 ITRead=  0  0  0  0  0  0  0  0  0  0  0  0  0  0  0  0  0  0  0  0
 MicOpt= -1 -1 -1 -1 -1 -1 -1 -1 -1 -1 -1 -1 -1 -1 -1 -1 -1 -1 -1 -1
 MicOpt= -1 -1 -1 -1 -1 -1 -1 -1 -1 -1 -1 -1 -1 -1 -1 -1 -1 -1 -1 -1
 MicOpt= -1 -1 -1 -1 -1 -1 -1 -1 -1 -1 -1 -1 -1 -1 -1 -1 -1 -1 -1 -1
 MicOpt= -1 -1 -1 -1 -1 -1 -1 -1 -1 -1 -1 -1 -1 -1 -1 -1 -1 -1 -1 -1
 NAtoms=     80 NQM=       80 NQMF=       0 NMMI=      0 NMMIF=      0
                NMic=       0 NMicF=      0.
                    Isotopes and Nuclear Properties:
 (Nuclear quadrupole moments (NQMom) in fm**2, nuclear magnetic moments (NMagM)
  in nuclear magnetons)

  Atom         1           2           3           4           5           6           7           8           9          10
 IAtWgt=          12          12          12          12          12          12          12          12          12          12
 AtmWgt=  12.0000000  12.0000000  12.0000000  12.0000000  12.0000000  12.0000000  12.0000000  12.0000000  12.0000000  12.0000000
 NucSpn=           0           0           0           0           0           0           0           0           0           0
 AtZEff=  -0.0000000  -0.0000000  -0.0000000  -0.0000000  -0.0000000  -0.0000000  -0.0000000  -0.0000000  -0.0000000  -0.0000000
 NQMom=    0.0000000   0.0000000   0.0000000   0.0000000   0.0000000   0.0000000   0.0000000   0.0000000   0.0000000   0.0000000
 NMagM=    0.0000000   0.0000000   0.0000000   0.0000000   0.0000000   0.0000000   0.0000000   0.0000000   0.0000000   0.0000000
 AtZNuc=   6.0000000   6.0000000   6.0000000   6.0000000   6.0000000   6.0000000   6.0000000   6.0000000   6.0000000   6.0000000

  Atom        11          12          13          14          15          16          17          18          19          20
 IAtWgt=          12          16          12          12          12          16          12          12          12          12
 AtmWgt=  12.0000000  15.9949146  12.0000000  12.0000000  12.0000000  15.9949146  12.0000000  12.0000000  12.0000000  12.0000000
 NucSpn=           0           0           0           0           0           0           0           0           0           0
 AtZEff=  -0.0000000  -0.0000000  -0.0000000  -0.0000000  -0.0000000  -0.0000000  -0.0000000  -0.0000000  -0.0000000  -0.0000000
 NQMom=    0.0000000   0.0000000   0.0000000   0.0000000   0.0000000   0.0000000   0.0000000   0.0000000   0.0000000   0.0000000
 NMagM=    0.0000000   0.0000000   0.0000000   0.0000000   0.0000000   0.0000000   0.0000000   0.0000000   0.0000000   0.0000000
 AtZNuc=   6.0000000   8.0000000   6.0000000   6.0000000   6.0000000   8.0000000   6.0000000   6.0000000   6.0000000   6.0000000

  Atom        21          22          23          24          25          26          27          28          29          30
 IAtWgt=          12          12          12          12          12          12          12          12          12          12
 AtmWgt=  12.0000000  12.0000000  12.0000000  12.0000000  12.0000000  12.0000000  12.0000000  12.0000000  12.0000000  12.0000000
 NucSpn=           0           0           0           0           0           0           0           0           0           0
 AtZEff=  -0.0000000  -0.0000000  -0.0000000  -0.0000000  -0.0000000  -0.0000000  -0.0000000  -0.0000000  -0.0000000  -0.0000000
 NQMom=    0.0000000   0.0000000   0.0000000   0.0000000   0.0000000   0.0000000   0.0000000   0.0000000   0.0000000   0.0000000
 NMagM=    0.0000000   0.0000000   0.0000000   0.0000000   0.0000000   0.0000000   0.0000000   0.0000000   0.0000000   0.0000000
 AtZNuc=   6.0000000   6.0000000   6.0000000   6.0000000   6.0000000   6.0000000   6.0000000   6.0000000   6.0000000   6.0000000

  Atom        31          32          33          34          35          36          37          38          39          40
 IAtWgt=          12          12          12          12          12          12          12          12          12          12
 AtmWgt=  12.0000000  12.0000000  12.0000000  12.0000000  12.0000000  12.0000000  12.0000000  12.0000000  12.0000000  12.0000000
 NucSpn=           0           0           0           0           0           0           0           0           0           0
 AtZEff=  -0.0000000  -0.0000000  -0.0000000  -0.0000000  -0.0000000  -0.0000000  -0.0000000  -0.0000000  -0.0000000  -0.0000000
 NQMom=    0.0000000   0.0000000   0.0000000   0.0000000   0.0000000   0.0000000   0.0000000   0.0000000   0.0000000   0.0000000
 NMagM=    0.0000000   0.0000000   0.0000000   0.0000000   0.0000000   0.0000000   0.0000000   0.0000000   0.0000000   0.0000000
 AtZNuc=   6.0000000   6.0000000   6.0000000   6.0000000   6.0000000   6.0000000   6.0000000   6.0000000   6.0000000   6.0000000

  Atom        41          42          43          44          45          46          47          48          49          50
 IAtWgt=          12          12           1           1           1           1           1           1           1           1
 AtmWgt=  12.0000000  12.0000000   1.0078250   1.0078250   1.0078250   1.0078250   1.0078250   1.0078250   1.0078250   1.0078250
 NucSpn=           0           0           1           1           1           1           1           1           1           1
 AtZEff=  -0.0000000  -0.0000000  -0.0000000  -0.0000000  -0.0000000  -0.0000000  -0.0000000  -0.0000000  -0.0000000  -0.0000000
 NQMom=    0.0000000   0.0000000   0.0000000   0.0000000   0.0000000   0.0000000   0.0000000   0.0000000   0.0000000   0.0000000
 NMagM=    0.0000000   0.0000000   2.7928460   2.7928460   2.7928460   2.7928460   2.7928460   2.7928460   2.7928460   2.7928460
 AtZNuc=   6.0000000   6.0000000   1.0000000   1.0000000   1.0000000   1.0000000   1.0000000   1.0000000   1.0000000   1.0000000

  Atom        51          52          53          54          55          56          57          58          59          60
 IAtWgt=           1           1           1           1           1           1           1           1           1           1
 AtmWgt=   1.0078250   1.0078250   1.0078250   1.0078250   1.0078250   1.0078250   1.0078250   1.0078250   1.0078250   1.0078250
 NucSpn=           1           1           1           1           1           1           1           1           1           1
 AtZEff=  -0.0000000  -0.0000000  -0.0000000  -0.0000000  -0.0000000  -0.0000000  -0.0000000  -0.0000000  -0.0000000  -0.0000000
 NQMom=    0.0000000   0.0000000   0.0000000   0.0000000   0.0000000   0.0000000   0.0000000   0.0000000   0.0000000   0.0000000
 NMagM=    2.7928460   2.7928460   2.7928460   2.7928460   2.7928460   2.7928460   2.7928460   2.7928460   2.7928460   2.7928460
 AtZNuc=   1.0000000   1.0000000   1.0000000   1.0000000   1.0000000   1.0000000   1.0000000   1.0000000   1.0000000   1.0000000

  Atom        61          62          63          64          65          66          67          68          69          70
 IAtWgt=           1           1           1           1           1           1           1           1           1           1
 AtmWgt=   1.0078250   1.0078250   1.0078250   1.0078250   1.0078250   1.0078250   1.0078250   1.0078250   1.0078250   1.0078250
 NucSpn=           1           1           1           1           1           1           1           1           1           1
 AtZEff=  -0.0000000  -0.0000000  -0.0000000  -0.0000000  -0.0000000  -0.0000000  -0.0000000  -0.0000000  -0.0000000  -0.0000000
 NQMom=    0.0000000   0.0000000   0.0000000   0.0000000   0.0000000   0.0000000   0.0000000   0.0000000   0.0000000   0.0000000
 NMagM=    2.7928460   2.7928460   2.7928460   2.7928460   2.7928460   2.7928460   2.7928460   2.7928460   2.7928460   2.7928460
 AtZNuc=   1.0000000   1.0000000   1.0000000   1.0000000   1.0000000   1.0000000   1.0000000   1.0000000   1.0000000   1.0000000

  Atom        71          72          73          74          75          76          77          78          79          80
 IAtWgt=           1           1           1           1           1           1           1           1           1           1
 AtmWgt=   1.0078250   1.0078250   1.0078250   1.0078250   1.0078250   1.0078250   1.0078250   1.0078250   1.0078250   1.0078250
 NucSpn=           1           1           1           1           1           1           1           1           1           1
 AtZEff=  -0.0000000  -0.0000000  -0.0000000  -0.0000000  -0.0000000  -0.0000000  -0.0000000  -0.0000000  -0.0000000  -0.0000000
 NQMom=    0.0000000   0.0000000   0.0000000   0.0000000   0.0000000   0.0000000   0.0000000   0.0000000   0.0000000   0.0000000
 NMagM=    2.7928460   2.7928460   2.7928460   2.7928460   2.7928460   2.7928460   2.7928460   2.7928460   2.7928460   2.7928460
 AtZNuc=   1.0000000   1.0000000   1.0000000   1.0000000   1.0000000   1.0000000   1.0000000   1.0000000   1.0000000   1.0000000
 Leave Link  101 at Mon Mar 24 02:36:43 2025, MaxMem= 13421772800 cpu:              14.7 elap:               0.5
 (Enter /public/software/apps/Gaussian/g16/l103.exe)

 GradGradGradGradGradGradGradGradGradGradGradGradGradGradGradGradGradGrad
 Berny optimization.
 Initialization pass.
                           ----------------------------
                           !    Initial Parameters    !
                           ! (Angstroms and Degrees)  !
 --------------------------                            --------------------------
 ! Name  Definition              Value          Derivative Info.                !
 --------------------------------------------------------------------------------
 ! R1    R(1,2)                  1.5236         estimate D2E/DX2                !
 ! R2    R(1,43)                 1.0879         estimate D2E/DX2                !
 ! R3    R(1,44)                 1.0882         estimate D2E/DX2                !
 ! R4    R(1,45)                 1.0875         estimate D2E/DX2                !
 ! R5    R(2,3)                  1.5262         estimate D2E/DX2                !
 ! R6    R(2,46)                 1.0921         estimate D2E/DX2                !
 ! R7    R(2,47)                 1.0927         estimate D2E/DX2                !
 ! R8    R(3,4)                  1.5346         estimate D2E/DX2                !
 ! R9    R(3,48)                 1.0927         estimate D2E/DX2                !
 ! R10   R(3,49)                 1.0923         estimate D2E/DX2                !
 ! R11   R(4,5)                  1.5011         estimate D2E/DX2                !
 ! R12   R(4,50)                 1.0928         estimate D2E/DX2                !
 ! R13   R(4,51)                 1.0919         estimate D2E/DX2                !
 ! R14   R(5,6)                  1.3888         estimate D2E/DX2                !
 ! R15   R(5,42)                 1.3901         estimate D2E/DX2                !
 ! R16   R(6,7)                  1.3822         estimate D2E/DX2                !
 ! R17   R(6,52)                 1.0808         estimate D2E/DX2                !
 ! R18   R(7,8)                  1.3907         estimate D2E/DX2                !
 ! R19   R(7,53)                 1.0806         estimate D2E/DX2                !
 ! R20   R(8,9)                  1.4736         estimate D2E/DX2                !
 ! R21   R(8,41)                 1.3923         estimate D2E/DX2                !
 ! R22   R(9,10)                 1.3714         estimate D2E/DX2                !
 ! R23   R(9,40)                 1.4219         estimate D2E/DX2                !
 ! R24   R(10,11)                1.4045         estimate D2E/DX2                !
 ! R25   R(10,54)                1.079          estimate D2E/DX2                !
 ! R26   R(11,12)                1.3585         estimate D2E/DX2                !
 ! R27   R(11,13)                1.3821         estimate D2E/DX2                !
 ! R28   R(12,55)                0.9675         estimate D2E/DX2                !
 ! R29   R(13,14)                1.486          estimate D2E/DX2                !
 ! R30   R(13,35)                1.419          estimate D2E/DX2                !
 ! R31   R(14,15)                1.3821         estimate D2E/DX2                !
 ! R32   R(14,34)                1.4192         estimate D2E/DX2                !
 ! R33   R(15,16)                1.3585         estimate D2E/DX2                !
 ! R34   R(15,17)                1.4047         estimate D2E/DX2                !
 ! R35   R(16,56)                0.9675         estimate D2E/DX2                !
 ! R36   R(17,18)                1.3715         estimate D2E/DX2                !
 ! R37   R(17,57)                1.079          estimate D2E/DX2                !
 ! R38   R(18,19)                1.473          estimate D2E/DX2                !
 ! R39   R(18,29)                1.4224         estimate D2E/DX2                !
 ! R40   R(19,20)                1.3916         estimate D2E/DX2                !
 ! R41   R(19,28)                1.3917         estimate D2E/DX2                !
 ! R42   R(20,21)                1.381          estimate D2E/DX2                !
 ! R43   R(20,58)                1.0805         estimate D2E/DX2                !
 ! R44   R(21,22)                1.3902         estimate D2E/DX2                !
 ! R45   R(21,59)                1.081          estimate D2E/DX2                !
 ! R46   R(22,23)                1.5009         estimate D2E/DX2                !
 ! R47   R(22,27)                1.389          estimate D2E/DX2                !
 ! R48   R(23,24)                1.5355         estimate D2E/DX2                !
 ! R49   R(23,60)                1.0929         estimate D2E/DX2                !
 ! R50   R(23,61)                1.0905         estimate D2E/DX2                !
 ! R51   R(24,25)                1.5286         estimate D2E/DX2                !
 ! R52   R(24,62)                1.0925         estimate D2E/DX2                !
 ! R53   R(24,63)                1.0926         estimate D2E/DX2                !
 ! R54   R(25,26)                1.5243         estimate D2E/DX2                !
 ! R55   R(25,64)                1.0927         estimate D2E/DX2                !
 ! R56   R(25,65)                1.0921         estimate D2E/DX2                !
 ! R57   R(26,66)                1.0868         estimate D2E/DX2                !
 ! R58   R(26,67)                1.0883         estimate D2E/DX2                !
 ! R59   R(26,68)                1.0877         estimate D2E/DX2                !
 ! R60   R(27,28)                1.3822         estimate D2E/DX2                !
 ! R61   R(27,69)                1.0809         estimate D2E/DX2                !
 ! R62   R(28,70)                1.0809         estimate D2E/DX2                !
 ! R63   R(29,30)                1.41           estimate D2E/DX2                !
 ! R64   R(29,34)                1.421          estimate D2E/DX2                !
 ! R65   R(30,31)                1.3673         estimate D2E/DX2                !
 ! R66   R(30,71)                1.0796         estimate D2E/DX2                !
 ! R67   R(31,32)                1.4014         estimate D2E/DX2                !
 ! R68   R(31,72)                1.08           estimate D2E/DX2                !
 ! R69   R(32,33)                1.3661         estimate D2E/DX2                !
 ! R70   R(32,73)                1.08           estimate D2E/DX2                !
 ! R71   R(33,34)                1.4123         estimate D2E/DX2                !
 ! R72   R(33,74)                1.0805         estimate D2E/DX2                !
 ! R73   R(35,36)                1.4126         estimate D2E/DX2                !
 ! R74   R(35,40)                1.4211         estimate D2E/DX2                !
 ! R75   R(36,37)                1.3661         estimate D2E/DX2                !
 ! R76   R(36,75)                1.0805         estimate D2E/DX2                !
 ! R77   R(37,38)                1.4017         estimate D2E/DX2                !
 ! R78   R(37,76)                1.08           estimate D2E/DX2                !
 ! R79   R(38,39)                1.3673         estimate D2E/DX2                !
 ! R80   R(38,77)                1.08           estimate D2E/DX2                !
 ! R81   R(39,40)                1.4102         estimate D2E/DX2                !
 ! R82   R(39,78)                1.0796         estimate D2E/DX2                !
 ! R83   R(41,42)                1.3811         estimate D2E/DX2                !
 ! R84   R(41,79)                1.0808         estimate D2E/DX2                !
 ! R85   R(42,80)                1.0811         estimate D2E/DX2                !
 ! A1    A(2,1,43)             110.4879         estimate D2E/DX2                !
 ! A2    A(2,1,44)             110.6064         estimate D2E/DX2                !
 ! A3    A(2,1,45)             110.6254         estimate D2E/DX2                !
 ! A4    A(43,1,44)            108.3038         estimate D2E/DX2                !
 ! A5    A(43,1,45)            108.355          estimate D2E/DX2                !
 ! A6    A(44,1,45)            108.3823         estimate D2E/DX2                !
 ! A7    A(1,2,3)              111.6831         estimate D2E/DX2                !
 ! A8    A(1,2,46)             109.4284         estimate D2E/DX2                !
 ! A9    A(1,2,47)             109.3502         estimate D2E/DX2                !
 ! A10   A(3,2,46)             109.2619         estimate D2E/DX2                !
 ! A11   A(3,2,47)             109.273          estimate D2E/DX2                !
 ! A12   A(46,2,47)            107.76           estimate D2E/DX2                !
 ! A13   A(2,3,4)              112.4146         estimate D2E/DX2                !
 ! A14   A(2,3,48)             109.233          estimate D2E/DX2                !
 ! A15   A(2,3,49)             109.1886         estimate D2E/DX2                !
 ! A16   A(4,3,48)             108.9107         estimate D2E/DX2                !
 ! A17   A(4,3,49)             109.164          estimate D2E/DX2                !
 ! A18   A(48,3,49)            107.8225         estimate D2E/DX2                !
 ! A19   A(3,4,5)              111.404          estimate D2E/DX2                !
 ! A20   A(3,4,50)             108.7175         estimate D2E/DX2                !
 ! A21   A(3,4,51)             109.1419         estimate D2E/DX2                !
 ! A22   A(5,4,50)             109.4509         estimate D2E/DX2                !
 ! A23   A(5,4,51)             109.8854         estimate D2E/DX2                !
 ! A24   A(50,4,51)            108.1739         estimate D2E/DX2                !
 ! A25   A(4,5,6)              121.2488         estimate D2E/DX2                !
 ! A26   A(4,5,42)             120.3229         estimate D2E/DX2                !
 ! A27   A(6,5,42)             118.4017         estimate D2E/DX2                !
 ! A28   A(5,6,7)              120.8891         estimate D2E/DX2                !
 ! A29   A(5,6,52)             119.5307         estimate D2E/DX2                !
 ! A30   A(7,6,52)             119.5802         estimate D2E/DX2                !
 ! A31   A(6,7,8)              120.5911         estimate D2E/DX2                !
 ! A32   A(6,7,53)             120.0727         estimate D2E/DX2                !
 ! A33   A(8,7,53)             119.3304         estimate D2E/DX2                !
 ! A34   A(7,8,9)              120.2479         estimate D2E/DX2                !
 ! A35   A(7,8,41)             118.6543         estimate D2E/DX2                !
 ! A36   A(9,8,41)             121.074          estimate D2E/DX2                !
 ! A37   A(8,9,10)             118.829          estimate D2E/DX2                !
 ! A38   A(8,9,40)             121.4571         estimate D2E/DX2                !
 ! A39   A(10,9,40)            119.7123         estimate D2E/DX2                !
 ! A40   A(9,10,11)            121.42           estimate D2E/DX2                !
 ! A41   A(9,10,54)            120.8157         estimate D2E/DX2                !
 ! A42   A(11,10,54)           117.7539         estimate D2E/DX2                !
 ! A43   A(10,11,12)           117.1351         estimate D2E/DX2                !
 ! A44   A(10,11,13)           120.4202         estimate D2E/DX2                !
 ! A45   A(12,11,13)           122.4443         estimate D2E/DX2                !
 ! A46   A(11,12,55)           109.4395         estimate D2E/DX2                !
 ! A47   A(11,13,14)           119.3439         estimate D2E/DX2                !
 ! A48   A(11,13,35)           119.4642         estimate D2E/DX2                !
 ! A49   A(14,13,35)           121.1615         estimate D2E/DX2                !
 ! A50   A(13,14,15)           119.5226         estimate D2E/DX2                !
 ! A51   A(13,14,34)           121.02           estimate D2E/DX2                !
 ! A52   A(15,14,34)           119.4411         estimate D2E/DX2                !
 ! A53   A(14,15,16)           122.5047         estimate D2E/DX2                !
 ! A54   A(14,15,17)           120.3926         estimate D2E/DX2                !
 ! A55   A(16,15,17)           117.0852         estimate D2E/DX2                !
 ! A56   A(15,16,56)           109.4986         estimate D2E/DX2                !
 ! A57   A(15,17,18)           121.4477         estimate D2E/DX2                !
 ! A58   A(15,17,57)           117.7006         estimate D2E/DX2                !
 ! A59   A(18,17,57)           120.823          estimate D2E/DX2                !
 ! A60   A(17,18,19)           118.9229         estimate D2E/DX2                !
 ! A61   A(17,18,29)           119.6581         estimate D2E/DX2                !
 ! A62   A(19,18,29)           121.4178         estimate D2E/DX2                !
 ! A63   A(18,19,20)           120.3757         estimate D2E/DX2                !
 ! A64   A(18,19,28)           121.0008         estimate D2E/DX2                !
 ! A65   A(20,19,28)           118.6007         estimate D2E/DX2                !
 ! A66   A(19,20,21)           120.5749         estimate D2E/DX2                !
 ! A67   A(19,20,58)           119.3009         estimate D2E/DX2                !
 ! A68   A(21,20,58)           120.1157         estimate D2E/DX2                !
 ! A69   A(20,21,22)           120.9649         estimate D2E/DX2                !
 ! A70   A(20,21,59)           119.6088         estimate D2E/DX2                !
 ! A71   A(22,21,59)           119.4259         estimate D2E/DX2                !
 ! A72   A(21,22,23)           120.323          estimate D2E/DX2                !
 ! A73   A(21,22,27)           118.3437         estimate D2E/DX2                !
 ! A74   A(23,22,27)           121.3102         estimate D2E/DX2                !
 ! A75   A(22,23,24)           111.455          estimate D2E/DX2                !
 ! A76   A(22,23,60)           109.3557         estimate D2E/DX2                !
 ! A77   A(22,23,61)           110.0211         estimate D2E/DX2                !
 ! A78   A(24,23,60)           108.3206         estimate D2E/DX2                !
 ! A79   A(24,23,61)           109.6869         estimate D2E/DX2                !
 ! A80   A(60,23,61)           107.9165         estimate D2E/DX2                !
 ! A81   A(23,24,25)           113.6165         estimate D2E/DX2                !
 ! A82   A(23,24,62)           108.486          estimate D2E/DX2                !
 ! A83   A(23,24,63)           108.8767         estimate D2E/DX2                !
 ! A84   A(25,24,62)           108.7237         estimate D2E/DX2                !
 ! A85   A(25,24,63)           109.1802         estimate D2E/DX2                !
 ! A86   A(62,24,63)           107.8            estimate D2E/DX2                !
 ! A87   A(24,25,26)           113.1409         estimate D2E/DX2                !
 ! A88   A(24,25,64)           108.4103         estimate D2E/DX2                !
 ! A89   A(24,25,65)           109.2439         estimate D2E/DX2                !
 ! A90   A(26,25,64)           108.6684         estimate D2E/DX2                !
 ! A91   A(26,25,65)           109.6283         estimate D2E/DX2                !
 ! A92   A(64,25,65)           107.5915         estimate D2E/DX2                !
 ! A93   A(25,26,66)           111.2446         estimate D2E/DX2                !
 ! A94   A(25,26,67)           110.5078         estimate D2E/DX2                !
 ! A95   A(25,26,68)           110.2748         estimate D2E/DX2                !
 ! A96   A(66,26,67)           108.3657         estimate D2E/DX2                !
 ! A97   A(66,26,68)           108.0122         estimate D2E/DX2                !
 ! A98   A(67,26,68)           108.3417         estimate D2E/DX2                !
 ! A99   A(22,27,28)           120.9686         estimate D2E/DX2                !
 ! A100  A(22,27,69)           119.6484         estimate D2E/DX2                !
 ! A101  A(28,27,69)           119.383          estimate D2E/DX2                !
 ! A102  A(19,28,27)           120.5417         estimate D2E/DX2                !
 ! A103  A(19,28,70)           119.5128         estimate D2E/DX2                !
 ! A104  A(27,28,70)           119.9359         estimate D2E/DX2                !
 ! A105  A(18,29,30)           122.4063         estimate D2E/DX2                !
 ! A106  A(18,29,34)           118.9914         estimate D2E/DX2                !
 ! A107  A(30,29,34)           118.5725         estimate D2E/DX2                !
 ! A108  A(29,30,31)           121.1214         estimate D2E/DX2                !
 ! A109  A(29,30,71)           118.7875         estimate D2E/DX2                !
 ! A110  A(31,30,71)           120.0829         estimate D2E/DX2                !
 ! A111  A(30,31,32)           120.2503         estimate D2E/DX2                !
 ! A112  A(30,31,72)           120.1838         estimate D2E/DX2                !
 ! A113  A(32,31,72)           119.5621         estimate D2E/DX2                !
 ! A114  A(31,32,33)           120.2011         estimate D2E/DX2                !
 ! A115  A(31,32,73)           119.63           estimate D2E/DX2                !
 ! A116  A(33,32,73)           120.1617         estimate D2E/DX2                !
 ! A117  A(32,33,34)           120.9585         estimate D2E/DX2                !
 ! A118  A(32,33,74)           120.2671         estimate D2E/DX2                !
 ! A119  A(34,33,74)           118.7669         estimate D2E/DX2                !
 ! A120  A(14,34,29)           119.9739         estimate D2E/DX2                !
 ! A121  A(14,34,33)           121.1421         estimate D2E/DX2                !
 ! A122  A(29,34,33)           118.8721         estimate D2E/DX2                !
 ! A123  A(13,35,36)           121.2216         estimate D2E/DX2                !
 ! A124  A(13,35,40)           119.9563         estimate D2E/DX2                !
 ! A125  A(36,35,40)           118.821          estimate D2E/DX2                !
 ! A126  A(35,36,37)           120.9581         estimate D2E/DX2                !
 ! A127  A(35,36,75)           118.7727         estimate D2E/DX2                !
 ! A128  A(37,36,75)           120.2689         estimate D2E/DX2                !
 ! A129  A(36,37,38)           120.2045         estimate D2E/DX2                !
 ! A130  A(36,37,76)           120.1647         estimate D2E/DX2                !
 ! A131  A(38,37,76)           119.6285         estimate D2E/DX2                !
 ! A132  A(37,38,39)           120.2366         estimate D2E/DX2                !
 ! A133  A(37,38,77)           119.5606         estimate D2E/DX2                !
 ! A134  A(39,38,77)           120.2026         estimate D2E/DX2                !
 ! A135  A(38,39,40)           121.1084         estimate D2E/DX2                !
 ! A136  A(38,39,78)           120.1228         estimate D2E/DX2                !
 ! A137  A(40,39,78)           118.7662         estimate D2E/DX2                !
 ! A138  A(9,40,35)            119.0021         estimate D2E/DX2                !
 ! A139  A(9,40,39)            122.4018         estimate D2E/DX2                !
 ! A140  A(35,40,39)           118.5763         estimate D2E/DX2                !
 ! A141  A(8,41,42)            120.4783         estimate D2E/DX2                !
 ! A142  A(8,41,79)            119.4542         estimate D2E/DX2                !
 ! A143  A(42,41,79)           120.0587         estimate D2E/DX2                !
 ! A144  A(5,42,41)            120.9807         estimate D2E/DX2                !
 ! A145  A(5,42,80)            119.4412         estimate D2E/DX2                !
 ! A146  A(41,42,80)           119.578          estimate D2E/DX2                !
 ! D1    D(43,1,2,3)           -60.3163         estimate D2E/DX2                !
 ! D2    D(43,1,2,46)           60.7937         estimate D2E/DX2                !
 ! D3    D(43,1,2,47)          178.6127         estimate D2E/DX2                !
 ! D4    D(44,1,2,3)            59.5957         estimate D2E/DX2                !
 ! D5    D(44,1,2,46)         -179.2943         estimate D2E/DX2                !
 ! D6    D(44,1,2,47)          -61.4754         estimate D2E/DX2                !
 ! D7    D(45,1,2,3)           179.6954         estimate D2E/DX2                !
 ! D8    D(45,1,2,46)          -59.1946         estimate D2E/DX2                !
 ! D9    D(45,1,2,47)           58.6244         estimate D2E/DX2                !
 ! D10   D(1,2,3,4)           -179.5436         estimate D2E/DX2                !
 ! D11   D(1,2,3,48)           -58.5322         estimate D2E/DX2                !
 ! D12   D(1,2,3,49)            59.1552         estimate D2E/DX2                !
 ! D13   D(46,2,3,4)            59.2497         estimate D2E/DX2                !
 ! D14   D(46,2,3,48)         -179.7389         estimate D2E/DX2                !
 ! D15   D(46,2,3,49)          -62.0515         estimate D2E/DX2                !
 ! D16   D(47,2,3,4)           -58.4277         estimate D2E/DX2                !
 ! D17   D(47,2,3,48)           62.5837         estimate D2E/DX2                !
 ! D18   D(47,2,3,49)         -179.7289         estimate D2E/DX2                !
 ! D19   D(2,3,4,5)            -64.5436         estimate D2E/DX2                !
 ! D20   D(2,3,4,50)           174.7627         estimate D2E/DX2                !
 ! D21   D(2,3,4,51)            56.975          estimate D2E/DX2                !
 ! D22   D(48,3,4,5)           174.2604         estimate D2E/DX2                !
 ! D23   D(48,3,4,50)           53.5666         estimate D2E/DX2                !
 ! D24   D(48,3,4,51)          -64.2211         estimate D2E/DX2                !
 ! D25   D(49,3,4,5)            56.7717         estimate D2E/DX2                !
 ! D26   D(49,3,4,50)          -63.9221         estimate D2E/DX2                !
 ! D27   D(49,3,4,51)          178.2902         estimate D2E/DX2                !
 ! D28   D(3,4,5,6)            101.0187         estimate D2E/DX2                !
 ! D29   D(3,4,5,42)           -77.0743         estimate D2E/DX2                !
 ! D30   D(50,4,5,6)          -138.7187         estimate D2E/DX2                !
 ! D31   D(50,4,5,42)           43.1883         estimate D2E/DX2                !
 ! D32   D(51,4,5,6)           -20.0665         estimate D2E/DX2                !
 ! D33   D(51,4,5,42)          161.8406         estimate D2E/DX2                !
 ! D34   D(4,5,6,7)           -178.0985         estimate D2E/DX2                !
 ! D35   D(4,5,6,52)             1.8834         estimate D2E/DX2                !
 ! D36   D(42,5,6,7)             0.0301         estimate D2E/DX2                !
 ! D37   D(42,5,6,52)         -179.988          estimate D2E/DX2                !
 ! D38   D(4,5,42,41)          178.5644         estimate D2E/DX2                !
 ! D39   D(4,5,42,80)           -1.5734         estimate D2E/DX2                !
 ! D40   D(6,5,42,41)            0.4178         estimate D2E/DX2                !
 ! D41   D(6,5,42,80)         -179.72           estimate D2E/DX2                !
 ! D42   D(5,6,7,8)             -0.6321         estimate D2E/DX2                !
 ! D43   D(5,6,7,53)          -179.7442         estimate D2E/DX2                !
 ! D44   D(52,6,7,8)           179.3861         estimate D2E/DX2                !
 ! D45   D(52,6,7,53)            0.274          estimate D2E/DX2                !
 ! D46   D(6,7,8,9)            179.0161         estimate D2E/DX2                !
 ! D47   D(6,7,8,41)             0.7739         estimate D2E/DX2                !
 ! D48   D(53,7,8,9)            -1.8652         estimate D2E/DX2                !
 ! D49   D(53,7,8,41)          179.8925         estimate D2E/DX2                !
 ! D50   D(7,8,9,10)           -56.1851         estimate D2E/DX2                !
 ! D51   D(7,8,9,40)           124.2751         estimate D2E/DX2                !
 ! D52   D(41,8,9,10)          122.014          estimate D2E/DX2                !
 ! D53   D(41,8,9,40)          -57.5259         estimate D2E/DX2                !
 ! D54   D(7,8,41,42)           -0.3285         estimate D2E/DX2                !
 ! D55   D(7,8,41,79)          178.5884         estimate D2E/DX2                !
 ! D56   D(9,8,41,42)         -178.5557         estimate D2E/DX2                !
 ! D57   D(9,8,41,79)            0.3613         estimate D2E/DX2                !
 ! D58   D(8,9,10,11)         -178.3887         estimate D2E/DX2                !
 ! D59   D(8,9,10,54)            0.4129         estimate D2E/DX2                !
 ! D60   D(40,9,10,11)           1.1594         estimate D2E/DX2                !
 ! D61   D(40,9,10,54)         179.961          estimate D2E/DX2                !
 ! D62   D(8,9,40,35)          177.622          estimate D2E/DX2                !
 ! D63   D(8,9,40,39)           -4.0218         estimate D2E/DX2                !
 ! D64   D(10,9,40,35)          -1.9139         estimate D2E/DX2                !
 ! D65   D(10,9,40,39)         176.4423         estimate D2E/DX2                !
 ! D66   D(9,10,11,12)        -179.7859         estimate D2E/DX2                !
 ! D67   D(9,10,11,13)          -0.0286         estimate D2E/DX2                !
 ! D68   D(54,10,11,12)          1.3771         estimate D2E/DX2                !
 ! D69   D(54,10,11,13)       -178.8656         estimate D2E/DX2                !
 ! D70   D(10,11,12,55)       -177.505          estimate D2E/DX2                !
 ! D71   D(13,11,12,55)          2.743          estimate D2E/DX2                !
 ! D72   D(10,11,13,14)       -178.336          estimate D2E/DX2                !
 ! D73   D(10,11,13,35)         -0.3174         estimate D2E/DX2                !
 ! D74   D(12,11,13,14)          1.4081         estimate D2E/DX2                !
 ! D75   D(12,11,13,35)        179.4266         estimate D2E/DX2                !
 ! D76   D(11,13,14,15)        105.1308         estimate D2E/DX2                !
 ! D77   D(11,13,14,34)        -73.3919         estimate D2E/DX2                !
 ! D78   D(35,13,14,15)        -72.8531         estimate D2E/DX2                !
 ! D79   D(35,13,14,34)        108.6242         estimate D2E/DX2                !
 ! D80   D(11,13,35,36)        179.1389         estimate D2E/DX2                !
 ! D81   D(11,13,35,40)         -0.4728         estimate D2E/DX2                !
 ! D82   D(14,13,35,36)         -2.8796         estimate D2E/DX2                !
 ! D83   D(14,13,35,40)        177.5087         estimate D2E/DX2                !
 ! D84   D(13,14,15,16)          2.2822         estimate D2E/DX2                !
 ! D85   D(13,14,15,17)       -176.149          estimate D2E/DX2                !
 ! D86   D(34,14,15,16)       -179.1716         estimate D2E/DX2                !
 ! D87   D(34,14,15,17)          2.3972         estimate D2E/DX2                !
 ! D88   D(13,14,34,29)        176.6692         estimate D2E/DX2                !
 ! D89   D(13,14,34,33)         -4.5971         estimate D2E/DX2                !
 ! D90   D(15,14,34,29)         -1.8547         estimate D2E/DX2                !
 ! D91   D(15,14,34,33)        176.879          estimate D2E/DX2                !
 ! D92   D(14,15,16,56)          3.0182         estimate D2E/DX2                !
 ! D93   D(17,15,16,56)       -178.5017         estimate D2E/DX2                !
 ! D94   D(14,15,17,18)         -0.2053         estimate D2E/DX2                !
 ! D95   D(14,15,17,57)        177.8643         estimate D2E/DX2                !
 ! D96   D(16,15,17,18)       -178.7193         estimate D2E/DX2                !
 ! D97   D(16,15,17,57)         -0.6497         estimate D2E/DX2                !
 ! D98   D(15,17,18,19)        177.0835         estimate D2E/DX2                !
 ! D99   D(15,17,18,29)         -2.5223         estimate D2E/DX2                !
 ! D100  D(57,17,18,19)         -0.9261         estimate D2E/DX2                !
 ! D101  D(57,17,18,29)        179.4681         estimate D2E/DX2                !
 ! D102  D(17,18,19,20)         54.7221         estimate D2E/DX2                !
 ! D103  D(17,18,19,28)       -123.5131         estimate D2E/DX2                !
 ! D104  D(29,18,19,20)       -125.6793         estimate D2E/DX2                !
 ! D105  D(29,18,19,28)         56.0855         estimate D2E/DX2                !
 ! D106  D(17,18,29,30)       -175.0003         estimate D2E/DX2                !
 ! D107  D(17,18,29,34)          2.9882         estimate D2E/DX2                !
 ! D108  D(19,18,29,30)          5.404          estimate D2E/DX2                !
 ! D109  D(19,18,29,34)       -176.6074         estimate D2E/DX2                !
 ! D110  D(18,19,20,21)       -179.1282         estimate D2E/DX2                !
 ! D111  D(18,19,20,58)          1.9338         estimate D2E/DX2                !
 ! D112  D(28,19,20,21)         -0.8511         estimate D2E/DX2                !
 ! D113  D(28,19,20,58)       -179.7891         estimate D2E/DX2                !
 ! D114  D(18,19,28,27)        178.7679         estimate D2E/DX2                !
 ! D115  D(18,19,28,70)         -0.1093         estimate D2E/DX2                !
 ! D116  D(20,19,28,27)          0.5021         estimate D2E/DX2                !
 ! D117  D(20,19,28,70)       -178.3751         estimate D2E/DX2                !
 ! D118  D(19,20,21,22)          0.5406         estimate D2E/DX2                !
 ! D119  D(19,20,21,59)       -179.226          estimate D2E/DX2                !
 ! D120  D(58,20,21,22)        179.47           estimate D2E/DX2                !
 ! D121  D(58,20,21,59)         -0.2966         estimate D2E/DX2                !
 ! D122  D(20,21,22,23)        178.4058         estimate D2E/DX2                !
 ! D123  D(20,21,22,27)          0.1326         estimate D2E/DX2                !
 ! D124  D(59,21,22,23)         -1.8272         estimate D2E/DX2                !
 ! D125  D(59,21,22,27)        179.8995         estimate D2E/DX2                !
 ! D126  D(21,22,23,24)        -76.1677         estimate D2E/DX2                !
 ! D127  D(21,22,23,60)         43.5698         estimate D2E/DX2                !
 ! D128  D(21,22,23,61)        161.9315         estimate D2E/DX2                !
 ! D129  D(27,22,23,24)        102.0535         estimate D2E/DX2                !
 ! D130  D(27,22,23,60)       -138.209          estimate D2E/DX2                !
 ! D131  D(27,22,23,61)        -19.8473         estimate D2E/DX2                !
 ! D132  D(21,22,27,28)         -0.4839         estimate D2E/DX2                !
 ! D133  D(21,22,27,69)        179.622          estimate D2E/DX2                !
 ! D134  D(23,22,27,28)       -178.7392         estimate D2E/DX2                !
 ! D135  D(23,22,27,69)          1.3666         estimate D2E/DX2                !
 ! D136  D(22,23,24,25)        -63.2971         estimate D2E/DX2                !
 ! D137  D(22,23,24,62)         57.7395         estimate D2E/DX2                !
 ! D138  D(22,23,24,63)        174.802          estimate D2E/DX2                !
 ! D139  D(60,23,24,25)        176.3548         estimate D2E/DX2                !
 ! D140  D(60,23,24,62)        -62.6086         estimate D2E/DX2                !
 ! D141  D(60,23,24,63)         54.4538         estimate D2E/DX2                !
 ! D142  D(61,23,24,25)         58.7969         estimate D2E/DX2                !
 ! D143  D(61,23,24,62)        179.8335         estimate D2E/DX2                !
 ! D144  D(61,23,24,63)        -63.1041         estimate D2E/DX2                !
 ! D145  D(23,24,25,26)        -70.1217         estimate D2E/DX2                !
 ! D146  D(23,24,25,64)        169.2723         estimate D2E/DX2                !
 ! D147  D(23,24,25,65)         52.2986         estimate D2E/DX2                !
 ! D148  D(62,24,25,26)        168.975          estimate D2E/DX2                !
 ! D149  D(62,24,25,64)         48.3691         estimate D2E/DX2                !
 ! D150  D(62,24,25,65)        -68.6046         estimate D2E/DX2                !
 ! D151  D(63,24,25,26)         51.6105         estimate D2E/DX2                !
 ! D152  D(63,24,25,64)        -68.9954         estimate D2E/DX2                !
 ! D153  D(63,24,25,65)        174.0309         estimate D2E/DX2                !
 ! D154  D(24,25,26,66)         63.7745         estimate D2E/DX2                !
 ! D155  D(24,25,26,67)        -56.6461         estimate D2E/DX2                !
 ! D156  D(24,25,26,68)       -176.4044         estimate D2E/DX2                !
 ! D157  D(64,25,26,66)       -175.7664         estimate D2E/DX2                !
 ! D158  D(64,25,26,67)         63.813          estimate D2E/DX2                !
 ! D159  D(64,25,26,68)        -55.9452         estimate D2E/DX2                !
 ! D160  D(65,25,26,66)        -58.4314         estimate D2E/DX2                !
 ! D161  D(65,25,26,67)       -178.852          estimate D2E/DX2                !
 ! D162  D(65,25,26,68)         61.3897         estimate D2E/DX2                !
 ! D163  D(22,27,28,19)          0.1656         estimate D2E/DX2                !
 ! D164  D(22,27,28,70)        179.038          estimate D2E/DX2                !
 ! D165  D(69,27,28,19)       -179.94           estimate D2E/DX2                !
 ! D166  D(69,27,28,70)         -1.0676         estimate D2E/DX2                !
 ! D167  D(18,29,30,31)        179.6778         estimate D2E/DX2                !
 ! D168  D(18,29,30,71)          0.7203         estimate D2E/DX2                !
 ! D169  D(34,29,30,31)          1.6812         estimate D2E/DX2                !
 ! D170  D(34,29,30,71)       -177.2763         estimate D2E/DX2                !
 ! D171  D(18,29,34,14)         -0.8195         estimate D2E/DX2                !
 ! D172  D(18,29,34,33)       -179.5818         estimate D2E/DX2                !
 ! D173  D(30,29,34,14)        177.2468         estimate D2E/DX2                !
 ! D174  D(30,29,34,33)         -1.5155         estimate D2E/DX2                !
 ! D175  D(29,30,31,32)         -0.5911         estimate D2E/DX2                !
 ! D176  D(29,30,31,72)       -179.8754         estimate D2E/DX2                !
 ! D177  D(71,30,31,32)        178.353          estimate D2E/DX2                !
 ! D178  D(71,30,31,72)         -0.9314         estimate D2E/DX2                !
 ! D179  D(30,31,32,33)         -0.6835         estimate D2E/DX2                !
 ! D180  D(30,31,32,73)       -179.7125         estimate D2E/DX2                !
 ! D181  D(72,31,32,33)        178.6053         estimate D2E/DX2                !
 ! D182  D(72,31,32,73)         -0.4237         estimate D2E/DX2                !
 ! D183  D(31,32,33,34)          0.8204         estimate D2E/DX2                !
 ! D184  D(31,32,33,74)       -178.1714         estimate D2E/DX2                !
 ! D185  D(73,32,33,34)        179.8442         estimate D2E/DX2                !
 ! D186  D(73,32,33,74)          0.8523         estimate D2E/DX2                !
 ! D187  D(32,33,34,14)       -178.4537         estimate D2E/DX2                !
 ! D188  D(32,33,34,29)          0.2936         estimate D2E/DX2                !
 ! D189  D(74,33,34,14)          0.5529         estimate D2E/DX2                !
 ! D190  D(74,33,34,29)        179.3003         estimate D2E/DX2                !
 ! D191  D(13,35,36,37)        178.3324         estimate D2E/DX2                !
 ! D192  D(13,35,36,75)         -1.8667         estimate D2E/DX2                !
 ! D193  D(40,35,36,37)         -2.0517         estimate D2E/DX2                !
 ! D194  D(40,35,36,75)        177.7492         estimate D2E/DX2                !
 ! D195  D(13,35,40,9)           1.576          estimate D2E/DX2                !
 ! D196  D(13,35,40,39)       -176.8436         estimate D2E/DX2                !
 ! D197  D(36,35,40,9)        -178.0449         estimate D2E/DX2                !
 ! D198  D(36,35,40,39)          3.5355         estimate D2E/DX2                !
 ! D199  D(35,36,37,38)         -0.6174         estimate D2E/DX2                !
 ! D200  D(35,36,37,76)        179.9332         estimate D2E/DX2                !
 ! D201  D(75,36,37,38)        179.5847         estimate D2E/DX2                !
 ! D202  D(75,36,37,76)          0.1352         estimate D2E/DX2                !
 ! D203  D(36,37,38,39)          1.7761         estimate D2E/DX2                !
 ! D204  D(36,37,38,77)       -178.3551         estimate D2E/DX2                !
 ! D205  D(76,37,38,39)       -178.7715         estimate D2E/DX2                !
 ! D206  D(76,37,38,77)          1.0973         estimate D2E/DX2                !
 ! D207  D(37,38,39,40)         -0.1953         estimate D2E/DX2                !
 ! D208  D(37,38,39,78)       -179.6029         estimate D2E/DX2                !
 ! D209  D(77,38,39,40)        179.9367         estimate D2E/DX2                !
 ! D210  D(77,38,39,78)          0.5292         estimate D2E/DX2                !
 ! D211  D(38,39,40,9)         179.1755         estimate D2E/DX2                !
 ! D212  D(38,39,40,35)         -2.4616         estimate D2E/DX2                !
 ! D213  D(78,39,40,9)          -1.4091         estimate D2E/DX2                !
 ! D214  D(78,39,40,35)        176.9538         estimate D2E/DX2                !
 ! D215  D(8,41,42,5)           -0.2681         estimate D2E/DX2                !
 ! D216  D(8,41,42,80)         179.8699         estimate D2E/DX2                !
 ! D217  D(79,41,42,5)        -179.1785         estimate D2E/DX2                !
 ! D218  D(79,41,42,80)          0.9595         estimate D2E/DX2                !
 --------------------------------------------------------------------------------
 Trust Radius=3.00D-01 FncErr=1.00D-07 GrdErr=1.00D-06 EigMax=2.50D+02 EigMin=1.00D-04
 Number of steps in this run=    459 maximum allowed number of steps=    480.
 GradGradGradGradGradGradGradGradGradGradGradGradGradGradGradGradGradGrad

 Leave Link  103 at Mon Mar 24 02:36:44 2025, MaxMem= 13421772800 cpu:               0.9 elap:               0.0
 (Enter /public/software/apps/Gaussian/g16/l202.exe)
 Symmetry turned off by external request.
 Stoichiometry    C40H38O2
 Framework group  C1[X(C40H38O2)]
 Deg. of freedom   234
 Full point group                 C1      NOp   1
                          Input orientation:                          
 ---------------------------------------------------------------------
 Center     Atomic      Atomic             Coordinates (Angstroms)
 Number     Number       Type             X           Y           Z
 ---------------------------------------------------------------------
      1          6           0       -9.743773    2.042316    3.375560
      2          6           0       -9.231931    0.778990    2.694946
      3          6           0       -9.768824    0.647851    1.272367
      4          6           0       -9.272289   -0.625598    0.574585
      5          6           0       -7.783821   -0.599928    0.382121
      6          6           0       -6.935832   -1.303855    1.227264
      7          6           0       -5.564286   -1.243816    1.067157
      8          6           0       -5.003582   -0.485355    0.045252
      9          6           0       -3.539682   -0.409331   -0.105269
     10          6           0       -2.786933    0.018703    0.958115
     11          6           0       -1.391185    0.143752    0.863983
     12          8           0       -0.731256    0.571082    1.971901
     13          6           0       -0.738762   -0.165595   -0.314491
     14          6           0        0.742247   -0.060317   -0.376263
     15          6           0        1.507965   -1.210845   -0.362674
     16          8           0        0.958645   -2.453122   -0.339991
     17          6           0        2.910152   -1.131045   -0.338912
     18          6           0        3.558054    0.077756   -0.332726
     19          6           0        5.028142    0.097630   -0.241942
     20          6           0        5.799308   -0.613474   -1.156350
     21          6           0        7.177212   -0.612235   -1.064281
     22          6           0        7.825873    0.087459   -0.053246
     23          6           0        9.322466    0.049900    0.054498
     24          6           0        9.809705   -1.280306    0.646841
     25          6           0        9.337601   -1.521687    2.080577
     26          6           0       10.004461   -0.599013    3.094187
     27          6           0        7.053249    0.784996    0.866438
     28          6           0        5.674115    0.793574    0.775473
     29          6           0        2.803330    1.281196   -0.405017
     30          6           0        3.411181    2.549444   -0.506501
     31          6           0        2.659742    3.689376   -0.580919
     32          6           0        1.260346    3.614491   -0.569802
     33          6           0        0.637657    2.400630   -0.498559
     34          6           0        1.384462    1.204616   -0.417713
     35          6           0       -1.489897   -0.618238   -1.430112
     36          6           0       -0.863374   -0.927506   -2.657853
     37          6           0       -1.587090   -1.394966   -3.717952
     38          6           0       -2.970167   -1.587922   -3.597337
     39          6           0       -3.609725   -1.275454   -2.429986
     40          6           0       -2.900081   -0.759537   -1.325914
     41          6           0       -5.850892    0.224119   -0.801647
     42          6           0       -7.220252    0.167362   -0.630846
     43          1           0       -9.430319    2.925877    2.823633
     44          1           0      -10.830847    2.037555    3.424181
     45          1           0       -9.355486    2.115784    4.388713
     46          1           0       -8.140335    0.797825    2.667734
     47          1           0       -9.535806   -0.094370    3.277065
     48          1           0      -10.861082    0.633736    1.299741
     49          1           0       -9.460203    1.519215    0.690391
     50          1           0       -9.763647   -0.706795   -0.398130
     51          1           0       -9.554557   -1.494665    1.172322
     52          1           0       -7.354481   -1.906380    2.020917
     53          1           0       -4.916933   -1.800158    1.729734
     54          1           0       -3.253793    0.289549    1.892399
     55          1           0        0.211936    0.654245    1.772862
     56          1           0       -0.005172   -2.380877   -0.383541
     57          1           0        3.464450   -2.055644   -0.293421
     58          1           0        5.309678   -1.155035   -1.952848
     59          1           0        7.761509   -1.159805   -1.790444
     60          1           0        9.760243    0.163768   -0.940451
     61          1           0        9.673207    0.877426    0.672043
     62          1           0        9.445548   -2.094479    0.015953
     63          1           0       10.901814   -1.300104    0.620392
     64          1           0        9.563052   -2.556769    2.348490
     65          1           0        8.253667   -1.396938    2.128445
     66          1           0        9.745994    0.440448    2.910230
     67          1           0       11.087159   -0.697095    3.044498
     68          1           0        9.683774   -0.851998    4.102251
     69          1           0        7.535482    1.331220    1.664819
     70          1           0        5.088483    1.329141    1.509267
     71          1           0        4.488593    2.608237   -0.542050
     72          1           0        3.141158    4.652856   -0.660305
     73          1           0        0.676613    4.520875   -0.633754
     74          1           0       -0.440969    2.339765   -0.519640
     75          1           0        0.203931   -0.784723   -2.747599
     76          1           0       -1.095096   -1.626357   -4.651089
     77          1           0       -3.527902   -1.983137   -4.433437
     78          1           0       -4.674058   -1.430820   -2.336914
     79          1           0       -5.428061    0.835970   -1.585817
     80          1           0       -7.864518    0.725754   -1.295549
 ---------------------------------------------------------------------
 Rotational constants (GHZ):           0.2113248           0.0261798           0.0254618
 Leave Link  202 at Mon Mar 24 02:36:44 2025, MaxMem= 13421772800 cpu:               0.3 elap:               0.0
 (Enter /public/software/apps/Gaussian/g16/l301.exe)
 Standard basis: def2SVPP (5D, 7F)
 Ernie: Thresh=  0.10000D-02 Tol=  0.10000D-05 Strict=F.
   664 basis functions,  1202 primitive gaussians,   706 cartesian basis functions
   147 alpha electrons      147 beta electrons
       nuclear repulsion energy      4383.9253977748 Hartrees.
 IExCor=  402 DFT=T Ex+Corr=B3LYP ExCW=0 ScaHFX=  0.200000
 ScaDFX=  0.800000  0.720000  1.000000  0.810000 ScalE2=  1.000000  1.000000
 IRadAn=      5 IRanWt=     -1 IRanGd=            0 ICorTp=0 IEmpDi=141
 NAtoms=   80 NActive=   80 NUniq=   80 SFac= 1.00D+00 NAtFMM=   60 NAOKFM=T Big=T
 Integral buffers will be    131072 words long.
 Raffenetti 2 integral format.
 Two-electron integral symmetry is turned off.
 R6Disp:  Grimme-D3(BJ) Dispersion energy=       -0.1969088138 Hartrees.
 Nuclear repulsion after empirical dispersion term =     4383.7284889610 Hartrees.
 Leave Link  301 at Mon Mar 24 02:36:44 2025, MaxMem= 13421772800 cpu:               0.6 elap:               0.0
 (Enter /public/software/apps/Gaussian/g16/l302.exe)
 NPDir=0 NMtPBC=     1 NCelOv=     1 NCel=       1 NClECP=     1 NCelD=      1
         NCelK=      1 NCelE2=     1 NClLst=     1 CellRange=     0.0.
 One-electron integrals computed using PRISM.
   1 Symmetry operations used in ECPInt.
 ECPInt:  NShTT=   53956 NPrTT=  216156 LenC2=   36914 LenP2D=   91471.
 LDataN:  DoStor=T MaxTD1= 4 Len=   56
 NBasis=   664 RedAO= T EigKep=  1.59D-04  NBF=   664
 NBsUse=   664 1.00D-06 EigRej= -1.00D+00 NBFU=   664
 Precomputing XC quadrature grid using
 IXCGrd= 4 IRadAn=           5 IRanWt=          -1 IRanGd=           0 AccXCQ= 0.00D+00.
 Generated NRdTot=       0 NPtTot=           0 NUsed=           0 NTot=          32
 NSgBfM=   644   635   635   638   644 MxSgAt=    80 MxSgA2=    80.
 Leave Link  302 at Mon Mar 24 02:36:45 2025, MaxMem= 13421772800 cpu:              29.9 elap:               0.9
 (Enter /public/software/apps/Gaussian/g16/l303.exe)
 DipDrv:  MaxL=1.
 Leave Link  303 at Mon Mar 24 02:36:45 2025, MaxMem= 13421772800 cpu:               4.2 elap:               0.2
 (Enter /public/software/apps/Gaussian/g16/l401.exe)
 ExpMin= 1.22D-01 ExpMax= 2.27D+03 ExpMxC= 3.41D+02 IAcc=3 IRadAn=         5 AccDes= 0.00D+00
 Harris functional with IExCor=  402 and IRadAn=       5 diagonalized for initial guess.
 HarFok:  IExCor=  402 AccDes= 0.00D+00 IRadAn=         5 IDoV= 1 UseB2=F ITyADJ=14
 ICtDFT=  3500011 ScaDFX=  1.000000  1.000000  1.000000  1.000000
 FoFCou: FMM=F IPFlag=           0 FMFlag=      100000 FMFlg1=        2001
         NFxFlg=           0 DoJE=T BraDBF=F KetDBF=T FulRan=T
         wScrn=  0.000000 ICntrl=       500 IOpCl=  0 I1Cent=   200000004 NGrid=           0
         NMat0=    1 NMatS0=      1 NMatT0=    0 NMatD0=    1 NMtDS0=    0 NMtDT0=    0
 Symmetry not used in FoFCou.
 Harris En= -1696.56189371062    
 JPrj=0 DoOrth=F DoCkMO=F.
 Leave Link  401 at Mon Mar 24 02:36:47 2025, MaxMem= 13421772800 cpu:              56.7 elap:               1.8
 (Enter /public/software/apps/Gaussian/g16/l502.exe)
 Two-electron integral symmetry not used.
 Closed shell SCF:
 Using DIIS extrapolation, IDIIS=  1040.
 NGot= 13421772800 LenX= 13420745320 LenY= 13420246178
 Requested convergence on RMS density matrix=1.00D-08 within 128 cycles.
 Requested convergence on MAX density matrix=1.00D-06.
 Requested convergence on             energy=1.00D-06.
 No special actions if energy rises.
 Fock matrices will be formed incrementally for  20 cycles.
 Integral accuracy reduced to 1.0D-05 until final iterations.

 Cycle   1  Pass 0  IDiag  1:
 FoFJK:  IHMeth= 1 ICntrl=       0 DoSepK=F KAlg= 0 I1Cent=           0 FoldK=F
 IRaf= 780000000 NMat=       1 IRICut=       1 DoRegI=T DoRafI=F ISym2E= 0 IDoP0=0 IntGTp=1.
 FoFCou: FMM=T IPFlag=           0 FMFlag=      100000 FMFlg1=        2001
         NFxFlg=           0 DoJE=F BraDBF=F KetDBF=F FulRan=T
         wScrn=  0.000000 ICntrl=         0 IOpCl=  0 I1Cent=           0 NGrid=           0
         NMat0=    1 NMatS0=      1 NMatT0=    0 NMatD0=    1 NMtDS0=    0 NMtDT0=    0
 Symmetry not used in FoFCou.
 FMM levels:  10  Number of levels for PrismC:   9
 E= -1695.56324854628    
 DIIS: error= 2.01D-02 at cycle   1 NSaved=   1.
 NSaved= 1 IEnMin= 1 EnMin= -1695.56324854628     IErMin= 1 ErrMin= 2.01D-02
 ErrMax= 2.01D-02  0.00D+00 EMaxC= 1.00D-01 BMatC= 8.22D-01 BMatP= 8.22D-01
 IDIUse=3 WtCom= 7.99D-01 WtEn= 2.01D-01
 Coeff-Com:  0.100D+01
 Coeff-En:   0.100D+01
 Coeff:      0.100D+01
 Gap=     0.169 Goal=   None    Shift=    0.000
 GapD=    0.169 DampG=1.000 DampE=0.500 DampFc=0.5000 IDamp=-1.
 Damping current iteration by 5.00D-01
 RMSDP=4.78D-03 MaxDP=1.74D-01              OVMax= 1.56D-01

 Cycle   2  Pass 0  IDiag  1:
 RMSU=  2.16D-03    CP:  9.38D-01
 E= -1696.00767845186     Delta-E=       -0.444429905582 Rises=F Damp=T
 DIIS: error= 5.14D-03 at cycle   2 NSaved=   2.
 NSaved= 2 IEnMin= 2 EnMin= -1696.00767845186     IErMin= 2 ErrMin= 5.14D-03
 ErrMax= 5.14D-03  0.00D+00 EMaxC= 1.00D-01 BMatC= 3.93D-02 BMatP= 8.22D-01
 IDIUse=3 WtCom= 9.49D-01 WtEn= 5.14D-02
 Coeff-Com:  0.340D-01 0.966D+00
 Coeff-En:   0.402D-01 0.960D+00
 Coeff:      0.343D-01 0.966D+00
 Gap=     0.173 Goal=   None    Shift=    0.000
 RMSDP=1.71D-03 MaxDP=1.20D-01 DE=-4.44D-01 OVMax= 1.37D-01

 Cycle   3  Pass 0  IDiag  1:
 RMSU=  1.54D-03    CP:  8.94D-01  1.08D+00
 E= -1696.47996283255     Delta-E=       -0.472284380689 Rises=F Damp=F
 DIIS: error= 5.94D-03 at cycle   3 NSaved=   3.
 NSaved= 3 IEnMin= 3 EnMin= -1696.47996283255     IErMin= 2 ErrMin= 5.14D-03
 ErrMax= 5.94D-03  0.00D+00 EMaxC= 1.00D-01 BMatC= 3.76D-02 BMatP= 3.93D-02
 IDIUse=3 WtCom= 9.41D-01 WtEn= 5.94D-02
 Coeff-Com: -0.221D-01 0.500D+00 0.522D+00
 Coeff-En:   0.000D+00 0.000D+00 0.100D+01
 Coeff:     -0.208D-01 0.470D+00 0.551D+00
 Gap=     0.161 Goal=   None    Shift=    0.000
 RMSDP=7.33D-04 MaxDP=4.51D-02 DE=-4.72D-01 OVMax= 9.28D-02

 Cycle   4  Pass 0  IDiag  1:
 RMSU=  5.98D-04    CP:  8.95D-01  1.15D+00  7.47D-01
 E= -1696.50777368930     Delta-E=       -0.027810856755 Rises=F Damp=F
 DIIS: error= 3.77D-03 at cycle   4 NSaved=   4.
 NSaved= 4 IEnMin= 4 EnMin= -1696.50777368930     IErMin= 4 ErrMin= 3.77D-03
 ErrMax= 3.77D-03  0.00D+00 EMaxC= 1.00D-01 BMatC= 1.27D-02 BMatP= 3.76D-02
 IDIUse=3 WtCom= 9.62D-01 WtEn= 3.77D-02
 Coeff-Com: -0.171D-01 0.159D+00 0.375D+00 0.483D+00
 Coeff-En:   0.000D+00 0.000D+00 0.296D+00 0.704D+00
 Coeff:     -0.164D-01 0.153D+00 0.372D+00 0.491D+00
 Gap=     0.153 Goal=   None    Shift=    0.000
 RMSDP=3.38D-04 MaxDP=2.68D-02 DE=-2.78D-02 OVMax= 4.54D-02

 Cycle   5  Pass 0  IDiag  1:
 RMSU=  1.75D-04    CP:  8.94D-01  1.13D+00  8.18D-01  5.59D-01
 E= -1696.52194028159     Delta-E=       -0.014166592283 Rises=F Damp=F
 DIIS: error= 8.24D-04 at cycle   5 NSaved=   5.
 NSaved= 5 IEnMin= 5 EnMin= -1696.52194028159     IErMin= 5 ErrMin= 8.24D-04
 ErrMax= 8.24D-04  0.00D+00 EMaxC= 1.00D-01 BMatC= 1.02D-03 BMatP= 1.27D-02
 IDIUse=3 WtCom= 9.92D-01 WtEn= 8.24D-03
 Coeff-Com: -0.779D-02 0.411D-01 0.166D+00 0.297D+00 0.504D+00
 Coeff-En:   0.000D+00 0.000D+00 0.000D+00 0.127D-01 0.987D+00
 Coeff:     -0.773D-02 0.407D-01 0.165D+00 0.294D+00 0.508D+00
 Gap=     0.152 Goal=   None    Shift=    0.000
 RMSDP=9.36D-05 MaxDP=4.22D-03 DE=-1.42D-02 OVMax= 1.37D-02

 Cycle   6  Pass 0  IDiag  1:
 RMSU=  6.93D-05    CP:  8.94D-01  1.14D+00  8.18D-01  5.93D-01  6.67D-01
 E= -1696.52290856439     Delta-E=       -0.000968282801 Rises=F Damp=F
 DIIS: error= 4.01D-04 at cycle   6 NSaved=   6.
 NSaved= 6 IEnMin= 6 EnMin= -1696.52290856439     IErMin= 6 ErrMin= 4.01D-04
 ErrMax= 4.01D-04  0.00D+00 EMaxC= 1.00D-01 BMatC= 1.68D-04 BMatP= 1.02D-03
 IDIUse=3 WtCom= 9.96D-01 WtEn= 4.01D-03
 Coeff-Com: -0.301D-02 0.770D-02 0.605D-01 0.131D+00 0.333D+00 0.472D+00
 Coeff-En:   0.000D+00 0.000D+00 0.000D+00 0.000D+00 0.129D+00 0.871D+00
 Coeff:     -0.300D-02 0.767D-02 0.602D-01 0.130D+00 0.332D+00 0.473D+00
 Gap=     0.152 Goal=   None    Shift=    0.000
 RMSDP=3.88D-05 MaxDP=1.60D-03 DE=-9.68D-04 OVMax= 5.48D-03

 Cycle   7  Pass 0  IDiag  1:
 RMSU=  2.75D-05    CP:  8.94D-01  1.14D+00  8.19D-01  5.94D-01  7.31D-01
                    CP:  6.41D-01
 E= -1696.52310869888     Delta-E=       -0.000200134492 Rises=F Damp=F
 DIIS: error= 1.15D-04 at cycle   7 NSaved=   7.
 NSaved= 7 IEnMin= 7 EnMin= -1696.52310869888     IErMin= 7 ErrMin= 1.15D-04
 ErrMax= 1.15D-04  0.00D+00 EMaxC= 1.00D-01 BMatC= 2.08D-05 BMatP= 1.68D-04
 IDIUse=3 WtCom= 9.99D-01 WtEn= 1.15D-03
 Coeff-Com: -0.985D-03-0.103D-04 0.180D-01 0.466D-01 0.149D+00 0.308D+00
 Coeff-Com:  0.479D+00
 Coeff-En:   0.000D+00 0.000D+00 0.000D+00 0.000D+00 0.000D+00 0.346D-01
 Coeff-En:   0.965D+00
 Coeff:     -0.984D-03-0.102D-04 0.179D-01 0.466D-01 0.149D+00 0.308D+00
 Coeff:      0.479D+00
 Gap=     0.152 Goal=   None    Shift=    0.000
 RMSDP=1.59D-05 MaxDP=7.00D-04 DE=-2.00D-04 OVMax= 1.20D-03

 Cycle   8  Pass 0  IDiag  1:
 RMSU=  1.42D-05    CP:  8.94D-01  1.14D+00  8.20D-01  5.96D-01  7.07D-01
                    CP:  7.04D-01  8.78D-01
 E= -1696.52314425853     Delta-E=       -0.000035559649 Rises=F Damp=F
 DIIS: error= 2.59D-05 at cycle   8 NSaved=   8.
 NSaved= 8 IEnMin= 8 EnMin= -1696.52314425853     IErMin= 8 ErrMin= 2.59D-05
 ErrMax= 2.59D-05  0.00D+00 EMaxC= 1.00D-01 BMatC= 1.04D-06 BMatP= 2.08D-05
 IDIUse=1 WtCom= 1.00D+00 WtEn= 0.00D+00
 Coeff-Com: -0.352D-03-0.447D-03 0.621D-02 0.176D-01 0.627D-01 0.144D+00
 Coeff-Com:  0.268D+00 0.503D+00
 Coeff:     -0.352D-03-0.447D-03 0.621D-02 0.176D-01 0.627D-01 0.144D+00
 Coeff:      0.268D+00 0.503D+00
 Gap=     0.152 Goal=   None    Shift=    0.000
 RMSDP=1.17D-05 MaxDP=3.95D-04 DE=-3.56D-05 OVMax= 2.26D-04

 Cycle   9  Pass 0  IDiag  1:
 RMSU=  9.66D-06    CP:  8.94D-01  1.14D+00  8.21D-01  5.98D-01  7.06D-01
                    CP:  7.08D-01  1.00D+00  1.39D+00
 E= -1696.52314958215     Delta-E=       -0.000005323617 Rises=F Damp=F
 DIIS: error= 3.24D-05 at cycle   9 NSaved=   9.
 NSaved= 9 IEnMin= 9 EnMin= -1696.52314958215     IErMin= 8 ErrMin= 2.59D-05
 ErrMax= 3.24D-05  0.00D+00 EMaxC= 1.00D-01 BMatC= 3.06D-07 BMatP= 1.04D-06
 IDIUse=1 WtCom= 1.00D+00 WtEn= 0.00D+00
 Coeff-Com: -0.140D-03-0.339D-03 0.250D-02 0.743D-02 0.284D-01 0.678D-01
 Coeff-Com:  0.134D+00 0.340D+00 0.420D+00
 Coeff:     -0.140D-03-0.339D-03 0.250D-02 0.743D-02 0.284D-01 0.678D-01
 Coeff:      0.134D+00 0.340D+00 0.420D+00
 Gap=     0.152 Goal=   None    Shift=    0.000
 RMSDP=1.34D-05 MaxDP=4.63D-04 DE=-5.32D-06 OVMax= 6.48D-05

 Cycle  10  Pass 0  IDiag  1:
 RMSU=  7.49D-06    CP:  8.94D-01  1.14D+00  8.21D-01  5.99D-01  7.08D-01
                    CP:  7.19D-01  1.10D+00  1.82D+00  1.90D+00
 E= -1696.52314879520     Delta-E=        0.000000786948 Rises=F Damp=F
 DIIS: error= 5.26D-05 at cycle  10 NSaved=  10.
 NSaved=10 IEnMin= 9 EnMin= -1696.52314958215     IErMin= 8 ErrMin= 2.59D-05
 ErrMax= 5.26D-05  0.00D+00 EMaxC= 1.00D-01 BMatC= 4.15D-07 BMatP= 3.06D-07
 IDIUse=1 WtCom= 1.00D+00 WtEn= 0.00D+00
 Coeff-Com: -0.117D-03-0.422D-03 0.212D-02 0.664D-02 0.268D-01 0.662D-01
 Coeff-Com:  0.138D+00 0.413D+00 0.729D+00-0.381D+00
 Coeff:     -0.117D-03-0.422D-03 0.212D-02 0.664D-02 0.268D-01 0.662D-01
 Coeff:      0.138D+00 0.413D+00 0.729D+00-0.381D+00
 Gap=     0.152 Goal=   None    Shift=    0.000
 RMSDP=1.32D-05 MaxDP=5.24D-04 DE= 7.87D-07 OVMax= 3.03D-05

 Cycle  11  Pass 0  IDiag  1:
 RMSU=  5.33D-06    CP:  8.94D-01  1.14D+00  8.21D-01  5.98D-01  7.08D-01
                    CP:  7.17D-01  1.07D+00  1.58D+00  1.07D+00 -9.25D-02
 E= -1696.52315705825     Delta-E=       -0.000008263051 Rises=F Damp=F
 DIIS: error= 3.54D-05 at cycle  11 NSaved=  11.
 NSaved=11 IEnMin=11 EnMin= -1696.52315705825     IErMin= 8 ErrMin= 2.59D-05
 ErrMax= 3.54D-05  0.00D+00 EMaxC= 1.00D-01 BMatC= 2.64D-07 BMatP= 3.06D-07
 IDIUse=1 WtCom= 1.00D+00 WtEn= 0.00D+00
 Coeff-Com: -0.929D-04-0.363D-03 0.168D-02 0.531D-02 0.219D-01 0.548D-01
 Coeff-Com:  0.115D+00 0.362D+00 0.693D+00-0.572D+00 0.319D+00
 Coeff:     -0.929D-04-0.363D-03 0.168D-02 0.531D-02 0.219D-01 0.548D-01
 Coeff:      0.115D+00 0.362D+00 0.693D+00-0.572D+00 0.319D+00
 Gap=     0.152 Goal=   None    Shift=    0.000
 RMSDP=6.33D-06 MaxDP=2.53D-04 DE=-8.26D-06 OVMax= 2.07D-05

 Initial convergence to 1.0D-05 achieved.  Increase integral accuracy.
 Cycle  12  Pass 1  IDiag  1:
 E= -1696.52284902150     Delta-E=        0.000308036751 Rises=F Damp=F
 DIIS: error= 4.25D-04 at cycle   1 NSaved=   1.
 NSaved= 1 IEnMin= 1 EnMin= -1696.52284902150     IErMin= 1 ErrMin= 4.25D-04
 ErrMax= 4.25D-04  0.00D+00 EMaxC= 1.00D-01 BMatC= 7.16D-05 BMatP= 7.16D-05
 IDIUse=3 WtCom= 9.96D-01 WtEn= 4.25D-03
 Coeff-Com:  0.100D+01
 Coeff-En:   0.100D+01
 Coeff:      0.100D+01
 Gap=     0.152 Goal=   None    Shift=    0.000
 RMSDP=6.33D-06 MaxDP=2.53D-04 DE= 3.08D-04 OVMax= 1.10D-03

 Cycle  13  Pass 1  IDiag  1:
 RMSU=  5.57D-04    CP:  9.97D-01
 E= -1696.52292117256     Delta-E=       -0.000072151058 Rises=F Damp=F
 DIIS: error= 6.80D-06 at cycle   2 NSaved=   2.
 NSaved= 2 IEnMin= 2 EnMin= -1696.52292117256     IErMin= 2 ErrMin= 6.80D-06
 ErrMax= 6.80D-06  0.00D+00 EMaxC= 1.00D-01 BMatC= 3.16D-08 BMatP= 7.16D-05
 IDIUse=1 WtCom= 1.00D+00 WtEn= 0.00D+00
 Coeff-Com: -0.869D-02 0.101D+01
 Coeff:     -0.869D-02 0.101D+01
 Gap=     0.152 Goal=   None    Shift=    0.000
 RMSDP=6.98D-06 MaxDP=2.19D-04 DE=-7.22D-05 OVMax= 1.14D-04

 Cycle  14  Pass 1  IDiag  1:
 RMSU=  2.23D-06    CP:  9.97D-01  1.01D+00
 E= -1696.52292112913     Delta-E=        0.000000043423 Rises=F Damp=F
 DIIS: error= 1.24D-05 at cycle   3 NSaved=   3.
 NSaved= 3 IEnMin= 2 EnMin= -1696.52292117256     IErMin= 2 ErrMin= 6.80D-06
 ErrMax= 1.24D-05  0.00D+00 EMaxC= 1.00D-01 BMatC= 7.76D-08 BMatP= 3.16D-08
 IDIUse=1 WtCom= 1.00D+00 WtEn= 0.00D+00
 Coeff-Com: -0.589D-02 0.644D+00 0.362D+00
 Coeff:     -0.589D-02 0.644D+00 0.362D+00
 Gap=     0.152 Goal=   None    Shift=    0.000
 RMSDP=6.91D-07 MaxDP=3.24D-05 DE= 4.34D-08 OVMax= 8.56D-05

 Cycle  15  Pass 1  IDiag  1:
 RMSU=  6.37D-07    CP:  9.97D-01  1.01D+00  8.83D-01
 E= -1696.52292121037     Delta-E=       -0.000000081239 Rises=F Damp=F
 DIIS: error= 1.14D-06 at cycle   4 NSaved=   4.
 NSaved= 4 IEnMin= 4 EnMin= -1696.52292121037     IErMin= 4 ErrMin= 1.14D-06
 ErrMax= 1.14D-06  0.00D+00 EMaxC= 1.00D-01 BMatC= 1.62D-09 BMatP= 3.16D-08
 IDIUse=1 WtCom= 1.00D+00 WtEn= 0.00D+00
 Coeff-Com: -0.226D-02 0.243D+00 0.177D+00 0.582D+00
 Coeff:     -0.226D-02 0.243D+00 0.177D+00 0.582D+00
 Gap=     0.152 Goal=   None    Shift=    0.000
 RMSDP=1.56D-07 MaxDP=7.79D-06 DE=-8.12D-08 OVMax= 1.76D-05

 Cycle  16  Pass 1  IDiag  1:
 RMSU=  1.34D-07    CP:  9.97D-01  1.01D+00  9.04D-01  9.03D-01
 E= -1696.52292121166     Delta-E=       -0.000000001284 Rises=F Damp=F
 DIIS: error= 6.76D-07 at cycle   5 NSaved=   5.
 NSaved= 5 IEnMin= 5 EnMin= -1696.52292121166     IErMin= 5 ErrMin= 6.76D-07
 ErrMax= 6.76D-07  0.00D+00 EMaxC= 1.00D-01 BMatC= 5.93D-10 BMatP= 1.62D-09
 IDIUse=1 WtCom= 1.00D+00 WtEn= 0.00D+00
 Coeff-Com: -0.370D-03 0.380D-01 0.495D-01 0.397D+00 0.516D+00
 Coeff:     -0.370D-03 0.380D-01 0.495D-01 0.397D+00 0.516D+00
 Gap=     0.152 Goal=   None    Shift=    0.000
 RMSDP=7.41D-08 MaxDP=6.55D-06 DE=-1.28D-09 OVMax= 9.98D-06

 Cycle  17  Pass 1  IDiag  1:
 RMSU=  5.33D-08    CP:  9.97D-01  1.01D+00  9.09D-01  9.22D-01  6.49D-01
 E= -1696.52292121211     Delta-E=       -0.000000000456 Rises=F Damp=F
 DIIS: error= 3.63D-07 at cycle   6 NSaved=   6.
 NSaved= 6 IEnMin= 6 EnMin= -1696.52292121211     IErMin= 6 ErrMin= 3.63D-07
 ErrMax= 3.63D-07  0.00D+00 EMaxC= 1.00D-01 BMatC= 9.46D-11 BMatP= 5.93D-10
 IDIUse=1 WtCom= 1.00D+00 WtEn= 0.00D+00
 Coeff-Com: -0.122D-04 0.161D-04 0.146D-01 0.208D+00 0.353D+00 0.424D+00
 Coeff:     -0.122D-04 0.161D-04 0.146D-01 0.208D+00 0.353D+00 0.424D+00
 Gap=     0.152 Goal=   None    Shift=    0.000
 RMSDP=2.76D-08 MaxDP=1.66D-06 DE=-4.56D-10 OVMax= 3.67D-06

 Cycle  18  Pass 1  IDiag  1:
 RMSU=  1.17D-08    CP:  9.97D-01  1.01D+00  9.10D-01  9.29D-01  6.77D-01
                    CP:  5.46D-01
 E= -1696.52292121225     Delta-E=       -0.000000000142 Rises=F Damp=F
 DIIS: error= 4.43D-08 at cycle   7 NSaved=   7.
 NSaved= 7 IEnMin= 7 EnMin= -1696.52292121225     IErMin= 7 ErrMin= 4.43D-08
 ErrMax= 4.43D-08  0.00D+00 EMaxC= 1.00D-01 BMatC= 3.44D-12 BMatP= 9.46D-11
 IDIUse=1 WtCom= 1.00D+00 WtEn= 0.00D+00
 Coeff-Com:  0.194D-04-0.272D-02 0.488D-02 0.909D-01 0.165D+00 0.238D+00
 Coeff-Com:  0.503D+00
 Coeff:      0.194D-04-0.272D-02 0.488D-02 0.909D-01 0.165D+00 0.238D+00
 Coeff:      0.503D+00
 Gap=     0.152 Goal=   None    Shift=    0.000
 RMSDP=4.72D-09 MaxDP=2.24D-07 DE=-1.42D-10 OVMax= 5.41D-07

 SCF Done:  E(RB3LYP) =  -1696.52292121     A.U. after   18 cycles
            NFock= 18  Conv=0.47D-08     -V/T= 2.0097
 KE= 1.680283106945D+03 PE=-1.269822567872D+04 EE= 4.937691161598D+03
 Leave Link  502 at Mon Mar 24 02:37:42 2025, MaxMem= 13421772800 cpu:            1733.1 elap:              55.1
 (Enter /public/software/apps/Gaussian/g16/l601.exe)
 Copying SCF densities to generalized density rwf, IOpCl= 0 IROHF=0.

 **********************************************************************

            Population analysis using the SCF Density.

 **********************************************************************

 Alpha  occ. eigenvalues --  -19.16116 -19.16106 -10.25276 -10.25255 -10.20174
 Alpha  occ. eigenvalues --  -10.20152 -10.19991 -10.19980 -10.19416 -10.19409
 Alpha  occ. eigenvalues --  -10.19404 -10.19378 -10.19352 -10.19332 -10.19158
 Alpha  occ. eigenvalues --  -10.19124 -10.18606 -10.18600 -10.18572 -10.18525
[...]
 383,-0.00075737,0.00036919,-0.00059036,-0.00211311,0.00205086,-0.00224
 760,0.01000384,0.01063635,-0.01481861,0.00107951,0.00004794,-0.0004400
 1,-0.00009160,-0.00014440,-0.00009913,0.00008554,0.00000650,-0.0001832
 4,0.00005697,0.00003057,0.00009504,0.00001820,0.00006202,0.00015188,-0
 .00002412,0.00001907,0.00000510,0.00000337,0.00001325,0.00000038,0.000
 02092,-0.00001462,0.00000804,-0.00000155,-0.00000083,-0.00000106,-0.00
 000546,0.00001047,-0.00000269,-0.00001033,-0.00000082,0.00000049,0.000
 00512,0.00000347,0.00000173,0.00000256,0.00000061,0.00000339,-0.000002
 36,0.00000085,-0.00000059,-0.00000261,-0.00000324,-0.00000018,0.000000
 76,0.00000350,-0.00000078,-0.00000165,-0.00000039,-0.00000096,-0.00000
 044,0.00000066,-0.00000027,0.00000166,-0.00000099,-0.00000236,0.000005
 66,-0.00000388,-0.00000108,0.00001424,-0.00000203,0.00000131,0.0000028
 1,0.00000557,0.00000073,0.00000738,-0.00000077,0.00000022,-0.00000008,
 -0.00001254,0.00000196,-0.00001498,0.00001699,-0.00000010,0.00001687,-
 0.00003242,-0.00000331,-0.00010343,-0.00025411,-0.00003183,-0.00001673
 ,0.00006132,0.00005370,-0.00005506,-0.00005856,-0.00000725,-0.00000426
 ,-0.00001678,-0.00003439,-0.00005013,0.00085977,0.00040084,-0.00006950
 ,0.00012618,-0.00014754,-0.09737003,-0.05557450,0.07977374,-0.00675604
 ,-0.01724640,0.02472994,-0.00000178,0.00001133,-0.00000328,-0.00000157
 ,0.00000373,-0.00000130,-0.00000148,0.00001154,0.00001010,-0.00000026,
 -0.00000753,-0.00000489,-0.00000054,0.00000220,-0.00000929,-0.00001864
 ,0.00005269,0.00001773,0.00002793,0.00004676,-0.00000591,0.00001458,0.
 00001944,-0.00006500,-0.00043019,-0.00003208,0.00010934,0.00002086,-0.
 00009136,0.00003392,0.00046381,0.00055363,-0.00082874,0.00000873,0.000
 01907,0.00001589,-0.00001774,-0.00000951,-0.00000386,-0.00001960,0.000
 03347,-0.00001092,0.00000367,-0.00000184,0.00000001,-0.00000207,0.0000
 0130,0.00000159,0.00000190,-0.00000106,-0.00000117,0.00000230,-0.00000
 016,-0.00000062,0.00000131,0.00000065,0.00000087,-0.00000095,0.0000002
 7,0.00000045,0.00000271,-0.00000133,0.00000108,0.00000069,-0.00000114,
 0.00000085,0.00000133,0.00000141,-0.00000061,-0.00000042,-0.00000115,-
 0.00000063,0.00000140,0.00000006,0.,-0.00000045,-0.00000023,0.00000073
 ,0.00000184,0.00000125,0.00000126,-0.00000177,-0.00000073,-0.00000240,
 0.00000244,0.00000234,-0.00000013,0.00000391,0.00000320,-0.00000011,-0
 .00000210,0.00000198,-0.00000098,0.00000195,-0.00001216,-0.00000133,0.
 00000694,0.00000870,-0.00001607,0.00000461,-0.00001485,-0.00000539,0.0
 0000887,0.00000469,-0.00004359,-0.00034481,0.00035196,0.00016506,0.100
 35758,-0.00000031,-0.00000360,-0.00000035,0.00000794,0.00000211,-0.000
 01784,0.00004714,-0.00005784,-0.00001997,0.00020141,0.00003533,0.00008
 817,0.00019203,0.00544306,0.00279906,0.00035274,-0.00027410,-0.0005541
 6,0.00266431,0.00343597,0.00382054,-0.00735252,-0.00368710,0.01086701,
 -0.00035130,-0.00217107,-0.00198457,-0.00035718,0.00005333,-0.00008741
 ,0.00004081,0.00010338,0.00003195,-0.00012713,-0.00009345,-0.00017265,
 0.00006376,-0.00003829,-0.00006852,0.00000924,-0.00003201,-0.00002091,
 0.00002330,0.00002873,0.00000691,-0.00002970,-0.00002673,-0.00003333,0
 .00000081,-0.00001013,-0.00000160,0.00000441,-0.00000360,0.00000184,0.
 00000766,-0.00000108,-0.00000112,-0.00000305,-0.00000137,0.00000054,-0
 .00000187,-0.00000068,-0.00000329,0.00000213,-0.00000090,0.00000016,0.
 00000222,0.00000266,0.00000028,-0.00000051,-0.00000273,0.00000104,0.00
 000137,0.00000046,0.00000108,0.00000036,-0.00000050,0.00000027,-0.0000
 0186,0.00000050,0.00000159,-0.00000476,0.00000353,0.00000168,-0.000010
 93,-0.00000024,0.00000123,0.00000366,-0.00000165,-0.00000076,-0.000006
 53,-0.00000482,-0.00000074,0.00000321,0.00001352,-0.00000201,-0.000000
 62,-0.00002083,0.00000071,0.00000367,0.00004516,-0.00000428,0.00006872
 ,0.00014740,-0.00015533,-0.00008164,0.00000871,0.00009468,-0.00006215,
 -0.00008432,-0.00004364,-0.00002356,-0.00006443,-0.00027819,0.00023307
 ,0.00029823,0.00000236,0.00073619,0.00006535,0.00040150,-0.05467506,-0
 .12358024,0.12205693,0.00114951,0.00324824,0.00075700,0.00000197,-0.00
 000318,-0.00000129,-0.00000695,0.00000222,0.00000280,0.00000145,0.0000
 0328,0.00000653,-0.00000715,-0.00000238,-0.00001215,-0.00000372,-0.000
 00047,0.00000425,-0.00002034,0.00000689,0.00000023,0.00002870,0.000001
 29,-0.00002033,-0.00004966,0.00001259,-0.00003276,0.00001828,-0.000068
 49,-0.00005716,-0.00008195,-0.00068514,-0.00045623,-0.00035837,-0.0001
 1524,0.00062732,-0.00003255,-0.00006829,-0.00003644,0.00002452,-0.0000
 0112,0.00000257,0.00001785,-0.00001091,0.00004569,-0.00000065,0.000001
 57,0.00000189,0.00000155,-0.00000143,-0.00000147,-0.00000085,0.0000007
 3,0.00000095,-0.00000173,0.00000028,0.00000032,-0.00000121,-0.00000080
 ,-0.00000089,0.00000069,-0.00000048,-0.00000075,-0.00000221,0.00000115
 ,-0.00000088,-0.00000053,0.00000085,-0.00000074,-0.00000113,-0.0000011
 5,0.00000057,0.00000033,0.00000077,0.00000070,-0.00000118,-0.00000010,
 -0.00000002,0.00000035,0.00000039,-0.00000097,-0.00000190,-0.00000117,
 -0.00000119,0.00000157,0.00000037,0.00000135,-0.00000153,-0.00000172,0
 .00000075,-0.00000240,-0.00000240,0.00000070,-0.00000048,-0.00000618,0
 .00000130,-0.00000277,0.00001619,0.00000023,0.00000106,-0.00001330,-0.
 00000349,-0.00004224,-0.00000484,0.00001777,0.00001046,0.00001806,0.00
 000021,0.00016691,-0.00109181,-0.00009279,0.05796978,0.12180620,-0.000
 00816,0.00001745,-0.00001140,0.00001586,-0.00001182,0.00000764,0.00007
 375,0.00004476,-0.00001209,-0.00010136,0.00013138,-0.00003479,0.000607
 35,0.00260843,0.00377830,-0.00058524,-0.00057889,0.00023134,-0.0031569
 8,0.00406689,0.00090588,0.00842597,0.00935005,-0.01083717,0.00182432,-
 0.00185634,-0.00098836,-0.00076672,-0.00026191,-0.00012539,0.00021009,
 0.00005445,-0.00030687,-0.00002859,-0.00000064,0.00007773,-0.00001262,
 0.00005878,0.00018144,0.00000481,-0.00001465,0.00001427,0.00000887,0.0
 0003371,-0.00000049,-0.00000291,-0.00003447,0.00001020,-0.00000251,-0.
 00000528,-0.00000087,-0.00000557,0.00000975,-0.00000138,-0.00000642,-0
 .00000200,0.00000050,0.00000310,0.00000209,0.00000165,0.00000197,0.000
 00028,0.00000232,-0.00000186,0.00000032,-0.00000055,-0.00000179,-0.000
 00208,-0.00000017,0.00000046,0.00000276,-0.00000072,-0.00000093,-0.000
 00023,-0.00000068,-0.00000036,0.00000068,-0.00000026,0.00000083,-0.000
 00133,-0.00000139,0.00000323,-0.00000268,0.00000010,0.00000897,-0.0000
 0743,0.00000003,0.00000557,0.00000576,0.00000066,0.00000299,-0.0000075
 4,0.00000042,0.00000047,-0.00000033,0.00000044,-0.00002206,-0.00000061
 ,-0.00000024,0.00001200,0.00000254,-0.00000098,-0.00036869,0.00013271,
 -0.00008078,0.00001167,-0.00002144,-0.00002916,0.00005025,0.00003824,-
 0.00004356,0.00005723,-0.00003125,0.00005129,0.00005577,-0.00067742,0.
 00012394,0.00023669,-0.00011562,0.00023416,0.07902715,0.12264311,-0.21
 220421,-0.00049389,0.00232641,0.00071694,0.00000608,-0.00001344,0.0000
 0582,0.00000089,-0.00000584,0.00000295,0.00000116,-0.00000697,-0.00001
 021,-0.00000154,0.00001834,-0.00000143,-0.00000876,-0.00000623,0.00000
 478,0.00001502,-0.00002785,-0.00002741,-0.00000306,0.00000506,-0.00000
 321,0.00000119,-0.00001108,-0.00002374,0.00009717,-0.00005952,-0.00006
 270,0.00003805,-0.00044347,-0.00037554,0.00046708,0.00056694,-0.000541
 87,0.00001676,0.00003743,0.00001238,-0.00001601,-0.00000067,-0.0000150
 4,-0.00000392,0.00002195,-0.00000864,0.00000257,-0.00000131,-0.0000004
 3,-0.00000137,0.00000111,0.00000079,0.00000137,-0.00000052,-0.00000099
 ,0.00000154,-0.00000008,-0.00000019,0.00000088,0.00000038,0.00000038,-
 0.00000067,0.00000007,0.00000024,0.00000181,-0.00000100,0.00000085,0.0
 0000072,-0.00000110,0.00000069,0.00000072,0.00000120,-0.00000053,-0.00
 000016,-0.00000105,-0.00000047,0.00000083,0.00000005,-0.00000003,-0.00
 000030,-0.00000016,0.00000073,0.00000105,0.00000115,0.00000064,-0.0000
 0107,0.,-0.00000232,0.00000168,0.00000097,-0.00000040,0.00000219,0.000
 00184,-0.00000016,-0.00000412,-0.00000513,0.00000005,-0.00000388,0.000
 00292,-0.00000096,0.00000895,-0.00002764,0.00000122,0.00000421,0.00001
 107,-0.00000640,0.00000244,-0.00001316,-0.00001221,0.00059921,-0.00037
 835,-0.00006555,-0.08641040,-0.13506887,0.22034822,-0.00001109,0.00002
 424,-0.00004076,0.00003094,-0.00004147,0.00002053,0.00007063,0.0000148
 7,0.00018198,0.00059529,-0.00019164,0.00062425,0.00995947,-0.00591724,
 0.00793418,-0.00028773,-0.00120452,0.00233084,-0.00031727,-0.00054291,
 0.00069449,-0.00484637,-0.00082471,0.00236076,-0.00002038,0.00067037,-
 0.00117045,-0.00034962,0.00000742,0.00014341,0.00010511,-0.00008602,0.
 00001113,-0.00009990,-0.00003258,-0.00003488,-0.00005286,0.00001384,-0
 .00001495,0.00002956,-0.00001082,0.00000997,-0.00000355,0.00000082,-0.
 00000445,-0.00003202,-0.00000043,0.00000448,-0.00000140,-0.00000055,0.
 00000166,0.00000360,-0.00000697,0.00000222,0.00000945,-0.00000016,-0.0
 0000006,-0.00000499,-0.00000364,-0.00000161,-0.00000213,-0.00000054,-0
 .00000279,0.00000186,-0.00000083,0.00000045,0.00000223,0.00000289,0.00
 000007,-0.00000072,-0.00000284,0.00000047,0.00000159,0.00000031,0.0000
 0075,0.00000034,-0.00000046,0.00000019,-0.00000160,0.00000047,0.000002
 30,-0.00000520,0.00000314,0.00000127,-0.00001348,-0.00000284,-0.000002
 02,0.00000002,-0.00000288,-0.00000034,-0.00000764,-0.00000323,0.000000
 45,0.00000282,0.00001229,0.00000074,0.00000405,-0.00002067,0.00000391,
 -0.00001279,0.00004584,0.00000496,-0.00000418,0.00000290,0.00003752,0.
 00000416,-0.00000591,-0.00000620,0.00000757,0.00001268,0.00002108,-0.0
 0000640,-0.00000808,0.00003543,-0.00004692,0.00000250,-0.00000926,-0.0
 0005702,-0.00009985,-0.00002959,-0.01425118,0.01645608,-0.02129706,-0.
 15650767,0.07957353,-0.10355580,0.00000307,-0.00001237,0.00000161,-0.0
 0000102,-0.00000421,0.00000522,0.00000092,-0.00001380,-0.00000796,-0.0
 0000843,0.00000064,-0.00001926,0.00000905,-0.00000371,0.00000472,0.000
 01728,-0.00005394,-0.00005071,-0.00006240,-0.00003411,0.00014113,0.000
 13728,-0.00012458,-0.00021584,0.00005356,0.00006432,-0.00014422,0.0004
 7619,-0.00030522,0.00050319,-0.00003087,0.00000311,-0.00010712,0.00001
 255,0.00004282,-0.00001820,0.00001231,0.00000903,-0.00000880,0.0000268
 7,-0.00003415,-0.00000523,-0.00000397,0.00000136,-0.00000066,0.0000018
 5,-0.00000078,-0.00000155,-0.00000178,0.00000111,0.00000088,-0.0000020
 6,0.00000012,0.00000072,-0.00000111,-0.00000054,-0.00000083,0.00000084
 ,-0.00000023,-0.00000034,-0.00000238,0.00000107,-0.00000086,-0.0000004
 7,0.00000083,-0.00000066,-0.00000127,-0.00000108,0.00000044,0.00000044
 ,0.00000091,0.00000045,-0.00000131,-0.00000005,0.,0.00000042,0.0000001
 4,-0.00000040,-0.00000159,-0.00000088,-0.00000118,0.00000159,0.0000010
 7,0.00000166,-0.00000220,-0.00000251,-0.00000032,-0.00000306,-0.000002
 97,-0.00000057,0.00000054,-0.00000531,-0.00000058,-0.00000291,0.000015
 98,-0.00000504,-0.00000833,0.00000071,0.00001049,-0.00000510,0.0000059
 2,0.00000671,-0.00000561,0.00001524,0.00002219,0.00000655,-0.00000455,
 -0.00006803,0.00126537,-0.00035299,0.00009899,0.16423459,-0.00003727,0
 .00000784,-0.00005297,0.00009551,-0.00000268,0.00002493,0.00004213,0.0
 0021839,-0.00001190,0.00162400,-0.00190370,-0.00159259,0.01032167,-0.0
 0373669,0.01008099,-0.00165186,0.00297947,0.00493609,-0.00071239,-0.00
 035002,-0.00041498,-0.00061221,0.00542660,0.00266090,0.00006236,0.0002
 7568,0.00007059,0.00008198,-0.00005742,-0.00002179,0.00000102,0.000028
 48,-0.00001104,0.00001019,-0.00000334,-0.00000578,-0.00000636,-0.00000
 913,-0.00001947,-0.00000033,-0.00000608,-0.00000402,0.00000114,0.00000
 638,0.00000226,0.00000418,-0.00000652,-0.00000281,0.00000062,-0.000001
 36,-0.00000029,-0.00000304,0.00000295,-0.00000085,-0.00000273,-0.00000
 062,0.00000005,0.00000152,0.00000120,0.00000083,0.00000077,0.00000023,
 0.00000098,-0.00000094,0.00000018,-0.00000024,-0.00000081,-0.00000099,
 0.,0.00000019,0.00000121,-0.00000012,-0.00000058,-0.00000002,-0.000000
 21,-0.00000019,0.00000025,-0.00000006,0.00000049,-0.00000053,-0.000000
 83,0.00000120,-0.00000083,0.00000013,0.00000359,-0.00000115,0.00000024
 ,0.00000119,0.00000176,0.00000015,0.00000152,-0.00000247,-0.00000016,-
 0.00000152,-0.00000002,-0.00000049,-0.00000369,0.00000132,-0.00000100,
 0.00000263,-0.00000409,-0.00000084,0.00001509,-0.00001167,0.00002377,-
 0.00000618,-0.00000917,-0.00003212,0.00003318,0.00001930,0.00000276,-0
 .00004231,0.00000467,0.00003633,0.00008003,-0.00005766,-0.00007025,-0.
 00002370,-0.00004405,0.00011331,-0.00175888,0.00393130,-0.00041811,0.0
 7989312,-0.10873461,0.09396868,0.00000479,-0.00000694,0.00000803,-0.00
 001386,0.00000786,0.00000912,0.00000493,-0.00001714,-0.00001123,-0.000
 04095,-0.00002872,-0.00002284,0.00000376,-0.00000543,-0.00003531,-0.00
 002786,-0.00011218,0.00007264,0.00018937,-0.00005673,-0.00007663,-0.00
 090862,-0.00003277,-0.00055063,-0.00022794,-0.00002620,-0.00024517,0.0
 0057360,-0.00021049,0.00051492,0.00002912,-0.00067098,-0.00044817,0.00
 002240,-0.00002442,-0.00001468,-0.00000271,0.00000088,0.00000178,-0.00
 000541,0.00000804,0.00000308,0.00000092,-0.00000050,0.00000034,-0.0000
 0069,0.00000034,0.00000041,0.00000074,-0.00000034,-0.00000044,0.000000
 76,0.00000002,-0.00000026,0.00000036,0.00000010,0.00000020,-0.00000037
 ,-0.00000002,-0.00000001,0.00000096,-0.00000038,0.00000036,0.00000024,
 -0.00000049,0.00000028,0.00000047,0.00000047,-0.00000016,-0.00000013,-
 0.00000052,-0.00000010,0.00000052,0.00000003,-0.00000004,-0.00000021,0
 .00000003,0.00000008,0.00000030,0.00000039,0.00000032,-0.00000041,-0.0
 0000030,-0.00000089,0.00000070,0.00000057,0.00000004,0.00000045,0.0000
 0075,0.00000022,-0.00000097,-0.00000119,0.00000041,0.00000062,0.000000
 05,0.00000093,-0.00000025,0.00000052,-0.00000251,0.00000075,0.00000009
 ,-0.00000180,0.00000660,-0.00001236,-0.00000981,0.00001530,0.00002724,
 0.00002430,-0.00000283,-0.00256620,-0.00249361,-0.08703879,0.10576457,
 0.00005712,0.00001045,0.00001059,-0.00012472,-0.00013002,-0.00001075,0
 .00047633,0.00052939,-0.00036354,-0.00124065,-0.00210228,-0.00035743,-
 0.01623641,0.01120420,-0.01087137,0.00329385,0.00470315,-0.00052349,0.
 00072236,-0.00034818,-0.00024544,0.00126423,0.00270894,0.00319561,0.00
 034475,-0.00000453,0.00020633,0.00003757,0.00001265,0.00000418,0.00005
 270,0.00008268,0.00002369,-0.00003766,-0.00002830,-0.00003865,-0.00001
 501,-0.00000693,-0.00002286,0.00001359,-0.00001522,0.00000078,0.000005
 42,0.00001051,-0.00000018,-0.00001842,-0.00000920,-0.00000172,-0.00000
 152,-0.00000293,0.00000005,0.00000328,-0.00000324,0.00000141,0.0000052
 5,-0.00000009,-0.00000029,-0.00000246,-0.00000165,-0.00000045,-0.00000
 140,-0.00000043,-0.00000193,0.00000154,-0.00000057,0.00000024,0.000001
 49,0.00000190,0.00000020,-0.00000032,-0.00000184,0.00000048,0.00000109
 ,0.00000029,0.00000065,0.00000028,-0.00000030,0.00000012,-0.00000099,0
 .00000046,0.00000139,-0.00000303,0.00000203,0.00000079,-0.00000752,-0.
 00000087,-0.00000093,0.00000027,-0.00000161,-0.00000055,-0.00000349,-0
 .00000096,-0.00000055,0.00000126,0.00000635,-0.00000104,0.00000313,-0.
 00001023,0.00000025,-0.00000555,0.00002190,0.00000128,0.00001133,0.000
 00674,0.00003294,-0.00000638,-0.00000683,-0.00002174,0.00002631,0.0000
 1158,0.00000817,-0.00004133,-0.00000250,0.00001462,0.00004213,-0.00001
 708,-0.00003470,-0.00007458,-0.00001108,0.00003988,0.00434871,-0.00193
 275,0.00603652,-0.10385354,0.09418373,-0.16214680,-0.00000419,-0.00003
 543,-0.00001117,-0.00000663,-0.00001311,-0.00000635,-0.00000590,0.0000
 1181,0.00003024,0.00002544,0.00008308,0.00001675,0.00000370,-0.0000029
 4,0.00012302,-0.00002028,-0.00031204,0.00011193,0.00026499,-0.00056289
 ,-0.00013021,0.00049998,0.00030924,-0.00006469,-0.00011229,-0.00005878
 ,0.00031472,-0.00076586,0.00062348,-0.00062775,-0.00009218,-0.00046263
 ,-0.00032278,0.00002624,-0.00001567,0.00000522,0.00001206,0.00000257,0
 .00000246,0.00001367,-0.00000971,0.00000238,-0.00000103,0.00000103,0.0
 0000002,0.00000097,-0.00000070,-0.00000099,-0.00000078,0.00000060,0.00
 000061,-0.00000124,0.00000012,0.00000038,-0.00000075,-0.00000049,-0.00
 000062,0.00000052,-0.00000027,-0.00000041,-0.00000164,0.00000072,-0.00
 000056,-0.00000026,0.00000053,-0.00000047,-0.00000093,-0.00000071,0.00
 000028,0.00000029,0.00000055,0.00000039,-0.00000097,-0.00000007,0.0000
 0002,0.00000032,0.00000019,-0.00000041,-0.00000110,-0.00000067,-0.0000
 0081,0.00000103,0.00000053,0.00000108,-0.00000121,-0.00000115,0.000000
 21,-0.00000175,-0.00000168,0.00000037,0.00000067,-0.00000199,0.0000011
 2,-0.00000138,0.00000733,0.00000008,-0.00000417,0.00000011,0.00000315,
 -0.00000425,0.00000098,0.00000341,0.00000319,-0.00000354,-0.00000069,0
 .00000026,-0.00001896,-0.00000660,-0.00046426,-0.00241353,-0.00087704,
 0.11160068,-0.10598326,0.16649794\\-0.00000233,0.00000246,-0.00000068,
 0.00000278,-0.00000346,-0.00000069,-0.00000101,0.00000444,0.00000284,0
 .00000474,-0.00000334,-0.00000151,-0.00000348,0.00000309,-0.00000425,0
 .00000745,0.00000277,0.00000129,-0.00000906,0.00000156,0.00000254,0.00
 000871,0.00000519,-0.00000558,-0.00000796,-0.00000433,-0.00000359,0.00
 000488,-0.00000130,0.00000076,-0.00000296,-0.00000101,-0.00000222,-0.0
 0000497,-0.00000217,0.00000341,0.00000418,-0.00000283,-0.00000192,-0.0
 0000063,-0.00000272,0.00000112,-0.00000178,0.00000534,0.00000219,0.000
 00547,-0.00000089,0.00000020,0.00000044,0.00000135,-0.00000263,0.,-0.0
 0000421,0.00000126,0.00000107,0.00000451,0.00000229,0.00000544,-0.0000
 0039,0.00000158,-0.00000657,0.00000074,0.00000003,-0.00000086,0.000002
 08,-0.00000098,-0.00000707,-0.00000251,0.00000421,0.00000624,0.0000007
 0,-0.00000176,-0.00000210,-0.00000196,0.00000014,0.00000343,0.00000233
 ,0.00000181,0.00000211,0.00000094,-0.00000379,-0.00000179,-0.00000350,
 -0.00000188,0.00000093,0.00000121,-0.00000021,-0.00000413,0.00000217,-
 0.00000215,-0.00000032,-0.00000347,0.00000024,0.00000058,-0.00000362,-
 0.00000044,0.00000357,0.00000084,-0.00000059,-0.00000004,0.00000258,-0
 .00000161,-0.00000151,0.00000097,-0.00000065,-0.00000390,-0.00000262,-
 0.00000067,0.00000119,-0.00000077,0.00000367,-0.00000076,0.00000050,0.
 00000341,0.00000472,0.00000144,0.00000195,0.00000030,0.00000276,0.0000
 0218,0.00000104,-0.00000671,0.00000122,0.00000094,-0.00000580,0.000002
 78,0.00000096,0.00000132,-0.00000270,-0.00000222,-0.00000056,-0.000000
 42,0.00000136,0.00000087,0.00000182,0.00000003,0.00000084,0.00000027,-
 0.00000052,0.00000015,0.00000047,-0.00000030,-0.00000090,-0.00000034,0
 .00000062,0.00000015,-0.00000157,-0.00000030,0.00000212,0.00000035,-0.
 00000094,-0.00000273,-0.00000032,-0.00000010,-0.00000066,0.00000154,0.
 00000038,-0.00000166,0.00000072,-0.00000039,0.00000210,-0.00000006,0.0
 0000514,0.00000172,-0.00000196,-0.00000555,0.00000106,0.00000024,0.000
 00075,-0.00000048,0.00000151,-0.00000129,-0.00000098,-0.00000044,0.000
 00117,-0.00000146,0.00000038,-0.00000050,0.00000198,-0.00000096,0.0000
 0179,0.00000151,-0.00000176,0.00000137,0.00000078,-0.00000070,0.000000
 99,0.00000060,-0.00000057,-0.00000272,0.00000111,0.00000246,-0.0000020
 6,-0.00000101,0.00000091,-0.00000178,0.00000084,-0.00000022,0.00000192
 ,0.00000138,-0.00000012,-0.00000012,0.00000085,0.00000300,0.00000033,-
 0.00000005,0.00000084,0.00000042,-0.00000028,0.00000087,-0.00000097,0.
 00000068,-0.00000111,-0.00000019,0.00000104,-0.00000187,-0.00000051,0.
 00000102,-0.00000116,-0.00000117,-0.00000063,-0.00000016,0.00000141,0.
 00000014,0.00000107,0.00000049,-0.00000083,-0.00000094,-0.00000063,-0.
 00000225,0.00000020,-0.00000329,-0.00000027,0.00000123,-0.00000034,-0.
 00000012,-0.00000209,-0.00000023,0.00000023,-0.00000173\\\@
 The archive entry for this job was punched.


 The chemist is a guest at the physicist's table and
 frequently dines well.
                   -- Richard Bersohn
 Job cpu time:       0 days  9 hours 12 minutes 27.4 seconds.
 Elapsed time:       0 days  0 hours 17 minutes 23.0 seconds.
 File lengths (MBytes):  RWF=   3767 Int=      0 D2E=      0 Chk=     40 Scr=      1
 Normal termination of Gaussian 16 at Mon Mar 24 03:05:54 2025.
