 Entering Gaussian System, Link 0=g16
 Initial command:
 /public/software/apps/Gaussian/g16/l1.exe "/tmp/Gau-93210.inp" -scrdir="/tmp/"
 Entering Link 1 = /public/software/apps/Gaussian/g16/l1.exe PID=     93224.
  
 Copyright (c) 1988-2019, Gaussian, Inc.  All Rights Reserved.
  
 This is part of the Gaussian(R) 16 program.  It is based on
 the Gaussian(R) 09 system (copyright 2009, Gaussian, Inc.),
 the Gaussian(R) 03 system (copyright 2003, Gaussian, Inc.),
 the Gaussian(R) 98 system (copyright 1998, Gaussian, Inc.),
 the Gaussian(R) 94 system (copyright 1995, Gaussian, Inc.),
 the Gaussian 92(TM) system (copyright 1992, Gaussian, Inc.),
 the Gaussian 90(TM) system (copyright 1990, Gaussian, Inc.),
 the Gaussian 88(TM) system (copyright 1988, Gaussian, Inc.),
 the Gaussian 86(TM) system (copyright 1986, Carnegie Mellon
 University), and the Gaussian 82(TM) system (copyright 1983,
 Carnegie Mellon University). Gaussian is a federally registered
 trademark of Gaussian, Inc.
  
 This software contains proprietary and confidential information,
 including trade secrets, belonging to Gaussian, Inc.
  
 This software is provided under written license and may be
 used, copied, transmitted, or stored only in accord with that
 written license.
  
 The following legend is applicable only to US Government
 contracts under FAR:
  
                    RESTRICTED RIGHTS LEGEND
  
 Use, reproduction and disclosure by the US Government is
 subject to restrictions as set forth in subparagraphs (a)
 and (c) of the Commercial Computer Software - Restricted
 Rights clause in FAR 52.227-19.
  
 Gaussian, Inc.
 340 Quinnipiac St., Bldg. 40, Wallingford CT 06492
  
  
 ---------------------------------------------------------------
 Warning -- This program may not be used in any manner that
 competes with the business of Gaussian, Inc. or will provide
 assistance to any competitor of Gaussian, Inc.  The licensee
 of this program is prohibited from giving any competitor of
 Gaussian, Inc. access to this program.  By using this program,
 the user acknowledges that Gaussian, Inc. is engaged in the
 business of creating and licensing software in the field of
 computational chemistry and represents and warrants to the
 licensee that it is not a competitor of Gaussian, Inc. and that
 it will not use this program in any manner prohibited above.
 ---------------------------------------------------------------
  

 Cite this work as:
 Gaussian 16, Revision C.01,
 M. J. Frisch, G. W. Trucks, H. B. Schlegel, G. E. Scuseria, 
 M. A. Robb, J. R. Cheeseman, G. Scalmani, V. Barone, 
 G. A. Petersson, H. Nakatsuji, X. Li, M. Caricato, A. V. Marenich, 
 J. Bloino, B. G. Janesko, R. Gomperts, B. Mennucci, H. P. Hratchian, 
 J. V. Ortiz, A. F. Izmaylov, J. L. Sonnenberg, D. Williams-Young, 
 F. Ding, F. Lipparini, F. Egidi, J. Goings, B. Peng, A. Petrone, 
 T. Henderson, D. Ranasinghe, V. G. Zakrzewski, J. Gao, N. Rega, 
 G. Zheng, W. Liang, M. Hada, M. Ehara, K. Toyota, R. Fukuda, 
 J. Hasegawa, M. Ishida, T. Nakajima, Y. Honda, O. Kitao, H. Nakai, 
 T. Vreven, K. Throssell, J. A. Montgomery, Jr., J. E. Peralta, 
 F. Ogliaro, M. J. Bearpark, J. J. Heyd, E. N. Brothers, K. N. Kudin, 
 V. N. Staroverov, T. A. Keith, R. Kobayashi, J. Normand, 
 K. Raghavachari, A. P. Rendell, J. C. Burant, S. S. Iyengar, 
 J. Tomasi, M. Cossi, J. M. Millam, M. Klene, C. Adamo, R. Cammi, 
 J. W. Ochterski, R. L. Martin, K. Morokuma, O. Farkas, 
 J. B. Foresman, and D. J. Fox, Gaussian, Inc., Wallingford CT, 2019.
 
 ******************************************
 Gaussian 16:  ES64L-G16RevC.01  3-Jul-2019
                24-Mar-2025 
 ******************************************
 %nprocshared=32
 Will use up to   32 processors via shared memory.
 %mem=100GB
 ------------------------------------------
 #p opt freq b3lyp/def2svpp em=gd3bj nosymm
 ------------------------------------------
 1/18=20,19=15,26=3,38=1/1,3;
 2/9=110,12=2,15=1,17=6,18=5,40=1/2;
 3/5=43,7=202,11=2,25=1,30=1,71=1,74=-5,124=41/1,2,3;
 4//1;
 5/5=2,38=5/2;
 6/7=2,8=2,9=2,10=2,28=1/1;
 7/30=1/1,2,3,16;
 1/18=20,19=15,26=3/3(2);
 2/9=110,15=1/2;
 99//99;
 2/9=110,15=1/2;
 3/5=43,7=202,11=2,25=1,30=1,71=1,74=-5,124=41/1,2,3;
 4/5=5,16=3,69=1/1;
 5/5=2,38=5/2;
 7/30=1/1,2,3,16;
 1/18=20,19=15,26=3/3(-5);
 2/9=110,15=1/2;
 6/7=2,8=2,9=2,10=2,19=2,28=1/1;
 99/9=1/99;
 Leave Link    1 at Mon Mar 24 05:03:38 2025, MaxMem= 13421772800 cpu:               1.7 elap:               0.1
 (Enter /public/software/apps/Gaussian/g16/l101.exe)
 ----------------------
 $$$$Singlemol####0????
 ----------------------
 Symbolic Z-matrix:
 Charge =  0 Multiplicity = 1
 C                    -9.93687   0.96148  -0.13903 
 C                    -9.34588  -0.21275   0.65415 
 C                    -9.99986  -1.50367   0.15424 
 C                    -9.67948  -0.05434   2.14436 
 C                    -7.83542  -0.21529   0.4814 
 C                    -7.13695  -1.2802   -0.07439 
 C                    -5.76115  -1.24233  -0.21384 
 C                    -5.03212  -0.13041   0.18772 
 C                    -3.56561  -0.10839   0.05696 
 C                    -2.83561  -1.12399   0.6199 
 C                    -1.4317   -1.12782   0.57878 
 O                    -0.79834  -2.16355   1.18851 
 C                    -0.7471   -0.09519  -0.03404 
 C                     0.73809  -0.07595   0.00376 
 C                     1.38401   0.82239   0.83221 
 O                     0.71164   1.71477   1.60507 
 C                     2.7863    0.83957   0.90706 
 C                     3.55258  -0.0265    0.16971 
 C                     5.0195    0.06846   0.26192 
 C                     5.65549  -0.0112    1.49629 
 C                     7.0281    0.09766   1.5897 
 C                     7.82205   0.30249   0.46337 
 C                     9.33003   0.41584   0.62014 
 C                     10.04769   0.64103  -0.71344 
 C                     9.86689  -0.88283   1.23864 
 C                     9.64948   1.60169   1.54136 
 C                     7.1778    0.39693  -0.76434 
 C                     5.80304   0.28038  -0.86614 
 C                     2.92172  -0.98377  -0.67151 
 C                     3.65007  -1.95163  -1.3936 
 C                     3.01794  -2.84856  -2.20925 
 C                     1.62336  -2.81698  -2.34589 
 C                     0.88363  -1.9142   -1.63607 
 C                     1.5037   -0.99108  -0.76472 
 C                    -1.47581   0.947    -0.66461 
 C                    -0.81462   1.98607  -1.35609 
 C                    -1.5204    2.97144  -1.98631 
 C                    -2.92163   2.95502  -1.97095 
 C                    -3.59151   1.96026  -1.31417 
 C                    -2.89643   0.94218  -0.62962 
 C                    -5.72345   0.93753   0.75254 
 C                    -7.09529   0.89033   0.89514 
 H                    -9.68831   0.86536  -1.19408 
 H                    -11.02023   0.9735   -0.0394 
 H                    -9.55225   1.91357   0.21603 
 H                    -9.63191  -2.36714   0.70366 
 H                    -11.07629  -1.44534   0.30297 
 H                    -9.81575  -1.65063  -0.90753 
 H                    -9.24254  -0.87055   2.71605 
 H                    -10.75755  -0.06876   2.29038 
 H                    -9.29565   0.8818    2.54007 
 H                    -7.65676  -2.163    -0.4094 
 H                    -5.24447  -2.08227  -0.65577 
 H                    -3.32442  -1.93397   1.13869 
 H                     0.15771  -2.07069   1.07292 
 H                    -0.23794   1.63446   1.43782 
 H                     3.2461    1.5731    1.55104 
 H                     5.06557  -0.17507   2.38676 
 H                     7.4835    0.02126   2.56576 
 H                     9.87269  -0.18638  -1.39734 
 H                     11.11971   0.71182  -0.54025 
 H                     9.72212   1.56694  -1.18197 
 H                     10.94829  -0.82805   1.34513 
 H                     9.62536  -1.73096   0.60108 
 H                     9.4373   -1.06199   2.22031 
 H                     9.21928   1.46385   2.5294 
 H                     9.24983   2.52236   1.12106 
 H                     10.72637   1.71111   1.65133 
 H                     7.74009   0.56585  -1.66834 
 H                     5.32892   0.37432  -1.83298 
 H                     4.72374  -1.9815   -1.28479 
 H                     3.5902   -3.58463  -2.75431 
 H                     1.13573  -3.51653  -3.00862 
 H                    -0.19208  -1.89379  -1.73592 
 H                     0.26527   1.98162  -1.39299 
 H                    -1.00127   3.75883  -2.51254 
 H                    -3.46923   3.72684  -2.49135 
 H                    -4.6707    1.93468  -1.32691 
 H                    -5.17654   1.80289   1.0996 
 H                    -7.59308   1.7381    1.34187 
 
 ITRead=  0  0  0  0  0  0  0  0  0  0  0  0  0  0  0  0  0  0  0  0
 ITRead=  0  0  0  0  0  0  0  0  0  0  0  0  0  0  0  0  0  0  0  0
 ITRead=  0  0  0  0  0  0  0  0  0  0  0  0  0  0  0  0  0  0  0  0
 ITRead=  0  0  0  0  0  0  0  0  0  0  0  0  0  0  0  0  0  0  0  0
 MicOpt= -1 -1 -1 -1 -1 -1 -1 -1 -1 -1 -1 -1 -1 -1 -1 -1 -1 -1 -1 -1
 MicOpt= -1 -1 -1 -1 -1 -1 -1 -1 -1 -1 -1 -1 -1 -1 -1 -1 -1 -1 -1 -1
 MicOpt= -1 -1 -1 -1 -1 -1 -1 -1 -1 -1 -1 -1 -1 -1 -1 -1 -1 -1 -1 -1
 MicOpt= -1 -1 -1 -1 -1 -1 -1 -1 -1 -1 -1 -1 -1 -1 -1 -1 -1 -1 -1 -1
 NAtoms=     80 NQM=       80 NQMF=       0 NMMI=      0 NMMIF=      0
                NMic=       0 NMicF=      0.
                    Isotopes and Nuclear Properties:
 (Nuclear quadrupole moments (NQMom) in fm**2, nuclear magnetic moments (NMagM)
  in nuclear magnetons)

  Atom         1           2           3           4           5           6           7           8           9          10
 IAtWgt=          12          12          12          12          12          12          12          12          12          12
 AtmWgt=  12.0000000  12.0000000  12.0000000  12.0000000  12.0000000  12.0000000  12.0000000  12.0000000  12.0000000  12.0000000
 NucSpn=           0           0           0           0           0           0           0           0           0           0
 AtZEff=  -0.0000000  -0.0000000  -0.0000000  -0.0000000  -0.0000000  -0.0000000  -0.0000000  -0.0000000  -0.0000000  -0.0000000
 NQMom=    0.0000000   0.0000000   0.0000000   0.0000000   0.0000000   0.0000000   0.0000000   0.0000000   0.0000000   0.0000000
 NMagM=    0.0000000   0.0000000   0.0000000   0.0000000   0.0000000   0.0000000   0.0000000   0.0000000   0.0000000   0.0000000
 AtZNuc=   6.0000000   6.0000000   6.0000000   6.0000000   6.0000000   6.0000000   6.0000000   6.0000000   6.0000000   6.0000000

  Atom        11          12          13          14          15          16          17          18          19          20
 IAtWgt=          12          16          12          12          12          16          12          12          12          12
 AtmWgt=  12.0000000  15.9949146  12.0000000  12.0000000  12.0000000  15.9949146  12.0000000  12.0000000  12.0000000  12.0000000
 NucSpn=           0           0           0           0           0           0           0           0           0           0
 AtZEff=  -0.0000000  -0.0000000  -0.0000000  -0.0000000  -0.0000000  -0.0000000  -0.0000000  -0.0000000  -0.0000000  -0.0000000
 NQMom=    0.0000000   0.0000000   0.0000000   0.0000000   0.0000000   0.0000000   0.0000000   0.0000000   0.0000000   0.0000000
 NMagM=    0.0000000   0.0000000   0.0000000   0.0000000   0.0000000   0.0000000   0.0000000   0.0000000   0.0000000   0.0000000
 AtZNuc=   6.0000000   8.0000000   6.0000000   6.0000000   6.0000000   8.0000000   6.0000000   6.0000000   6.0000000   6.0000000

  Atom        21          22          23          24          25          26          27          28          29          30
 IAtWgt=          12          12          12          12          12          12          12          12          12          12
 AtmWgt=  12.0000000  12.0000000  12.0000000  12.0000000  12.0000000  12.0000000  12.0000000  12.0000000  12.0000000  12.0000000
 NucSpn=           0           0           0           0           0           0           0           0           0           0
 AtZEff=  -0.0000000  -0.0000000  -0.0000000  -0.0000000  -0.0000000  -0.0000000  -0.0000000  -0.0000000  -0.0000000  -0.0000000
 NQMom=    0.0000000   0.0000000   0.0000000   0.0000000   0.0000000   0.0000000   0.0000000   0.0000000   0.0000000   0.0000000
 NMagM=    0.0000000   0.0000000   0.0000000   0.0000000   0.0000000   0.0000000   0.0000000   0.0000000   0.0000000   0.0000000
 AtZNuc=   6.0000000   6.0000000   6.0000000   6.0000000   6.0000000   6.0000000   6.0000000   6.0000000   6.0000000   6.0000000

  Atom        31          32          33          34          35          36          37          38          39          40
 IAtWgt=          12          12          12          12          12          12          12          12          12          12
 AtmWgt=  12.0000000  12.0000000  12.0000000  12.0000000  12.0000000  12.0000000  12.0000000  12.0000000  12.0000000  12.0000000
 NucSpn=           0           0           0           0           0           0           0           0           0           0
 AtZEff=  -0.0000000  -0.0000000  -0.0000000  -0.0000000  -0.0000000  -0.0000000  -0.0000000  -0.0000000  -0.0000000  -0.0000000
 NQMom=    0.0000000   0.0000000   0.0000000   0.0000000   0.0000000   0.0000000   0.0000000   0.0000000   0.0000000   0.0000000
 NMagM=    0.0000000   0.0000000   0.0000000   0.0000000   0.0000000   0.0000000   0.0000000   0.0000000   0.0000000   0.0000000
 AtZNuc=   6.0000000   6.0000000   6.0000000   6.0000000   6.0000000   6.0000000   6.0000000   6.0000000   6.0000000   6.0000000

  Atom        41          42          43          44          45          46          47          48          49          50
 IAtWgt=          12          12           1           1           1           1           1           1           1           1
 AtmWgt=  12.0000000  12.0000000   1.0078250   1.0078250   1.0078250   1.0078250   1.0078250   1.0078250   1.0078250   1.0078250
 NucSpn=           0           0           1           1           1           1           1           1           1           1
 AtZEff=  -0.0000000  -0.0000000  -0.0000000  -0.0000000  -0.0000000  -0.0000000  -0.0000000  -0.0000000  -0.0000000  -0.0000000
 NQMom=    0.0000000   0.0000000   0.0000000   0.0000000   0.0000000   0.0000000   0.0000000   0.0000000   0.0000000   0.0000000
 NMagM=    0.0000000   0.0000000   2.7928460   2.7928460   2.7928460   2.7928460   2.7928460   2.7928460   2.7928460   2.7928460
 AtZNuc=   6.0000000   6.0000000   1.0000000   1.0000000   1.0000000   1.0000000   1.0000000   1.0000000   1.0000000   1.0000000

  Atom        51          52          53          54          55          56          57          58          59          60
 IAtWgt=           1           1           1           1           1           1           1           1           1           1
 AtmWgt=   1.0078250   1.0078250   1.0078250   1.0078250   1.0078250   1.0078250   1.0078250   1.0078250   1.0078250   1.0078250
 NucSpn=           1           1           1           1           1           1           1           1           1           1
 AtZEff=  -0.0000000  -0.0000000  -0.0000000  -0.0000000  -0.0000000  -0.0000000  -0.0000000  -0.0000000  -0.0000000  -0.0000000
 NQMom=    0.0000000   0.0000000   0.0000000   0.0000000   0.0000000   0.0000000   0.0000000   0.0000000   0.0000000   0.0000000
 NMagM=    2.7928460   2.7928460   2.7928460   2.7928460   2.7928460   2.7928460   2.7928460   2.7928460   2.7928460   2.7928460
 AtZNuc=   1.0000000   1.0000000   1.0000000   1.0000000   1.0000000   1.0000000   1.0000000   1.0000000   1.0000000   1.0000000

  Atom        61          62          63          64          65          66          67          68          69          70
 IAtWgt=           1           1           1           1           1           1           1           1           1           1
 AtmWgt=   1.0078250   1.0078250   1.0078250   1.0078250   1.0078250   1.0078250   1.0078250   1.0078250   1.0078250   1.0078250
 NucSpn=           1           1           1           1           1           1           1           1           1           1
 AtZEff=  -0.0000000  -0.0000000  -0.0000000  -0.0000000  -0.0000000  -0.0000000  -0.0000000  -0.0000000  -0.0000000  -0.0000000
 NQMom=    0.0000000   0.0000000   0.0000000   0.0000000   0.0000000   0.0000000   0.0000000   0.0000000   0.0000000   0.0000000
 NMagM=    2.7928460   2.7928460   2.7928460   2.7928460   2.7928460   2.7928460   2.7928460   2.7928460   2.7928460   2.7928460
 AtZNuc=   1.0000000   1.0000000   1.0000000   1.0000000   1.0000000   1.0000000   1.0000000   1.0000000   1.0000000   1.0000000

  Atom        71          72          73          74          75          76          77          78          79          80
 IAtWgt=           1           1           1           1           1           1           1           1           1           1
 AtmWgt=   1.0078250   1.0078250   1.0078250   1.0078250   1.0078250   1.0078250   1.0078250   1.0078250   1.0078250   1.0078250
 NucSpn=           1           1           1           1           1           1           1           1           1           1
 AtZEff=  -0.0000000  -0.0000000  -0.0000000  -0.0000000  -0.0000000  -0.0000000  -0.0000000  -0.0000000  -0.0000000  -0.0000000
 NQMom=    0.0000000   0.0000000   0.0000000   0.0000000   0.0000000   0.0000000   0.0000000   0.0000000   0.0000000   0.0000000
 NMagM=    2.7928460   2.7928460   2.7928460   2.7928460   2.7928460   2.7928460   2.7928460   2.7928460   2.7928460   2.7928460
 AtZNuc=   1.0000000   1.0000000   1.0000000   1.0000000   1.0000000   1.0000000   1.0000000   1.0000000   1.0000000   1.0000000
 Leave Link  101 at Mon Mar 24 05:03:38 2025, MaxMem= 13421772800 cpu:              13.4 elap:               0.4
 (Enter /public/software/apps/Gaussian/g16/l103.exe)

 GradGradGradGradGradGradGradGradGradGradGradGradGradGradGradGradGradGrad
 Berny optimization.
 Initialization pass.
                           ----------------------------
                           !    Initial Parameters    !
                           ! (Angstroms and Degrees)  !
 --------------------------                            --------------------------
 ! Name  Definition              Value          Derivative Info.                !
 --------------------------------------------------------------------------------
 ! R1    R(1,2)                  1.5353         estimate D2E/DX2                !
 ! R2    R(1,43)                 1.0882         estimate D2E/DX2                !
 ! R3    R(1,44)                 1.088          estimate D2E/DX2                !
 ! R4    R(1,45)                 1.0865         estimate D2E/DX2                !
 ! R5    R(2,3)                  1.531          estimate D2E/DX2                !
 ! R6    R(2,4)                  1.5353         estimate D2E/DX2                !
 ! R7    R(2,5)                  1.5203         estimate D2E/DX2                !
 ! R8    R(3,46)                 1.0876         estimate D2E/DX2                !
 ! R9    R(3,47)                 1.0882         estimate D2E/DX2                !
 ! R10   R(3,48)                 1.0876         estimate D2E/DX2                !
 ! R11   R(4,49)                 1.0881         estimate D2E/DX2                !
 ! R12   R(4,50)                 1.088          estimate D2E/DX2                !
 ! R13   R(4,51)                 1.0864         estimate D2E/DX2                !
 ! R14   R(5,6)                  1.3895         estimate D2E/DX2                !
 ! R15   R(5,42)                 1.3933         estimate D2E/DX2                !
 ! R16   R(6,7)                  1.3834         estimate D2E/DX2                !
 ! R17   R(6,52)                 1.0779         estimate D2E/DX2                !
 ! R18   R(7,8)                  1.3889         estimate D2E/DX2                !
 ! R19   R(7,53)                 1.0806         estimate D2E/DX2                !
 ! R20   R(8,9)                  1.4725         estimate D2E/DX2                !
 ! R21   R(8,41)                 1.3919         estimate D2E/DX2                !
 ! R22   R(9,10)                 1.3716         estimate D2E/DX2                !
 ! R23   R(9,40)                 1.4223         estimate D2E/DX2                !
 ! R24   R(10,11)                1.4045         estimate D2E/DX2                !
 ! R25   R(10,54)                1.079          estimate D2E/DX2                !
 ! R26   R(11,12)                1.3586         estimate D2E/DX2                !
 ! R27   R(11,13)                1.3822         estimate D2E/DX2                !
 ! R28   R(12,55)                0.9675         estimate D2E/DX2                !
 ! R29   R(13,14)                1.4858         estimate D2E/DX2                !
 ! R30   R(13,35)                1.4194         estimate D2E/DX2                !
 ! R31   R(14,15)                1.3822         estimate D2E/DX2                !
 ! R32   R(14,34)                1.4192         estimate D2E/DX2                !
 ! R33   R(15,16)                1.3586         estimate D2E/DX2                !
 ! R34   R(15,17)                1.4044         estimate D2E/DX2                !
 ! R35   R(16,56)                0.9675         estimate D2E/DX2                !
 ! R36   R(17,18)                1.3715         estimate D2E/DX2                !
 ! R37   R(17,57)                1.079          estimate D2E/DX2                !
 ! R38   R(18,19)                1.4729         estimate D2E/DX2                !
 ! R39   R(18,29)                1.422          estimate D2E/DX2                !
 ! R40   R(19,20)                1.3909         estimate D2E/DX2                !
 ! R41   R(19,28)                1.3897         estimate D2E/DX2                !
 ! R42   R(20,21)                1.3801         estimate D2E/DX2                !
 ! R43   R(20,58)                1.0807         estimate D2E/DX2                !
 ! R44   R(21,22)                1.3932         estimate D2E/DX2                !
 ! R45   R(21,59)                1.0798         estimate D2E/DX2                !
 ! R46   R(22,23)                1.5203         estimate D2E/DX2                !
 ! R47   R(22,27)                1.3897         estimate D2E/DX2                !
 ! R48   R(23,24)                1.5311         estimate D2E/DX2                !
 ! R49   R(23,25)                1.5354         estimate D2E/DX2                !
 ! R50   R(23,26)                1.5352         estimate D2E/DX2                !
 ! R51   R(24,60)                1.0876         estimate D2E/DX2                !
 ! R52   R(24,61)                1.0882         estimate D2E/DX2                !
 ! R53   R(24,62)                1.0876         estimate D2E/DX2                !
 ! R54   R(25,63)                1.088          estimate D2E/DX2                !
 ! R55   R(25,64)                1.0882         estimate D2E/DX2                !
 ! R56   R(25,65)                1.0864         estimate D2E/DX2                !
 ! R57   R(26,66)                1.0864         estimate D2E/DX2                !
 ! R58   R(26,67)                1.0881         estimate D2E/DX2                !
 ! R59   R(26,68)                1.088          estimate D2E/DX2                !
 ! R60   R(27,28)                1.3834         estimate D2E/DX2                !
 ! R61   R(27,69)                1.0779         estimate D2E/DX2                !
 ! R62   R(28,70)                1.0809         estimate D2E/DX2                !
 ! R63   R(29,30)                1.4102         estimate D2E/DX2                !
 ! R64   R(29,34)                1.4211         estimate D2E/DX2                !
 ! R65   R(30,31)                1.3672         estimate D2E/DX2                !
 ! R66   R(30,71)                1.0796         estimate D2E/DX2                !
 ! R67   R(31,32)                1.4016         estimate D2E/DX2                !
 ! R68   R(31,72)                1.08           estimate D2E/DX2                !
 ! R69   R(32,33)                1.366          estimate D2E/DX2                !
 ! R70   R(32,73)                1.08           estimate D2E/DX2                !
 ! R71   R(33,34)                1.4128         estimate D2E/DX2                !
 ! R72   R(33,74)                1.0805         estimate D2E/DX2                !
 ! R73   R(35,36)                1.4124         estimate D2E/DX2                !
 ! R74   R(35,40)                1.4211         estimate D2E/DX2                !
 ! R75   R(36,37)                1.3661         estimate D2E/DX2                !
 ! R76   R(36,75)                1.0805         estimate D2E/DX2                !
 ! R77   R(37,38)                1.4014         estimate D2E/DX2                !
 ! R78   R(37,76)                1.08           estimate D2E/DX2                !
 ! R79   R(38,39)                1.3673         estimate D2E/DX2                !
 ! R80   R(38,77)                1.08           estimate D2E/DX2                !
 ! R81   R(39,40)                1.4101         estimate D2E/DX2                !
 ! R82   R(39,78)                1.0796         estimate D2E/DX2                !
 ! R83   R(41,42)                1.38           estimate D2E/DX2                !
 ! R84   R(41,79)                1.0809         estimate D2E/DX2                !
 ! R85   R(42,80)                1.0799         estimate D2E/DX2                !
 ! A1    A(2,1,43)             110.207          estimate D2E/DX2                !
 ! A2    A(2,1,44)             110.1469         estimate D2E/DX2                !
 ! A3    A(2,1,45)             111.4141         estimate D2E/DX2                !
 ! A4    A(43,1,44)            108.4936         estimate D2E/DX2                !
 ! A5    A(43,1,45)            108.2633         estimate D2E/DX2                !
 ! A6    A(44,1,45)            108.2332         estimate D2E/DX2                !
 ! A7    A(1,2,3)              108.1648         estimate D2E/DX2                !
 ! A8    A(1,2,4)              109.8098         estimate D2E/DX2                !
 ! A9    A(1,2,5)              108.9657         estimate D2E/DX2                !
 ! A10   A(3,2,4)              108.1263         estimate D2E/DX2                !
 ! A11   A(3,2,5)              112.6981         estimate D2E/DX2                !
 ! A12   A(4,2,5)              109.0475         estimate D2E/DX2                !
 ! A13   A(2,3,46)             111.0974         estimate D2E/DX2                !
 ! A14   A(2,3,47)             109.4328         estimate D2E/DX2                !
 ! A15   A(2,3,48)             111.1241         estimate D2E/DX2                !
 ! A16   A(46,3,47)            107.9492         estimate D2E/DX2                !
 ! A17   A(46,3,48)            109.1855         estimate D2E/DX2                !
 ! A18   A(47,3,48)            107.946          estimate D2E/DX2                !
 ! A19   A(2,4,49)             110.2017         estimate D2E/DX2                !
 ! A20   A(2,4,50)             110.1336         estimate D2E/DX2                !
 ! A21   A(2,4,51)             111.4499         estimate D2E/DX2                !
 ! A22   A(49,4,50)            108.5082         estimate D2E/DX2                !
 ! A23   A(49,4,51)            108.2475         estimate D2E/DX2                !
 ! A24   A(50,4,51)            108.2166         estimate D2E/DX2                !
 ! A25   A(2,5,6)              123.1023         estimate D2E/DX2                !
 ! A26   A(2,5,42)             119.5175         estimate D2E/DX2                !
 ! A27   A(6,5,42)             117.3801         estimate D2E/DX2                !
 ! A28   A(5,6,7)              121.2821         estimate D2E/DX2                !
 ! A29   A(5,6,52)             120.6371         estimate D2E/DX2                !
 ! A30   A(7,6,52)             118.0808         estimate D2E/DX2                !
 ! A31   A(6,7,8)              120.9836         estimate D2E/DX2                !
 ! A32   A(6,7,53)             119.6996         estimate D2E/DX2                !
 ! A33   A(8,7,53)             119.3096         estimate D2E/DX2                !
 ! A34   A(7,8,9)              120.601          estimate D2E/DX2                !
 ! A35   A(7,8,41)             118.0889         estimate D2E/DX2                !
 ! A36   A(9,8,41)             121.2798         estimate D2E/DX2                !
 ! A37   A(8,9,10)             118.8518         estimate D2E/DX2                !
 ! A38   A(8,9,40)             121.5            estimate D2E/DX2                !
 ! A39   A(10,9,40)            119.647          estimate D2E/DX2                !
 ! A40   A(9,10,11)            121.4666         estimate D2E/DX2                !
 ! A41   A(9,10,54)            120.8032         estimate D2E/DX2                !
 ! A42   A(11,10,54)           117.7022         estimate D2E/DX2                !
 ! A43   A(10,11,12)           117.061          estimate D2E/DX2                !
 ! A44   A(10,11,13)           120.3989         estimate D2E/DX2                !
 ! A45   A(12,11,13)           122.5229         estimate D2E/DX2                !
 ! A46   A(11,12,55)           109.5053         estimate D2E/DX2                !
 ! A47   A(11,13,14)           119.5695         estimate D2E/DX2                !
 ! A48   A(11,13,35)           119.4205         estimate D2E/DX2                !
 ! A49   A(14,13,35)           120.995          estimate D2E/DX2                !
 ! A50   A(13,14,15)           119.3914         estimate D2E/DX2                !
 ! A51   A(13,14,34)           121.1386         estimate D2E/DX2                !
 ! A52   A(15,14,34)           119.4414         estimate D2E/DX2                !
 ! A53   A(14,15,16)           122.4516         estimate D2E/DX2                !
 ! A54   A(14,15,17)           120.4309         estimate D2E/DX2                !
 ! A55   A(16,15,17)           117.1171         estimate D2E/DX2                !
 ! A56   A(15,16,56)           109.4425         estimate D2E/DX2                !
 ! A57   A(15,17,18)           121.4335         estimate D2E/DX2                !
 ! A58   A(15,17,57)           117.7514         estimate D2E/DX2                !
 ! A59   A(18,17,57)           120.8034         estimate D2E/DX2                !
 ! A60   A(17,18,19)           118.8218         estimate D2E/DX2                !
 ! A61   A(17,18,29)           119.6888         estimate D2E/DX2                !
 ! A62   A(19,18,29)           121.4871         estimate D2E/DX2                !
 ! A63   A(18,19,20)           120.4834         estimate D2E/DX2                !
 ! A64   A(18,19,28)           121.3683         estimate D2E/DX2                !
 ! A65   A(20,19,28)           118.1187         estimate D2E/DX2                !
 ! A66   A(19,20,21)           120.6868         estimate D2E/DX2                !
 ! A67   A(19,20,58)           119.3647         estimate D2E/DX2                !
 ! A68   A(21,20,58)           119.942          estimate D2E/DX2                !
 ! A69   A(20,21,22)           121.5789         estimate D2E/DX2                !
 ! A70   A(20,21,59)           118.3647         estimate D2E/DX2                !
 ! A71   A(22,21,59)           120.0564         estimate D2E/DX2                !
 ! A72   A(21,22,23)           119.5279         estimate D2E/DX2                !
 ! A73   A(21,22,27)           117.3886         estimate D2E/DX2                !
 ! A74   A(23,22,27)           123.0833         estimate D2E/DX2                !
 ! A75   A(22,23,24)           112.7102         estimate D2E/DX2                !
 ! A76   A(22,23,25)           108.9841         estimate D2E/DX2                !
 ! A77   A(22,23,26)           109.0172         estimate D2E/DX2                !
 ! A78   A(24,23,25)           108.1424         estimate D2E/DX2                !
 ! A79   A(24,23,26)           108.1502         estimate D2E/DX2                !
 ! A80   A(25,23,26)           109.8081         estimate D2E/DX2                !
 ! A81   A(23,24,60)           111.1234         estimate D2E/DX2                !
 ! A82   A(23,24,61)           109.4327         estimate D2E/DX2                !
 ! A83   A(23,24,62)           111.1082         estimate D2E/DX2                !
 ! A84   A(60,24,61)           107.9431         estimate D2E/DX2                !
 ! A85   A(60,24,62)           109.1837         estimate D2E/DX2                !
 ! A86   A(61,24,62)           107.9434         estimate D2E/DX2                !
 ! A87   A(23,25,63)           110.1443         estimate D2E/DX2                !
 ! A88   A(23,25,64)           110.2195         estimate D2E/DX2                !
 ! A89   A(23,25,65)           111.4208         estimate D2E/DX2                !
 ! A90   A(63,25,64)           108.4936         estimate D2E/DX2                !
 ! A91   A(63,25,65)           108.2329         estimate D2E/DX2                !
 ! A92   A(64,25,65)           108.2464         estimate D2E/DX2                !
 ! A93   A(23,26,66)           111.4275         estimate D2E/DX2                !
 ! A94   A(23,26,67)           110.2036         estimate D2E/DX2                !
 ! A95   A(23,26,68)           110.1384         estimate D2E/DX2                !
 ! A96   A(66,26,67)           108.2519         estimate D2E/DX2                !
 ! A97   A(66,26,68)           108.2264         estimate D2E/DX2                !
 ! A98   A(67,26,68)           108.5103         estimate D2E/DX2                !
 ! A99   A(22,27,28)           121.3302         estimate D2E/DX2                !
 ! A100  A(22,27,69)           120.6449         estimate D2E/DX2                !
 ! A101  A(28,27,69)           118.0248         estimate D2E/DX2                !
 ! A102  A(19,28,27)           120.8896         estimate D2E/DX2                !
 ! A103  A(19,28,70)           119.4712         estimate D2E/DX2                !
 ! A104  A(27,28,70)           119.6285         estimate D2E/DX2                !
 ! A105  A(18,29,30)           122.3989         estimate D2E/DX2                !
 ! A106  A(18,29,34)           119.0102         estimate D2E/DX2                !
 ! A107  A(30,29,34)           118.5711         estimate D2E/DX2                !
 ! A108  A(29,30,31)           121.1256         estimate D2E/DX2                !
 ! A109  A(29,30,71)           118.7531         estimate D2E/DX2                !
 ! A110  A(31,30,71)           120.1184         estimate D2E/DX2                !
 ! A111  A(30,31,32)           120.2251         estimate D2E/DX2                !
 ! A112  A(30,31,72)           120.2124         estimate D2E/DX2                !
 ! A113  A(32,31,72)           119.5623         estimate D2E/DX2                !
 ! A114  A(31,32,33)           120.2005         estimate D2E/DX2                !
 ! A115  A(31,32,73)           119.6351         estimate D2E/DX2                !
 ! A116  A(33,32,73)           120.1619         estimate D2E/DX2                !
 ! A117  A(32,33,34)           120.9736         estimate D2E/DX2                !
 ! A118  A(32,33,74)           120.2357         estimate D2E/DX2                !
 ! A119  A(34,33,74)           118.7904         estimate D2E/DX2                !
 ! A120  A(14,34,29)           119.9635         estimate D2E/DX2                !
 ! A121  A(14,34,33)           121.234          estimate D2E/DX2                !
 ! A122  A(29,34,33)           118.8014         estimate D2E/DX2                !
 ! A123  A(13,35,36)           121.1512         estimate D2E/DX2                !
 ! A124  A(13,35,40)           119.9862         estimate D2E/DX2                !
 ! A125  A(36,35,40)           118.8507         estimate D2E/DX2                !
 ! A126  A(35,36,37)           120.9724         estimate D2E/DX2                !
 ! A127  A(35,36,75)           118.7862         estimate D2E/DX2                !
 ! A128  A(37,36,75)           120.2343         estimate D2E/DX2                !
 ! A129  A(36,37,38)           120.2026         estimate D2E/DX2                !
 ! A130  A(36,37,76)           120.1537         estimate D2E/DX2                !
 ! A131  A(38,37,76)           119.6366         estimate D2E/DX2                !
 ! A132  A(37,38,39)           120.2411         estimate D2E/DX2                !
 ! A133  A(37,38,77)           119.559          estimate D2E/DX2                !
 ! A134  A(39,38,77)           120.1959         estimate D2E/DX2                !
 ! A135  A(38,39,40)           121.1286         estimate D2E/DX2                !
 ! A136  A(38,39,78)           120.0874         estimate D2E/DX2                !
 ! A137  A(40,39,78)           118.7762         estimate D2E/DX2                !
 ! A138  A(9,40,35)            118.9955         estimate D2E/DX2                !
 ! A139  A(9,40,39)            122.3944         estimate D2E/DX2                !
 ! A140  A(35,40,39)           118.5806         estimate D2E/DX2                !
 ! A141  A(8,41,42)            120.6249         estimate D2E/DX2                !
 ! A142  A(8,41,79)            119.5518         estimate D2E/DX2                !
 ! A143  A(42,41,79)           119.8125         estimate D2E/DX2                !
 ! A144  A(5,42,41)            121.6342         estimate D2E/DX2                !
 ! A145  A(5,42,80)            120.0624         estimate D2E/DX2                !
 ! A146  A(41,42,80)           118.3034         estimate D2E/DX2                !
 ! D1    D(43,1,2,3)           -63.2629         estimate D2E/DX2                !
 ! D2    D(43,1,2,4)           178.9483         estimate D2E/DX2                !
 ! D3    D(43,1,2,5)            59.5694         estimate D2E/DX2                !
 ! D4    D(44,1,2,3)            56.4112         estimate D2E/DX2                !
 ! D5    D(44,1,2,4)           -61.3776         estimate D2E/DX2                !
 ! D6    D(44,1,2,5)           179.2435         estimate D2E/DX2                !
 ! D7    D(45,1,2,3)           176.5352         estimate D2E/DX2                !
 ! D8    D(45,1,2,4)            58.7464         estimate D2E/DX2                !
 ! D9    D(45,1,2,5)           -60.6325         estimate D2E/DX2                !
 ! D10   D(1,2,3,46)          -178.5964         estimate D2E/DX2                !
 ! D11   D(1,2,3,47)           -59.4932         estimate D2E/DX2                !
 ! D12   D(1,2,3,48)            59.6226         estimate D2E/DX2                !
 ! D13   D(4,2,3,46)           -59.7341         estimate D2E/DX2                !
 ! D14   D(4,2,3,47)            59.3691         estimate D2E/DX2                !
 ! D15   D(4,2,3,48)           178.4849         estimate D2E/DX2                !
 ! D16   D(5,2,3,46)            60.8728         estimate D2E/DX2                !
 ! D17   D(5,2,3,47)           179.9761         estimate D2E/DX2                !
 ! D18   D(5,2,3,48)           -60.9081         estimate D2E/DX2                !
 ! D19   D(1,2,4,49)          -178.6057         estimate D2E/DX2                !
 ! D20   D(1,2,4,50)            61.7139         estimate D2E/DX2                !
 ! D21   D(1,2,4,51)           -58.4037         estimate D2E/DX2                !
 ! D22   D(3,2,4,49)            63.5816         estimate D2E/DX2                !
 ! D23   D(3,2,4,50)           -56.0988         estimate D2E/DX2                !
 ! D24   D(3,2,4,51)          -176.2165         estimate D2E/DX2                !
 ! D25   D(5,2,4,49)           -59.2769         estimate D2E/DX2                !
 ! D26   D(5,2,4,50)          -178.9574         estimate D2E/DX2                !
 ! D27   D(5,2,4,51)            60.925          estimate D2E/DX2                !
 ! D28   D(1,2,5,6)           -119.9485         estimate D2E/DX2                !
 ! D29   D(1,2,5,42)            60.1893         estimate D2E/DX2                !
 ! D30   D(3,2,5,6)              0.1219         estimate D2E/DX2                !
 ! D31   D(3,2,5,42)          -179.7403         estimate D2E/DX2                !
 ! D32   D(4,2,5,6)            120.1997         estimate D2E/DX2                !
 ! D33   D(4,2,5,42)           -59.6625         estimate D2E/DX2                !
 ! D34   D(2,5,6,7)            179.9971         estimate D2E/DX2                !
 ! D35   D(2,5,6,52)            -0.0489         estimate D2E/DX2                !
 ! D36   D(42,5,6,7)            -0.138          estimate D2E/DX2                !
 ! D37   D(42,5,6,52)          179.816          estimate D2E/DX2                !
 ! D38   D(2,5,42,41)         -179.6466         estimate D2E/DX2                !
 ! D39   D(2,5,42,80)            0.469          estimate D2E/DX2                !
 ! D40   D(6,5,42,41)            0.4834         estimate D2E/DX2                !
 ! D41   D(6,5,42,80)         -179.401          estimate D2E/DX2                !
 ! D42   D(5,6,7,8)             -0.5672         estimate D2E/DX2                !
 ! D43   D(5,6,7,53)          -179.5865         estimate D2E/DX2                !
 ! D44   D(52,6,7,8)           179.4777         estimate D2E/DX2                !
 ! D45   D(52,6,7,53)            0.4583         estimate D2E/DX2                !
 ! D46   D(6,7,8,9)            178.9334         estimate D2E/DX2                !
 ! D47   D(6,7,8,41)             0.911          estimate D2E/DX2                !
 ! D48   D(53,7,8,9)            -2.0435         estimate D2E/DX2                !
 ! D49   D(53,7,8,41)          179.9341         estimate D2E/DX2                !
 ! D50   D(7,8,9,10)           -54.2553         estimate D2E/DX2                !
 ! D51   D(7,8,9,40)           126.1326         estimate D2E/DX2                !
 ! D52   D(41,8,9,10)          123.7033         estimate D2E/DX2                !
 ! D53   D(41,8,9,40)          -55.9088         estimate D2E/DX2                !
 ! D54   D(7,8,41,42)           -0.5674         estimate D2E/DX2                !
 ! D55   D(7,8,41,79)          178.2357         estimate D2E/DX2                !
 ! D56   D(9,8,41,42)         -178.5757         estimate D2E/DX2                !
 ! D57   D(9,8,41,79)            0.2274         estimate D2E/DX2                !
 ! D58   D(8,9,10,11)         -177.1975         estimate D2E/DX2                !
 ! D59   D(8,9,10,54)            0.8327         estimate D2E/DX2                !
 ! D60   D(40,9,10,11)           2.422          estimate D2E/DX2                !
 ! D61   D(40,9,10,54)        -179.5478         estimate D2E/DX2                !
 ! D62   D(8,9,40,35)          176.7787         estimate D2E/DX2                !
 ! D63   D(8,9,40,39)           -5.2233         estimate D2E/DX2                !
 ! D64   D(10,9,40,35)          -2.8304         estimate D2E/DX2                !
 ! D65   D(10,9,40,39)         175.1676         estimate D2E/DX2                !
 ! D66   D(9,10,11,12)         178.6789         estimate D2E/DX2                !
 ! D67   D(9,10,11,13)           0.1492         estimate D2E/DX2                !
 ! D68   D(54,10,11,12)          0.5898         estimate D2E/DX2                !
 ! D69   D(54,10,11,13)       -177.9399         estimate D2E/DX2                !
 ! D70   D(10,11,12,55)        178.4113         estimate D2E/DX2                !
 ! D71   D(13,11,12,55)         -3.0927         estimate D2E/DX2                !
 ! D72   D(10,11,13,14)        176.3584         estimate D2E/DX2                !
 ! D73   D(10,11,13,35)         -2.2463         estimate D2E/DX2                !
 ! D74   D(12,11,13,14)         -2.0887         estimate D2E/DX2                !
 ! D75   D(12,11,13,35)        179.3066         estimate D2E/DX2                !
 ! D76   D(11,13,14,15)       -106.0154         estimate D2E/DX2                !
 ! D77   D(11,13,14,34)         72.0315         estimate D2E/DX2                !
 ! D78   D(35,13,14,15)         72.5668         estimate D2E/DX2                !
 ! D79   D(35,13,14,34)       -109.3863         estimate D2E/DX2                !
 ! D80   D(11,13,35,36)       -176.965          estimate D2E/DX2                !
 ! D81   D(11,13,35,40)          1.7647         estimate D2E/DX2                !
 ! D82   D(14,13,35,36)          4.4507         estimate D2E/DX2                !
 ! D83   D(14,13,35,40)       -176.8196         estimate D2E/DX2                !
 ! D84   D(13,14,15,16)         -1.1878         estimate D2E/DX2                !
 ! D85   D(13,14,15,17)        178.5994         estimate D2E/DX2                !
 ! D86   D(34,14,15,16)       -179.2682         estimate D2E/DX2                !
 ! D87   D(34,14,15,17)          0.5189         estimate D2E/DX2                !
 ! D88   D(13,14,34,29)       -177.6421         estimate D2E/DX2                !
 ! D89   D(13,14,34,33)          2.748          estimate D2E/DX2                !
 ! D90   D(15,14,34,29)          0.4039         estimate D2E/DX2                !
 ! D91   D(15,14,34,33)       -179.206          estimate D2E/DX2                !
 ! D92   D(14,15,16,56)         -2.7709         estimate D2E/DX2                !
 ! D93   D(17,15,16,56)        177.4353         estimate D2E/DX2                !
 ! D94   D(14,15,17,18)         -0.0861         estimate D2E/DX2                !
 ! D95   D(14,15,17,57)        178.6745         estimate D2E/DX2                !
 ! D96   D(16,15,17,18)        179.7121         estimate D2E/DX2                !
 ! D97   D(16,15,17,57)         -1.5273         estimate D2E/DX2                !
 ! D98   D(15,17,18,19)        178.1909         estimate D2E/DX2                !
 ! D99   D(15,17,18,29)         -1.2673         estimate D2E/DX2                !
 ! D100  D(57,17,18,19)         -0.5322         estimate D2E/DX2                !
 ! D101  D(57,17,18,29)       -179.9904         estimate D2E/DX2                !
 ! D102  D(17,18,19,20)         55.2792         estimate D2E/DX2                !
 ! D103  D(17,18,19,28)       -122.7035         estimate D2E/DX2                !
 ! D104  D(29,18,19,20)       -125.2728         estimate D2E/DX2                !
 ! D105  D(29,18,19,28)         56.7445         estimate D2E/DX2                !
 ! D106  D(17,18,29,30)       -176.2092         estimate D2E/DX2                !
 ! D107  D(17,18,29,34)          2.1498         estimate D2E/DX2                !
 ! D108  D(19,18,29,30)          4.3475         estimate D2E/DX2                !
 ! D109  D(19,18,29,34)       -177.2935         estimate D2E/DX2                !
 ! D110  D(18,19,20,21)       -179.007          estimate D2E/DX2                !
 ! D111  D(18,19,20,58)          1.9222         estimate D2E/DX2                !
 ! D112  D(28,19,20,21)         -0.9599         estimate D2E/DX2                !
 ! D113  D(28,19,20,58)        179.9693         estimate D2E/DX2                !
 ! D114  D(18,19,28,27)        178.5858         estimate D2E/DX2                !
 ! D115  D(18,19,28,70)         -0.2204         estimate D2E/DX2                !
 ! D116  D(20,19,28,27)          0.5569         estimate D2E/DX2                !
 ! D117  D(20,19,28,70)       -178.2493         estimate D2E/DX2                !
 ! D118  D(19,20,21,22)          0.6182         estimate D2E/DX2                !
 ! D119  D(19,20,21,59)       -179.4457         estimate D2E/DX2                !
 ! D120  D(58,20,21,22)        179.6837         estimate D2E/DX2                !
 ! D121  D(58,20,21,59)         -0.3802         estimate D2E/DX2                !
 ! D122  D(20,21,22,23)        179.989          estimate D2E/DX2                !
 ! D123  D(20,21,22,27)          0.1492         estimate D2E/DX2                !
 ! D124  D(59,21,22,23)          0.0539         estimate D2E/DX2                !
 ! D125  D(59,21,22,27)       -179.7859         estimate D2E/DX2                !
 ! D126  D(21,22,23,24)       -179.9133         estimate D2E/DX2                !
 ! D127  D(21,22,23,25)         60.0242         estimate D2E/DX2                !
 ! D128  D(21,22,23,26)        -59.8185         estimate D2E/DX2                !
 ! D129  D(27,22,23,24)         -0.0831         estimate D2E/DX2                !
 ! D130  D(27,22,23,25)       -120.1455         estimate D2E/DX2                !
 ! D131  D(27,22,23,26)        120.0118         estimate D2E/DX2                !
 ! D132  D(21,22,27,28)         -0.557          estimate D2E/DX2                !
 ! D133  D(21,22,27,69)        179.3326         estimate D2E/DX2                !
 ! D134  D(23,22,27,28)        179.6093         estimate D2E/DX2                !
 ! D135  D(23,22,27,69)         -0.5011         estimate D2E/DX2                !
 ! D136  D(22,23,24,60)        -60.7627         estimate D2E/DX2                !
 ! D137  D(22,23,24,61)       -179.8744         estimate D2E/DX2                !
 ! D138  D(22,23,24,62)         61.023          estimate D2E/DX2                !
 ! D139  D(25,23,24,60)         59.7834         estimate D2E/DX2                !
 ! D140  D(25,23,24,61)        -59.3283         estimate D2E/DX2                !
 ! D141  D(25,23,24,62)       -178.431          estimate D2E/DX2                !
 ! D142  D(26,23,24,60)        178.6444         estimate D2E/DX2                !
 ! D143  D(26,23,24,61)         59.5327         estimate D2E/DX2                !
 ! D144  D(26,23,24,62)        -59.5699         estimate D2E/DX2                !
 ! D145  D(22,23,25,63)        179.1239         estimate D2E/DX2                !
 ! D146  D(22,23,25,64)         59.4434         estimate D2E/DX2                !
 ! D147  D(22,23,25,65)        -60.75           estimate D2E/DX2                !
 ! D148  D(24,23,25,63)         56.2794         estimate D2E/DX2                !
 ! D149  D(24,23,25,64)        -63.401          estimate D2E/DX2                !
 ! D150  D(24,23,25,65)        176.4056         estimate D2E/DX2                !
 ! D151  D(26,23,25,63)        -61.5241         estimate D2E/DX2                !
 ! D152  D(26,23,25,64)        178.7955         estimate D2E/DX2                !
 ! D153  D(26,23,25,65)         58.6021         estimate D2E/DX2                !
 ! D154  D(22,23,26,66)         60.9395         estimate D2E/DX2                !
 ! D155  D(22,23,26,67)        -59.2546         estimate D2E/DX2                !
 ! D156  D(22,23,26,68)       -178.942          estimate D2E/DX2                !
 ! D157  D(24,23,26,66)       -176.1909         estimate D2E/DX2                !
 ! D158  D(24,23,26,67)         63.6149         estimate D2E/DX2                !
 ! D159  D(24,23,26,68)        -56.0724         estimate D2E/DX2                !
 ! D160  D(25,23,26,66)        -58.3923         estimate D2E/DX2                !
 ! D161  D(25,23,26,67)       -178.5864         estimate D2E/DX2                !
 ! D162  D(25,23,26,68)         61.7262         estimate D2E/DX2                !
 ! D163  D(22,27,28,19)          0.2052         estimate D2E/DX2                !
 ! D164  D(22,27,28,70)        179.0095         estimate D2E/DX2                !
 ! D165  D(69,27,28,19)       -179.6872         estimate D2E/DX2                !
 ! D166  D(69,27,28,70)         -0.8829         estimate D2E/DX2                !
 ! D167  D(18,29,30,31)       -179.108          estimate D2E/DX2                !
 ! D168  D(18,29,30,71)          1.5089         estimate D2E/DX2                !
 ! D169  D(34,29,30,31)          2.5261         estimate D2E/DX2                !
 ! D170  D(34,29,30,71)       -176.857          estimate D2E/DX2                !
 ! D171  D(18,29,34,14)         -1.7248         estimate D2E/DX2                !
 ! D172  D(18,29,34,33)        177.8945         estimate D2E/DX2                !
 ! D173  D(30,29,34,14)        176.6976         estimate D2E/DX2                !
 ! D174  D(30,29,34,33)         -3.6831         estimate D2E/DX2                !
 ! D175  D(29,30,31,32)          0.2391         estimate D2E/DX2                !
 ! D176  D(29,30,31,72)       -179.9046         estimate D2E/DX2                !
 ! D177  D(71,30,31,32)        179.6139         estimate D2E/DX2                !
 ! D178  D(71,30,31,72)         -0.5299         estimate D2E/DX2                !
 ! D179  D(30,31,32,33)         -1.8424         estimate D2E/DX2                !
 ! D180  D(30,31,32,73)        178.7255         estimate D2E/DX2                !
 ! D181  D(72,31,32,33)        178.3005         estimate D2E/DX2                !
 ! D182  D(72,31,32,73)         -1.1317         estimate D2E/DX2                !
 ! D183  D(31,32,33,34)          0.5956         estimate D2E/DX2                !
 ! D184  D(31,32,33,74)       -179.5857         estimate D2E/DX2                !
 ! D185  D(73,32,33,34)       -179.9753         estimate D2E/DX2                !
 ! D186  D(73,32,33,74)         -0.1566         estimate D2E/DX2                !
 ! D187  D(32,33,34,14)       -178.205          estimate D2E/DX2                !
 ! D188  D(32,33,34,29)          2.1807         estimate D2E/DX2                !
 ! D189  D(74,33,34,14)          1.9737         estimate D2E/DX2                !
 ! D190  D(74,33,34,29)       -177.6406         estimate D2E/DX2                !
 ! D191  D(13,35,36,37)        178.5657         estimate D2E/DX2                !
 ! D192  D(13,35,36,75)         -0.4659         estimate D2E/DX2                !
 ! D193  D(40,35,36,37)         -0.1782         estimate D2E/DX2                !
 ! D194  D(40,35,36,75)       -179.2097         estimate D2E/DX2                !
 ! D195  D(13,35,40,9)           0.7562         estimate D2E/DX2                !
 ! D196  D(13,35,40,39)       -177.3188         estimate D2E/DX2                !
 ! D197  D(36,35,40,9)         179.515          estimate D2E/DX2                !
 ! D198  D(36,35,40,39)          1.44           estimate D2E/DX2                !
 ! D199  D(35,36,37,38)         -0.8795         estimate D2E/DX2                !
 ! D200  D(35,36,37,76)       -179.9031         estimate D2E/DX2                !
 ! D201  D(75,36,37,38)        178.1381         estimate D2E/DX2                !
 ! D202  D(75,36,37,76)         -0.8855         estimate D2E/DX2                !
 ! D203  D(36,37,38,39)          0.645          estimate D2E/DX2                !
 ! D204  D(36,37,38,77)       -178.6271         estimate D2E/DX2                !
 ! D205  D(76,37,38,39)        179.6736         estimate D2E/DX2                !
 ! D206  D(76,37,38,77)          0.4015         estimate D2E/DX2                !
 ! D207  D(37,38,39,40)          0.6688         estimate D2E/DX2                !
 ! D208  D(37,38,39,78)       -178.3049         estimate D2E/DX2                !
 ! D209  D(77,38,39,40)        179.9362         estimate D2E/DX2                !
 ! D210  D(77,38,39,78)          0.9625         estimate D2E/DX2                !
 ! D211  D(38,39,40,9)        -179.7069         estimate D2E/DX2                !
 ! D212  D(38,39,40,35)         -1.7009         estimate D2E/DX2                !
 ! D213  D(78,39,40,9)          -0.72           estimate D2E/DX2                !
 ! D214  D(78,39,40,35)        177.286          estimate D2E/DX2                !
 ! D215  D(8,41,42,5)           -0.1297         estimate D2E/DX2                !
 ! D216  D(8,41,42,80)         179.7567         estimate D2E/DX2                !
 ! D217  D(79,41,42,5)        -178.9297         estimate D2E/DX2                !
 ! D218  D(79,41,42,80)          0.9567         estimate D2E/DX2                !
 --------------------------------------------------------------------------------
 Trust Radius=3.00D-01 FncErr=1.00D-07 GrdErr=1.00D-06 EigMax=2.50D+02 EigMin=1.00D-04
 Number of steps in this run=    459 maximum allowed number of steps=    480.
 GradGradGradGradGradGradGradGradGradGradGradGradGradGradGradGradGradGrad

 Leave Link  103 at Mon Mar 24 05:03:38 2025, MaxMem= 13421772800 cpu:               0.8 elap:               0.0
 (Enter /public/software/apps/Gaussian/g16/l202.exe)
 Symmetry turned off by external request.
 Stoichiometry    C40H38O2
 Framework group  C1[X(C40H38O2)]
 Deg. of freedom   234
 Full point group                 C1      NOp   1
                          Input orientation:                          
 ---------------------------------------------------------------------
 Center     Atomic      Atomic             Coordinates (Angstroms)
 Number     Number       Type             X           Y           Z
 ---------------------------------------------------------------------
      1          6           0       -9.936868    0.961479   -0.139031
      2          6           0       -9.345878   -0.212753    0.654154
      3          6           0       -9.999863   -1.503671    0.154244
      4          6           0       -9.679480   -0.054341    2.144355
      5          6           0       -7.835421   -0.215286    0.481396
      6          6           0       -7.136954   -1.280200   -0.074387
      7          6           0       -5.761146   -1.242326   -0.213835
      8          6           0       -5.032118   -0.130413    0.187724
      9          6           0       -3.565605   -0.108390    0.056963
     10          6           0       -2.835606   -1.123993    0.619900
     11          6           0       -1.431700   -1.127817    0.578784
     12          8           0       -0.798339   -2.163549    1.188515
     13          6           0       -0.747102   -0.095185   -0.034036
     14          6           0        0.738093   -0.075948    0.003760
     15          6           0        1.384011    0.822392    0.832206
     16          8           0        0.711638    1.714771    1.605073
     17          6           0        2.786298    0.839569    0.907062
     18          6           0        3.552580   -0.026504    0.169705
     19          6           0        5.019499    0.068460    0.261922
     20          6           0        5.655492   -0.011203    1.496286
     21          6           0        7.028097    0.097658    1.589703
     22          6           0        7.822050    0.302490    0.463368
     23          6           0        9.330027    0.415837    0.620142
     24          6           0       10.047692    0.641027   -0.713440
     25          6           0        9.866892   -0.882833    1.238638
     26          6           0        9.649478    1.601687    1.541359
     27          6           0        7.177798    0.396925   -0.764336
     28          6           0        5.803043    0.280381   -0.866137
     29          6           0        2.921715   -0.983765   -0.671509
     30          6           0        3.650071   -1.951634   -1.393602
     31          6           0        3.017938   -2.848564   -2.209245
     32          6           0        1.623357   -2.816981   -2.345891
     33          6           0        0.883630   -1.914197   -1.636066
     34          6           0        1.503695   -0.991080   -0.764723
     35          6           0       -1.475809    0.947004   -0.664608
     36          6           0       -0.814616    1.986065   -1.356086
     37          6           0       -1.520397    2.971441   -1.986307
     38          6           0       -2.921627    2.955020   -1.970948
     39          6           0       -3.591509    1.960263   -1.314174
     40          6           0       -2.896425    0.942182   -0.629622
     41          6           0       -5.723454    0.937528    0.752535
     42          6           0       -7.095292    0.890329    0.895140
     43          1           0       -9.688310    0.865361   -1.194078
     44          1           0      -11.020230    0.973497   -0.039404
     45          1           0       -9.552250    1.913573    0.216028
     46          1           0       -9.631906   -2.367139    0.703660
     47          1           0      -11.076289   -1.445340    0.302974
     48          1           0       -9.815752   -1.650633   -0.907534
     49          1           0       -9.242536   -0.870550    2.716050
     50          1           0      -10.757555   -0.068762    2.290381
     51          1           0       -9.295649    0.881802    2.540071
     52          1           0       -7.656761   -2.162998   -0.409397
     53          1           0       -5.244470   -2.082270   -0.655774
     54          1           0       -3.324418   -1.933973    1.138693
     55          1           0        0.157708   -2.070689    1.072915
     56          1           0       -0.237937    1.634464    1.437815
     57          1           0        3.246100    1.573099    1.551042
     58          1           0        5.065567   -0.175065    2.386763
     59          1           0        7.483502    0.021264    2.565758
     60          1           0        9.872687   -0.186375   -1.397339
     61          1           0       11.119706    0.711822   -0.540250
     62          1           0        9.722116    1.566937   -1.181973
     63          1           0       10.948288   -0.828054    1.345127
     64          1           0        9.625359   -1.730955    0.601083
     65          1           0        9.437300   -1.061992    2.220308
     66          1           0        9.219279    1.463852    2.529400
     67          1           0        9.249831    2.522355    1.121063
     68          1           0       10.726369    1.711112    1.651329
     69          1           0        7.740089    0.565851   -1.668344
     70          1           0        5.328916    0.374322   -1.832982
     71          1           0        4.723741   -1.981500   -1.284791
     72          1           0        3.590195   -3.584627   -2.754313
     73          1           0        1.135733   -3.516534   -3.008619
     74          1           0       -0.192075   -1.893792   -1.735920
     75          1           0        0.265273    1.981622   -1.392990
     76          1           0       -1.001269    3.758830   -2.512535
     77          1           0       -3.469230    3.726843   -2.491352
     78          1           0       -4.670701    1.934676   -1.326907
     79          1           0       -5.176536    1.802887    1.099598
     80          1           0       -7.593084    1.738103    1.341870
 ---------------------------------------------------------------------
 Rotational constants (GHZ):           0.2745950           0.0257593           0.0253078
 Leave Link  202 at Mon Mar 24 05:03:39 2025, MaxMem= 13421772800 cpu:               1.3 elap:               0.0
 (Enter /public/software/apps/Gaussian/g16/l301.exe)
 Standard basis: def2SVPP (5D, 7F)
 Ernie: Thresh=  0.10000D-02 Tol=  0.10000D-05 Strict=F.
   664 basis functions,  1202 primitive gaussians,   706 cartesian basis functions
   147 alpha electrons      147 beta electrons
       nuclear repulsion energy      4423.8124986274 Hartrees.
 IExCor=  402 DFT=T Ex+Corr=B3LYP ExCW=0 ScaHFX=  0.200000
 ScaDFX=  0.800000  0.720000  1.000000  0.810000 ScalE2=  1.000000  1.000000
 IRadAn=      5 IRanWt=     -1 IRanGd=            0 ICorTp=0 IEmpDi=141
 NAtoms=   80 NActive=   80 NUniq=   80 SFac= 1.00D+00 NAtFMM=   60 NAOKFM=T Big=T
 Integral buffers will be    131072 words long.
 Raffenetti 2 integral format.
 Two-electron integral symmetry is turned off.
 R6Disp:  Grimme-D3(BJ) Dispersion energy=       -0.2024290926 Hartrees.
 Nuclear repulsion after empirical dispersion term =     4423.6100695348 Hartrees.
 Leave Link  301 at Mon Mar 24 05:03:39 2025, MaxMem= 13421772800 cpu:               0.6 elap:               0.0
 (Enter /public/software/apps/Gaussian/g16/l302.exe)
 NPDir=0 NMtPBC=     1 NCelOv=     1 NCel=       1 NClECP=     1 NCelD=      1
         NCelK=      1 NCelE2=     1 NClLst=     1 CellRange=     0.0.
 One-electron integrals computed using PRISM.
   1 Symmetry operations used in ECPInt.
 ECPInt:  NShTT=   53956 NPrTT=  216156 LenC2=   37012 LenP2D=   92185.
 LDataN:  DoStor=T MaxTD1= 4 Len=   56
 NBasis=   664 RedAO= T EigKep=  1.59D-04  NBF=   664
 NBsUse=   664 1.00D-06 EigRej= -1.00D+00 NBFU=   664
 Precomputing XC quadrature grid using
 IXCGrd= 4 IRadAn=           5 IRanWt=          -1 IRanGd=           0 AccXCQ= 0.00D+00.
 Generated NRdTot=       0 NPtTot=           0 NUsed=           0 NTot=          32
 NSgBfM=   632   620   622   625   632 MxSgAt=    80 MxSgA2=    80.
 Leave Link  302 at Mon Mar 24 05:03:39 2025, MaxMem= 13421772800 cpu:              27.7 elap:               0.9
 (Enter /public/software/apps/Gaussian/g16/l303.exe)
 DipDrv:  MaxL=1.
 Leave Link  303 at Mon Mar 24 05:03:40 2025, MaxMem= 13421772800 cpu:               2.4 elap:               0.1
 (Enter /public/software/apps/Gaussian/g16/l401.exe)
 ExpMin= 1.22D-01 ExpMax= 2.27D+03 ExpMxC= 3.41D+02 IAcc=3 IRadAn=         5 AccDes= 0.00D+00
 Harris functional with IExCor=  402 and IRadAn=       5 diagonalized for initial guess.
 HarFok:  IExCor=  402 AccDes= 0.00D+00 IRadAn=         5 IDoV= 1 UseB2=F ITyADJ=14
 ICtDFT=  3500011 ScaDFX=  1.000000  1.000000  1.000000  1.000000
 FoFCou: FMM=F IPFlag=           0 FMFlag=      100000 FMFlg1=        2001
         NFxFlg=           0 DoJE=T BraDBF=F KetDBF=T FulRan=T
         wScrn=  0.000000 ICntrl=       500 IOpCl=  0 I1Cent=   200000004 NGrid=           0
         NMat0=    1 NMatS0=      1 NMatT0=    0 NMatD0=    1 NMtDS0=    0 NMtDT0=    0
 Symmetry not used in FoFCou.
 Harris En= -1696.55891008026    
 JPrj=0 DoOrth=F DoCkMO=F.
 Leave Link  401 at Mon Mar 24 05:03:41 2025, MaxMem= 13421772800 cpu:              59.0 elap:               1.9
 (Enter /public/software/apps/Gaussian/g16/l502.exe)
 Two-electron integral symmetry not used.
 Closed shell SCF:
 Using DIIS extrapolation, IDIIS=  1040.
 NGot= 13421772800 LenX= 13420745320 LenY= 13420246178
 Requested convergence on RMS density matrix=1.00D-08 within 128 cycles.
 Requested convergence on MAX density matrix=1.00D-06.
 Requested convergence on             energy=1.00D-06.
 No special actions if energy rises.
 Fock matrices will be formed incrementally for  20 cycles.
 Integral accuracy reduced to 1.0D-05 until final iterations.

 Cycle   1  Pass 0  IDiag  1:
 FoFJK:  IHMeth= 1 ICntrl=       0 DoSepK=F KAlg= 0 I1Cent=           0 FoldK=F
 IRaf= 790000000 NMat=       1 IRICut=       1 DoRegI=T DoRafI=F ISym2E= 0 IDoP0=0 IntGTp=1.
 FoFCou: FMM=T IPFlag=           0 FMFlag=      100000 FMFlg1=        2001
         NFxFlg=           0 DoJE=F BraDBF=F KetDBF=F FulRan=T
         wScrn=  0.000000 ICntrl=         0 IOpCl=  0 I1Cent=           0 NGrid=           0
         NMat0=    1 NMatS0=      1 NMatT0=    0 NMatD0=    1 NMtDS0=    0 NMtDT0=    0
 Symmetry not used in FoFCou.
 FMM levels:  10  Number of levels for PrismC:   9
 E= -1695.54083874119    
 DIIS: error= 4.66D-02 at cycle   1 NSaved=   1.
 NSaved= 1 IEnMin= 1 EnMin= -1695.54083874119     IErMin= 1 ErrMin= 4.66D-02
 ErrMax= 4.66D-02  0.00D+00 EMaxC= 1.00D-01 BMatC= 8.52D-01 BMatP= 8.52D-01
 IDIUse=3 WtCom= 5.34D-01 WtEn= 4.66D-01
 Coeff-Com:  0.100D+01
 Coeff-En:   0.100D+01
 Coeff:      0.100D+01
 Gap=     0.169 Goal=   None    Shift=    0.000
 GapD=    0.169 DampG=1.000 DampE=0.500 DampFc=0.5000 IDamp=-1.
 Damping current iteration by 5.00D-01
 RMSDP=4.87D-03 MaxDP=1.77D-01              OVMax= 1.73D-01

 Cycle   2  Pass 0  IDiag  1:
 RMSU=  2.21D-03    CP:  9.38D-01
 E= -1695.99670986823     Delta-E=       -0.455871127041 Rises=F Damp=T
 DIIS: error= 4.60D-03 at cycle   2 NSaved=   2.
 NSaved= 2 IEnMin= 2 EnMin= -1695.99670986823     IErMin= 2 ErrMin= 4.60D-03
 ErrMax= 4.60D-03  0.00D+00 EMaxC= 1.00D-01 BMatC= 3.79D-02 BMatP= 8.52D-01
 IDIUse=3 WtCom= 9.54D-01 WtEn= 4.60D-02
 Coeff-Com:  0.315D-01 0.969D+00
 Coeff-En:   0.393D-01 0.961D+00
 Coeff:      0.318D-01 0.968D+00
 Gap=     0.174 Goal=   None    Shift=    0.000
 RMSDP=1.79D-03 MaxDP=1.19D-01 DE=-4.56D-01 OVMax= 1.39D-01

 Cycle   3  Pass 0  IDiag  1:
 RMSU=  1.63D-03    CP:  8.93D-01  1.04D+00
 E= -1696.47578664178     Delta-E=       -0.479076773551 Rises=F Damp=F
 DIIS: error= 6.73D-03 at cycle   3 NSaved=   3.
 NSaved= 3 IEnMin= 3 EnMin= -1696.47578664178     IErMin= 2 ErrMin= 4.60D-03
 ErrMax= 6.73D-03  0.00D+00 EMaxC= 1.00D-01 BMatC= 3.84D-02 BMatP= 3.79D-02
 IDIUse=3 WtCom= 9.33D-01 WtEn= 6.73D-02
 Coeff-Com: -0.199D-01 0.508D+00 0.512D+00
 Coeff-En:   0.000D+00 0.000D+00 0.100D+01
 Coeff:     -0.186D-01 0.474D+00 0.545D+00
 Gap=     0.161 Goal=   None    Shift=    0.000
 RMSDP=7.60D-04 MaxDP=4.63D-02 DE=-4.79D-01 OVMax= 9.49D-02

 Cycle   4  Pass 0  IDiag  1:
 RMSU=  6.13D-04    CP:  8.95D-01  1.13D+00  7.51D-01
 E= -1696.50416850184     Delta-E=       -0.028381860055 Rises=F Damp=F
 DIIS: error= 4.18D-03 at cycle   4 NSaved=   4.
 NSaved= 4 IEnMin= 4 EnMin= -1696.50416850184     IErMin= 4 ErrMin= 4.18D-03
 ErrMax= 4.18D-03  0.00D+00 EMaxC= 1.00D-01 BMatC= 1.34D-02 BMatP= 3.79D-02
 IDIUse=3 WtCom= 9.58D-01 WtEn= 4.18D-02
 Coeff-Com: -0.159D-01 0.147D+00 0.375D+00 0.493D+00
 Coeff-En:   0.000D+00 0.000D+00 0.303D+00 0.697D+00
 Coeff:     -0.152D-01 0.141D+00 0.372D+00 0.502D+00
 Gap=     0.153 Goal=   None    Shift=    0.000
 RMSDP=3.41D-04 MaxDP=2.69D-02 DE=-2.84D-02 OVMax= 4.52D-02

 Cycle   5  Pass 0  IDiag  1:
 RMSU=  1.76D-04    CP:  8.93D-01  1.11D+00  8.16D-01  5.66D-01
 E= -1696.51919790103     Delta-E=       -0.015029399195 Rises=F Damp=F
 DIIS: error= 8.05D-04 at cycle   5 NSaved=   5.
 NSaved= 5 IEnMin= 5 EnMin= -1696.51919790103     IErMin= 5 ErrMin= 8.05D-04
 ErrMax= 8.05D-04  0.00D+00 EMaxC= 1.00D-01 BMatC= 9.78D-04 BMatP= 1.34D-02
 IDIUse=3 WtCom= 9.92D-01 WtEn= 8.05D-03
 Coeff-Com: -0.737D-02 0.398D-01 0.174D+00 0.301D+00 0.493D+00
 Coeff-En:   0.000D+00 0.000D+00 0.000D+00 0.000D+00 0.100D+01
 Coeff:     -0.731D-02 0.395D-01 0.173D+00 0.298D+00 0.497D+00
 Gap=     0.152 Goal=   None    Shift=    0.000
 RMSDP=9.21D-05 MaxDP=4.01D-03 DE=-1.50D-02 OVMax= 1.35D-02

 Cycle   6  Pass 0  IDiag  1:
 RMSU=  7.02D-05    CP:  8.93D-01  1.11D+00  8.18D-01  5.98D-01  6.86D-01
 E= -1696.52012751599     Delta-E=       -0.000929614954 Rises=F Damp=F
 DIIS: error= 3.65D-04 at cycle   6 NSaved=   6.
 NSaved= 6 IEnMin= 6 EnMin= -1696.52012751599     IErMin= 6 ErrMin= 3.65D-04
 ErrMax= 3.65D-04  0.00D+00 EMaxC= 1.00D-01 BMatC= 1.59D-04 BMatP= 9.78D-04
 IDIUse=3 WtCom= 9.96D-01 WtEn= 3.65D-03
 Coeff-Com: -0.266D-02 0.663D-02 0.621D-01 0.128D+00 0.326D+00 0.480D+00
 Coeff-En:   0.000D+00 0.000D+00 0.000D+00 0.000D+00 0.129D+00 0.871D+00
 Coeff:     -0.265D-02 0.660D-02 0.619D-01 0.127D+00 0.325D+00 0.482D+00
 Gap=     0.152 Goal=   None    Shift=    0.000
 RMSDP=3.88D-05 MaxDP=1.60D-03 DE=-9.30D-04 OVMax= 5.33D-03

 Cycle   7  Pass 0  IDiag  1:
 RMSU=  2.92D-05    CP:  8.93D-01  1.11D+00  8.19D-01  5.97D-01  7.50D-01
                    CP:  6.75D-01
 E= -1696.52031965507     Delta-E=       -0.000192139086 Rises=F Damp=F
 DIIS: error= 1.05D-04 at cycle   7 NSaved=   7.
 NSaved= 7 IEnMin= 7 EnMin= -1696.52031965507     IErMin= 7 ErrMin= 1.05D-04
 ErrMax= 1.05D-04  0.00D+00 EMaxC= 1.00D-01 BMatC= 2.04D-05 BMatP= 1.59D-04
 IDIUse=3 WtCom= 9.99D-01 WtEn= 1.05D-03
 Coeff-Com: -0.855D-03-0.278D-03 0.192D-01 0.464D-01 0.150D+00 0.314D+00
 Coeff-Com:  0.472D+00
 Coeff-En:   0.000D+00 0.000D+00 0.000D+00 0.000D+00 0.000D+00 0.247D-01
 Coeff-En:   0.975D+00
 Coeff:     -0.854D-03-0.278D-03 0.192D-01 0.463D-01 0.149D+00 0.314D+00
 Coeff:      0.472D+00
 Gap=     0.152 Goal=   None    Shift=    0.000
 RMSDP=1.73D-05 MaxDP=9.02D-04 DE=-1.92D-04 OVMax= 1.18D-03

 Cycle   8  Pass 0  IDiag  1:
 RMSU=  1.56D-05    CP:  8.93D-01  1.11D+00  8.18D-01  5.98D-01  7.19D-01
                    CP:  7.38D-01  9.67D-01
 E= -1696.52035583274     Delta-E=       -0.000036177663 Rises=F Damp=F
 DIIS: error= 2.74D-05 at cycle   8 NSaved=   8.
 NSaved= 8 IEnMin= 8 EnMin= -1696.52035583274     IErMin= 8 ErrMin= 2.74D-05
 ErrMax= 2.74D-05  0.00D+00 EMaxC= 1.00D-01 BMatC= 1.12D-06 BMatP= 2.04D-05
 IDIUse=1 WtCom= 1.00D+00 WtEn= 0.00D+00
 Coeff-Com: -0.286D-03-0.534D-03 0.644D-02 0.169D-01 0.610D-01 0.143D+00
 Coeff-Com:  0.266D+00 0.507D+00
 Coeff:     -0.286D-03-0.534D-03 0.644D-02 0.169D-01 0.610D-01 0.143D+00
 Coeff:      0.266D+00 0.507D+00
 Gap=     0.152 Goal=   None    Shift=    0.000
 RMSDP=1.11D-05 MaxDP=3.98D-04 DE=-3.62D-05 OVMax= 2.51D-04

 Cycle   9  Pass 0  IDiag  1:
 RMSU=  9.26D-06    CP:  8.93D-01  1.11D+00  8.18D-01  5.98D-01  7.12D-01
                    CP:  7.36D-01  1.09D+00  1.29D+00
 E= -1696.52036154102     Delta-E=       -0.000005708289 Rises=F Damp=F
 DIIS: error= 1.75D-05 at cycle   9 NSaved=   9.
 NSaved= 9 IEnMin= 9 EnMin= -1696.52036154102     IErMin= 9 ErrMin= 1.75D-05
 ErrMax= 1.75D-05  0.00D+00 EMaxC= 1.00D-01 BMatC= 2.52D-07 BMatP= 1.12D-06
 IDIUse=1 WtCom= 1.00D+00 WtEn= 0.00D+00
 Coeff-Com: -0.714D-04-0.336D-03 0.175D-02 0.495D-02 0.204D-01 0.519D-01
 Coeff-Com:  0.109D+00 0.318D+00 0.495D+00
 Coeff:     -0.714D-04-0.336D-03 0.175D-02 0.495D-02 0.204D-01 0.519D-01
 Coeff:      0.109D+00 0.318D+00 0.495D+00
 Gap=     0.152 Goal=   None    Shift=    0.000
 RMSDP=1.18D-05 MaxDP=3.69D-04 DE=-5.71D-06 OVMax= 7.55D-05

 Cycle  10  Pass 0  IDiag  1:
 RMSU=  8.05D-06    CP:  8.93D-01  1.11D+00  8.18D-01  5.98D-01  7.08D-01
                    CP:  7.46D-01  1.22D+00  1.71D+00  1.43D+00
 E= -1696.52036302212     Delta-E=       -0.000001481098 Rises=F Damp=F
 DIIS: error= 2.56D-05 at cycle  10 NSaved=  10.
 NSaved=10 IEnMin=10 EnMin= -1696.52036302212     IErMin= 9 ErrMin= 1.75D-05
 ErrMax= 2.56D-05  0.00D+00 EMaxC= 1.00D-01 BMatC= 2.34D-07 BMatP= 2.52D-07
 IDIUse=1 WtCom= 1.00D+00 WtEn= 0.00D+00
 Coeff-Com: -0.727D-04-0.364D-03 0.181D-02 0.516D-02 0.214D-01 0.548D-01
 Coeff-Com:  0.116D+00 0.344D+00 0.555D+00-0.978D-01
 Coeff:     -0.727D-04-0.364D-03 0.181D-02 0.516D-02 0.214D-01 0.548D-01
 Coeff:      0.116D+00 0.344D+00 0.555D+00-0.978D-01
 Gap=     0.152 Goal=   None    Shift=    0.000
 RMSDP=2.73D-06 MaxDP=6.38D-05 DE=-1.48D-06 OVMax= 8.30D-06

 Initial convergence to 1.0D-05 achieved.  Increase integral accuracy.
 Cycle  11  Pass 1  IDiag  1:
 E= -1696.52007583038     Delta-E=        0.000287191740 Rises=F Damp=F
 DIIS: error= 5.61D-04 at cycle   1 NSaved=   1.
 NSaved= 1 IEnMin= 1 EnMin= -1696.52007583038     IErMin= 1 ErrMin= 5.61D-04
 ErrMax= 5.61D-04  0.00D+00 EMaxC= 1.00D-01 BMatC= 7.96D-05 BMatP= 7.96D-05
 IDIUse=3 WtCom= 9.94D-01 WtEn= 5.61D-03
 Coeff-Com:  0.100D+01
 Coeff-En:   0.100D+01
 Coeff:      0.100D+01
 Gap=     0.152 Goal=   None    Shift=    0.000
 RMSDP=2.73D-06 MaxDP=6.38D-05 DE= 2.87D-04 OVMax= 1.31D-03

 Cycle  12  Pass 1  IDiag  1:
 RMSU=  6.43D-04    CP:  9.96D-01
 E= -1696.52015730725     Delta-E=       -0.000081476869 Rises=F Damp=F
 DIIS: error= 9.36D-06 at cycle   2 NSaved=   2.
 NSaved= 2 IEnMin= 2 EnMin= -1696.52015730725     IErMin= 2 ErrMin= 9.36D-06
 ErrMax= 9.36D-06  0.00D+00 EMaxC= 1.00D-01 BMatC= 5.05D-08 BMatP= 7.96D-05
 IDIUse=1 WtCom= 1.00D+00 WtEn= 0.00D+00
 Coeff-Com: -0.851D-02 0.101D+01
 Coeff:     -0.851D-02 0.101D+01
 Gap=     0.152 Goal=   None    Shift=    0.000
 RMSDP=8.13D-06 MaxDP=2.55D-04 DE=-8.15D-05 OVMax= 1.59D-04

 Cycle  13  Pass 1  IDiag  1:
 RMSU=  2.76D-06    CP:  9.96D-01  1.01D+00
 E= -1696.52015721269     Delta-E=        0.000000094563 Rises=F Damp=F
 DIIS: error= 1.70D-05 at cycle   3 NSaved=   3.
 NSaved= 3 IEnMin= 2 EnMin= -1696.52015730725     IErMin= 2 ErrMin= 9.36D-06
 ErrMax= 1.70D-05  0.00D+00 EMaxC= 1.00D-01 BMatC= 1.44D-07 BMatP= 5.05D-08
 IDIUse=1 WtCom= 1.00D+00 WtEn= 0.00D+00
 Coeff-Com: -0.604D-02 0.652D+00 0.354D+00
 Coeff:     -0.604D-02 0.652D+00 0.354D+00
 Gap=     0.152 Goal=   None    Shift=    0.000
 RMSDP=9.24D-07 MaxDP=3.79D-05 DE= 9.46D-08 OVMax= 1.17D-04

 Cycle  14  Pass 1  IDiag  1:
 RMSU=  8.22D-07    CP:  9.96D-01  1.01D+00  8.50D-01
 E= -1696.52015736476     Delta-E=       -0.000000152075 Rises=F Damp=F
 DIIS: error= 1.19D-06 at cycle   4 NSaved=   4.
 NSaved= 4 IEnMin= 4 EnMin= -1696.52015736476     IErMin= 4 ErrMin= 1.19D-06
 ErrMax= 1.19D-06  0.00D+00 EMaxC= 1.00D-01 BMatC= 2.24D-09 BMatP= 5.05D-08
 IDIUse=1 WtCom= 1.00D+00 WtEn= 0.00D+00
 Coeff-Com: -0.262D-02 0.279D+00 0.178D+00 0.545D+00
 Coeff:     -0.262D-02 0.279D+00 0.178D+00 0.545D+00
 Gap=     0.152 Goal=   None    Shift=    0.000
 RMSDP=1.70D-07 MaxDP=9.36D-06 DE=-1.52D-07 OVMax= 2.02D-05

 Cycle  15  Pass 1  IDiag  1:
 RMSU=  1.44D-07    CP:  9.96D-01  1.01D+00  8.71D-01  9.22D-01
 E= -1696.52015736648     Delta-E=       -0.000000001715 Rises=F Damp=F
 DIIS: error= 8.50D-07 at cycle   5 NSaved=   5.
 NSaved= 5 IEnMin= 5 EnMin= -1696.52015736648     IErMin= 5 ErrMin= 8.50D-07
 ErrMax= 8.50D-07  0.00D+00 EMaxC= 1.00D-01 BMatC= 7.55D-10 BMatP= 2.24D-09
 IDIUse=1 WtCom= 1.00D+00 WtEn= 0.00D+00
 Coeff-Com: -0.409D-03 0.417D-01 0.416D-01 0.377D+00 0.540D+00
 Coeff:     -0.409D-03 0.417D-01 0.416D-01 0.377D+00 0.540D+00
 Gap=     0.152 Goal=   None    Shift=    0.000
 RMSDP=8.80D-08 MaxDP=7.73D-06 DE=-1.72D-09 OVMax= 1.17D-05

 Cycle  16  Pass 1  IDiag  1:
 RMSU=  6.07D-08    CP:  9.96D-01  1.01D+00  8.77D-01  9.41D-01  6.05D-01
 E= -1696.52015736713     Delta-E=       -0.000000000655 Rises=F Damp=F
 DIIS: error= 3.82D-07 at cycle   6 NSaved=   6.
 NSaved= 6 IEnMin= 6 EnMin= -1696.52015736713     IErMin= 6 ErrMin= 3.82D-07
 ErrMax= 3.82D-07  0.00D+00 EMaxC= 1.00D-01 BMatC= 1.33D-10 BMatP= 7.55D-10
 IDIUse=1 WtCom= 1.00D+00 WtEn= 0.00D+00
 Coeff-Com: -0.757D-05-0.593D-03 0.964D-02 0.201D+00 0.374D+00 0.415D+00
 Coeff:     -0.757D-05-0.593D-03 0.964D-02 0.201D+00 0.374D+00 0.415D+00
 Gap=     0.152 Goal=   None    Shift=    0.000
 RMSDP=3.12D-08 MaxDP=1.70D-06 DE=-6.55D-10 OVMax= 4.20D-06

 Cycle  17  Pass 1  IDiag  1:
 RMSU=  1.44D-08    CP:  9.96D-01  1.01D+00  8.78D-01  9.48D-01  6.69D-01
                    CP:  5.84D-01
 E= -1696.52015736728     Delta-E=       -0.000000000145 Rises=F Damp=F
 DIIS: error= 3.76D-08 at cycle   7 NSaved=   7.
 NSaved= 7 IEnMin= 7 EnMin= -1696.52015736728     IErMin= 7 ErrMin= 3.76D-08
 ErrMax= 3.76D-08  0.00D+00 EMaxC= 1.00D-01 BMatC= 3.44D-12 BMatP= 1.33D-10
 IDIUse=1 WtCom= 1.00D+00 WtEn= 0.00D+00
 Coeff-Com:  0.216D-04-0.296D-02 0.269D-02 0.865D-01 0.171D+00 0.220D+00
 Coeff-Com:  0.522D+00
 Coeff:      0.216D-04-0.296D-02 0.269D-02 0.865D-01 0.171D+00 0.220D+00
 Coeff:      0.522D+00
 Gap=     0.152 Goal=   None    Shift=    0.000
 RMSDP=4.86D-09 MaxDP=1.79D-07 DE=-1.45D-10 OVMax= 4.99D-07

 SCF Done:  E(RB3LYP) =  -1696.52015737     A.U. after   17 cycles
            NFock= 17  Conv=0.49D-08     -V/T= 2.0097
 KE= 1.680297611875D+03 PE=-1.277790628491D+04 EE= 4.977478446136D+03
 Leave Link  502 at Mon Mar 24 05:04:35 2025, MaxMem= 13421772800 cpu:            1699.1 elap:              54.0
 (Enter /public/software/apps/Gaussian/g16/l601.exe)
 Copying SCF densities to generalized density rwf, IOpCl= 0 IROHF=0.

 **********************************************************************

            Population analysis using the SCF Density.

 **********************************************************************

 Alpha  occ. eigenvalues --  -19.16081 -19.16072 -10.25236 -10.25222 -10.20128
 Alpha  occ. eigenvalues --  -10.20121 -10.20052 -10.20052 -10.19968 -10.19955
 Alpha  occ. eigenvalues --  -10.19382 -10.19381 -10.19326 -10.19306 -10.19292
 Alpha  occ. eigenvalues --  -10.19283 -10.19072 -10.19070 -10.18504 -10.18500
 Alpha  occ. eigenvalues --  -10.18482 -10.18465 -10.18461 -10.18439 -10.18430
 Alpha  occ. eigenvalues --  -10.18379 -10.18333 -10.18327 -10.18254 -10.18212
 Alpha  occ. eigenvalues --  -10.18207 -10.18194 -10.18185 -10.18169 -10.18166
 Alpha  occ. eigenvalues --  -10.18158 -10.16856 -10.16845 -10.16842 -10.16829
 Alpha  occ. eigenvalues --  -10.16826 -10.16823  -1.05538  -1.05255  -0.88619
 Alpha  occ. eigenvalues --   -0.87970  -0.86451  -0.86159  -0.82785  -0.82778
 Alpha  occ. eigenvalues --   -0.82153  -0.81166  -0.79620  -0.76933  -0.74685
 Alpha  occ. eigenvalues --   -0.74634  -0.73954  -0.73817  -0.73763  -0.73732
 Alpha  occ. eigenvalues --   -0.72061  -0.69556  -0.68553  -0.68535  -0.68469
 Alpha  occ. eigenvalues --   -0.68462  -0.65654  -0.63640  -0.62058  -0.61986
 Alpha  occ. eigenvalues --   -0.61844  -0.61459  -0.60146  -0.60042  -0.59229
 Alpha  occ. eigenvalues --   -0.57718  -0.55382  -0.55195  -0.55188  -0.55104
[...]
 0.00006162,-0.00002888,-0.00012593,-0.00496436,0.00091331,0.00215393,-
 0.00055454,0.00077708,0.00032639,-0.00105492,0.00225667,0.00200121,0.0
 1031728,0.01318280,0.00558359,0.00091145,0.00050407,-0.00039561,-0.000
 10231,0.00007908,-0.00013173,0.00009252,0.00015230,-0.00001097,0.00003
 549,-0.00005923,0.00002430,0.00002759,-0.00011124,0.00007972,-0.000020
 62,-0.00001210,-0.00000535,-0.00000511,0.00001354,0.00001268,0.0000346
 7,-0.00001066,-0.00000804,0.00000387,-0.00000201,-0.00000413,-0.000004
 35,-0.00000600,-0.00000353,-0.00000805,0.00000001,-0.00000107,0.000004
 81,-0.00000105,-0.00000317,0.00000234,0.00000157,-0.00000184,-0.000001
 89,0.00000004,-0.00000064,-0.00000434,-0.00000071,0.00000103,0.0000014
 8,-0.00000006,0.00000119,0.00000229,0.00000170,-0.00000048,0.00000266,
 -0.00000128,-0.00000069,0.00000165,-0.00000066,0.00000170,0.00000430,0
 .00000186,0.00000366,0.00001291,0.00000071,-0.00000069,0.00000044,-0.0
 0000231,-0.00000163,0.00000635,-0.00000063,0.00000078,-0.00000437,0.00
 000516,0.00000411,-0.00000014,-0.00001156,-0.00001159,0.00000436,0.000
 02559,0.00001920,-0.00010508,0.00000807,-0.00023051,-0.00002360,-0.000
 04887,0.00007482,-0.00007220,0.00000268,-0.00006130,-0.00001668,0.0000
 6941,-0.00003747,0.00009423,-0.00019903,0.00099705,0.00006778,0.000114
 76,0.00009187,-0.12496786,-0.11190923,-0.04197211,-0.01073120,-0.02644
 099,-0.01040191,-0.00000388,0.00000612,-0.00001306,-0.00003906,0.00002
 818,-0.00001471,0.00000885,0.00003670,0.00000434,0.00002088,-0.0000083
 8,0.00001246,-0.00009417,-0.00013547,-0.00005765,0.00001326,-0.0000025
 3,-0.00002175,0.00000086,-0.00000284,0.00001257,-0.00003258,0.00000973
 ,0.00003664,0.00002121,0.00003877,0.00002358,-0.00002123,-0.00002154,-
 0.00015354,0.00048293,0.00074599,0.00028567,0.00000453,-0.00000970,0.0
 0000609,-0.00001357,0.00000286,-0.00000694,-0.00004123,-0.00000794,-0.
 00000539,0.00000241,0.00000097,0.00000147,-0.00000150,-0.00000003,-0.0
 0000179,0.00000129,-0.00000006,0.00000159,-0.00000082,0.00000051,0.000
 00025,0.00000185,0.00000011,0.00000019,-0.00000078,-0.00000049,-0.0000
 0003,0.00000219,-0.00000059,0.00000054,-0.00000077,0.00000044,0.000000
 02,-0.00000084,0.00000018,-0.00000063,-0.00000080,-0.00000032,-0.00000
 061,-0.00000076,-0.00000029,-0.00000028,0.00000210,0.00000086,0.000000
 70,0.00000081,-0.00000008,-0.00000106,-0.00000152,-0.00000088,0.000001
 70,0.00000215,-0.00000198,-0.00000065,0.00000213,-0.00000175,-0.000001
 10,-0.00000041,-0.00000151,-0.00000207,0.00000205,0.00000701,0.0000074
 5,0.00001033,0.00001682,0.00000480,-0.00000453,-0.00000033,-0.00001483
 ,0.00001466,0.00004167,-0.00000219,-0.00033770,-0.00008358,0.00031192,
 0.13012064,-0.00000350,-0.00006118,0.00003428,0.00020088,0.00001490,-0
 .00012368,-0.00003631,0.00002973,0.00007172,-0.00010787,0.00002705,0.0
 0001839,-0.00016627,0.00269077,-0.00225950,0.00072848,0.00032509,0.000
 32514,0.00333020,-0.00109903,-0.00387953,-0.01286217,-0.01488340,-0.00
 638692,-0.00176477,-0.00016055,0.00172553,0.00071010,-0.00012271,0.000
 20650,-0.00023219,-0.00030349,0.00004105,0.00000423,0.00010963,-0.0000
 3981,0.00002801,0.00018602,-0.00010295,0.00000732,0.00004233,0.0000177
 5,0.00003717,-0.00004470,-0.00003617,-0.00005006,0.00003793,0.00003617
 ,-0.00001062,0.00000909,0.00000859,0.00000594,0.00000062,-0.00000040,0
 .00000659,0.00000073,0.00000151,-0.00000356,0.00000162,0.00000176,-0.0
 0000246,-0.00000113,0.00000211,0.00000224,0.00000019,0.00000085,0.0000
 0440,0.00000037,-0.00000113,-0.00000143,-0.00000002,-0.00000121,-0.000
 00212,-0.00000179,0.00000030,-0.00000243,0.00000117,0.00000055,-0.0000
 0186,0.00000091,-0.00000155,-0.00000383,-0.00000133,-0.00000331,-0.000
 01190,0.00000165,0.00000395,0.00000261,0.00000010,-0.00000001,-0.00000
 536,0.00000365,0.00000193,0.00000274,-0.00000608,-0.00000609,-0.000004
 17,0.00001403,0.00001199,0.00000233,-0.00002805,-0.00002352,0.00036570
 ,-0.00010513,-0.00012381,-0.00002677,-0.00003304,0.00002861,-0.0000632
 4,-0.00004053,-0.00003269,-0.00005870,0.00011063,0.00000828,0.00012500
 ,0.00027476,0.00061208,-0.00005225,0.00015931,0.00009892,-0.11125210,-
 0.23778197,-0.08001183,0.00154130,0.00258228,-0.00081731,0.00001032,-0
 .00000471,0.00000247,-0.00002561,0.00001579,-0.00000214,0.00003002,0.0
 0000214,0.00000566,0.00000357,-0.00001285,-0.00001357,-0.00001264,-0.0
 0001956,0.00001861,0.00001588,0.00000770,0.00001051,0.00000136,-0.0000
 1787,-0.00000141,-0.00001832,-0.00001059,0.00002913,-0.00000736,-0.000
 01944,-0.00001808,-0.00002263,-0.00019236,0.00036800,-0.00070266,-0.00
 078738,-0.00038582,-0.00003095,0.00001585,-0.00004945,0.00002138,-0.00
 001635,0.00000030,0.00004664,-0.00000187,-0.00001562,0.00000058,-0.000
 00082,-0.00000133,0.00000122,-0.00000055,0.00000179,-0.00000066,-0.000
 00023,-0.00000151,0.00000090,-0.00000025,0.,-0.00000196,-0.00000019,-0
 .00000028,0.00000080,0.00000053,-0.00000008,-0.00000232,0.00000051,-0.
 00000063,0.00000086,-0.00000017,0.00000018,0.00000078,-0.00000028,0.00
 000079,0.00000077,0.00000011,0.00000098,0.00000082,0.00000051,0.,-0.00
 000222,-0.00000079,-0.00000069,-0.00000078,-0.00000023,0.00000114,0.00
 000155,0.00000028,-0.00000144,-0.00000189,0.00000147,0.00000060,-0.000
 00235,0.00000175,0.00000133,-0.00000027,0.00000285,0.00000365,-0.00000
 237,-0.00000936,-0.00000758,-0.00000452,0.00000662,0.00002522,-0.00001
 542,-0.00001131,-0.00000681,0.00000043,-0.00001174,0.00001854,-0.00052
 777,0.00003762,0.00022071,0.12086339,0.24904878,-0.00013964,0.00009550
 ,0.00000295,0.00013267,0.00007511,0.00025229,0.00002612,0.00004322,-0.
 00010103,0.00005725,-0.00003881,-0.00008484,0.00168001,-0.00231400,0.0
 0617898,0.00039041,0.00027150,-0.00056291,0.00240853,-0.00358251,0.004
 24740,-0.00776850,-0.00978448,0.00000083,-0.00035148,0.00151255,-0.002
 74827,-0.00046055,0.00015271,0.00006102,0.00009092,0.00002171,0.000099
 39,-0.00013429,0.00015374,-0.00010997,0.00005500,0.00003879,-0.0000367
 1,0.00000665,0.00001847,-0.00001482,0.00000231,0.00000469,0.00001759,-
 0.00000436,0.00001260,-0.00004463,0.00000628,0.00000278,0.00000148,0.0
 0000388,0.00000860,0.00000474,0.00000845,0.,-0.00000002,-0.00000568,0.
 00000102,0.00000468,-0.00000229,-0.00000128,0.00000131,0.00000214,0.00
 000018,0.00000042,0.00000433,0.00000046,-0.00000108,-0.00000134,-0.000
 00023,-0.00000099,-0.00000233,-0.00000185,0.00000064,-0.00000266,0.000
 00094,0.00000103,-0.00000141,0.00000133,-0.00000238,-0.00000363,-0.000
 00129,-0.00000176,-0.00001003,-0.00000725,-0.00000123,0.00000029,0.000
 00345,0.00000229,-0.00000606,-0.00000020,-0.00000265,0.00000602,-0.000
 00532,-0.00000688,0.00000252,0.00001149,0.00000807,0.00000443,-0.00002
 070,-0.00002478,0.00004630,0.00019403,0.00014794,-0.00007889,-0.000083
 06,0.00000958,-0.00005646,0.00004217,-0.00006832,-0.00000454,0.0002359
 9,-0.00012371,0.00025577,0.00001274,0.00001707,0.00072027,-0.00052172,
 0.00002170,-0.04118848,-0.07951312,-0.06970750,0.00283516,0.00298840,0
 .00486681,-0.00000531,-0.00001280,-0.00001414,-0.00000898,-0.00000288,
 -0.00002316,-0.00003251,-0.00004333,-0.00001021,0.00001427,0.00003244,
 0.00000364,-0.00000328,0.00003554,-0.00003880,-0.00000801,-0.00003007,
 -0.00000569,0.00001036,0.00001406,-0.00000979,-0.00001174,0.00001612,-
 0.00000357,0.00004071,0.00002202,0.00000008,-0.00013690,0.00036411,-0.
 00081060,-0.00036709,-0.00059096,0.00011861,-0.00003672,0.00002389,-0.
 00006523,0.00002213,-0.00000337,-0.00000201,0.00000408,-0.00001028,0.0
 0006683,-0.00000226,-0.00000251,0.00000076,0.00000169,-0.00000016,0.00
 000137,-0.00000176,-0.00000016,-0.00000174,0.00000089,-0.00000058,-0.0
 0000020,-0.00000191,-0.00000018,-0.00000024,0.00000070,0.00000094,-0.0
 0000018,-0.00000230,0.00000062,-0.00000053,0.00000074,-0.00000034,0.00
 000019,0.00000097,-0.00000021,0.00000025,0.00000096,0.00000033,0.00000
 038,0.00000064,0.00000066,0.00000012,-0.00000216,-0.00000090,-0.000000
 62,-0.00000020,-0.00000028,0.00000091,0.00000160,-0.00000004,-0.000002
 40,-0.00000193,0.00000108,0.00000113,-0.00000236,0.00000114,0.00000184
 ,0.00000037,0.00000043,0.00000292,-0.00000171,-0.00000856,-0.00000481,
 -0.00000300,0.00000023,-0.00001590,-0.00004130,-0.00001170,0.00000928,
 0.00001160,-0.00000129,0.00001319,0.00017547,-0.00010890,-0.00128826,0
 .04258376,0.08829955,0.06318534,-0.00090176,-0.00015687,-0.00039061,-0
 .00003058,0.00056761,-0.00019073,0.00018350,-0.00002217,-0.00006603,-0
 .00076353,-0.00042893,0.00035108,0.01195566,-0.01164049,-0.00638355,-0
 .00115866,-0.00310835,-0.00036447,-0.00059784,-0.00075571,-0.00038512,
 -0.00513314,-0.00190905,0.00096399,0.00012503,0.00123607,0.00047689,-0
 .00032543,-0.00009729,0.00006201,0.00008091,-0.00002807,-0.00010305,-0
 .00008364,0.00002589,-0.00002100,-0.00004854,0.00000350,-0.00000932,0.
 00002433,-0.00000167,0.00001121,-0.00002675,0.00003386,0.00002540,0.00
 000082,-0.00003744,-0.00003240,0.00000804,-0.00000633,-0.00000298,0.00
 000196,0.00001049,0.00000788,0.00000776,-0.00000080,0.00000032,-0.0000
 0477,0.00000049,0.00000340,-0.00000193,-0.00000160,0.00000125,0.000001
 34,-0.00000013,0.00000040,0.00000359,0.00000076,-0.00000079,-0.0000012
 6,0.00000008,-0.00000099,-0.00000199,-0.00000139,0.00000046,-0.0000023
 6,0.00000116,0.00000065,-0.00000124,0.00000052,-0.00000156,-0.00000379
 ,-0.00000189,-0.00000300,-0.00001096,-0.00000289,-0.00000270,-0.000003
 56,0.00000420,0.00000296,-0.00000648,-0.00000205,-0.00000307,0.0000050
 3,-0.00000535,-0.00000362,0.00000552,0.00000837,0.00000978,-0.00001291
 ,-0.00002265,-0.00001596,-0.00000639,-0.00003864,0.00000071,0.00000410
 ,0.00000704,-0.00000686,0.00000972,-0.00001610,0.00001623,-0.00000767,
 -0.00003932,0.00000293,-0.00003917,0.00001731,-0.00000506,-0.00006203,
 -0.00000040,-0.00009689,-0.01111562,0.02599717,0.01416971,-0.11750747,
 0.09847799,0.05615064,0.00005736,0.00003157,0.00005907,0.00010586,0.00
 005849,0.00010688,-0.00123618,-0.00013631,-0.00088043,0.00002611,0.000
 06856,-0.00000804,0.00005187,0.00005237,0.00002225,0.00002486,0.000031
 15,0.00004678,0.00007168,0.00009028,-0.00001775,0.00004686,0.00005296,
 -0.00008735,-0.00084957,-0.00084190,0.00062236,0.00050471,-0.00074287,
 -0.00035083,-0.00002664,0.00012547,-0.00008180,0.00001921,0.00002869,0
 .00003306,0.00000822,0.00000710,0.00000372,0.00000791,0.00003893,0.000
 03494,-0.00000502,-0.00000063,-0.00000126,0.00000139,0.00000046,0.0000
 0144,-0.00000140,0.00000024,-0.00000135,0.00000065,-0.00000055,-0.0000
 0032,-0.00000146,-0.00000006,-0.00000011,0.00000063,0.00000040,0.00000
 008,-0.00000175,0.00000053,-0.00000041,0.00000061,-0.00000050,-0.00000
 010,0.00000072,-0.00000009,0.00000045,0.00000066,0.00000039,0.00000030
 ,0.00000057,0.00000012,0.00000040,-0.00000165,-0.00000077,-0.00000060,
 -0.00000066,0.00000021,0.00000084,0.00000132,0.00000102,-0.00000160,-0
 .00000198,0.00000209,0.00000065,-0.00000201,0.00000148,0.00000081,0.00
 000076,0.00000048,0.00000103,-0.00000157,-0.00000570,-0.00000760,-0.00
 000675,-0.00000744,0.00000367,-0.00000264,-0.00000375,0.00000626,-0.00
 000404,-0.00001562,0.00001676,0.00001502,0.00005655,-0.00000664,0.0011
 4535,0.00000212,-0.00072257,0.12549319,0.00021011,-0.00039389,0.000003
 38,0.00186923,-0.00058757,0.00099396,-0.00013673,0.00010062,0.00019857
 ,-0.00011038,-0.00059211,-0.00047509,0.01351469,-0.01509311,-0.0105803
 9,-0.00423571,-0.00187603,-0.00318233,-0.00072534,0.00010737,0.0004631
 5,-0.00087486,0.00258191,-0.00200253,-0.00031169,0.00008415,0.00001709
 ,0.00001468,0.00001725,-0.00003028,-0.00007276,0.00002305,-0.00006393,
 0.00005308,-0.00004130,0.00003292,0.00002052,-0.00001475,0.00001791,-0
 .00001485,-0.00000329,-0.00000397,0.00000276,-0.00000422,-0.00000491,0
 .00001565,0.00000364,0.00001136,-0.00000019,0.00000094,-0.00000002,-0.
 00000498,-0.00000696,-0.00000448,-0.00000737,0.00000052,-0.00000043,0.
 00000447,-0.00000101,-0.00000319,0.00000230,0.00000128,-0.00000173,-0.
 00000219,-0.00000013,-0.00000054,-0.00000421,-0.00000053,0.00000107,0.
 00000133,0.,0.00000103,0.00000215,0.00000164,-0.00000055,0.00000247,-0
 .00000111,-0.00000078,0.00000148,-0.00000076,0.00000186,0.00000367,0.0
 0000167,0.00000272,0.00001038,0.00000226,0.00000143,0.00000173,-0.0000
 0277,-0.00000210,0.00000460,0.00000161,0.00000252,-0.00000392,0.000003
 52,0.00000289,-0.00000530,-0.00000704,-0.00000746,0.00000616,0.0000176
 8,0.00001379,-0.00000696,0.00003337,-0.00001076,0.00000431,-0.00001472
 ,0.00000905,-0.00002146,0.00000951,-0.00000849,0.00003452,0.00000818,-
 0.00000375,-0.00002115,-0.00001825,0.00001428,0.00007751,0.00000764,-0
 .00000026,-0.00272597,0.00419902,0.00043126,0.09910693,-0.22157075,-0.
 09830003,0.00010897,0.00010895,0.00013919,-0.00001941,0.00020156,0.000
 00062,0.00018477,0.00080038,0.00013827,0.00003764,0.00008752,-0.000072
 81,-0.00012022,0.00001670,0.00000369,0.00009210,0.00005367,0.00012229,
 0.00001612,0.00012689,-0.00004873,0.00016160,0.00041438,0.00029286,-0.
 00053324,0.00060254,0.00084401,0.00081680,-0.00081466,-0.00054744,0.00
 013100,-0.00017495,0.00035026,-0.00002239,0.00000990,0.00000788,-0.000
 01456,0.00000329,-0.00000054,-0.00001429,-0.00001283,-0.00002043,0.000
 00228,0.00000130,0.00000093,-0.00000141,0.00000010,-0.00000160,0.00000
 122,0.00000005,0.00000158,-0.00000086,0.00000050,0.00000020,0.00000190
 ,0.00000016,0.00000025,-0.00000075,-0.00000064,0.00000007,0.00000228,-
 0.00000053,0.00000053,-0.00000079,0.00000037,-0.00000004,-0.00000089,0
 .00000019,-0.00000054,-0.00000085,-0.00000025,-0.00000061,-0.00000072,
 -0.00000045,-0.00000012,0.00000216,0.00000084,0.00000064,0.00000050,0.
 00000004,-0.00000101,-0.00000140,-0.00000071,0.00000184,0.00000198,-0.
 00000150,-0.00000056,0.00000199,-0.00000153,-0.00000115,-0.00000138,0.
 00000002,-0.00000062,0.00000106,0.00000407,0.00000512,0.00000518,0.000
 00361,-0.00000247,0.00000505,0.00000398,-0.00000281,-0.00000141,0.0000
 0384,-0.00000027,0.00000085,-0.00001335,0.00002544,0.00044274,0.000025
 97,0.00198801,-0.10696237,0.23157405,-0.00016296,-0.00062493,-0.000090
 65,0.00043633,0.00111384,-0.00272983,-0.00012500,0.00017916,-0.0001903
 0,0.00044550,0.00024567,-0.00009963,0.00527323,-0.00658881,0.00010148,
 -0.00070588,-0.00338490,0.00476692,-0.00050761,0.00054086,-0.00040801,
 0.00095568,-0.00181097,0.00638487,0.00013229,-0.00021651,0.00016948,0.
 00011705,0.00001151,-0.00007728,0.00000489,0.00002634,0.00005150,0.000
 01685,0.00000411,-0.00000727,-0.00000256,0.00002101,-0.00000863,-0.000
 00233,-0.00000232,-0.00001403,-0.00000318,-0.00000157,0.00000372,0.000
 01020,0.00000415,-0.00000484,0.00000145,-0.00000009,-0.00000151,-0.000
 00261,-0.00000260,-0.00000177,-0.00000311,0.00000029,-0.00000054,0.000
 00147,-0.00000050,-0.00000069,0.00000127,0.00000073,-0.00000100,-0.000
 00103,0.00000001,-0.00000040,-0.00000206,-0.00000035,0.00000057,0.0000
 0069,-0.00000011,0.00000059,0.00000097,0.00000074,-0.00000013,0.000001
 14,-0.00000068,-0.00000018,0.00000074,-0.00000018,0.00000068,0.0000018
 8,0.00000095,0.00000181,0.00000513,0.00000024,0.00000062,0.00000058,-0
 .00000097,-0.00000097,0.00000223,0.00000080,0.00000045,-0.00000179,0.0
 0000225,0.00000084,-0.00000201,-0.00000297,-0.00000455,0.00000317,0.00
 001149,0.00000605,0.00001578,-0.00002516,-0.00000549,-0.00000637,0.000
 03205,-0.00001623,0.00003838,-0.00000139,0.00001466,-0.00004847,-0.000
 02684,0.00001763,0.00008660,0.00005043,-0.00008976,-0.00003348,-0.0001
 2317,-0.00000042,0.00109842,-0.00359604,0.00216471,0.05606278,-0.09860
 363,-0.09047734,-0.00005012,-0.00002880,0.00003715,0.00017291,0.000483
 87,0.00009481,-0.00086817,0.00060968,-0.00000619,0.00005515,0.00009135
 ,-0.00001288,-0.00005648,-0.00001813,0.00004181,-0.00000369,-0.0000403
 5,0.00002544,0.00008936,0.00012340,0.00000448,-0.00014496,-0.00018406,
 -0.00003524,0.00092068,0.00046376,-0.00020399,0.00033172,-0.00036777,0
 .00001530,-0.00006307,0.00032379,-0.00080681,0.00002104,0.00000305,-0.
 00003866,-0.00000300,-0.00000171,0.00000260,-0.00000792,-0.00001059,0.
 00000021,0.00000063,0.00000011,0.00000105,-0.00000045,-0.00000005,-0.0
 0000089,0.00000022,-0.00000006,0.00000067,-0.00000041,0.00000014,0.000
 00007,0.00000093,0.00000005,0.00000014,-0.00000043,-0.00000007,-0.0000
 0006,0.00000107,-0.00000022,0.00000030,-0.00000043,0.00000017,0.000000
 06,-0.00000032,0.00000009,-0.00000052,-0.00000030,-0.00000008,-0.00000
 050,-0.00000044,-0.00000006,-0.00000010,0.00000104,0.00000036,0.000000
 37,0.00000050,-0.00000008,-0.00000059,-0.00000073,-0.00000056,0.000000
 60,0.00000087,-0.00000092,0.00000005,0.00000092,-0.00000103,-0.0000001
 9,-0.00000069,-0.00000063,0.00000008,0.00000014,0.00000128,0.00000319,
 0.00000064,0.00000352,-0.00000061,0.00000063,0.00000209,-0.00000098,0.
 00000605,0.00000873,-0.00001808,0.00001997,-0.00002872,0.00002780,-0.0
 0056602,0.00209072,-0.00341253,-0.06296112,0.10924581,0.08482751\\0.00
 000012,-0.00000184,-0.00000067,-0.00000735,-0.00000143,0.00000231,0.00
 000422,0.00000631,0.00000273,-0.00000009,-0.00000114,-0.00000314,0.000
 00424,-0.00000522,-0.00000143,-0.00000552,0.00000026,0.00000050,0.0000
 0433,-0.00000079,-0.00000432,-0.00000011,0.00000118,0.00000070,0.00000
 035,-0.00000497,0.00000085,-0.00000542,0.00000762,-0.00000052,0.000004
 00,-0.00001224,0.00000627,-0.00000009,0.00000463,-0.00000709,0.0000107
 2,0.00000215,-0.00000550,-0.00000970,0.00000331,-0.00000354,-0.0000045
 7,0.00000825,0.00000784,-0.00000087,-0.00000305,-0.00000832,0.00000660
 ,-0.00000605,-0.00000459,-0.00000071,0.00000723,0.00000368,0.00000080,
 -0.00000115,0.00000066,-0.00000383,-0.00000199,0.00000214,0.00000350,-
 0.00000029,0.00000270,-0.00000576,0.00000131,-0.00000004,0.00000826,-0
 .00000035,-0.00000026,-0.00000404,-0.00000072,0.00000695,-0.00000027,0
 .00000222,-0.00000302,0.00000003,-0.00000103,-0.00000117,0.00000168,0.
 00000016,-0.00000258,-0.00000143,0.00000033,-0.00000243,-0.00000053,-0
 .00000774,-0.00000445,0.00000225,0.00000708,0.00000505,-0.00000451,-0.
 00000364,-0.00000565,0.00000515,-0.00000439,-0.00000300,-0.00000348,0.
 00000627,0.00000186,0.00000436,-0.00000144,0.00000132,-0.00000499,-0.0
 0000121,0.00000165,0.00000347,-0.00000604,0.00000450,-0.00000476,0.000
 00605,-0.00000123,0.00000444,0.00000502,-0.00000464,-0.00000277,-0.000
 00763,0.00000748,0.00000100,0.00000630,-0.00000218,0.00000076,0.000001
 33,-0.00000006,0.00000037,0.00000457,0.00000188,-0.00000086,0.00000063
 ,0.00000132,0.00000077,0.00000079,-0.00000097,-0.00000054,-0.00000219,
 0.00000002,-0.00000035,0.00000088,-0.00000101,0.00000089,-0.00000104,-
 0.00000098,-0.00000013,0.00000019,0.00000044,-0.00000094,0.00000030,0.
 00000007,0.00000127,-0.00000075,0.00000116,-0.00000148,-0.00000335,-0.
 00000035,-0.00000013,-0.00000057,-0.00000129,0.00000016,-0.00000040,0.
 00000043,0.00000105,-0.00000209,-0.00000031,-0.00000432,-0.00000128,0.
 00000271,0.00000426,0.00000023,0.00000414,-0.00000129,0.00000007,0.000
 00235,-0.00000014,0.00000042,-0.00000021,-0.00000108,-0.00000140,-0.00
 000122,0.00000014,0.00000117,0.00000064,-0.00000074,0.00000035,-0.0000
 0096,0.00000064,-0.00000052,0.00000113,-0.00000089,-0.00000166,0.00000
 028,0.00000086,0.00000052,0.00000079,0.00000082,0.,-0.00000192,0.00000
 137,0.00000004,-0.00000225,0.00000083,-0.00000060,0.00000155,-0.000001
 19,0.00000101,0.00000068,0.00000057,0.00000006,0.00000003,-0.00000017,
 0.00000063,0.00000021,0.00000058,0.00000011,-0.00000036,0.00000137,0.0
 0000180,0.00000037,-0.00000161,0.00000200,0.,0.00000014,-0.00000066,-0
 .00000079,0.00000037,0.00000068,-0.00000094,0.00000173,-0.00000133,0.0
 0000111,-0.00000168,-0.00000015,0.00000292,-0.00000186,-0.00000016,0.0
 0000073,0.00000070,0.00000027,-0.00000011,0.00000101,-0.00000120,-0.00
 000063\\\@
 The archive entry for this job was punched.


 IT'S WHAT A FELLER THINKS HE KNOWS THAT HURTS HIM...
                    ------
           KIN HUBBARD
 Job cpu time:       0 days  9 hours 15 minutes 10.2 seconds.
 Elapsed time:       0 days  0 hours 17 minutes 27.8 seconds.
 File lengths (MBytes):  RWF=   3768 Int=      0 D2E=      0 Chk=     40 Scr=      1
 Normal termination of Gaussian 16 at Mon Mar 24 05:28:58 2025.
