 Entering Gaussian System, Link 0=g16
 Initial command:
 /public/software/apps/Gaussian/g16/l1.exe "/tmp/Gau-99050.inp" -scrdir="/tmp/"
 Entering Link 1 = /public/software/apps/Gaussian/g16/l1.exe PID=     99051.
  
 Copyright (c) 1988-2019, Gaussian, Inc.  All Rights Reserved.
  
 This is part of the Gaussian(R) 16 program.  It is based on
 the Gaussian(R) 09 system (copyright 2009, Gaussian, Inc.),
 the Gaussian(R) 03 system (copyright 2003, Gaussian, Inc.),
 the Gaussian(R) 98 system (copyright 1998, Gaussian, Inc.),
 the Gaussian(R) 94 system (copyright 1995, Gaussian, Inc.),
 the Gaussian 92(TM) system (copyright 1992, Gaussian, Inc.),
 the Gaussian 90(TM) system (copyright 1990, Gaussian, Inc.),
 the Gaussian 88(TM) system (copyright 1988, Gaussian, Inc.),
 the Gaussian 86(TM) system (copyright 1986, Carnegie Mellon
 University), and the Gaussian 82(TM) system (copyright 1983,
 Carnegie Mellon University). Gaussian is a federally registered
 trademark of Gaussian, Inc.
  
 This software contains proprietary and confidential information,
 including trade secrets, belonging to Gaussian, Inc.
  
 This software is provided under written license and may be
 used, copied, transmitted, or stored only in accord with that
 written license.
  
 The following legend is applicable only to US Government
 contracts under FAR:
  
                    RESTRICTED RIGHTS LEGEND
  
 Use, reproduction and disclosure by the US Government is
 subject to restrictions as set forth in subparagraphs (a)
 and (c) of the Commercial Computer Software - Restricted
 Rights clause in FAR 52.227-19.
  
 Gaussian, Inc.
 340 Quinnipiac St., Bldg. 40, Wallingford CT 06492
  
  
 ---------------------------------------------------------------
 Warning -- This program may not be used in any manner that
 competes with the business of Gaussian, Inc. or will provide
 assistance to any competitor of Gaussian, Inc.  The licensee
 of this program is prohibited from giving any competitor of
 Gaussian, Inc. access to this program.  By using this program,
 the user acknowledges that Gaussian, Inc. is engaged in the
 business of creating and licensing software in the field of
 computational chemistry and represents and warrants to the
 licensee that it is not a competitor of Gaussian, Inc. and that
 it will not use this program in any manner prohibited above.
 ---------------------------------------------------------------
  

 Cite this work as:
 Gaussian 16, Revision C.01,
 M. J. Frisch, G. W. Trucks, H. B. Schlegel, G. E. Scuseria, 
 M. A. Robb, J. R. Cheeseman, G. Scalmani, V. Barone, 
 G. A. Petersson, H. Nakatsuji, X. Li, M. Caricato, A. V. Marenich, 
 J. Bloino, B. G. Janesko, R. Gomperts, B. Mennucci, H. P. Hratchian, 
 J. V. Ortiz, A. F. Izmaylov, J. L. Sonnenberg, D. Williams-Young, 
 F. Ding, F. Lipparini, F. Egidi, J. Goings, B. Peng, A. Petrone, 
 T. Henderson, D. Ranasinghe, V. G. Zakrzewski, J. Gao, N. Rega, 
 G. Zheng, W. Liang, M. Hada, M. Ehara, K. Toyota, R. Fukuda, 
 J. Hasegawa, M. Ishida, T. Nakajima, Y. Honda, O. Kitao, H. Nakai, 
 T. Vreven, K. Throssell, J. A. Montgomery, Jr., J. E. Peralta, 
 F. Ogliaro, M. J. Bearpark, J. J. Heyd, E. N. Brothers, K. N. Kudin, 
 V. N. Staroverov, T. A. Keith, R. Kobayashi, J. Normand, 
 K. Raghavachari, A. P. Rendell, J. C. Burant, S. S. Iyengar, 
 J. Tomasi, M. Cossi, J. M. Millam, M. Klene, C. Adamo, R. Cammi, 
 J. W. Ochterski, R. L. Martin, K. Morokuma, O. Farkas, 
 J. B. Foresman, and D. J. Fox, Gaussian, Inc., Wallingford CT, 2019.
 
 ******************************************
 Gaussian 16:  ES64L-G16RevC.01  3-Jul-2019
                24-Mar-2025 
 ******************************************
 %nprocshared=32
 Will use up to   32 processors via shared memory.
 %mem=100GB
 ------------------------------------------
 #p opt freq b3lyp/def2svpp em=gd3bj nosymm
 ------------------------------------------
 1/18=20,19=15,26=3,38=1/1,3;
 2/9=110,12=2,15=1,17=6,18=5,40=1/2;
 3/5=43,7=202,11=2,25=1,30=1,71=1,74=-5,124=41/1,2,3;
 4//1;
 5/5=2,38=5/2;
 6/7=2,8=2,9=2,10=2,28=1/1;
 7/30=1/1,2,3,16;
 1/18=20,19=15,26=3/3(2);
 2/9=110,15=1/2;
 99//99;
 2/9=110,15=1/2;
 3/5=43,7=202,11=2,25=1,30=1,71=1,74=-5,124=41/1,2,3;
 4/5=5,16=3,69=1/1;
 5/5=2,38=5/2;
 7/30=1/1,2,3,16;
 1/18=20,19=15,26=3/3(-5);
 2/9=110,15=1/2;
 6/7=2,8=2,9=2,10=2,19=2,28=1/1;
 99/9=1/99;
 Leave Link    1 at Mon Mar 24 06:05:49 2025, MaxMem= 13421772800 cpu:               1.4 elap:               0.1
 (Enter /public/software/apps/Gaussian/g16/l101.exe)
 ----------------------
 $$$$Singlemol####0????
 ----------------------
 Symbolic Z-matrix:
 Charge =  0 Multiplicity = 1
 O                     0.73315  -2.61754  -0.05111 
 C                     1.39608  -1.43638   0.04688 
 C                     2.7992   -1.48728   0.0149 
 C                     3.5584   -0.3468    0.07819 
 C                     5.02315  -0.46196  -0.02252 
 C                     5.72068  -1.30553   0.83685 
 C                     7.092    -1.43429   0.73714 
 C                     7.80385  -0.72378  -0.22489 
 C                     9.26387  -0.88461  -0.33951 
 C                     9.78553  -2.14396  -0.51936 
 C                     11.1618  -2.34353  -0.68284 
 C                     12.01782  -1.27884  -0.66424 
 C                     11.53144   0.02821  -0.4553 
 C                     12.4018   1.13765  -0.40652 
 C                     11.92341   2.39554  -0.17335 
 C                     10.55108   2.59676   0.03652 
 C                     9.68045   1.54411  -0.01231 
 C                     10.1371   0.23549  -0.27887 
 C                     7.10305   0.10279  -1.10006 
 C                     5.73197   0.23205  -1.00036 
 C                     2.92169   0.91538   0.2334 
 C                     3.6475    2.11195   0.40596 
 C                     3.00834   3.3103    0.56369 
 C                     1.60815   3.36744   0.57148 
 C                     0.8729    2.22458   0.43174 
 C                     1.50196   0.97154   0.2596 
 C                     0.74236  -0.22207   0.14299 
 C                    -0.74144  -0.18413   0.09117 
 C                    -1.37013   0.30368  -1.0393 
 O                    -0.68347   0.79424  -2.10325 
 C                    -2.77069   0.27851  -1.14009 
 C                    -3.55191  -0.22497  -0.13143 
 C                    -5.011    -0.28041  -0.32383 
 C                    -5.70513  -1.48193  -0.20635 
 C                    -7.0692   -1.52835  -0.41659 
 C                    -7.77923  -0.37462  -0.73633 
 C                    -9.23157  -0.4381   -0.97567 
 C                    -9.71476  -1.30648  -1.92594 
 C                    -11.08113  -1.36839  -2.2257 
 C                    -11.96594  -0.55928  -1.57063 
 C                    -11.51999   0.32764  -0.56909 
 C                    -12.42113   1.15276   0.13658 
 C                    -11.98251   1.98637   1.12563 
 C                    -10.62128   2.01972   1.46293 
 C                    -9.7213    1.23878   0.79302 
 C                    -10.13609   0.38726  -0.25341 
 C                    -7.08214   0.82378  -0.86927 
 C                    -5.71616   0.86791  -0.67249 
 C                    -2.94267  -0.68607   1.06812 
 C                    -3.69443  -1.12249   2.17847 
 C                    -3.08133  -1.55242   3.32252 
 C                    -1.68315  -1.55126   3.4171 
 C                    -0.92392  -1.11077   2.37027 
 C                    -1.52539  -0.66789   1.17127 
 H                    -0.21962  -2.45948   0.00555 
 H                     3.26333  -2.4551   -0.09479 
 H                     5.17999  -1.85007   1.59734 
 H                     7.62529  -2.08001   1.42 
 H                     9.11771  -2.9928   -0.56015 
 H                     11.5363  -3.34563  -0.83304 
 H                     13.08004  -1.42168  -0.80258 
 H                     13.45975   0.96935  -0.55111 
 H                     12.59663   3.23959  -0.13702 
 H                     10.1868   3.5927    0.24296 
 H                     8.62785   1.70468   0.16795 
 H                     7.63944   0.63168  -1.875 
 H                     5.19828   0.86152  -1.69828 
 H                     4.72586   2.06734   0.42923 
 H                     3.57935   4.21732   0.69598 
 H                     1.1133    4.31803   0.70456 
 H                    -0.20619   2.26447   0.46911 
 H                     0.26457   0.7802   -1.9109 
 H                    -3.21398   0.63964  -2.05509 
 H                    -5.16533  -2.38707   0.03314 
 H                    -7.59845  -2.4655   -0.31948 
 H                    -9.02338  -1.93491  -2.4694 
 H                    -11.4248  -2.05464  -2.98594 
 H                    -13.02051  -0.59038  -1.80464 
 H                    -13.47057   1.10578  -0.11832 
 H                    -12.6791   2.61446   1.66158 
 H                    -10.28882   2.66564   2.26256 
 H                    -8.67781   1.25776   1.07067 
 H                    -7.61685   1.72088  -1.14693 
 H                    -5.18551   1.80342  -0.77529 
 H                    -4.77212  -1.0977    2.11967 
 H                    -3.67211  -1.88314   4.16384 
 H                    -1.20929  -1.88565   4.32806 
 H                     0.15282  -1.08004   2.45471 
 
 ITRead=  0  0  0  0  0  0  0  0  0  0  0  0  0  0  0  0  0  0  0  0
 ITRead=  0  0  0  0  0  0  0  0  0  0  0  0  0  0  0  0  0  0  0  0
 ITRead=  0  0  0  0  0  0  0  0  0  0  0  0  0  0  0  0  0  0  0  0
 ITRead=  0  0  0  0  0  0  0  0  0  0  0  0  0  0  0  0  0  0  0  0
 ITRead=  0  0  0  0  0  0  0  0
 MicOpt= -1 -1 -1 -1 -1 -1 -1 -1 -1 -1 -1 -1 -1 -1 -1 -1 -1 -1 -1 -1
 MicOpt= -1 -1 -1 -1 -1 -1 -1 -1 -1 -1 -1 -1 -1 -1 -1 -1 -1 -1 -1 -1
 MicOpt= -1 -1 -1 -1 -1 -1 -1 -1 -1 -1 -1 -1 -1 -1 -1 -1 -1 -1 -1 -1
 MicOpt= -1 -1 -1 -1 -1 -1 -1 -1 -1 -1 -1 -1 -1 -1 -1 -1 -1 -1 -1 -1
 MicOpt= -1 -1 -1 -1 -1 -1 -1 -1
 NAtoms=     88 NQM=       88 NQMF=       0 NMMI=      0 NMMIF=      0
                NMic=       0 NMicF=      0.
                    Isotopes and Nuclear Properties:
 (Nuclear quadrupole moments (NQMom) in fm**2, nuclear magnetic moments (NMagM)
  in nuclear magnetons)

  Atom         1           2           3           4           5           6           7           8           9          10
 IAtWgt=          16          12          12          12          12          12          12          12          12          12
 AtmWgt=  15.9949146  12.0000000  12.0000000  12.0000000  12.0000000  12.0000000  12.0000000  12.0000000  12.0000000  12.0000000
 NucSpn=           0           0           0           0           0           0           0           0           0           0
 AtZEff=  -0.0000000  -0.0000000  -0.0000000  -0.0000000  -0.0000000  -0.0000000  -0.0000000  -0.0000000  -0.0000000  -0.0000000
 NQMom=    0.0000000   0.0000000   0.0000000   0.0000000   0.0000000   0.0000000   0.0000000   0.0000000   0.0000000   0.0000000
 NMagM=    0.0000000   0.0000000   0.0000000   0.0000000   0.0000000   0.0000000   0.0000000   0.0000000   0.0000000   0.0000000
 AtZNuc=   8.0000000   6.0000000   6.0000000   6.0000000   6.0000000   6.0000000   6.0000000   6.0000000   6.0000000   6.0000000

  Atom        11          12          13          14          15          16          17          18          19          20
 IAtWgt=          12          12          12          12          12          12          12          12          12          12
 AtmWgt=  12.0000000  12.0000000  12.0000000  12.0000000  12.0000000  12.0000000  12.0000000  12.0000000  12.0000000  12.0000000
 NucSpn=           0           0           0           0           0           0           0           0           0           0
 AtZEff=  -0.0000000  -0.0000000  -0.0000000  -0.0000000  -0.0000000  -0.0000000  -0.0000000  -0.0000000  -0.0000000  -0.0000000
 NQMom=    0.0000000   0.0000000   0.0000000   0.0000000   0.0000000   0.0000000   0.0000000   0.0000000   0.0000000   0.0000000
 NMagM=    0.0000000   0.0000000   0.0000000   0.0000000   0.0000000   0.0000000   0.0000000   0.0000000   0.0000000   0.0000000
 AtZNuc=   6.0000000   6.0000000   6.0000000   6.0000000   6.0000000   6.0000000   6.0000000   6.0000000   6.0000000   6.0000000

  Atom        21          22          23          24          25          26          27          28          29          30
 IAtWgt=          12          12          12          12          12          12          12          12          12          16
 AtmWgt=  12.0000000  12.0000000  12.0000000  12.0000000  12.0000000  12.0000000  12.0000000  12.0000000  12.0000000  15.9949146
 NucSpn=           0           0           0           0           0           0           0           0           0           0
 AtZEff=  -0.0000000  -0.0000000  -0.0000000  -0.0000000  -0.0000000  -0.0000000  -0.0000000  -0.0000000  -0.0000000  -0.0000000
 NQMom=    0.0000000   0.0000000   0.0000000   0.0000000   0.0000000   0.0000000   0.0000000   0.0000000   0.0000000   0.0000000
 NMagM=    0.0000000   0.0000000   0.0000000   0.0000000   0.0000000   0.0000000   0.0000000   0.0000000   0.0000000   0.0000000
 AtZNuc=   6.0000000   6.0000000   6.0000000   6.0000000   6.0000000   6.0000000   6.0000000   6.0000000   6.0000000   8.0000000

  Atom        31          32          33          34          35          36          37          38          39          40
 IAtWgt=          12          12          12          12          12          12          12          12          12          12
 AtmWgt=  12.0000000  12.0000000  12.0000000  12.0000000  12.0000000  12.0000000  12.0000000  12.0000000  12.0000000  12.0000000
 NucSpn=           0           0           0           0           0           0           0           0           0           0
 AtZEff=  -0.0000000  -0.0000000  -0.0000000  -0.0000000  -0.0000000  -0.0000000  -0.0000000  -0.0000000  -0.0000000  -0.0000000
 NQMom=    0.0000000   0.0000000   0.0000000   0.0000000   0.0000000   0.0000000   0.0000000   0.0000000   0.0000000   0.0000000
 NMagM=    0.0000000   0.0000000   0.0000000   0.0000000   0.0000000   0.0000000   0.0000000   0.0000000   0.0000000   0.0000000
 AtZNuc=   6.0000000   6.0000000   6.0000000   6.0000000   6.0000000   6.0000000   6.0000000   6.0000000   6.0000000   6.0000000

  Atom        41          42          43          44          45          46          47          48          49          50
 IAtWgt=          12          12          12          12          12          12          12          12          12          12
 AtmWgt=  12.0000000  12.0000000  12.0000000  12.0000000  12.0000000  12.0000000  12.0000000  12.0000000  12.0000000  12.0000000
 NucSpn=           0           0           0           0           0           0           0           0           0           0
 AtZEff=  -0.0000000  -0.0000000  -0.0000000  -0.0000000  -0.0000000  -0.0000000  -0.0000000  -0.0000000  -0.0000000  -0.0000000
 NQMom=    0.0000000   0.0000000   0.0000000   0.0000000   0.0000000   0.0000000   0.0000000   0.0000000   0.0000000   0.0000000
 NMagM=    0.0000000   0.0000000   0.0000000   0.0000000   0.0000000   0.0000000   0.0000000   0.0000000   0.0000000   0.0000000
 AtZNuc=   6.0000000   6.0000000   6.0000000   6.0000000   6.0000000   6.0000000   6.0000000   6.0000000   6.0000000   6.0000000

  Atom        51          52          53          54          55          56          57          58          59          60
 IAtWgt=          12          12          12          12           1           1           1           1           1           1
 AtmWgt=  12.0000000  12.0000000  12.0000000  12.0000000   1.0078250   1.0078250   1.0078250   1.0078250   1.0078250   1.0078250
 NucSpn=           0           0           0           0           1           1           1           1           1           1
 AtZEff=  -0.0000000  -0.0000000  -0.0000000  -0.0000000  -0.0000000  -0.0000000  -0.0000000  -0.0000000  -0.0000000  -0.0000000
 NQMom=    0.0000000   0.0000000   0.0000000   0.0000000   0.0000000   0.0000000   0.0000000   0.0000000   0.0000000   0.0000000
 NMagM=    0.0000000   0.0000000   0.0000000   0.0000000   2.7928460   2.7928460   2.7928460   2.7928460   2.7928460   2.7928460
 AtZNuc=   6.0000000   6.0000000   6.0000000   6.0000000   1.0000000   1.0000000   1.0000000   1.0000000   1.0000000   1.0000000

  Atom        61          62          63          64          65          66          67          68          69          70
 IAtWgt=           1           1           1           1           1           1           1           1           1           1
 AtmWgt=   1.0078250   1.0078250   1.0078250   1.0078250   1.0078250   1.0078250   1.0078250   1.0078250   1.0078250   1.0078250
 NucSpn=           1           1           1           1           1           1           1           1           1           1
 AtZEff=  -0.0000000  -0.0000000  -0.0000000  -0.0000000  -0.0000000  -0.0000000  -0.0000000  -0.0000000  -0.0000000  -0.0000000
 NQMom=    0.0000000   0.0000000   0.0000000   0.0000000   0.0000000   0.0000000   0.0000000   0.0000000   0.0000000   0.0000000
 NMagM=    2.7928460   2.7928460   2.7928460   2.7928460   2.7928460   2.7928460   2.7928460   2.7928460   2.7928460   2.7928460
 AtZNuc=   1.0000000   1.0000000   1.0000000   1.0000000   1.0000000   1.0000000   1.0000000   1.0000000   1.0000000   1.0000000

  Atom        71          72          73          74          75          76          77          78          79          80
 IAtWgt=           1           1           1           1           1           1           1           1           1           1
 AtmWgt=   1.0078250   1.0078250   1.0078250   1.0078250   1.0078250   1.0078250   1.0078250   1.0078250   1.0078250   1.0078250
 NucSpn=           1           1           1           1           1           1           1           1           1           1
 AtZEff=  -0.0000000  -0.0000000  -0.0000000  -0.0000000  -0.0000000  -0.0000000  -0.0000000  -0.0000000  -0.0000000  -0.0000000
 NQMom=    0.0000000   0.0000000   0.0000000   0.0000000   0.0000000   0.0000000   0.0000000   0.0000000   0.0000000   0.0000000
 NMagM=    2.7928460   2.7928460   2.7928460   2.7928460   2.7928460   2.7928460   2.7928460   2.7928460   2.7928460   2.7928460
 AtZNuc=   1.0000000   1.0000000   1.0000000   1.0000000   1.0000000   1.0000000   1.0000000   1.0000000   1.0000000   1.0000000

  Atom        81          82          83          84          85          86          87          88
 IAtWgt=           1           1           1           1           1           1           1           1
 AtmWgt=   1.0078250   1.0078250   1.0078250   1.0078250   1.0078250   1.0078250   1.0078250   1.0078250
 NucSpn=           1           1           1           1           1           1           1           1
 AtZEff=  -0.0000000  -0.0000000  -0.0000000  -0.0000000  -0.0000000  -0.0000000  -0.0000000  -0.0000000
 NQMom=    0.0000000   0.0000000   0.0000000   0.0000000   0.0000000   0.0000000   0.0000000   0.0000000
 NMagM=    2.7928460   2.7928460   2.7928460   2.7928460   2.7928460   2.7928460   2.7928460   2.7928460
 AtZNuc=   1.0000000   1.0000000   1.0000000   1.0000000   1.0000000   1.0000000   1.0000000   1.0000000
 Leave Link  101 at Mon Mar 24 06:05:49 2025, MaxMem= 13421772800 cpu:               6.0 elap:               0.2
 (Enter /public/software/apps/Gaussian/g16/l103.exe)

 GradGradGradGradGradGradGradGradGradGradGradGradGradGradGradGradGradGrad
 Berny optimization.
 Initialization pass.
                           ----------------------------
                           !    Initial Parameters    !
                           ! (Angstroms and Degrees)  !
 --------------------------                            --------------------------
 ! Name  Definition              Value          Derivative Info.                !
 --------------------------------------------------------------------------------
 ! R1    R(1,2)                  1.358          estimate D2E/DX2                !
 ! R2    R(1,55)                 0.9674         estimate D2E/DX2                !
 ! R3    R(2,3)                  1.4044         estimate D2E/DX2                !
 ! R4    R(2,27)                 1.3824         estimate D2E/DX2                !
 ! R5    R(3,4)                  1.3715         estimate D2E/DX2                !
 ! R6    R(3,56)                 1.0789         estimate D2E/DX2                !
 ! R7    R(4,5)                  1.4727         estimate D2E/DX2                !
 ! R8    R(4,21)                 1.4222         estimate D2E/DX2                !
 ! R9    R(5,6)                  1.3916         estimate D2E/DX2                !
 ! R10   R(5,20)                 1.3929         estimate D2E/DX2                !
 ! R11   R(6,7)                  1.381          estimate D2E/DX2                !
 ! R12   R(6,57)                 1.0804         estimate D2E/DX2                !
 ! R13   R(7,8)                  1.3918         estimate D2E/DX2                !
 ! R14   R(7,58)                 1.0806         estimate D2E/DX2                !
 ! R15   R(8,9)                  1.4733         estimate D2E/DX2                !
 ! R16   R(8,19)                 1.3929         estimate D2E/DX2                !
 ! R17   R(9,10)                 1.3749         estimate D2E/DX2                !
 ! R18   R(9,18)                 1.4216         estimate D2E/DX2                !
 ! R19   R(10,11)                1.4002         estimate D2E/DX2                !
 ! R20   R(10,59)                1.0808         estimate D2E/DX2                !
 ! R21   R(11,12)                1.3663         estimate D2E/DX2                !
 ! R22   R(11,60)                1.0803         estimate D2E/DX2                !
 ! R23   R(12,13)                1.4102         estimate D2E/DX2                !
 ! R24   R(12,61)                1.0807         estimate D2E/DX2                !
 ! R25   R(13,14)                1.411          estimate D2E/DX2                !
 ! R26   R(13,18)                1.4207         estimate D2E/DX2                !
 ! R27   R(14,15)                1.3658         estimate D2E/DX2                !
 ! R28   R(14,62)                1.081          estimate D2E/DX2                !
 ! R29   R(15,16)                1.4028         estimate D2E/DX2                !
 ! R30   R(15,63)                1.0803         estimate D2E/DX2                !
 ! R31   R(16,17)                1.3669         estimate D2E/DX2                !
 ! R32   R(16,64)                1.0804         estimate D2E/DX2                !
 ! R33   R(17,18)                1.4114         estimate D2E/DX2                !
 ! R34   R(17,65)                1.0799         estimate D2E/DX2                !
 ! R35   R(19,20)                1.3808         estimate D2E/DX2                !
 ! R36   R(19,66)                1.0807         estimate D2E/DX2                !
 ! R37   R(20,67)                1.0808         estimate D2E/DX2                !
 ! R38   R(21,22)                1.4101         estimate D2E/DX2                !
 ! R39   R(21,26)                1.4211         estimate D2E/DX2                !
 ! R40   R(22,23)                1.3673         estimate D2E/DX2                !
 ! R41   R(22,68)                1.0795         estimate D2E/DX2                !
 ! R42   R(23,24)                1.4014         estimate D2E/DX2                !
 ! R43   R(23,69)                1.0799         estimate D2E/DX2                !
 ! R44   R(24,25)                1.3661         estimate D2E/DX2                !
 ! R45   R(24,70)                1.0799         estimate D2E/DX2                !
 ! R46   R(25,26)                1.4126         estimate D2E/DX2                !
 ! R47   R(25,71)                1.0805         estimate D2E/DX2                !
 ! R48   R(26,27)                1.4196         estimate D2E/DX2                !
 ! R49   R(27,28)                1.4852         estimate D2E/DX2                !
 ! R50   R(28,29)                1.3825         estimate D2E/DX2                !
 ! R51   R(28,54)                1.4196         estimate D2E/DX2                !
 ! R52   R(29,30)                1.358          estimate D2E/DX2                !
 ! R53   R(29,31)                1.4044         estimate D2E/DX2                !
 ! R54   R(30,72)                0.9675         estimate D2E/DX2                !
 ! R55   R(31,32)                1.3716         estimate D2E/DX2                !
 ! R56   R(31,73)                1.079          estimate D2E/DX2                !
 ! R57   R(32,33)                1.4728         estimate D2E/DX2                !
 ! R58   R(32,49)                1.4222         estimate D2E/DX2                !
 ! R59   R(33,34)                1.3926         estimate D2E/DX2                !
 ! R60   R(33,48)                1.3919         estimate D2E/DX2                !
 ! R61   R(34,35)                1.381          estimate D2E/DX2                !
 ! R62   R(34,74)                1.0807         estimate D2E/DX2                !
 ! R63   R(35,36)                1.3919         estimate D2E/DX2                !
 ! R64   R(35,75)                1.0806         estimate D2E/DX2                !
 ! R65   R(36,37)                1.4733         estimate D2E/DX2                !
 ! R66   R(36,47)                1.3928         estimate D2E/DX2                !
 ! R67   R(37,38)                1.375          estimate D2E/DX2                !
 ! R68   R(37,46)                1.4216         estimate D2E/DX2                !
 ! R69   R(38,39)                1.4002         estimate D2E/DX2                !
 ! R70   R(38,76)                1.0809         estimate D2E/DX2                !
 ! R71   R(39,40)                1.3663         estimate D2E/DX2                !
 ! R72   R(39,77)                1.0803         estimate D2E/DX2                !
 ! R73   R(40,41)                1.4102         estimate D2E/DX2                !
 ! R74   R(40,78)                1.0807         estimate D2E/DX2                !
 ! R75   R(41,42)                1.411          estimate D2E/DX2                !
 ! R76   R(41,46)                1.4207         estimate D2E/DX2                !
 ! R77   R(42,43)                1.3658         estimate D2E/DX2                !
 ! R78   R(42,79)                1.081          estimate D2E/DX2                !
 ! R79   R(43,44)                1.4028         estimate D2E/DX2                !
 ! R80   R(43,80)                1.0803         estimate D2E/DX2                !
 ! R81   R(44,45)                1.367          estimate D2E/DX2                !
 ! R82   R(44,81)                1.0804         estimate D2E/DX2                !
 ! R83   R(45,46)                1.4114         estimate D2E/DX2                !
 ! R84   R(45,82)                1.08           estimate D2E/DX2                !
 ! R85   R(47,48)                1.3808         estimate D2E/DX2                !
 ! R86   R(47,83)                1.0806         estimate D2E/DX2                !
 ! R87   R(48,84)                1.0804         estimate D2E/DX2                !
 ! R88   R(49,50)                1.4101         estimate D2E/DX2                !
 ! R89   R(49,54)                1.4211         estimate D2E/DX2                !
 ! R90   R(50,51)                1.3673         estimate D2E/DX2                !
 ! R91   R(50,85)                1.0796         estimate D2E/DX2                !
 ! R92   R(51,52)                1.4014         estimate D2E/DX2                !
 ! R93   R(51,86)                1.0799         estimate D2E/DX2                !
 ! R94   R(52,53)                1.3661         estimate D2E/DX2                !
 ! R95   R(52,87)                1.0799         estimate D2E/DX2                !
 ! R96   R(53,54)                1.4126         estimate D2E/DX2                !
 ! R97   R(53,88)                1.0805         estimate D2E/DX2                !
 ! A1    A(2,1,55)             109.538          estimate D2E/DX2                !
 ! A2    A(1,2,3)              117.036          estimate D2E/DX2                !
 ! A3    A(1,2,27)             122.559          estimate D2E/DX2                !
 ! A4    A(3,2,27)             120.388          estimate D2E/DX2                !
 ! A5    A(2,3,4)              121.4567         estimate D2E/DX2                !
 ! A6    A(2,3,56)             117.6846         estimate D2E/DX2                !
 ! A7    A(4,3,56)             120.8279         estimate D2E/DX2                !
 ! A8    A(3,4,5)              118.8403         estimate D2E/DX2                !
 ! A9    A(3,4,21)             119.683          estimate D2E/DX2                !
 ! A10   A(5,4,21)             121.4762         estimate D2E/DX2                !
 ! A11   A(4,5,6)              120.2442         estimate D2E/DX2                !
 ! A12   A(4,5,20)             121.0083         estimate D2E/DX2                !
 ! A13   A(6,5,20)             118.7155         estimate D2E/DX2                !
 ! A14   A(5,6,7)              120.6416         estimate D2E/DX2                !
 ! A15   A(5,6,57)             119.2986         estimate D2E/DX2                !
 ! A16   A(7,6,57)             120.0526         estimate D2E/DX2                !
 ! A17   A(6,7,8)              120.6772         estimate D2E/DX2                !
 ! A18   A(6,7,58)             120.0118         estimate D2E/DX2                !
 ! A19   A(8,7,58)             119.3042         estimate D2E/DX2                !
 ! A20   A(7,8,9)              120.3245         estimate D2E/DX2                !
 ! A21   A(7,8,19)             118.679          estimate D2E/DX2                !
 ! A22   A(9,8,19)             120.9619         estimate D2E/DX2                !
 ! A23   A(8,9,10)             119.0876         estimate D2E/DX2                !
 ! A24   A(8,9,18)             121.2922         estimate D2E/DX2                !
 ! A25   A(10,9,18)            119.6181         estimate D2E/DX2                !
 ! A26   A(9,10,11)            121.2472         estimate D2E/DX2                !
 ! A27   A(9,10,59)            119.3306         estimate D2E/DX2                !
 ! A28   A(11,10,59)           119.404          estimate D2E/DX2                !
 ! A29   A(10,11,12)           120.2091         estimate D2E/DX2                !
 ! A30   A(10,11,60)           119.2869         estimate D2E/DX2                !
 ! A31   A(12,11,60)           120.5014         estimate D2E/DX2                !
 ! A32   A(11,12,13)           120.544          estimate D2E/DX2                !
 ! A33   A(11,12,61)           120.737          estimate D2E/DX2                !
 ! A34   A(13,12,61)           118.7178         estimate D2E/DX2                !
 ! A35   A(12,13,14)           121.4104         estimate D2E/DX2                !
 ! A36   A(12,13,18)           119.4823         estimate D2E/DX2                !
 ! A37   A(14,13,18)           119.1053         estimate D2E/DX2                !
 ! A38   A(13,14,15)           120.9309         estimate D2E/DX2                !
 ! A39   A(13,14,62)           118.4689         estimate D2E/DX2                !
 ! A40   A(15,14,62)           120.5988         estimate D2E/DX2                !
 ! A41   A(14,15,16)           120.0195         estimate D2E/DX2                !
 ! A42   A(14,15,63)           120.4672         estimate D2E/DX2                !
 ! A43   A(16,15,63)           119.5092         estimate D2E/DX2                !
 ! A44   A(15,16,17)           120.4836         estimate D2E/DX2                !
 ! A45   A(15,16,64)           119.3852         estimate D2E/DX2                !
 ! A46   A(17,16,64)           120.1304         estimate D2E/DX2                !
 ! A47   A(16,17,18)           120.9763         estimate D2E/DX2                !
 ! A48   A(16,17,65)           120.0229         estimate D2E/DX2                !
 ! A49   A(18,17,65)           118.9954         estimate D2E/DX2                !
 ! A50   A(9,18,13)            118.8576         estimate D2E/DX2                !
 ! A51   A(9,18,17)            122.6745         estimate D2E/DX2                !
 ! A52   A(13,18,17)           118.4429         estimate D2E/DX2                !
 ! A53   A(8,19,20)            120.6483         estimate D2E/DX2                !
 ! A54   A(8,19,66)            119.4205         estimate D2E/DX2                !
 ! A55   A(20,19,66)           119.9209         estimate D2E/DX2                !
 ! A56   A(5,20,19)            120.6203         estimate D2E/DX2                !
 ! A57   A(5,20,67)            119.4861         estimate D2E/DX2                !
 ! A58   A(19,20,67)           119.8826         estimate D2E/DX2                !
 ! A59   A(4,21,22)            122.4134         estimate D2E/DX2                !
 ! A60   A(4,21,26)            118.9705         estimate D2E/DX2                !
 ! A61   A(22,21,26)           118.5838         estimate D2E/DX2                !
 ! A62   A(21,22,23)           121.1472         estimate D2E/DX2                !
 ! A63   A(21,22,68)           118.7989         estimate D2E/DX2                !
 ! A64   A(23,22,68)           120.0456         estimate D2E/DX2                !
 ! A65   A(22,23,24)           120.2284         estimate D2E/DX2                !
 ! A66   A(22,23,69)           120.2042         estimate D2E/DX2                !
 ! A67   A(24,23,69)           119.5627         estimate D2E/DX2                !
 ! A68   A(23,24,25)           120.2037         estimate D2E/DX2                !
 ! A69   A(23,24,70)           119.6316         estimate D2E/DX2                !
 ! A70   A(25,24,70)           120.1574         estimate D2E/DX2                !
 ! A71   A(24,25,26)           120.9889         estimate D2E/DX2                !
 ! A72   A(24,25,71)           120.2053         estimate D2E/DX2                !
 ! A73   A(26,25,71)           118.7971         estimate D2E/DX2                !
 ! A74   A(21,26,25)           118.8289         estimate D2E/DX2                !
 ! A75   A(21,26,27)           119.9884         estimate D2E/DX2                !
 ! A76   A(25,26,27)           121.1685         estimate D2E/DX2                !
 ! A77   A(2,27,26)            119.422          estimate D2E/DX2                !
 ! A78   A(2,27,28)            119.5014         estimate D2E/DX2                !
 ! A79   A(26,27,28)           121.0614         estimate D2E/DX2                !
 ! A80   A(27,28,29)           119.4644         estimate D2E/DX2                !
 ! A81   A(27,28,54)           121.0958         estimate D2E/DX2                !
 ! A82   A(29,28,54)           119.4249         estimate D2E/DX2                !
 ! A83   A(28,29,30)           122.5603         estimate D2E/DX2                !
 ! A84   A(28,29,31)           120.3895         estimate D2E/DX2                !
 ! A85   A(30,29,31)           117.0334         estimate D2E/DX2                !
 ! A86   A(29,30,72)           109.5415         estimate D2E/DX2                !
 ! A87   A(29,31,32)           121.4552         estimate D2E/DX2                !
 ! A88   A(29,31,73)           117.6836         estimate D2E/DX2                !
 ! A89   A(32,31,73)           120.8305         estimate D2E/DX2                !
 ! A90   A(31,32,33)           118.8192         estimate D2E/DX2                !
 ! A91   A(31,32,49)           119.6885         estimate D2E/DX2                !
 ! A92   A(33,32,49)           121.4916         estimate D2E/DX2                !
 ! A93   A(32,33,34)           121.0166         estimate D2E/DX2                !
 ! A94   A(32,33,48)           120.2362         estimate D2E/DX2                !
 ! A95   A(34,33,48)           118.7126         estimate D2E/DX2                !
 ! A96   A(33,34,35)           120.5649         estimate D2E/DX2                !
 ! A97   A(33,34,74)           119.4945         estimate D2E/DX2                !
 ! A98   A(35,34,74)           119.9304         estimate D2E/DX2                !
 ! A99   A(34,35,36)           120.7293         estimate D2E/DX2                !
 ! A100  A(34,35,75)           119.9497         estimate D2E/DX2                !
 ! A101  A(36,35,75)           119.3154         estimate D2E/DX2                !
 ! A102  A(35,36,37)           120.2952         estimate D2E/DX2                !
 ! A103  A(35,36,47)           118.673          estimate D2E/DX2                !
 ! A104  A(37,36,47)           120.995          estimate D2E/DX2                !
 ! A105  A(36,37,38)           119.0718         estimate D2E/DX2                !
 ! A106  A(36,37,46)           121.3095         estimate D2E/DX2                !
 ! A107  A(38,37,46)           119.6162         estimate D2E/DX2                !
 ! A108  A(37,38,39)           121.2518         estimate D2E/DX2                !
 ! A109  A(37,38,76)           119.3338         estimate D2E/DX2                !
 ! A110  A(39,38,76)           119.3957         estimate D2E/DX2                !
 ! A111  A(38,39,40)           120.2071         estimate D2E/DX2                !
 ! A112  A(38,39,77)           119.2865         estimate D2E/DX2                !
 ! A113  A(40,39,77)           120.5036         estimate D2E/DX2                !
 ! A114  A(39,40,41)           120.5437         estimate D2E/DX2                !
 ! A115  A(39,40,78)           120.7381         estimate D2E/DX2                !
 ! A116  A(41,40,78)           118.7171         estimate D2E/DX2                !
 ! A117  A(40,41,42)           121.4018         estimate D2E/DX2                !
 ! A118  A(40,41,46)           119.4883         estimate D2E/DX2                !
 ! A119  A(42,41,46)           119.108          estimate D2E/DX2                !
 ! A120  A(41,42,43)           120.9288         estimate D2E/DX2                !
 ! A121  A(41,42,79)           118.4693         estimate D2E/DX2                !
 ! A122  A(43,42,79)           120.6006         estimate D2E/DX2                !
 ! A123  A(42,43,44)           120.0162         estimate D2E/DX2                !
 ! A124  A(42,43,80)           120.467          estimate D2E/DX2                !
 ! A125  A(44,43,80)           119.5124         estimate D2E/DX2                !
 ! A126  A(43,44,45)           120.4946         estimate D2E/DX2                !
 ! A127  A(43,44,81)           119.3932         estimate D2E/DX2                !
 ! A128  A(45,44,81)           120.1115         estimate D2E/DX2                !
 ! A129  A(44,45,46)           120.9646         estimate D2E/DX2                !
 ! A130  A(44,45,82)           120.0072         estimate D2E/DX2                !
 ! A131  A(46,45,82)           119.0233         estimate D2E/DX2                !
 ! A132  A(37,46,41)           118.8507         estimate D2E/DX2                !
 ! A133  A(37,46,45)           122.6794         estimate D2E/DX2                !
 ! A134  A(41,46,45)           118.4453         estimate D2E/DX2                !
 ! A135  A(36,47,48)           120.6            estimate D2E/DX2                !
 ! A136  A(36,47,83)           119.4173         estimate D2E/DX2                !
 ! A137  A(48,47,83)           119.973          estimate D2E/DX2                !
 ! A138  A(33,48,47)           120.6975         estimate D2E/DX2                !
 ! A139  A(33,48,84)           119.2976         estimate D2E/DX2                !
 ! A140  A(47,48,84)           119.9994         estimate D2E/DX2                !
 ! A141  A(32,49,50)           122.4184         estimate D2E/DX2                !
 ! A142  A(32,49,54)           118.965          estimate D2E/DX2                !
 ! A143  A(50,49,54)           118.5856         estimate D2E/DX2                !
 ! A144  A(49,50,51)           121.1377         estimate D2E/DX2                !
 ! A145  A(49,50,85)           118.828          estimate D2E/DX2                !
 ! A146  A(51,50,85)           120.0268         estimate D2E/DX2                !
 ! A147  A(50,51,52)           120.237          estimate D2E/DX2                !
 ! A148  A(50,51,86)           120.1875         estimate D2E/DX2                !
 ! A149  A(52,51,86)           119.5708         estimate D2E/DX2                !
 ! A150  A(51,52,53)           120.2012         estimate D2E/DX2                !
 ! A151  A(51,52,87)           119.6345         estimate D2E/DX2                !
 ! A152  A(53,52,87)           120.1571         estimate D2E/DX2                !
 ! A153  A(52,53,54)           120.9877         estimate D2E/DX2                !
 ! A154  A(52,53,88)           120.2062         estimate D2E/DX2                !
 ! A155  A(54,53,88)           118.7978         estimate D2E/DX2                !
 ! A156  A(28,54,49)           119.9918         estimate D2E/DX2                !
 ! A157  A(28,54,53)           121.1648         estimate D2E/DX2                !
 ! A158  A(49,54,53)           118.8302         estimate D2E/DX2                !
 ! D1    D(55,1,2,3)           178.5391         estimate D2E/DX2                !
 ! D2    D(55,1,2,27)           -2.9547         estimate D2E/DX2                !
 ! D3    D(1,2,3,4)            178.5859         estimate D2E/DX2                !
 ! D4    D(1,2,3,56)             0.5889         estimate D2E/DX2                !
 ! D5    D(27,2,3,4)             0.0454         estimate D2E/DX2                !
 ! D6    D(27,2,3,56)         -177.9515         estimate D2E/DX2                !
 ! D7    D(1,2,27,26)          179.2019         estimate D2E/DX2                !
 ! D8    D(1,2,27,28)           -2.1987         estimate D2E/DX2                !
 ! D9    D(3,2,27,26)           -2.3406         estimate D2E/DX2                !
 ! D10   D(3,2,27,28)          176.2588         estimate D2E/DX2                !
 ! D11   D(2,3,4,5)           -177.2059         estimate D2E/DX2                !
 ! D12   D(2,3,4,21)             2.5536         estimate D2E/DX2                !
 ! D13   D(56,3,4,5)             0.7285         estimate D2E/DX2                !
 ! D14   D(56,3,4,21)         -179.5119         estimate D2E/DX2                !
 ! D15   D(3,4,5,6)            -54.3489         estimate D2E/DX2                !
 ! D16   D(3,4,5,20)           123.565          estimate D2E/DX2                !
 ! D17   D(21,4,5,6)           125.896          estimate D2E/DX2                !
 ! D18   D(21,4,5,20)          -56.1901         estimate D2E/DX2                !
 ! D19   D(3,4,21,22)          175.1107         estimate D2E/DX2                !
 ! D20   D(3,4,21,26)           -2.7925         estimate D2E/DX2                !
 ! D21   D(5,4,21,22)           -5.1363         estimate D2E/DX2                !
 ! D22   D(5,4,21,26)          176.9605         estimate D2E/DX2                !
 ! D23   D(4,5,6,7)            179.0717         estimate D2E/DX2                !
 ! D24   D(4,5,6,57)            -1.9047         estimate D2E/DX2                !
 ! D25   D(20,5,6,7)             1.1104         estimate D2E/DX2                !
 ! D26   D(20,5,6,57)         -179.8659         estimate D2E/DX2                !
 ! D27   D(4,5,20,19)         -179.0354         estimate D2E/DX2                !
 ! D28   D(4,5,20,67)           -0.2499         estimate D2E/DX2                !
 ! D29   D(6,5,20,19)           -1.0903         estimate D2E/DX2                !
 ! D30   D(6,5,20,67)          177.6952         estimate D2E/DX2                !
 ! D31   D(5,6,7,8)             -0.032          estimate D2E/DX2                !
 ! D32   D(5,6,7,58)           179.0153         estimate D2E/DX2                !
 ! D33   D(57,6,7,8)          -179.0484         estimate D2E/DX2                !
 ! D34   D(57,6,7,58)           -0.0011         estimate D2E/DX2                !
 ! D35   D(6,7,8,9)           -178.9463         estimate D2E/DX2                !
 ! D36   D(6,7,8,19)            -1.0663         estimate D2E/DX2                !
 ! D37   D(58,7,8,9)             1.9997         estimate D2E/DX2                !
 ! D38   D(58,7,8,19)          179.8797         estimate D2E/DX2                !
 ! D39   D(7,8,9,10)            55.3778         estimate D2E/DX2                !
 ! D40   D(7,8,9,18)          -125.1537         estimate D2E/DX2                !
 ! D41   D(19,8,9,10)         -122.4531         estimate D2E/DX2                !
 ! D42   D(19,8,9,18)           57.0154         estimate D2E/DX2                !
 ! D43   D(7,8,19,20)            1.0858         estimate D2E/DX2                !
 ! D44   D(7,8,19,66)         -177.7533         estimate D2E/DX2                !
 ! D45   D(9,8,19,20)          178.9518         estimate D2E/DX2                !
 ! D46   D(9,8,19,66)            0.1127         estimate D2E/DX2                !
 ! D47   D(8,9,10,11)          177.6321         estimate D2E/DX2                !
 ! D48   D(8,9,10,59)           -0.8059         estimate D2E/DX2                !
 ! D49   D(18,9,10,11)          -1.8454         estimate D2E/DX2                !
 ! D50   D(18,9,10,59)         179.7165         estimate D2E/DX2                !
 ! D51   D(8,9,18,13)         -177.1996         estimate D2E/DX2                !
 ! D52   D(8,9,18,17)            4.6497         estimate D2E/DX2                !
 ! D53   D(10,9,18,13)           2.2662         estimate D2E/DX2                !
 ! D54   D(10,9,18,17)        -175.8846         estimate D2E/DX2                !
 ! D55   D(9,10,11,12)           0.0906         estimate D2E/DX2                !
 ! D56   D(9,10,11,60)        -179.3178         estimate D2E/DX2                !
 ! D57   D(59,10,11,12)        178.5275         estimate D2E/DX2                !
 ! D58   D(59,10,11,60)         -0.8809         estimate D2E/DX2                !
 ! D59   D(10,11,12,13)          1.217          estimate D2E/DX2                !
 ! D60   D(10,11,12,61)       -179.1882         estimate D2E/DX2                !
 ! D61   D(60,11,12,13)       -179.3819         estimate D2E/DX2                !
 ! D62   D(60,11,12,61)          0.2129         estimate D2E/DX2                !
 ! D63   D(11,12,13,14)        178.7425         estimate D2E/DX2                !
 ! D64   D(11,12,13,18)         -0.7393         estimate D2E/DX2                !
 ! D65   D(61,12,13,14)         -0.8604         estimate D2E/DX2                !
 ! D66   D(61,12,13,18)        179.6578         estimate D2E/DX2                !
 ! D67   D(12,13,14,15)       -178.5            estimate D2E/DX2                !
 ! D68   D(12,13,14,62)          1.0703         estimate D2E/DX2                !
 ! D69   D(18,13,14,15)          0.9838         estimate D2E/DX2                !
 ! D70   D(18,13,14,62)       -179.446          estimate D2E/DX2                !
 ! D71   D(12,13,18,9)          -0.9961         estimate D2E/DX2                !
 ! D72   D(12,13,18,17)        177.2337         estimate D2E/DX2                !
 ! D73   D(14,13,18,9)         179.5101         estimate D2E/DX2                !
 ! D74   D(14,13,18,17)         -2.2602         estimate D2E/DX2                !
 ! D75   D(13,14,15,16)          0.7088         estimate D2E/DX2                !
 ! D76   D(13,14,15,63)        179.9661         estimate D2E/DX2                !
 ! D77   D(62,14,15,16)       -178.8523         estimate D2E/DX2                !
 ! D78   D(62,14,15,63)          0.4051         estimate D2E/DX2                !
 ! D79   D(14,15,16,17)         -1.0974         estimate D2E/DX2                !
 ! D80   D(14,15,16,64)        178.5792         estimate D2E/DX2                !
 ! D81   D(63,15,16,17)        179.6382         estimate D2E/DX2                !
 ! D82   D(63,15,16,64)         -0.6852         estimate D2E/DX2                !
 ! D83   D(15,16,17,18)         -0.2463         estimate D2E/DX2                !
 ! D84   D(15,16,17,65)        178.8993         estimate D2E/DX2                !
 ! D85   D(64,16,17,18)       -179.9205         estimate D2E/DX2                !
 ! D86   D(64,16,17,65)         -0.7748         estimate D2E/DX2                !
 ! D87   D(16,17,18,9)        -179.9262         estimate D2E/DX2                !
 ! D88   D(16,17,18,13)          1.9157         estimate D2E/DX2                !
 ! D89   D(65,17,18,9)           0.9195         estimate D2E/DX2                !
 ! D90   D(65,17,18,13)       -177.2385         estimate D2E/DX2                !
 ! D91   D(8,19,20,5)           -0.0079         estimate D2E/DX2                !
 ! D92   D(8,19,20,67)        -178.7886         estimate D2E/DX2                !
 ! D93   D(66,19,20,5)         178.8254         estimate D2E/DX2                !
 ! D94   D(66,19,20,67)          0.0447         estimate D2E/DX2                !
 ! D95   D(4,21,22,23)        -179.4645         estimate D2E/DX2                !
 ! D96   D(4,21,22,68)          -0.5145         estimate D2E/DX2                !
 ! D97   D(26,21,22,23)         -1.5535         estimate D2E/DX2                !
 ! D98   D(26,21,22,68)        177.3965         estimate D2E/DX2                !
 ! D99   D(4,21,26,25)         179.1675         estimate D2E/DX2                !
 ! D100  D(4,21,26,27)           0.5226         estimate D2E/DX2                !
 ! D101  D(22,21,26,25)          1.1833         estimate D2E/DX2                !
 ! D102  D(22,21,26,27)       -177.4617         estimate D2E/DX2                !
 ! D103  D(21,22,23,24)          0.7217         estimate D2E/DX2                !
 ! D104  D(21,22,23,69)        179.9235         estimate D2E/DX2                !
 ! D105  D(68,22,23,24)       -178.2154         estimate D2E/DX2                !
 ! D106  D(68,22,23,69)          0.9864         estimate D2E/DX2                !
 ! D107  D(22,23,24,25)          0.5015         estimate D2E/DX2                !
 ! D108  D(22,23,24,70)        179.5184         estimate D2E/DX2                !
 ! D109  D(69,23,24,25)       -178.7054         estimate D2E/DX2                !
 ! D110  D(69,23,24,70)          0.3115         estimate D2E/DX2                !
 ! D111  D(23,24,25,26)         -0.8515         estimate D2E/DX2                !
 ! D112  D(23,24,25,71)        178.0585         estimate D2E/DX2                !
 ! D113  D(70,24,25,26)       -179.8632         estimate D2E/DX2                !
 ! D114  D(70,24,25,71)         -0.9532         estimate D2E/DX2                !
 ! D115  D(24,25,26,21)         -0.0056         estimate D2E/DX2                !
 ! D116  D(24,25,26,27)        178.6228         estimate D2E/DX2                !
 ! D117  D(71,25,26,21)       -178.9307         estimate D2E/DX2                !
 ! D118  D(71,25,26,27)         -0.3023         estimate D2E/DX2                !
 ! D119  D(21,26,27,2)           2.0261         estimate D2E/DX2                !
 ! D120  D(21,26,27,28)       -176.5509         estimate D2E/DX2                !
 ! D121  D(25,26,27,2)        -176.5866         estimate D2E/DX2                !
 ! D122  D(25,26,27,28)          4.8365         estimate D2E/DX2                !
 ! D123  D(2,27,28,29)        -107.345          estimate D2E/DX2                !
 ! D124  D(2,27,28,54)          71.2444         estimate D2E/DX2                !
 ! D125  D(26,27,28,29)         71.2309         estimate D2E/DX2                !
 ! D126  D(26,27,28,54)       -110.1798         estimate D2E/DX2                !
 ! D127  D(27,28,29,30)         -2.0805         estimate D2E/DX2                !
 ! D128  D(27,28,29,31)        176.3831         estimate D2E/DX2                !
 ! D129  D(54,28,29,30)        179.3063         estimate D2E/DX2                !
 ! D130  D(54,28,29,31)         -2.2301         estimate D2E/DX2                !
 ! D131  D(27,28,54,49)       -176.6578         estimate D2E/DX2                !
 ! D132  D(27,28,54,53)          4.6815         estimate D2E/DX2                !
 ! D133  D(29,28,54,49)          1.9321         estimate D2E/DX2                !
 ! D134  D(29,28,54,53)       -176.7286         estimate D2E/DX2                !
 ! D135  D(28,29,30,72)         -2.7704         estimate D2E/DX2                !
 ! D136  D(31,29,30,72)        178.7175         estimate D2E/DX2                !
 ! D137  D(28,29,31,32)          0.0137         estimate D2E/DX2                !
 ! D138  D(28,29,31,73)       -177.9831         estimate D2E/DX2                !
 ! D139  D(30,29,31,32)        178.56           estimate D2E/DX2                !
 ! D140  D(30,29,31,73)          0.5632         estimate D2E/DX2                !
 ! D141  D(29,31,32,33)       -177.202          estimate D2E/DX2                !
 ! D142  D(29,31,32,49)          2.4894         estimate D2E/DX2                !
 ! D143  D(73,31,32,33)          0.7322         estimate D2E/DX2                !
 ! D144  D(73,31,32,49)       -179.5764         estimate D2E/DX2                !
 ! D145  D(31,32,33,34)        123.4856         estimate D2E/DX2                !
 ! D146  D(31,32,33,48)        -54.3444         estimate D2E/DX2                !
 ! D147  D(49,32,33,34)        -56.2            estimate D2E/DX2                !
 ! D148  D(49,32,33,48)        125.9701         estimate D2E/DX2                !
 ! D149  D(31,32,49,50)        175.2291         estimate D2E/DX2                !
 ! D150  D(31,32,49,54)         -2.7138         estimate D2E/DX2                !
 ! D151  D(33,32,49,50)         -5.088          estimate D2E/DX2                !
 ! D152  D(33,32,49,54)        176.969          estimate D2E/DX2                !
 ! D153  D(32,33,34,35)       -178.6172         estimate D2E/DX2                !
 ! D154  D(32,33,34,74)          0.2179         estimate D2E/DX2                !
 ! D155  D(48,33,34,35)         -0.7549         estimate D2E/DX2                !
 ! D156  D(48,33,34,74)        178.0802         estimate D2E/DX2                !
 ! D157  D(32,33,48,47)        179.3009         estimate D2E/DX2                !
 ! D158  D(32,33,48,84)         -1.5539         estimate D2E/DX2                !
 ! D159  D(34,33,48,47)          1.4214         estimate D2E/DX2                !
 ! D160  D(34,33,48,84)       -179.4334         estimate D2E/DX2                !
 ! D161  D(33,34,35,36)         -0.6583         estimate D2E/DX2                !
 ! D162  D(33,34,35,75)       -179.7904         estimate D2E/DX2                !
 ! D163  D(74,34,35,36)       -179.4883         estimate D2E/DX2                !
 ! D164  D(74,34,35,75)          1.3796         estimate D2E/DX2                !
 ! D165  D(34,35,36,37)        179.2121         estimate D2E/DX2                !
 ! D166  D(34,35,36,47)          1.3979         estimate D2E/DX2                !
 ! D167  D(75,35,36,37)         -1.6503         estimate D2E/DX2                !
 ! D168  D(75,35,36,47)       -179.4645         estimate D2E/DX2                !
 ! D169  D(35,36,37,38)        -55.2111         estimate D2E/DX2                !
 ! D170  D(35,36,37,46)        125.3617         estimate D2E/DX2                !
 ! D171  D(47,36,37,38)        122.5516         estimate D2E/DX2                !
 ! D172  D(47,36,37,46)        -56.8756         estimate D2E/DX2                !
 ! D173  D(35,36,47,48)         -0.7311         estimate D2E/DX2                !
 ! D174  D(35,36,47,83)        178.1368         estimate D2E/DX2                !
 ! D175  D(37,36,47,48)       -178.5294         estimate D2E/DX2                !
 ! D176  D(37,36,47,83)          0.3385         estimate D2E/DX2                !
 ! D177  D(36,37,38,39)       -177.5929         estimate D2E/DX2                !
 ! D178  D(36,37,38,76)          0.8217         estimate D2E/DX2                !
 ! D179  D(46,37,38,39)          1.8441         estimate D2E/DX2                !
 ! D180  D(46,37,38,76)       -179.7413         estimate D2E/DX2                !
 ! D181  D(36,37,46,41)        177.1386         estimate D2E/DX2                !
 ! D182  D(36,37,46,45)         -4.6944         estimate D2E/DX2                !
 ! D183  D(38,37,46,41)         -2.2855         estimate D2E/DX2                !
 ! D184  D(38,37,46,45)        175.8814         estimate D2E/DX2                !
 ! D185  D(37,38,39,40)         -0.0746         estimate D2E/DX2                !
 ! D186  D(37,38,39,77)        179.3198         estimate D2E/DX2                !
 ! D187  D(76,38,39,40)       -178.4882         estimate D2E/DX2                !
 ! D188  D(76,38,39,77)          0.9061         estimate D2E/DX2                !
 ! D189  D(38,39,40,41)         -1.2261         estimate D2E/DX2                !
 ! D190  D(38,39,40,78)        179.1626         estimate D2E/DX2                !
 ! D191  D(77,39,40,41)        179.387          estimate D2E/DX2                !
 ! D192  D(77,39,40,78)         -0.2244         estimate D2E/DX2                !
 ! D193  D(39,40,41,42)       -178.7714         estimate D2E/DX2                !
 ! D194  D(39,40,41,46)          0.7274         estimate D2E/DX2                !
 ! D195  D(78,40,41,42)          0.8477         estimate D2E/DX2                !
 ! D196  D(78,40,41,46)       -179.6535         estimate D2E/DX2                !
 ! D197  D(40,41,42,43)        178.5089         estimate D2E/DX2                !
 ! D198  D(40,41,42,79)         -1.0612         estimate D2E/DX2                !
 ! D199  D(46,41,42,43)         -0.9918         estimate D2E/DX2                !
 ! D200  D(46,41,42,79)        179.4381         estimate D2E/DX2                !
 ! D201  D(40,41,46,37)          1.022          estimate D2E/DX2                !
 ! D202  D(40,41,46,45)       -177.2232         estimate D2E/DX2                !
 ! D203  D(42,41,46,37)       -179.4676         estimate D2E/DX2                !
 ! D204  D(42,41,46,45)          2.2871         estimate D2E/DX2                !
 ! D205  D(41,42,43,44)         -0.7209         estimate D2E/DX2                !
 ! D206  D(41,42,43,80)       -179.9601         estimate D2E/DX2                !
 ! D207  D(79,42,43,44)        178.84           estimate D2E/DX2                !
 ! D208  D(79,42,43,80)         -0.3991         estimate D2E/DX2                !
 ! D209  D(42,43,44,45)          1.1105         estimate D2E/DX2                !
 ! D210  D(42,43,44,81)       -178.5653         estimate D2E/DX2                !
 ! D211  D(80,43,44,45)       -179.643          estimate D2E/DX2                !
 ! D212  D(80,43,44,81)          0.6812         estimate D2E/DX2                !
 ! D213  D(43,44,45,46)          0.2528         estimate D2E/DX2                !
 ! D214  D(43,44,45,82)       -178.9294         estimate D2E/DX2                !
 ! D215  D(81,44,45,46)        179.9262         estimate D2E/DX2                !
 ! D216  D(81,44,45,82)          0.7441         estimate D2E/DX2                !
 ! D217  D(44,45,46,37)        179.884          estimate D2E/DX2                !
 ! D218  D(44,45,46,41)         -1.942          estimate D2E/DX2                !
 ! D219  D(82,45,46,37)         -0.9259         estimate D2E/DX2                !
 ! D220  D(82,45,46,41)        177.2481         estimate D2E/DX2                !
 ! D221  D(36,47,48,33)         -0.6818         estimate D2E/DX2                !
 ! D222  D(36,47,48,84)       -179.821          estimate D2E/DX2                !
 ! D223  D(83,47,48,33)       -179.5434         estimate D2E/DX2                !
 ! D224  D(83,47,48,84)          1.3174         estimate D2E/DX2                !
 ! D225  D(32,49,50,51)       -179.5612         estimate D2E/DX2                !
 ! D226  D(32,49,50,85)         -0.5551         estimate D2E/DX2                !
 ! D227  D(54,49,50,51)         -1.6109         estimate D2E/DX2                !
 ! D228  D(54,49,50,85)        177.3953         estimate D2E/DX2                !
 ! D229  D(32,49,54,28)          0.5224         estimate D2E/DX2                !
 ! D230  D(32,49,54,53)        179.2142         estimate D2E/DX2                !
 ! D231  D(50,49,54,28)       -177.5001         estimate D2E/DX2                !
 ! D232  D(50,49,54,53)          1.1917         estimate D2E/DX2                !
 ! D233  D(49,50,51,52)          0.7747         estimate D2E/DX2                !
 ! D234  D(49,50,51,86)        179.9852         estimate D2E/DX2                !
 ! D235  D(85,50,51,52)       -178.2196         estimate D2E/DX2                !
 ! D236  D(85,50,51,86)          0.9909         estimate D2E/DX2                !
 ! D237  D(50,51,52,53)          0.5034         estimate D2E/DX2                !
 ! D238  D(50,51,52,87)        179.5262         estimate D2E/DX2                !
 ! D239  D(86,51,52,53)       -178.7119         estimate D2E/DX2                !
 ! D240  D(86,51,52,87)          0.3109         estimate D2E/DX2                !
 ! D241  D(51,52,53,54)         -0.9028         estimate D2E/DX2                !
 ! D242  D(51,52,53,88)        178.0357         estimate D2E/DX2                !
 ! D243  D(87,52,53,54)       -179.9205         estimate D2E/DX2                !
 ! D244  D(87,52,53,88)         -0.982          estimate D2E/DX2                !
 ! D245  D(52,53,54,28)        178.7158         estimate D2E/DX2                !
 ! D246  D(52,53,54,49)          0.0399         estimate D2E/DX2                !
 ! D247  D(88,53,54,28)         -0.2375         estimate D2E/DX2                !
 ! D248  D(88,53,54,49)       -178.9133         estimate D2E/DX2                !
 --------------------------------------------------------------------------------
 Trust Radius=3.00D-01 FncErr=1.00D-07 GrdErr=1.00D-06 EigMax=2.50D+02 EigMin=1.00D-04
 Number of steps in this run=    513 maximum allowed number of steps=    528.
 GradGradGradGradGradGradGradGradGradGradGradGradGradGradGradGradGradGrad

 Leave Link  103 at Mon Mar 24 06:05:49 2025, MaxMem= 13421772800 cpu:               0.9 elap:               0.0
 (Enter /public/software/apps/Gaussian/g16/l202.exe)
 Symmetry turned off by external request.
 Stoichiometry    C52H34O2
 Framework group  C1[X(C52H34O2)]
 Deg. of freedom   258
 Full point group                 C1      NOp   1
                          Input orientation:                          
 ---------------------------------------------------------------------
 Center     Atomic      Atomic             Coordinates (Angstroms)
 Number     Number       Type             X           Y           Z
 ---------------------------------------------------------------------
      1          8           0        0.733148   -2.617535   -0.051105
      2          6           0        1.396077   -1.436382    0.046879
      3          6           0        2.799197   -1.487278    0.014897
      4          6           0        3.558404   -0.346798    0.078192
      5          6           0        5.023153   -0.461964   -0.022524
      6          6           0        5.720681   -1.305529    0.836845
      7          6           0        7.092000   -1.434291    0.737143
      8          6           0        7.803849   -0.723781   -0.224891
      9          6           0        9.263869   -0.884611   -0.339509
     10          6           0        9.785531   -2.143962   -0.519355
     11          6           0       11.161800   -2.343534   -0.682836
     12          6           0       12.017818   -1.278843   -0.664243
     13          6           0       11.531436    0.028208   -0.455302
     14          6           0       12.401805    1.137650   -0.406517
     15          6           0       11.923411    2.395544   -0.173350
     16          6           0       10.551081    2.596762    0.036518
     17          6           0        9.680453    1.544109   -0.012305
     18          6           0       10.137102    0.235490   -0.278871
     19          6           0        7.103049    0.102788   -1.100064
     20          6           0        5.731972    0.232053   -1.000362
     21          6           0        2.921693    0.915382    0.233401
     22          6           0        3.647496    2.111949    0.405960
     23          6           0        3.008339    3.310301    0.563691
     24          6           0        1.608154    3.367439    0.571481
     25          6           0        0.872901    2.224579    0.431742
     26          6           0        1.501961    0.971540    0.259597
     27          6           0        0.742364   -0.222073    0.142989
     28          6           0       -0.741441   -0.184127    0.091170
     29          6           0       -1.370128    0.303679   -1.039303
     30          8           0       -0.683470    0.794243   -2.103245
     31          6           0       -2.770685    0.278509   -1.140086
     32          6           0       -3.551912   -0.224965   -0.131426
     33          6           0       -5.011002   -0.280413   -0.323825
     34          6           0       -5.705132   -1.481930   -0.206346
     35          6           0       -7.069197   -1.528349   -0.416594
     36          6           0       -7.779234   -0.374622   -0.736334
     37          6           0       -9.231568   -0.438104   -0.975667
     38          6           0       -9.714765   -1.306476   -1.925941
     39          6           0      -11.081127   -1.368390   -2.225696
     40          6           0      -11.965936   -0.559280   -1.570630
     41          6           0      -11.519993    0.327638   -0.569086
     42          6           0      -12.421135    1.152758    0.136580
     43          6           0      -11.982513    1.986368    1.125633
     44          6           0      -10.621281    2.019715    1.462927
     45          6           0       -9.721298    1.238778    0.793019
     46          6           0      -10.136092    0.387259   -0.253414
     47          6           0       -7.082140    0.823783   -0.869272
     48          6           0       -5.716160    0.867911   -0.672494
     49          6           0       -2.942672   -0.686073    1.068122
     50          6           0       -3.694428   -1.122492    2.178471
     51          6           0       -3.081326   -1.552420    3.322523
     52          6           0       -1.683146   -1.551260    3.417097
     53          6           0       -0.923920   -1.110772    2.370271
     54          6           0       -1.525391   -0.667888    1.171268
     55          1           0       -0.219620   -2.459480    0.005551
     56          1           0        3.263333   -2.455096   -0.094786
     57          1           0        5.179992   -1.850066    1.597344
     58          1           0        7.625293   -2.080009    1.419995
     59          1           0        9.117708   -2.992799   -0.560153
     60          1           0       11.536303   -3.345627   -0.833042
     61          1           0       13.080035   -1.421681   -0.802584
     62          1           0       13.459747    0.969349   -0.551113
     63          1           0       12.596631    3.239588   -0.137018
     64          1           0       10.186795    3.592701    0.242956
     65          1           0        8.627851    1.704682    0.167952
     66          1           0        7.639441    0.631680   -1.875004
     67          1           0        5.198279    0.861520   -1.698280
     68          1           0        4.725862    2.067340    0.429233
     69          1           0        3.579347    4.217318    0.695982
     70          1           0        1.113301    4.318030    0.704556
     71          1           0       -0.206186    2.264466    0.469109
     72          1           0        0.264572    0.780199   -1.910904
     73          1           0       -3.213982    0.639636   -2.055092
     74          1           0       -5.165328   -2.387071    0.033136
     75          1           0       -7.598453   -2.465496   -0.319484
     76          1           0       -9.023381   -1.934906   -2.469402
     77          1           0      -11.424798   -2.054645   -2.985943
     78          1           0      -13.020515   -0.590375   -1.804638
     79          1           0      -13.470569    1.105776   -0.118317
     80          1           0      -12.679099    2.614458    1.661581
     81          1           0      -10.288816    2.665636    2.262560
     82          1           0       -8.677809    1.257756    1.070673
     83          1           0       -7.616854    1.720875   -1.146927
     84          1           0       -5.185512    1.803419   -0.775291
     85          1           0       -4.772120   -1.097703    2.119666
     86          1           0       -3.672113   -1.883139    4.163838
     87          1           0       -1.209286   -1.885651    4.328062
     88          1           0        0.152821   -1.080038    2.454711
 ---------------------------------------------------------------------
 Rotational constants (GHZ):           0.2079615           0.0129025           0.0127149
 Leave Link  202 at Mon Mar 24 06:05:49 2025, MaxMem= 13421772800 cpu:               1.2 elap:               0.1
 (Enter /public/software/apps/Gaussian/g16/l301.exe)
 Standard basis: def2SVPP (5D, 7F)
 Ernie: Thresh=  0.10000D-02 Tol=  0.10000D-05 Strict=F.
   824 basis functions,  1486 primitive gaussians,   878 cartesian basis functions
   181 alpha electrons      181 beta electrons
       nuclear repulsion energy      5909.6946125354 Hartrees.
 IExCor=  402 DFT=T Ex+Corr=B3LYP ExCW=0 ScaHFX=  0.200000
 ScaDFX=  0.800000  0.720000  1.000000  0.810000 ScalE2=  1.000000  1.000000
 IRadAn=      5 IRanWt=     -1 IRanGd=            0 ICorTp=0 IEmpDi=141
 NAtoms=   88 NActive=   88 NUniq=   88 SFac= 1.00D+00 NAtFMM=   60 NAOKFM=T Big=T
 Integral buffers will be    131072 words long.
 Raffenetti 2 integral format.
 Two-electron integral symmetry is turned off.
 R6Disp:  Grimme-D3(BJ) Dispersion energy=       -0.2443262753 Hartrees.
 Nuclear repulsion after empirical dispersion term =     5909.4502862601 Hartrees.
 Leave Link  301 at Mon Mar 24 06:05:49 2025, MaxMem= 13421772800 cpu:               1.3 elap:               0.1
 (Enter /public/software/apps/Gaussian/g16/l302.exe)
 NPDir=0 NMtPBC=     1 NCelOv=     1 NCel=       1 NClECP=     1 NCelD=      1
         NCelK=      1 NCelE2=     1 NClLst=     1 CellRange=     0.0.
 One-electron integrals computed using PRISM.
   1 Symmetry operations used in ECPInt.
 ECPInt:  NShTT=   77028 NPrTT=  308524 LenC2=   45343 LenP2D=  111210.
 LDataN:  DoStor=T MaxTD1= 4 Len=   56
 NBasis=   824 RedAO= T EigKep=  1.59D-04  NBF=   824
 NBsUse=   824 1.00D-06 EigRej= -1.00D+00 NBFU=   824
 Precomputing XC quadrature grid using
 IXCGrd= 4 IRadAn=           5 IRanWt=          -1 IRanGd=           0 AccXCQ= 0.00D+00.
 Generated NRdTot=       0 NPtTot=           0 NUsed=           0 NTot=          32
 NSgBfM=   696   681   687   693   696 MxSgAt=    88 MxSgA2=    88.
 Leave Link  302 at Mon Mar 24 06:05:52 2025, MaxMem= 13421772800 cpu:              64.1 elap:               2.3
 (Enter /public/software/apps/Gaussian/g16/l303.exe)
 DipDrv:  MaxL=1.
 Leave Link  303 at Mon Mar 24 06:05:52 2025, MaxMem= 13421772800 cpu:               4.0 elap:               0.2
 (Enter /public/software/apps/Gaussian/g16/l401.exe)
 ExpMin= 1.22D-01 ExpMax= 2.27D+03 ExpMxC= 3.41D+02 IAcc=3 IRadAn=         5 AccDes= 0.00D+00
 Harris functional with IExCor=  402 and IRadAn=       5 diagonalized for initial guess.
 HarFok:  IExCor=  402 AccDes= 0.00D+00 IRadAn=         5 IDoV= 1 UseB2=F ITyADJ=14
 ICtDFT=  3500011 ScaDFX=  1.000000  1.000000  1.000000  1.000000
 FoFCou: FMM=F IPFlag=           0 FMFlag=      100000 FMFlg1=        2001
         NFxFlg=           0 DoJE=T BraDBF=F KetDBF=T FulRan=T
         wScrn=  0.000000 ICntrl=       500 IOpCl=  0 I1Cent=   200000004 NGrid=           0
         NMat0=    1 NMatS0=      1 NMatT0=    0 NMatD0=    1 NMtDS0=    0 NMtDT0=    0
 Symmetry not used in FoFCou.
 Harris En= -2151.09675565443    
 JPrj=0 DoOrth=F DoCkMO=F.
 Leave Link  401 at Mon Mar 24 06:05:54 2025, MaxMem= 13421772800 cpu:              69.5 elap:               2.2
 (Enter /public/software/apps/Gaussian/g16/l502.exe)
 Two-electron integral symmetry not used.
 Closed shell SCF:
 Using DIIS extrapolation, IDIIS=  1040.
 NGot= 13421772800 LenX= 13420193804 LenY= 13419422042
 Requested convergence on RMS density matrix=1.00D-08 within 128 cycles.
 Requested convergence on MAX density matrix=1.00D-06.
 Requested convergence on             energy=1.00D-06.
 No special actions if energy rises.
 Fock matrices will be formed incrementally for  20 cycles.
 Integral accuracy reduced to 1.0D-05 until final iterations.

 Cycle   1  Pass 0  IDiag  1:
 FoFJK:  IHMeth= 1 ICntrl=       0 DoSepK=F KAlg= 0 I1Cent=           0 FoldK=F
 IRaf= 660000000 NMat=       1 IRICut=       1 DoRegI=T DoRafI=F ISym2E= 0 IDoP0=0 IntGTp=1.
 FoFCou: FMM=T IPFlag=           0 FMFlag=      100000 FMFlg1=        2001
         NFxFlg=           0 DoJE=F BraDBF=F KetDBF=F FulRan=T
         wScrn=  0.000000 ICntrl=         0 IOpCl=  0 I1Cent=           0 NGrid=           0
         NMat0=    1 NMatS0=      1 NMatT0=    0 NMatD0=    1 NMtDS0=    0 NMtDT0=    0
 Symmetry not used in FoFCou.
 FMM levels:  10  Number of levels for PrismC:   9
 E= -2150.13603442728    
 DIIS: error= 2.37D-02 at cycle   1 NSaved=   1.
 NSaved= 1 IEnMin= 1 EnMin= -2150.13603442728     IErMin= 1 ErrMin= 2.37D-02
 ErrMax= 2.37D-02  0.00D+00 EMaxC= 1.00D-01 BMatC= 8.37D-01 BMatP= 8.37D-01
 IDIUse=3 WtCom= 7.63D-01 WtEn= 2.37D-01
 Coeff-Com:  0.100D+01
 Coeff-En:   0.100D+01
 Coeff:      0.100D+01
 Gap=     0.172 Goal=   None    Shift=    0.000
 GapD=    0.172 DampG=1.000 DampE=0.500 DampFc=0.5000 IDamp=-1.
 Damping current iteration by 5.00D-01
 RMSDP=4.35D-03 MaxDP=1.70D-01              OVMax= 1.55D-01

 Cycle   2  Pass 0  IDiag  1:
 RMSU=  1.88D-03    CP:  9.29D-01
 E= -2150.62557085764     Delta-E=       -0.489536430353 Rises=F Damp=T
 DIIS: error= 3.30D-03 at cycle   2 NSaved=   2.
 NSaved= 2 IEnMin= 2 EnMin= -2150.62557085764     IErMin= 2 ErrMin= 3.30D-03
 ErrMax= 3.30D-03  0.00D+00 EMaxC= 1.00D-01 BMatC= 4.08D-02 BMatP= 8.37D-01
 IDIUse=3 WtCom= 9.67D-01 WtEn= 3.30D-02
 Coeff-Com: -0.206D-01 0.102D+01
 Coeff-En:   0.000D+00 0.100D+01
 Coeff:     -0.199D-01 0.102D+01
 Gap=     0.174 Goal=   None    Shift=    0.000
 RMSDP=1.56D-03 MaxDP=1.25D-01 DE=-4.90D-01 OVMax= 1.41D-01

 Cycle   3  Pass 0  IDiag  1:
 RMSU=  1.32D-03    CP:  8.81D-01  1.19D+00
 E= -2151.08925370163     Delta-E=       -0.463682843991 Rises=F Damp=F
 DIIS: error= 6.28D-03 at cycle   3 NSaved=   3.
 NSaved= 3 IEnMin= 3 EnMin= -2151.08925370163     IErMin= 2 ErrMin= 3.30D-03
 ErrMax= 6.28D-03  0.00D+00 EMaxC= 1.00D-01 BMatC= 4.23D-02 BMatP= 4.08D-02
 IDIUse=3 WtCom= 9.37D-01 WtEn= 6.28D-02
 Coeff-Com: -0.524D-01 0.539D+00 0.514D+00
 Coeff-En:   0.000D+00 0.000D+00 0.100D+01
 Coeff:     -0.491D-01 0.505D+00 0.544D+00
 Gap=     0.162 Goal=   None    Shift=    0.000
 RMSDP=6.27D-04 MaxDP=5.60D-02 DE=-4.64D-01 OVMax= 8.42D-02

 Cycle   4  Pass 0  IDiag  1:
 RMSU=  5.05D-04    CP:  8.81D-01  1.27D+00  7.42D-01
 E= -2151.11870400433     Delta-E=       -0.029450302700 Rises=F Damp=F
 DIIS: error= 3.89D-03 at cycle   4 NSaved=   4.
 NSaved= 4 IEnMin= 4 EnMin= -2151.11870400433     IErMin= 2 ErrMin= 3.30D-03
 ErrMax= 3.89D-03  0.00D+00 EMaxC= 1.00D-01 BMatC= 1.44D-02 BMatP= 4.08D-02
 IDIUse=3 WtCom= 9.61D-01 WtEn= 3.89D-02
 Coeff-Com: -0.275D-01 0.165D+00 0.376D+00 0.487D+00
 Coeff-En:   0.000D+00 0.000D+00 0.306D+00 0.694D+00
 Coeff:     -0.265D-01 0.158D+00 0.373D+00 0.495D+00
 Gap=     0.149 Goal=   None    Shift=    0.000
 RMSDP=2.98D-04 MaxDP=2.99D-02 DE=-2.95D-02 OVMax= 4.79D-02

 Cycle   5  Pass 0  IDiag  1:
 RMSU=  1.65D-04    CP:  8.79D-01  1.26D+00  8.10D-01  5.48D-01
 E= -2151.13442415299     Delta-E=       -0.015720148659 Rises=F Damp=F
 DIIS: error= 8.61D-04 at cycle   5 NSaved=   5.
 NSaved= 5 IEnMin= 5 EnMin= -2151.13442415299     IErMin= 5 ErrMin= 8.61D-04
 ErrMax= 8.61D-04  0.00D+00 EMaxC= 1.00D-01 BMatC= 1.31D-03 BMatP= 1.44D-02
 IDIUse=3 WtCom= 9.91D-01 WtEn= 8.61D-03
 Coeff-Com: -0.126D-01 0.536D-01 0.188D+00 0.315D+00 0.456D+00
 Coeff-En:   0.000D+00 0.000D+00 0.000D+00 0.224D-01 0.978D+00
 Coeff:     -0.125D-01 0.532D-01 0.187D+00 0.312D+00 0.461D+00
 Gap=     0.148 Goal=   None    Shift=    0.000
 RMSDP=8.84D-05 MaxDP=5.14D-03 DE=-1.57D-02 OVMax= 1.59D-02

 Cycle   6  Pass 0  IDiag  1:
 RMSU=  6.78D-05    CP:  8.79D-01  1.26D+00  8.11D-01  5.84D-01  6.78D-01
 E= -2151.13570634337     Delta-E=       -0.001282190387 Rises=F Damp=F
 DIIS: error= 2.85D-04 at cycle   6 NSaved=   6.
 NSaved= 6 IEnMin= 6 EnMin= -2151.13570634337     IErMin= 6 ErrMin= 2.85D-04
 ErrMax= 2.85D-04  0.00D+00 EMaxC= 1.00D-01 BMatC= 1.75D-04 BMatP= 1.31D-03
 IDIUse=3 WtCom= 9.97D-01 WtEn= 2.85D-03
 Coeff-Com: -0.349D-02 0.725D-02 0.525D-01 0.111D+00 0.299D+00 0.534D+00
 Coeff-En:   0.000D+00 0.000D+00 0.000D+00 0.000D+00 0.129D+00 0.871D+00
 Coeff:     -0.348D-02 0.723D-02 0.523D-01 0.110D+00 0.298D+00 0.535D+00
 Gap=     0.147 Goal=   None    Shift=    0.000
 RMSDP=3.60D-05 MaxDP=1.40D-03 DE=-1.28D-03 OVMax= 5.13D-03

 Cycle   7  Pass 0  IDiag  1:
 RMSU=  2.91D-05    CP:  8.79D-01  1.26D+00  8.13D-01  5.87D-01  7.26D-01
                    CP:  7.14D-01
 E= -2151.13594742859     Delta-E=       -0.000241085217 Rises=F Damp=F
 DIIS: error= 8.32D-05 at cycle   7 NSaved=   7.
 NSaved= 7 IEnMin= 7 EnMin= -2151.13594742859     IErMin= 7 ErrMin= 8.32D-05
 ErrMax= 8.32D-05  0.00D+00 EMaxC= 1.00D-01 BMatC= 1.70D-05 BMatP= 1.75D-04
 IDIUse=1 WtCom= 1.00D+00 WtEn= 0.00D+00
 Coeff-Com: -0.133D-02 0.949D-03 0.194D-01 0.462D-01 0.152D+00 0.332D+00
 Coeff-Com:  0.451D+00
 Coeff:     -0.133D-02 0.949D-03 0.194D-01 0.462D-01 0.152D+00 0.332D+00
 Coeff:      0.451D+00
 Gap=     0.147 Goal=   None    Shift=    0.000
 RMSDP=1.61D-05 MaxDP=6.70D-04 DE=-2.41D-04 OVMax= 1.10D-03

 Cycle   8  Pass 0  IDiag  1:
 RMSU=  1.43D-05    CP:  8.79D-01  1.26D+00  8.13D-01  5.87D-01  7.09D-01
                    CP:  7.76D-01  1.17D+00
 E= -2151.13597950663     Delta-E=       -0.000032078039 Rises=F Damp=F
 DIIS: error= 2.59D-05 at cycle   8 NSaved=   8.
 NSaved= 8 IEnMin= 8 EnMin= -2151.13597950663     IErMin= 8 ErrMin= 2.59D-05
 ErrMax= 2.59D-05  0.00D+00 EMaxC= 1.00D-01 BMatC= 8.82D-07 BMatP= 1.70D-05
 IDIUse=1 WtCom= 1.00D+00 WtEn= 0.00D+00
 Coeff-Com: -0.367D-03-0.153D-03 0.538D-02 0.138D-01 0.519D-01 0.123D+00
 Coeff-Com:  0.227D+00 0.579D+00
 Coeff:     -0.367D-03-0.153D-03 0.538D-02 0.138D-01 0.519D-01 0.123D+00
 Coeff:      0.227D+00 0.579D+00
 Gap=     0.147 Goal=   None    Shift=    0.000
 RMSDP=1.86D-05 MaxDP=6.71D-04 DE=-3.21D-05 OVMax= 2.11D-04

 Cycle   9  Pass 0  IDiag  1:
 RMSU=  1.39D-05    CP:  8.79D-01  1.26D+00  8.13D-01  5.87D-01  7.08D-01
                    CP:  8.04D-01  1.46D+00  1.61D+00
 E= -2151.13598390333     Delta-E=       -0.000004396703 Rises=F Damp=F
 DIIS: error= 2.95D-05 at cycle   9 NSaved=   9.
 NSaved= 9 IEnMin= 9 EnMin= -2151.13598390333     IErMin= 8 ErrMin= 2.59D-05
 ErrMax= 2.95D-05  0.00D+00 EMaxC= 1.00D-01 BMatC= 5.81D-07 BMatP= 8.82D-07
 IDIUse=1 WtCom= 1.00D+00 WtEn= 0.00D+00
 Coeff-Com: -0.228D-03-0.145D-03 0.335D-02 0.866D-02 0.335D-01 0.808D-01
 Coeff-Com:  0.155D+00 0.435D+00 0.284D+00
 Coeff:     -0.228D-03-0.145D-03 0.335D-02 0.866D-02 0.335D-01 0.808D-01
 Coeff:      0.155D+00 0.435D+00 0.284D+00
 Gap=     0.147 Goal=   None    Shift=    0.000
 RMSDP=1.13D-05 MaxDP=4.51D-04 DE=-4.40D-06 OVMax= 6.19D-05

 Cycle  10  Pass 0  IDiag  1:
 RMSU=  7.15D-06    CP:  8.79D-01  1.26D+00  8.13D-01  5.86D-01  7.09D-01
                    CP:  8.27D-01  1.63D+00  1.96D+00  1.37D+00
 E= -2151.13598479697     Delta-E=       -0.000000893637 Rises=F Damp=F
 DIIS: error= 3.24D-05 at cycle  10 NSaved=  10.
 NSaved=10 IEnMin=10 EnMin= -2151.13598479697     IErMin= 8 ErrMin= 2.59D-05
 ErrMax= 3.24D-05  0.00D+00 EMaxC= 1.00D-01 BMatC= 6.09D-07 BMatP= 5.81D-07
 IDIUse=1 WtCom= 1.00D+00 WtEn= 0.00D+00
 Coeff-Com: -0.218D-03-0.198D-03 0.322D-02 0.847D-02 0.335D-01 0.819D-01
 Coeff-Com:  0.163D+00 0.499D+00 0.464D+00-0.253D+00
 Coeff:     -0.218D-03-0.198D-03 0.322D-02 0.847D-02 0.335D-01 0.819D-01
 Coeff:      0.163D+00 0.499D+00 0.464D+00-0.253D+00
 Gap=     0.147 Goal=   None    Shift=    0.000
 RMSDP=7.81D-06 MaxDP=4.18D-04 DE=-8.94D-07 OVMax= 1.59D-05

 Initial convergence to 1.0D-05 achieved.  Increase integral accuracy.
[...]
 0.00000020,-0.00000013,0.00000072,-0.00000022,-0.00000017,0.00000057,0
 .00000055,-0.00000001,-0.00000040,0.00000011,0.00000017,0.00000005,-0.
 00000138,-0.00000036,0.00000058,0.00000061,-0.00000106,-0.00000027,0.0
 0000040,0.00000031,0.00000016,-0.00000043,0.00000110,0.00000106,0.0000
 0107,0.00000034,-0.00000078,0.00000132,0.00000045,-0.00000166,-0.00000
 249,-0.00000284,0.00000580,0.00000202,-0.00000351,0.00000680,0.0000023
 4,-0.00000861,-0.00000649,0.00003578,0.00002435,-0.00000224,-0.0000028
 0,0.00000190,0.00000195,0.00000278,0.00000296,-0.00000191,-0.00000105,
 -0.00000197,-0.00000214,0.00000085,-0.00000035,-0.00000194,0.00000030,
 -0.00000087,-0.00000229,0.00000159,0.00000042,0.00000093,0.00000128,0.
 00000096,0.00000123,-0.00000423,-0.00000568,-0.00000211,0.00000307,-0.
 00000210,0.00000020,0.00000359,0.00000358,-0.00044860,0.00048732,-0.00
 117957,0.00137681,-0.00007378,0.00053189,0.11824012,-0.00011105,-0.000
 07920,0.00005098,0.00008458,0.00009030,-0.00008932,-0.00005806,-0.0000
 0033,0.00000819,0.00000575,0.00003415,0.00000693,0.00000090,-0.0000030
 1,-0.00000015,-0.00000231,-0.00000415,-0.00000073,-0.00000063,-0.00000
 090,-0.00000204,-0.00000021,-0.00000009,0.00000033,-0.00000015,0.00000
 005,-0.00000003,0.00000072,0.00000063,-0.00000035,-0.00000031,-0.00000
 008,-0.00000026,-0.00000031,-0.00000003,-0.00000018,0.00000012,0.00000
 009,0.,0.00000031,-0.00000014,-0.00000032,-0.00000045,-0.00000067,-0.0
 0000038,-0.00000017,0.00000058,-0.00000054,-0.00000114,-0.00000032,-0.
 00000064,0.00000066,0.00000091,0.00000006,-0.00000066,-0.00000029,-0.0
 0000048,-0.00000095,-0.00000123,-0.00000080,0.00000309,-0.00002636,-0.
 00001407,0.00000206,0.00001842,-0.00000514,0.00000591,-0.00001846,-0.0
 0000694,-0.00001281,-0.00000692,-0.00000824,0.00000300,0.00000486,-0.0
 0001566,0.00001748,0.00001126,0.00004516,0.00008489,0.00020861,0.00010
 065,0.00034960,0.00012454,0.00014061,0.00014005,-0.00063788,-0.0001312
 6,-0.00006438,-0.00010727,0.00010000,-0.00024477,0.00007205,0.00013297
 ,0.00003817,-0.00054294,-0.00048555,-0.00003024,0.00000597,-0.00004461
 ,0.00004011,0.00002848,0.00000883,-0.00000322,0.00000218,0.00000483,0.
 00000056,-0.00000468,-0.00000115,-0.00001046,-0.00000272,-0.00000085,0
 .00000439,0.00000006,0.00000192,-0.00000145,-0.00000167,-0.00000274,0.
 00000305,-0.00000013,0.00000065,0.00000054,0.00000039,0.00000022,-0.00
 000086,-0.00000077,-0.00000080,0.00000086,-0.00000101,-0.00000061,0.00
 000059,0.00000167,0.00000206,0.00000142,-0.00000156,-0.00000273,0.0000
 0246,0.00000442,0.00000438,0.00000827,0.00000105,0.00000238,0.00000424
 ,-0.00000970,0.00000233,-0.00013556,-0.00053566,-0.00018103,-0.0002862
 5,0.00498788,0.00132668,-0.00091952,0.00379539,-0.00044910,0.03812155,
 -0.06851002,0.07913058,0.00548621,0.00114393,0.00864208,-0.00200542,0.
 00699703,0.00389978,0.00005434,-0.00001733,-0.00006054,-0.00000227,0.0
 0000056,-0.00000078,0.00000046,0.00000441,0.00000264,-0.00000012,0.000
 00152,0.00000094,-0.00000032,-0.00000012,0.00000033,0.00000042,-0.0000
 0032,0.00000013,0.00000014,0.00000001,0.00000021,0.00000012,-0.0000000
 7,0.00000021,-0.00000016,-0.00000008,0.00000034,-0.00000009,-0.0000007
 5,0.00000050,0.00000047,0.00000046,0.00000098,0.00000006,0.00000047,0.
 00000038,0.00000037,0.00000112,0.00000063,-0.00000258,-0.00000060,0.00
 000116,-0.00000181,-0.00000252,0.00000290,0.00000017,-0.00000665,0.000
 00638,-0.00000143,0.00000387,0.00001297,0.00003338,0.00002076,0.000009
 62,-0.00000762,0.00005241,0.00003178,0.00000887,-0.00001270,0.00000470
 ,-0.00000067,0.00000157,-0.00000005,-0.00000029,-0.00000111,-0.0000020
 2,0.00000041,0.00000050,0.00000016,0.00000078,-0.00000022,-0.00000010,
 0.00000068,-0.00000006,0.00000010,0.00000126,-0.00000055,-0.00000033,0
 .00000034,-0.00000129,-0.00000140,-0.00000073,0.00000241,0.00000391,0.
 00000222,-0.00000215,0.00000036,0.00000016,0.00000193,-0.00000116,-0.0
 0007848,0.00010832,-0.00002531,0.00027910,-0.00259799,-0.00121397,-0.0
 4109656,0.05957601,-0.00003496,-0.00016771,0.00007026,0.00007001,0.000
 18372,-0.00003769,-0.00005473,-0.00001549,0.00002001,0.00002148,0.0000
 5731,0.00001210,-0.00002618,-0.00000096,0.00000222,0.00002140,0.000014
 61,-0.00001525,0.00000094,-0.00000508,0.00000116,0.00000338,-0.0000002
 9,0.00000125,-0.00000551,-0.00000103,0.00000113,0.00000419,0.00000044,
 0.00000035,-0.00000041,0.00000014,0.00000155,0.00000141,-0.00000043,0.
 00000023,0.00000029,0.00000012,-0.00000023,0.00000055,-0.00000005,0.00
 000025,0.00000007,-0.00000037,0.00000027,0.00000012,0.00000010,0.00000
 071,-0.00000108,0.00000018,0.00000118,0.00000223,-0.00000136,-0.000000
 18,-0.00000091,-0.00000011,0.00000429,0.00001147,-0.00000577,0.0000001
 2,0.00003863,-0.00003004,-0.00000064,0.00001105,0.00002203,0.00000203,
 0.00002537,-0.00001272,0.00000128,-0.00002606,-0.00001663,0.00000201,-
 0.00002250,0.00003917,0.00001424,0.00002399,-0.00011691,-0.00001543,-0
 .00004351,0.00009818,0.00008038,-0.00105080,0.00023104,-0.00054065,0.0
 0023186,-0.00021473,-0.00013926,0.00010130,0.00013714,-0.00029961,0.00
 010179,0.00004485,0.00002143,-0.00002654,-0.00031930,0.00003803,0.0000
 2672,0.00000876,-0.00004040,-0.00000988,0.00002532,-0.00002035,0.00000
 244,0.00000467,0.00000223,0.00000175,0.00000332,0.00000409,0.00002139,
 0.00000076,0.00000022,-0.00001183,0.00000103,-0.00000238,0.00000222,0.
 00000131,0.00000601,-0.00000559,-0.00000067,-0.00000132,-0.00000233,-0
 .00000043,-0.00000099,-0.00000011,0.00000089,0.00000097,0.00000015,-0.
 00000061,-0.00000079,-0.00000103,-0.00000041,-0.00000073,0.00000389,0.
 00000134,0.00000422,-0.00000884,-0.00000659,-0.00000620,-0.00000817,-0
 .00000119,0.00000027,-0.00002661,-0.00002644,0.00000674,0.00058858,-0.
 00027641,0.00021037,-0.00022657,0.00133939,0.00204244,0.00175640,0.000
 64264,0.00210691,-0.10537378,0.07933128,-0.24966809,-0.01301535,0.0073
 0699,-0.01566963,0.00347002,0.00379269,-0.00046546,-0.00005662,0.00011
 069,-0.00000647,0.00001450,-0.00000437,-0.00001318,-0.00000202,0.00000
 030,-0.00000109,0.00000591,-0.00000133,-0.00000002,-0.00000093,0.00000
 075,-0.00000119,0.00000092,-0.00000052,-0.00000079,0.00000027,0.000000
 15,-0.00000047,0.00000025,0.00000009,-0.00000037,0.00000005,0.00000014
 ,-0.00000037,-0.00000021,-0.00000006,-0.00000056,-0.00000020,-0.000000
 40,-0.00000122,0.00000111,0.00000007,-0.00000034,-0.00000259,-0.000002
 83,0.00000422,0.00000486,0.00000539,-0.00000156,0.00000393,0.00000335,
 -0.00000178,-0.00000138,0.00000223,-0.00000179,0.00000161,-0.00002025,
 -0.00000620,-0.00006929,-0.00000435,0.00000323,-0.00000508,0.00003077,
 -0.00000245,0.00001088,0.00001104,0.00001261,-0.00000700,-0.00000336,0
 .00000032,0.00000233,0.00000312,0.00000230,-0.00000212,-0.00000128,-0.
 00000216,-0.00000230,0.00000091,-0.00000027,-0.00000208,0.00000009,-0.
 00000084,-0.00000184,0.00000135,0.00000077,0.00000100,0.00000026,0.000
 00078,0.00000053,-0.00000284,-0.00000451,-0.00000538,0.00000289,-0.000
 00334,0.00000607,-0.00000383,-0.00000083,0.00013504,0.00004874,-0.0000
 1824,-0.00035547,-0.00126698,0.00014129,0.11356153,-0.08878846,0.26185
 814,-0.00036721,-0.00070278,0.00025854,-0.00006355,0.00063750,0.001856
 92,0.00017745,0.00004784,-0.00015340,-0.00008906,-0.00012724,-0.000060
 75,0.00002714,-0.00000452,0.00000753,-0.00001509,-0.00000696,0.0000067
 8,0.00000203,0.00000472,-0.00000279,-0.00000027,-0.00000136,0.00000121
 ,0.00000473,0.00000002,-0.00000008,-0.00000214,0.00000069,0.00000050,0
 .00000052,-0.00000115,-0.00000060,-0.00000095,0.00000019,0.00000023,-0
 .00000070,0.00000025,0.00000014,0.00000016,-0.00000035,0.00000007,0.00
 000020,0.00000036,0.00000023,-0.00000019,-0.00000024,0.00000021,0.0000
 0079,-0.00000062,-0.00000033,-0.00000190,0.00000156,0.00000019,-0.0000
 0079,-0.00000046,-0.00000250,-0.00000988,0.00000346,-0.00000031,-0.000
 04927,0.00007782,-0.00003283,0.00000099,-0.00001946,0.00000834,-0.0000
 2095,0.00001943,-0.00000281,0.00004348,0.00001221,0.00000210,0.0000053
 2,0.00001538,-0.00007256,0.00025180,0.00016452,0.00033057,-0.00014348,
 -0.00052916,0.00114763,-0.00068884,-0.00030476,0.00138063,-0.00029232,
 0.00002805,-0.00010696,0.00018837,0.00002236,-0.00006023,0.00017961,0.
 00004182,-0.00004610,-0.00054484,-0.00024949,0.00041494,0.00004462,0.0
 0010357,-0.00013574,-0.00001145,0.00002312,-0.00000197,-0.00000834,0.0
 0000298,-0.00000077,0.00000482,-0.00000204,0.00000369,0.00002171,0.000
 00129,-0.00000111,-0.00001190,0.00000145,-0.00000272,0.00000239,0.0000
 0171,0.00000574,-0.00000551,-0.00000039,-0.00000144,-0.00000217,-0.000
 00056,-0.00000085,0.00000014,0.00000120,0.00000095,-0.00000007,-0.0000
 0013,-0.00000082,-0.00000086,-0.00000056,-0.00000154,0.00000295,0.0000
 0202,0.00000433,-0.00000809,-0.00000705,-0.00000658,-0.00001112,0.0000
 1355,0.00000781,-0.00005665,-0.00004062,-0.00000946,0.00081238,0.00056
 631,-0.00225323,0.00085925,0.00005421,-0.00008161,0.00055218,-0.001617
 50,0.00285703,-0.01225651,0.00029716,-0.00341643,-0.33629357,-0.009343
 89,-0.02324234,-0.01008403,-0.00090478,-0.00041948,-0.00023095,0.00005
 057,-0.00037069,0.00001738,0.00000075,-0.00002428,-0.00000032,0.000003
 93,-0.00000065,-0.00000064,0.00000041,-0.00000065,0.00000041,-0.000000
 77,-0.00000021,-0.00000029,0.00000053,-0.00000005,-0.00000060,-0.00000
 012,0.00000001,-0.00000055,0.00000020,0.00000004,-0.00000042,-0.000000
 41,-0.00000013,0.00000032,-0.00000001,-0.00000030,0.,0.00000088,0.0000
 0018,-0.00000138,-0.00000056,0.00000044,0.00000195,0.00000146,-0.00000
 240,-0.00000078,0.00000064,0.00000145,-0.00000175,-0.00000043,-0.00000
 169,-0.00000184,-0.00000149,0.00000032,-0.00001775,-0.00000109,-0.0000
 2657,-0.00006532,0.00002474,-0.00005096,0.00000295,0.00000904,-0.00001
 806,0.00000994,0.00000572,0.00000129,-0.00000625,-0.00000290,0.0000018
 0,0.00000208,0.00000278,0.00000286,-0.00000207,-0.00000147,-0.00000175
 ,-0.00000225,0.00000072,-0.00000007,-0.00000203,-0.00000004,-0.0000006
 3,-0.00000197,0.00000113,0.00000094,0.00000069,0.00000020,0.00000135,0
 .00000042,-0.00000358,-0.00000472,-0.00000922,0.00000312,-0.00000182,0
 .00000659,-0.00000348,-0.00000426,-0.00009554,0.00005889,0.00002270,-0
 .00056720,0.00006397,-0.00020025,0.00092376,0.00028919,0.00020194,0.35
 790130,-0.00059527,-0.00118448,0.00018626,0.00037478,0.00172704,0.0000
 2803,-0.00005594,-0.00006066,-0.00009604,0.00001744,0.00009099,0.00009
 444,-0.00003015,-0.00001952,-0.00000393,0.00002486,0.00002143,-0.00002
 256,0.00000361,-0.00000995,-0.00000187,0.00000156,0.00000010,0.0000033
 3,-0.00000847,-0.00000118,0.00000129,0.00000635,0.00000102,-0.00000060
 ,-0.00000088,0.00000066,0.00000163,0.00000176,-0.00000059,-0.00000011,
 0.00000087,-0.00000011,-0.00000033,0.00000083,0.00000008,-0.00000011,-
 0.00000058,-0.00000130,-0.00000019,0.00000024,0.00000070,0.00000002,-0
 .00000324,0.00000040,0.00000088,0.00000434,-0.00000161,-0.00000023,-0.
 00000235,-0.00000078,0.00000559,0.00001281,-0.00001100,0.00000105,-0.0
 0006183,-0.00011887,-0.00003454,0.00002446,0.00005365,0.00000656,0.000
 03152,-0.00006537,-0.00000759,-0.00007346,-0.00004645,-0.00004688,0.00
 000917,0.00001189,-0.00005757,-0.00017104,-0.00026123,0.00020453,0.000
 16259,-0.00016492,-0.00011415,0.00031777,-0.00195670,-0.00104256,0.000
 19134,-0.00035027,-0.00014555,-0.00008225,0.00020592,0.00007704,-0.000
 01083,-0.00012728,-0.00005298,0.00050686,0.00008188,-0.00012156,-0.000
 01597,0.00017839,0.00020838,0.00006656,-0.00006603,-0.00000738,-0.0000
 1409,0.00000717,-0.00001295,0.00000962,-0.00001285,0.00001002,-0.00000
 987,-0.00000162,-0.00000089,0.00000585,-0.00000067,0.00000158,-0.00000
 164,-0.00000005,-0.00000233,0.00000306,-0.00000041,0.00000028,0.000000
 94,0.00000027,0.00000056,-0.00000042,-0.00000076,-0.00000063,0.0000009
 3,-0.00000078,-0.00000023,0.00000002,0.00000080,0.00000100,0.00000104,
 -0.00000130,-0.00000208,0.00000274,0.00000431,0.00000379,0.00001013,0.
 00001488,-0.00001802,-0.00001042,0.00000515,0.00000908,0.00047019,0.00
 380313,0.00326203,0.00004984,-0.00076648,0.00035664,-0.00109837,0.0062
 1414,0.00419503,-0.01081309,0.00413665,-0.00104911,-0.01020192,-0.0402
 1035,0.00709640,0.00976836,0.00355532,0.00019101,-0.00005614,0.0000380
 5,-0.00039265,0.00004274,-0.00000966,-0.00002646,0.00000108,0.00000705
 ,0.00000418,0.00000639,-0.00000019,0.00000109,-0.00000136,0.00000111,-
 0.00000064,0.00000149,-0.00000115,-0.00000056,0.00000081,0.00000017,-0
 .00000029,0.00000077,-0.00000016,-0.00000023,0.00000031,0.00000040,0.,
 -0.00000067,-0.00000076,0.00000010,0.00000014,-0.00000056,-0.00000032,
 0.00000179,0.00000091,-0.00000030,-0.00000315,-0.00000212,0.00000726,0
 .00000373,0.00000642,0.00000277,0.00000627,0.00000245,0.00000596,0.000
 00092,-0.00000062,0.00001056,0.00002545,-0.00000121,0.00003471,0.00002
 369,-0.00001968,0.00000975,-0.00001594,0.00002998,0.00001884,-0.000015
 33,0.00001082,-0.00001950,0.00000346,0.00000222,0.00000184,-0.00000050
 ,-0.00000086,-0.00000099,0.00000060,0.00000041,0.00000029,0.00000056,-
 0.00000021,-0.00000003,0.00000052,-0.00000014,0.00000006,0.00000083,-0
 .00000036,-0.00000029,0.00000034,-0.00000080,-0.00000119,-0.00000058,0
 .00000180,0.00000263,0.00000214,-0.00000264,-0.00000442,-0.00000451,-0
 .00000128,0.00001049,0.00003149,-0.00089824,-0.00036962,-0.00053152,0.
 00026611,0.00003366,0.00043701,-0.00416851,-0.00218916,0.01121683,0.03
 006879,0.00011103,0.00001369,0.00026039,0.00099377,-0.00019182,-0.0014
 4737,0.00023359,-0.00004624,-0.00000579,-0.00001043,-0.00021785,-0.000
 02702,0.00008723,-0.00002502,0.00000543,-0.00006037,-0.00003523,0.0000
 2198,-0.00000580,0.00000772,0.00000703,-0.00000426,-0.00000333,-0.0000
 0432,0.00003418,0.00000007,0.00000015,-0.00001876,0.00000197,0.0000024
 0,0.00000318,-0.00000674,-0.00000633,-0.00000876,0.00000204,0.00000056
 ,-0.00000369,0.00000103,0.00000081,-0.00000013,-0.00000189,-0.00000055
 ,-0.00000022,0.00000120,0.00000007,-0.00000147,0.00000055,-0.00000085,
 0.00000465,-0.00000501,-0.00000498,-0.00001355,0.00001377,0.00000122,-
 0.00000853,-0.00000376,-0.00001126,-0.00004870,0.00003449,-0.00000819,
 -0.00024934,0.00017273,0.00000492,0.00006892,-0.00007309,-0.00002394,-
 0.00013118,-0.00001177,-0.00000555,0.00016560,0.00004665,-0.00000399,-
 0.00010977,-0.00027109,0.00000865,0.00047075,0.00060040,0.00012874,0.0
 0009652,0.00021666,-0.00088118,-0.00036074,-0.00119275,-0.00006987,-0.
 00002043,-0.00033766,0.00036740,0.00023868,0.00013062,-0.00006542,-0.0
 0012783,-0.00006293,0.00003106,-0.00137224,-0.00022253,0.00022215,0.00
 005735,0.00026485,-0.00028574,0.00001235,-0.00001287,0.00001959,-0.000
 02281,0.00001274,0.00000269,0.00000089,-0.00001338,0.00000523,0.000020
 55,0.00000038,-0.00000269,-0.00001196,0.00000126,-0.00000255,0.0000021
 2,0.00000097,0.00000477,-0.00000500,-0.00000028,-0.00000135,-0.0000019
 8,-0.00000037,-0.00000058,-0.00000003,0.00000104,0.00000069,-0.0000003
 9,-0.00000004,-0.00000082,-0.00000038,-0.00000021,-0.00000041,0.000001
 90,0.00000121,0.00000392,-0.00000687,-0.00000632,-0.00000614,-0.000005
 20,0.00003575,0.00001939,-0.00011863,-0.00004323,-0.00000657,-0.000600
 06,0.00351504,-0.00337165,0.00005932,0.00006949,-0.00084399,0.00167351
 ,0.00417385,-0.00227140,0.02549122,0.00094836,0.00562474,-0.02267530,0
 .00653055,-0.05617401,-0.02638024,-0.00127212,0.00227120,-0.00036816,-
 0.00002705,-0.00038376,-0.00000870,0.00002220,0.00000169,0.00000938,-0
 .00000176,0.00001245,-0.00001391,0.00000761,-0.00000155,0.00000367,-0.
 00000599,0.00000112,-0.00000324,0.00000334,0.00000146,-0.00000334,-0.0
 0000092,0.00000131,-0.00000304,0.00000051,0.00000119,-0.00000254,-0.00
 000236,0.00000063,0.00000157,-0.00000139,0.00000026,0.00000094,0.00000
 699,0.00000480,-0.00000863,-0.00000223,0.00000484,0.00000978,0.0000069
 0,-0.00001241,-0.00001547,-0.00000983,0.00000135,-0.00000542,-0.000014
 93,0.00000209,0.00000395,-0.00002281,-0.00000161,0.00001333,-0.0000371
 0,-0.00000481,-0.00011337,0.00004835,-0.00010051,0.00002679,0.00002482
 ,-0.00001409,0.00000714,0.00000698,-0.00002037,-0.00000762,-0.00000362
 ,-0.00000019,0.00000199,0.00000247,0.00000247,-0.00000210,-0.00000137,
 -0.00000155,-0.00000189,0.00000062,0.,-0.00000171,-0.00000002,-0.00000
 041,-0.00000139,0.00000087,0.00000080,0.00000044,0.00000030,0.00000098
 ,0.00000049,-0.00000219,-0.00000465,-0.00001332,0.00000251,-0.00000489
 ,0.00000672,-0.00000284,-0.00000693,-0.00001787,-0.00039835,-0.0000654
 5,0.00109207,0.00005282,0.00012126,-0.00032558,-0.00215312,0.00031071,
 0.02229677,-0.01024098,0.05667315\\-0.00000381,-0.00000062,0.00000331,
 -0.00000009,0.00000436,-0.00000128,-0.00000081,0.00000441,0.00000107,0
 .00000257,-0.00000364,0.00000048,-0.00000121,0.00000230,-0.00000183,0.
 00000203,-0.00000081,-0.00000114,-0.00000258,-0.00000134,-0.00000311,0
 .00000369,-0.00000011,-0.00000055,-0.00000469,0.00000139,-0.00000046,0
 .00000215,-0.00000030,0.00000295,-0.00000216,0.00000293,0.00000109,-0.
 00000071,-0.00000026,0.00000049,0.00000149,0.00000176,-0.00000026,-0.0
 0000146,-0.00000360,-0.00000078,-0.00000495,0.00000076,0.00000082,0.00
 000534,0.00000024,-0.00000069,0.00000036,-0.00000385,0.00000048,-0.000
 00073,0.00000322,-0.00000262,-0.00000223,0.00000053,0.00000109,0.00000
 086,0.00000028,0.00000221,-0.00000105,0.00000405,-0.00000053,0.0000002
 8,-0.00000474,-0.00000085,-0.00000603,0.00000069,0.00000051,0.00000557
 ,0.00000100,-0.00000006,0.00000016,-0.00000545,-0.00000010,-0.00000038
 ,0.00000340,-0.00000160,0.00000198,-0.00000587,0.00000243,-0.00000207,
 0.00000531,-0.00000447,0.00000163,-0.00000357,0.00000395,0.00000372,0.
 00000335,0.00000066,-0.00000049,-0.00000212,0.00000432,-0.00000003,0.0
 0000323,-0.00000235,-0.00000128,-0.00000311,0.00000028,-0.00000035,0.0
 0000180,0.00000126,0.00000124,0.00000039,-0.00000146,-0.00000118,0.000
 00143,-0.00000081,0.00000244,0.00000020,0.00000087,-0.00000148,-0.0000
 0141,0.00000205,0.00000132,0.00000142,0.00000307,0.00000094,-0.0000005
 2,0.00000029,-0.00000141,0.00000140,0.00000085,0.00000148,-0.00000221,
 -0.00000251,0.00000469,-0.00000014,0.00000140,-0.00000488,0.00000022,-
 0.00000042,-0.00000002,-0.00000295,-0.00000245,0.00000106,0.00000363,0
 .00000080,0.00000109,-0.00000101,0.00000091,-0.00000036,0.00000006,0.0
 0000118,0.00000067,-0.00000155,0.00000382,-0.00000030,0.00000103,-0.00
 000592,0.00000582,0.00000032,0.00000069,-0.00000542,-0.00000071,0.0000
 0076,0.00000016,0.00000246,-0.00000506,-0.00000016,-0.00000322,0.00000
 233,0.00000324,-0.00000092,-0.00000184,-0.00000013,-0.00000218,-0.0000
 0073,-0.00000015,-0.00000092,0.00000089,-0.00000025,-0.00000058,0.0000
 0119,-0.00000001,-0.00000100,-0.00000096,0.00000025,-0.00000147,-0.000
 00074,0.00000082,0.00000006,-0.00000082,0.00000095,0.00000017,0.000000
 27,0.00000124,0.00000088,-0.00000028,-0.00000062,0.00000096,0.00000034
 ,0.00000187,0.00000135,0.00000204,-0.00000134,-0.00000148,-0.00000191,
 -0.00000040,-0.00000026,-0.00000148,0.00000101,0.00000047,0.00000061,0
 .00000153,0.00000061,0.00000002,-0.00000119,0.00000056,0.00000045,-0.0
 0000071,0.00000066,0.00000020,-0.00000325,-0.00000100,-0.00000166,0.00
 000006,0.00000060,-0.00000200,0.00000069,-0.00000104,0.00000023,-0.000
 00012,-0.00000098,0.00000030,0.00000003,-0.00000011,-0.00000106,-0.000
 00034,-0.00000057,-0.00000144,-0.00000090,0.00000033,-0.00000032,-0.00
 000101,-0.00000013,0.00000058,-0.00000123,0.00000083,0.00000057,0.0000
 0060,0.00000058,0.00000100,-0.00000108,-0.00000031,0.00000206,0.000001
 11,0.00000034,-0.00000159,0.00000061,0.00000107,-0.00000049,-0.0000020
 5,-0.00000016,-0.00000037,-0.00000145,-0.00000054,0.00000040,0.0000011
 8,-0.00000011,0.00000066,0.00000065,-0.00000018,0.00000076\\\@
 The archive entry for this job was punched.


 IN NATURE THERE ARE NEITHER REWARDS OR
 PUNISHMENTS -- THERE ARE CONSEQUENCES.

                            -- ROBERT GREEN INGERSOLL
 Job cpu time:       0 days 12 hours  6 minutes 45.9 seconds.
 Elapsed time:       0 days  0 hours 24 minutes  1.9 seconds.
 File lengths (MBytes):  RWF=   6307 Int=      0 D2E=      0 Chk=     59 Scr=      1
 Normal termination of Gaussian 16 at Mon Mar 24 06:41:18 2025.
