 Entering Gaussian System, Link 0=g16
 Initial command:
 /public/software/apps/Gaussian/g16/l1.exe "/tmp/Gau-93378.inp" -scrdir="/tmp/"
 Entering Link 1 = /public/software/apps/Gaussian/g16/l1.exe PID=     93379.
  
 Copyright (c) 1988-2019, Gaussian, Inc.  All Rights Reserved.
  
 This is part of the Gaussian(R) 16 program.  It is based on
 the Gaussian(R) 09 system (copyright 2009, Gaussian, Inc.),
 the Gaussian(R) 03 system (copyright 2003, Gaussian, Inc.),
 the Gaussian(R) 98 system (copyright 1998, Gaussian, Inc.),
 the Gaussian(R) 94 system (copyright 1995, Gaussian, Inc.),
 the Gaussian 92(TM) system (copyright 1992, Gaussian, Inc.),
 the Gaussian 90(TM) system (copyright 1990, Gaussian, Inc.),
 the Gaussian 88(TM) system (copyright 1988, Gaussian, Inc.),
 the Gaussian 86(TM) system (copyright 1986, Carnegie Mellon
 University), and the Gaussian 82(TM) system (copyright 1983,
 Carnegie Mellon University). Gaussian is a federally registered
 trademark of Gaussian, Inc.
  
 This software contains proprietary and confidential information,
 including trade secrets, belonging to Gaussian, Inc.
  
 This software is provided under written license and may be
 used, copied, transmitted, or stored only in accord with that
 written license.
  
 The following legend is applicable only to US Government
 contracts under FAR:
  
                    RESTRICTED RIGHTS LEGEND
  
 Use, reproduction and disclosure by the US Government is
 subject to restrictions as set forth in subparagraphs (a)
 and (c) of the Commercial Computer Software - Restricted
 Rights clause in FAR 52.227-19.
  
 Gaussian, Inc.
 340 Quinnipiac St., Bldg. 40, Wallingford CT 06492
  
  
 ---------------------------------------------------------------
 Warning -- This program may not be used in any manner that
 competes with the business of Gaussian, Inc. or will provide
 assistance to any competitor of Gaussian, Inc.  The licensee
 of this program is prohibited from giving any competitor of
 Gaussian, Inc. access to this program.  By using this program,
 the user acknowledges that Gaussian, Inc. is engaged in the
 business of creating and licensing software in the field of
 computational chemistry and represents and warrants to the
 licensee that it is not a competitor of Gaussian, Inc. and that
 it will not use this program in any manner prohibited above.
 ---------------------------------------------------------------
  

 Cite this work as:
 Gaussian 16, Revision C.01,
 M. J. Frisch, G. W. Trucks, H. B. Schlegel, G. E. Scuseria, 
 M. A. Robb, J. R. Cheeseman, G. Scalmani, V. Barone, 
 G. A. Petersson, H. Nakatsuji, X. Li, M. Caricato, A. V. Marenich, 
 J. Bloino, B. G. Janesko, R. Gomperts, B. Mennucci, H. P. Hratchian, 
 J. V. Ortiz, A. F. Izmaylov, J. L. Sonnenberg, D. Williams-Young, 
 F. Ding, F. Lipparini, F. Egidi, J. Goings, B. Peng, A. Petrone, 
 T. Henderson, D. Ranasinghe, V. G. Zakrzewski, J. Gao, N. Rega, 
 G. Zheng, W. Liang, M. Hada, M. Ehara, K. Toyota, R. Fukuda, 
 J. Hasegawa, M. Ishida, T. Nakajima, Y. Honda, O. Kitao, H. Nakai, 
 T. Vreven, K. Throssell, J. A. Montgomery, Jr., J. E. Peralta, 
 F. Ogliaro, M. J. Bearpark, J. J. Heyd, E. N. Brothers, K. N. Kudin, 
 V. N. Staroverov, T. A. Keith, R. Kobayashi, J. Normand, 
 K. Raghavachari, A. P. Rendell, J. C. Burant, S. S. Iyengar, 
 J. Tomasi, M. Cossi, J. M. Millam, M. Klene, C. Adamo, R. Cammi, 
 J. W. Ochterski, R. L. Martin, K. Morokuma, O. Farkas, 
 J. B. Foresman, and D. J. Fox, Gaussian, Inc., Wallingford CT, 2019.
 
 ******************************************
 Gaussian 16:  ES64L-G16RevC.01  3-Jul-2019
                25-Mar-2025 
 ******************************************
 %nprocshared=32
 Will use up to   32 processors via shared memory.
 %mem=100GB
 ------------------------------------------
 #p opt freq b3lyp/def2svpp em=gd3bj nosymm
 ------------------------------------------
 1/18=20,19=15,26=3,38=1/1,3;
 2/9=110,12=2,15=1,17=6,18=5,40=1/2;
 3/5=43,7=202,11=2,25=1,30=1,71=1,74=-5,124=41/1,2,3;
 4//1;
 5/5=2,38=5/2;
 6/7=2,8=2,9=2,10=2,28=1/1;
 7/30=1/1,2,3,16;
 1/18=20,19=15,26=3/3(2);
 2/9=110,15=1/2;
 99//99;
 2/9=110,15=1/2;
 3/5=43,7=202,11=2,25=1,30=1,71=1,74=-5,124=41/1,2,3;
 4/5=5,16=3,69=1/1;
 5/5=2,38=5/2;
 7/30=1/1,2,3,16;
 1/18=20,19=15,26=3/3(-5);
 2/9=110,15=1/2;
 6/7=2,8=2,9=2,10=2,19=2,28=1/1;
 99/9=1/99;
 Leave Link    1 at Tue Mar 25 15:37:09 2025, MaxMem= 13421772800 cpu:               2.1 elap:               0.1
 (Enter /public/software/apps/Gaussian/g16/l101.exe)
 ----------------------
 $$$$Singlemol####0????
 ----------------------
 Symbolic Z-matrix:
 Charge =  0 Multiplicity = 1
 C                    -9.48937   0.10803   2.88939 
 C                    -9.27832  -0.17442   1.39113 
 C                    -9.63331  -1.65353   1.09316 
 C                    -10.1177   0.83609   0.56914 
 O                    -7.83836   0.07556   1.22735 
 C                    -7.11264  -0.14893   0.10884 
 C                    -7.59849  -0.44758  -1.17419 
 C                    -6.69714  -0.63741  -2.23452 
 C                    -5.32442  -0.50988  -2.04897 
 C                    -4.8243   -0.19749  -0.76723 
 C                    -3.36129  -0.09936  -0.51583 
 C                    -2.80394  -0.89479   0.462 
 C                    -1.41262  -0.88287   0.72076 
 O                    -0.97028  -1.72611   1.68651 
 C                    -0.55323  -0.06405   0.0059 
 C                     0.9122   -0.13429   0.26782 
 C                     1.73381  -0.72817  -0.68319 
 O                     1.266    -1.20828  -1.85778 
 C                     3.12294  -0.87406  -0.45017 
 C                     3.71739  -0.42393   0.72308 
 C                     5.16676  -0.64933   0.91414 
 C                     5.66465  -1.34393   2.03747 
 C                     7.04037  -1.57457   2.15619 
 C                     7.92084  -1.12947   1.17844 
 C                     7.44813  -0.43543   0.05458 
 O                     8.39949  -0.02071  -0.81255 
 C                     8.20027   0.28722  -2.21601 
 C                     7.55439   1.6632   -2.39638 
 C                     9.6351    0.32307  -2.75196 
 C                     7.40984  -0.81937  -2.92962 
 C                     6.06872  -0.19596  -0.06878 
 C                     2.90379   0.2357    1.71592 
 C                     3.44837   0.79227   2.89522 
 C                     2.65756   1.43084   3.82718 
 C                     1.26542   1.55144   3.60336 
 C                     0.69374   1.04584   2.44888 
 C                     1.49163   0.37973   1.47899 
 C                    -1.10604   0.815    -0.98748 
 C                    -0.2914    1.72373  -1.71845 
 C                    -0.82623   2.58556  -2.65806 
 C                    -2.2193    2.58177  -2.90181 
 C                    -3.03707   1.72611  -2.20786 
 C                    -2.51955   0.80575  -1.25001 
 C                    -5.72323  -0.02523   0.29177 
 H                    -10.55366  -0.04042   3.16833 
 H                    -9.19413   1.15414   3.12028 
 H                    -8.86259  -0.58258   3.49696 
 H                    -9.50543  -1.92273   0.04145 
 H                    -10.69398  -1.84403   1.36598 
 H                    -8.98438  -2.33017   1.69905 
 H                    -11.19461   0.75035   0.84535 
 H                    -9.77108   1.87271   0.77398 
 H                    -10.03969   0.66554  -0.51332 
 H                    -8.67299  -0.55385  -1.36838 
 H                    -7.08863  -0.88119  -3.22695 
 H                    -4.63499  -0.66396  -2.87314 
 H                    -3.42692  -1.59939   1.02869 
 H                    -0.0035   -1.62843   1.77044 
 H                     0.3015   -1.04918  -1.89668 
 H                     3.72027  -1.38546  -1.2044 
 H                     4.965    -1.716     2.79408 
 H                     7.4198   -2.12244   3.01925 
 H                     8.99774  -1.29768   1.2542 
 H                     7.61289   1.97625  -3.45707 
 H                     6.49573   1.68681  -2.09472 
 H                     8.10345   2.4167   -1.78546 
 H                     9.64267   0.56368  -3.82862 
 H                     10.22694   1.07933  -2.21258 
 H                     10.12925  -0.66241  -2.61201 
 H                     7.8959   -1.80424  -2.74849 
 H                     7.40939  -0.63442  -4.01758 
 H                     6.3654   -0.88986  -2.58904 
 H                     5.65921   0.36301  -0.90672 
 H                     4.52487   0.71859   3.072 
 H                     3.1008    1.8535    4.73346 
 H                     0.63226   2.06571   4.32925 
 H                    -0.37711   1.16823   2.26455 
 H                     0.78071   1.7371   -1.51076 
 H                    -0.16934   3.2757   -3.19517 
 H                    -2.63933   3.28219  -3.634 
 H                    -4.11399   1.74155  -2.38235 
 H                    -5.36429   0.21605   1.29461 
 
 ITRead=  0  0  0  0  0  0  0  0  0  0  0  0  0  0  0  0  0  0  0  0
 ITRead=  0  0  0  0  0  0  0  0  0  0  0  0  0  0  0  0  0  0  0  0
 ITRead=  0  0  0  0  0  0  0  0  0  0  0  0  0  0  0  0  0  0  0  0
 ITRead=  0  0  0  0  0  0  0  0  0  0  0  0  0  0  0  0  0  0  0  0
 ITRead=  0  0
 MicOpt= -1 -1 -1 -1 -1 -1 -1 -1 -1 -1 -1 -1 -1 -1 -1 -1 -1 -1 -1 -1
 MicOpt= -1 -1 -1 -1 -1 -1 -1 -1 -1 -1 -1 -1 -1 -1 -1 -1 -1 -1 -1 -1
 MicOpt= -1 -1 -1 -1 -1 -1 -1 -1 -1 -1 -1 -1 -1 -1 -1 -1 -1 -1 -1 -1
 MicOpt= -1 -1 -1 -1 -1 -1 -1 -1 -1 -1 -1 -1 -1 -1 -1 -1 -1 -1 -1 -1
 MicOpt= -1 -1
 NAtoms=     82 NQM=       82 NQMF=       0 NMMI=      0 NMMIF=      0
                NMic=       0 NMicF=      0.
                    Isotopes and Nuclear Properties:
 (Nuclear quadrupole moments (NQMom) in fm**2, nuclear magnetic moments (NMagM)
  in nuclear magnetons)

  Atom         1           2           3           4           5           6           7           8           9          10
 IAtWgt=          12          12          12          12          16          12          12          12          12          12
 AtmWgt=  12.0000000  12.0000000  12.0000000  12.0000000  15.9949146  12.0000000  12.0000000  12.0000000  12.0000000  12.0000000
 NucSpn=           0           0           0           0           0           0           0           0           0           0
 AtZEff=  -0.0000000  -0.0000000  -0.0000000  -0.0000000  -0.0000000  -0.0000000  -0.0000000  -0.0000000  -0.0000000  -0.0000000
 NQMom=    0.0000000   0.0000000   0.0000000   0.0000000   0.0000000   0.0000000   0.0000000   0.0000000   0.0000000   0.0000000
 NMagM=    0.0000000   0.0000000   0.0000000   0.0000000   0.0000000   0.0000000   0.0000000   0.0000000   0.0000000   0.0000000
 AtZNuc=   6.0000000   6.0000000   6.0000000   6.0000000   8.0000000   6.0000000   6.0000000   6.0000000   6.0000000   6.0000000

  Atom        11          12          13          14          15          16          17          18          19          20
 IAtWgt=          12          12          12          16          12          12          12          16          12          12
 AtmWgt=  12.0000000  12.0000000  12.0000000  15.9949146  12.0000000  12.0000000  12.0000000  15.9949146  12.0000000  12.0000000
 NucSpn=           0           0           0           0           0           0           0           0           0           0
 AtZEff=  -0.0000000  -0.0000000  -0.0000000  -0.0000000  -0.0000000  -0.0000000  -0.0000000  -0.0000000  -0.0000000  -0.0000000
 NQMom=    0.0000000   0.0000000   0.0000000   0.0000000   0.0000000   0.0000000   0.0000000   0.0000000   0.0000000   0.0000000
 NMagM=    0.0000000   0.0000000   0.0000000   0.0000000   0.0000000   0.0000000   0.0000000   0.0000000   0.0000000   0.0000000
 AtZNuc=   6.0000000   6.0000000   6.0000000   8.0000000   6.0000000   6.0000000   6.0000000   8.0000000   6.0000000   6.0000000

  Atom        21          22          23          24          25          26          27          28          29          30
 IAtWgt=          12          12          12          12          12          16          12          12          12          12
 AtmWgt=  12.0000000  12.0000000  12.0000000  12.0000000  12.0000000  15.9949146  12.0000000  12.0000000  12.0000000  12.0000000
 NucSpn=           0           0           0           0           0           0           0           0           0           0
 AtZEff=  -0.0000000  -0.0000000  -0.0000000  -0.0000000  -0.0000000  -0.0000000  -0.0000000  -0.0000000  -0.0000000  -0.0000000
 NQMom=    0.0000000   0.0000000   0.0000000   0.0000000   0.0000000   0.0000000   0.0000000   0.0000000   0.0000000   0.0000000
 NMagM=    0.0000000   0.0000000   0.0000000   0.0000000   0.0000000   0.0000000   0.0000000   0.0000000   0.0000000   0.0000000
 AtZNuc=   6.0000000   6.0000000   6.0000000   6.0000000   6.0000000   8.0000000   6.0000000   6.0000000   6.0000000   6.0000000

  Atom        31          32          33          34          35          36          37          38          39          40
 IAtWgt=          12          12          12          12          12          12          12          12          12          12
 AtmWgt=  12.0000000  12.0000000  12.0000000  12.0000000  12.0000000  12.0000000  12.0000000  12.0000000  12.0000000  12.0000000
 NucSpn=           0           0           0           0           0           0           0           0           0           0
 AtZEff=  -0.0000000  -0.0000000  -0.0000000  -0.0000000  -0.0000000  -0.0000000  -0.0000000  -0.0000000  -0.0000000  -0.0000000
 NQMom=    0.0000000   0.0000000   0.0000000   0.0000000   0.0000000   0.0000000   0.0000000   0.0000000   0.0000000   0.0000000
 NMagM=    0.0000000   0.0000000   0.0000000   0.0000000   0.0000000   0.0000000   0.0000000   0.0000000   0.0000000   0.0000000
 AtZNuc=   6.0000000   6.0000000   6.0000000   6.0000000   6.0000000   6.0000000   6.0000000   6.0000000   6.0000000   6.0000000

  Atom        41          42          43          44          45          46          47          48          49          50
 IAtWgt=          12          12          12          12           1           1           1           1           1           1
 AtmWgt=  12.0000000  12.0000000  12.0000000  12.0000000   1.0078250   1.0078250   1.0078250   1.0078250   1.0078250   1.0078250
 NucSpn=           0           0           0           0           1           1           1           1           1           1
 AtZEff=  -0.0000000  -0.0000000  -0.0000000  -0.0000000  -0.0000000  -0.0000000  -0.0000000  -0.0000000  -0.0000000  -0.0000000
 NQMom=    0.0000000   0.0000000   0.0000000   0.0000000   0.0000000   0.0000000   0.0000000   0.0000000   0.0000000   0.0000000
 NMagM=    0.0000000   0.0000000   0.0000000   0.0000000   2.7928460   2.7928460   2.7928460   2.7928460   2.7928460   2.7928460
 AtZNuc=   6.0000000   6.0000000   6.0000000   6.0000000   1.0000000   1.0000000   1.0000000   1.0000000   1.0000000   1.0000000

  Atom        51          52          53          54          55          56          57          58          59          60
 IAtWgt=           1           1           1           1           1           1           1           1           1           1
 AtmWgt=   1.0078250   1.0078250   1.0078250   1.0078250   1.0078250   1.0078250   1.0078250   1.0078250   1.0078250   1.0078250
 NucSpn=           1           1           1           1           1           1           1           1           1           1
 AtZEff=  -0.0000000  -0.0000000  -0.0000000  -0.0000000  -0.0000000  -0.0000000  -0.0000000  -0.0000000  -0.0000000  -0.0000000
 NQMom=    0.0000000   0.0000000   0.0000000   0.0000000   0.0000000   0.0000000   0.0000000   0.0000000   0.0000000   0.0000000
 NMagM=    2.7928460   2.7928460   2.7928460   2.7928460   2.7928460   2.7928460   2.7928460   2.7928460   2.7928460   2.7928460
 AtZNuc=   1.0000000   1.0000000   1.0000000   1.0000000   1.0000000   1.0000000   1.0000000   1.0000000   1.0000000   1.0000000

  Atom        61          62          63          64          65          66          67          68          69          70
 IAtWgt=           1           1           1           1           1           1           1           1           1           1
 AtmWgt=   1.0078250   1.0078250   1.0078250   1.0078250   1.0078250   1.0078250   1.0078250   1.0078250   1.0078250   1.0078250
 NucSpn=           1           1           1           1           1           1           1           1           1           1
 AtZEff=  -0.0000000  -0.0000000  -0.0000000  -0.0000000  -0.0000000  -0.0000000  -0.0000000  -0.0000000  -0.0000000  -0.0000000
 NQMom=    0.0000000   0.0000000   0.0000000   0.0000000   0.0000000   0.0000000   0.0000000   0.0000000   0.0000000   0.0000000
 NMagM=    2.7928460   2.7928460   2.7928460   2.7928460   2.7928460   2.7928460   2.7928460   2.7928460   2.7928460   2.7928460
 AtZNuc=   1.0000000   1.0000000   1.0000000   1.0000000   1.0000000   1.0000000   1.0000000   1.0000000   1.0000000   1.0000000

  Atom        71          72          73          74          75          76          77          78          79          80
 IAtWgt=           1           1           1           1           1           1           1           1           1           1
 AtmWgt=   1.0078250   1.0078250   1.0078250   1.0078250   1.0078250   1.0078250   1.0078250   1.0078250   1.0078250   1.0078250
 NucSpn=           1           1           1           1           1           1           1           1           1           1
 AtZEff=  -0.0000000  -0.0000000  -0.0000000  -0.0000000  -0.0000000  -0.0000000  -0.0000000  -0.0000000  -0.0000000  -0.0000000
 NQMom=    0.0000000   0.0000000   0.0000000   0.0000000   0.0000000   0.0000000   0.0000000   0.0000000   0.0000000   0.0000000
 NMagM=    2.7928460   2.7928460   2.7928460   2.7928460   2.7928460   2.7928460   2.7928460   2.7928460   2.7928460   2.7928460
 AtZNuc=   1.0000000   1.0000000   1.0000000   1.0000000   1.0000000   1.0000000   1.0000000   1.0000000   1.0000000   1.0000000

  Atom        81          82
 IAtWgt=           1           1
 AtmWgt=   1.0078250   1.0078250
 NucSpn=           1           1
 AtZEff=  -0.0000000  -0.0000000
 NQMom=    0.0000000   0.0000000
 NMagM=    2.7928460   2.7928460
 AtZNuc=   1.0000000   1.0000000
 Leave Link  101 at Tue Mar 25 15:37:09 2025, MaxMem= 13421772800 cpu:               3.6 elap:               0.1
 (Enter /public/software/apps/Gaussian/g16/l103.exe)

 GradGradGradGradGradGradGradGradGradGradGradGradGradGradGradGradGradGrad
 Berny optimization.
 Initialization pass.
                           ----------------------------
                           !    Initial Parameters    !
                           ! (Angstroms and Degrees)  !
 --------------------------                            --------------------------
 ! Name  Definition              Value          Derivative Info.                !
 --------------------------------------------------------------------------------
 ! R1    R(1,2)                  1.5392         estimate D2E/DX2                !
 ! R2    R(1,45)                 1.1102         estimate D2E/DX2                !
 ! R3    R(1,46)                 1.1112         estimate D2E/DX2                !
 ! R4    R(1,47)                 1.1131         estimate D2E/DX2                !
 ! R5    R(2,3)                  1.55           estimate D2E/DX2                !
 ! R6    R(2,4)                  1.5496         estimate D2E/DX2                !
 ! R7    R(2,5)                  1.4706         estimate D2E/DX2                !
 ! R8    R(3,48)                 1.0931         estimate D2E/DX2                !
 ! R9    R(3,49)                 1.1116         estimate D2E/DX2                !
 ! R10   R(3,50)                 1.1163         estimate D2E/DX2                !
 ! R11   R(4,51)                 1.1151         estimate D2E/DX2                !
 ! R12   R(4,52)                 1.1121         estimate D2E/DX2                !
 ! R13   R(4,53)                 1.0986         estimate D2E/DX2                !
 ! R14   R(5,6)                  1.3521         estimate D2E/DX2                !
 ! R15   R(6,7)                  1.4041         estimate D2E/DX2                !
 ! R16   R(6,44)                 1.4068         estimate D2E/DX2                !
 ! R17   R(7,8)                  1.4046         estimate D2E/DX2                !
 ! R18   R(7,54)                 1.0971         estimate D2E/DX2                !
 ! R19   R(8,9)                  1.3911         estimate D2E/DX2                !
 ! R20   R(8,55)                 1.0944         estimate D2E/DX2                !
 ! R21   R(9,10)                 1.4109         estimate D2E/DX2                !
 ! R22   R(9,56)                 1.0855         estimate D2E/DX2                !
 ! R23   R(10,11)                1.4877         estimate D2E/DX2                !
 ! R24   R(10,44)                1.3997         estimate D2E/DX2                !
 ! R25   R(11,12)                1.3782         estimate D2E/DX2                !
 ! R26   R(11,43)                1.4376         estimate D2E/DX2                !
 ! R27   R(12,13)                1.4152         estimate D2E/DX2                !
 ! R28   R(12,57)                1.098          estimate D2E/DX2                !
 ! R29   R(13,14)                1.3562         estimate D2E/DX2                !
 ! R30   R(13,15)                1.3857         estimate D2E/DX2                !
 ! R31   R(14,58)                0.9753         estimate D2E/DX2                !
 ! R32   R(15,16)                1.4903         estimate D2E/DX2                !
 ! R33   R(15,38)                1.437          estimate D2E/DX2                !
 ! R34   R(16,17)                1.39           estimate D2E/DX2                !
 ! R35   R(16,37)                1.4377         estimate D2E/DX2                !
 ! R36   R(17,18)                1.3524         estimate D2E/DX2                !
 ! R37   R(17,19)                1.4161         estimate D2E/DX2                !
 ! R38   R(18,59)                0.9783         estimate D2E/DX2                !
 ! R39   R(19,20)                1.3901         estimate D2E/DX2                !
 ! R40   R(19,60)                1.0896         estimate D2E/DX2                !
 ! R41   R(20,21)                1.4792         estimate D2E/DX2                !
 ! R42   R(20,32)                1.4432         estimate D2E/DX2                !
 ! R43   R(21,22)                1.4115         estimate D2E/DX2                !
 ! R44   R(21,31)                1.409          estimate D2E/DX2                !
 ! R45   R(22,23)                1.4            estimate D2E/DX2                !
 ! R46   R(22,61)                1.0956         estimate D2E/DX2                !
 ! R47   R(23,24)                1.389          estimate D2E/DX2                !
 ! R48   R(23,62)                1.0904         estimate D2E/DX2                !
 ! R49   R(24,25)                1.4029         estimate D2E/DX2                !
 ! R50   R(24,63)                1.0926         estimate D2E/DX2                !
 ! R51   R(25,26)                1.3524         estimate D2E/DX2                !
 ! R52   R(25,31)                1.4055         estimate D2E/DX2                !
 ! R53   R(26,27)                1.4506         estimate D2E/DX2                !
 ! R54   R(27,28)                1.5307         estimate D2E/DX2                !
 ! R55   R(27,29)                1.5321         estimate D2E/DX2                !
 ! R56   R(27,30)                1.5358         estimate D2E/DX2                !
 ! R57   R(28,64)                1.1075         estimate D2E/DX2                !
 ! R58   R(28,65)                1.1011         estimate D2E/DX2                !
 ! R59   R(28,66)                1.1146         estimate D2E/DX2                !
 ! R60   R(29,67)                1.1032         estimate D2E/DX2                !
 ! R61   R(29,68)                1.1014         estimate D2E/DX2                !
 ! R62   R(29,69)                1.1113         estimate D2E/DX2                !
 ! R63   R(30,70)                1.1131         estimate D2E/DX2                !
 ! R64   R(30,71)                1.1036         estimate D2E/DX2                !
 ! R65   R(30,72)                1.1008         estimate D2E/DX2                !
 ! R66   R(31,73)                1.0873         estimate D2E/DX2                !
 ! R67   R(32,33)                1.4132         estimate D2E/DX2                !
 ! R68   R(32,37)                1.4391         estimate D2E/DX2                !
 ! R69   R(33,34)                1.379          estimate D2E/DX2                !
 ! R70   R(33,74)                1.0934         estimate D2E/DX2                !
 ! R71   R(34,35)                1.4152         estimate D2E/DX2                !
 ! R72   R(34,75)                1.0938         estimate D2E/DX2                !
 ! R73   R(35,36)                1.3839         estimate D2E/DX2                !
 ! R74   R(35,76)                1.0919         estimate D2E/DX2                !
 ! R75   R(36,37)                1.4216         estimate D2E/DX2                !
 ! R76   R(36,77)                1.0935         estimate D2E/DX2                !
 ! R77   R(38,39)                1.4226         estimate D2E/DX2                !
 ! R78   R(38,43)                1.4377         estimate D2E/DX2                !
 ! R79   R(39,40)                1.3826         estimate D2E/DX2                !
 ! R80   R(39,78)                1.0921         estimate D2E/DX2                !
 ! R81   R(40,41)                1.4142         estimate D2E/DX2                !
 ! R82   R(40,79)                1.0938         estimate D2E/DX2                !
 ! R83   R(41,42)                1.372          estimate D2E/DX2                !
 ! R84   R(41,80)                1.0969         estimate D2E/DX2                !
 ! R85   R(42,43)                1.4256         estimate D2E/DX2                !
 ! R86   R(42,81)                1.0911         estimate D2E/DX2                !
 ! R87   R(44,82)                1.0921         estimate D2E/DX2                !
 ! A1    A(2,1,45)             110.5779         estimate D2E/DX2                !
 ! A2    A(2,1,46)             109.7904         estimate D2E/DX2                !
 ! A3    A(2,1,47)             109.8931         estimate D2E/DX2                !
 ! A4    A(45,1,46)            109.1701         estimate D2E/DX2                !
 ! A5    A(45,1,47)            108.645          estimate D2E/DX2                !
 ! A6    A(46,1,47)            108.7274         estimate D2E/DX2                !
 ! A7    A(1,2,3)              109.319          estimate D2E/DX2                !
 ! A8    A(1,2,4)              108.808          estimate D2E/DX2                !
 ! A9    A(1,2,5)              102.2084         estimate D2E/DX2                !
 ! A10   A(3,2,4)              113.3433         estimate D2E/DX2                !
 ! A11   A(3,2,5)              111.4105         estimate D2E/DX2                !
 ! A12   A(4,2,5)              111.1278         estimate D2E/DX2                !
 ! A13   A(2,3,48)             113.1511         estimate D2E/DX2                !
 ! A14   A(2,3,49)             109.5653         estimate D2E/DX2                !
 ! A15   A(2,3,50)             109.9346         estimate D2E/DX2                !
 ! A16   A(48,3,49)            107.7907         estimate D2E/DX2                !
 ! A17   A(48,3,50)            107.7536         estimate D2E/DX2                !
 ! A18   A(49,3,50)            108.5182         estimate D2E/DX2                !
 ! A19   A(2,4,51)             109.9739         estimate D2E/DX2                !
 ! A20   A(2,4,52)             109.9571         estimate D2E/DX2                !
 ! A21   A(2,4,53)             112.5168         estimate D2E/DX2                !
 ! A22   A(51,4,52)            109.0913         estimate D2E/DX2                !
 ! A23   A(51,4,53)            107.501          estimate D2E/DX2                !
 ! A24   A(52,4,53)            107.7023         estimate D2E/DX2                !
 ! A25   A(2,5,6)              126.1179         estimate D2E/DX2                !
 ! A26   A(5,6,7)              127.2659         estimate D2E/DX2                !
 ! A27   A(5,6,44)             114.0748         estimate D2E/DX2                !
 ! A28   A(7,6,44)             118.6374         estimate D2E/DX2                !
 ! A29   A(6,7,8)              119.7705         estimate D2E/DX2                !
 ! A30   A(6,7,54)             121.4175         estimate D2E/DX2                !
 ! A31   A(8,7,54)             118.8041         estimate D2E/DX2                !
 ! A32   A(7,8,9)              121.3448         estimate D2E/DX2                !
 ! A33   A(7,8,55)             119.0218         estimate D2E/DX2                !
 ! A34   A(9,8,55)             119.6309         estimate D2E/DX2                !
 ! A35   A(8,9,10)             119.4252         estimate D2E/DX2                !
 ! A36   A(8,9,56)             120.8285         estimate D2E/DX2                !
 ! A37   A(10,9,56)            119.7384         estimate D2E/DX2                !
 ! A38   A(9,10,11)            121.1131         estimate D2E/DX2                !
 ! A39   A(9,10,44)            119.1385         estimate D2E/DX2                !
 ! A40   A(11,10,44)           119.7086         estimate D2E/DX2                !
 ! A41   A(10,11,12)           118.6538         estimate D2E/DX2                !
 ! A42   A(10,11,43)           122.0743         estimate D2E/DX2                !
 ! A43   A(12,11,43)           119.2689         estimate D2E/DX2                !
 ! A44   A(11,12,13)           121.4954         estimate D2E/DX2                !
 ! A45   A(11,12,57)           120.4686         estimate D2E/DX2                !
 ! A46   A(13,12,57)           117.957          estimate D2E/DX2                !
 ! A47   A(12,13,14)           116.462          estimate D2E/DX2                !
 ! A48   A(12,13,15)           121.3572         estimate D2E/DX2                !
 ! A49   A(14,13,15)           122.1738         estimate D2E/DX2                !
 ! A50   A(13,14,58)           108.8025         estimate D2E/DX2                !
 ! A51   A(13,15,16)           119.4279         estimate D2E/DX2                !
 ! A52   A(13,15,38)           118.6537         estimate D2E/DX2                !
 ! A53   A(16,15,38)           121.9094         estimate D2E/DX2                !
 ! A54   A(15,16,17)           118.7581         estimate D2E/DX2                !
 ! A55   A(15,16,37)           121.8376         estimate D2E/DX2                !
 ! A56   A(17,16,37)           119.4003         estimate D2E/DX2                !
 ! A57   A(16,17,18)           122.7807         estimate D2E/DX2                !
 ! A58   A(16,17,19)           120.7486         estimate D2E/DX2                !
 ! A59   A(18,17,19)           116.466          estimate D2E/DX2                !
 ! A60   A(17,18,59)           108.5316         estimate D2E/DX2                !
 ! A61   A(17,19,20)           121.6681         estimate D2E/DX2                !
 ! A62   A(17,19,60)           118.1797         estimate D2E/DX2                !
 ! A63   A(20,19,60)           120.1168         estimate D2E/DX2                !
 ! A64   A(19,20,21)           118.5987         estimate D2E/DX2                !
 ! A65   A(19,20,32)           119.1795         estimate D2E/DX2                !
 ! A66   A(21,20,32)           122.22           estimate D2E/DX2                !
 ! A67   A(20,21,22)           121.562          estimate D2E/DX2                !
 ! A68   A(20,21,31)           119.2163         estimate D2E/DX2                !
 ! A69   A(22,21,31)           119.1926         estimate D2E/DX2                !
 ! A70   A(21,22,23)           119.683          estimate D2E/DX2                !
 ! A71   A(21,22,61)           119.4367         estimate D2E/DX2                !
 ! A72   A(23,22,61)           120.8649         estimate D2E/DX2                !
 ! A73   A(22,23,24)           120.6919         estimate D2E/DX2                !
 ! A74   A(22,23,62)           119.4616         estimate D2E/DX2                !
 ! A75   A(24,23,62)           119.8403         estimate D2E/DX2                !
 ! A76   A(23,24,25)           120.5864         estimate D2E/DX2                !
 ! A77   A(23,24,63)           121.7786         estimate D2E/DX2                !
 ! A78   A(25,24,63)           117.634          estimate D2E/DX2                !
 ! A79   A(24,25,26)           115.36           estimate D2E/DX2                !
 ! A80   A(24,25,31)           119.0322         estimate D2E/DX2                !
 ! A81   A(26,25,31)           125.5842         estimate D2E/DX2                !
 ! A82   A(25,26,27)           126.0736         estimate D2E/DX2                !
 ! A83   A(26,27,28)           111.2709         estimate D2E/DX2                !
 ! A84   A(26,27,29)           102.4035         estimate D2E/DX2                !
 ! A85   A(26,27,30)           111.5489         estimate D2E/DX2                !
 ! A86   A(28,27,29)           109.4458         estimate D2E/DX2                !
 ! A87   A(28,27,30)           112.0737         estimate D2E/DX2                !
 ! A88   A(29,27,30)           109.6533         estimate D2E/DX2                !
 ! A89   A(27,28,64)           110.1615         estimate D2E/DX2                !
 ! A90   A(27,28,65)           113.1224         estimate D2E/DX2                !
 ! A91   A(27,28,66)           109.5876         estimate D2E/DX2                !
 ! A92   A(64,28,65)           107.8859         estimate D2E/DX2                !
 ! A93   A(64,28,66)           107.9283         estimate D2E/DX2                !
 ! A94   A(65,28,66)           107.9971         estimate D2E/DX2                !
 ! A95   A(27,29,67)           110.666          estimate D2E/DX2                !
 ! A96   A(27,29,68)           110.3645         estimate D2E/DX2                !
 ! A97   A(27,29,69)           110.5878         estimate D2E/DX2                !
 ! A98   A(67,29,68)           108.9338         estimate D2E/DX2                !
 ! A99   A(67,29,69)           108.2551         estimate D2E/DX2                !
 ! A100  A(68,29,69)           107.9557         estimate D2E/DX2                !
 ! A101  A(27,30,70)           109.7047         estimate D2E/DX2                !
 ! A102  A(27,30,71)           109.7274         estimate D2E/DX2                !
 ! A103  A(27,30,72)           112.9982         estimate D2E/DX2                !
 ! A104  A(70,30,71)           107.992          estimate D2E/DX2                !
 ! A105  A(70,30,72)           107.8962         estimate D2E/DX2                !
 ! A106  A(71,30,72)           108.3823         estimate D2E/DX2                !
 ! A107  A(21,31,25)           120.8125         estimate D2E/DX2                !
 ! A108  A(21,31,73)           117.5121         estimate D2E/DX2                !
 ! A109  A(25,31,73)           121.659          estimate D2E/DX2                !
 ! A110  A(20,32,33)           122.4703         estimate D2E/DX2                !
 ! A111  A(20,32,37)           119.0565         estimate D2E/DX2                !
 ! A112  A(33,32,37)           118.4314         estimate D2E/DX2                !
 ! A113  A(32,33,34)           121.6921         estimate D2E/DX2                !
 ! A114  A(32,33,74)           119.1953         estimate D2E/DX2                !
 ! A115  A(34,33,74)           119.1122         estimate D2E/DX2                !
 ! A116  A(33,34,35)           119.7819         estimate D2E/DX2                !
 ! A117  A(33,34,75)           120.4306         estimate D2E/DX2                !
 ! A118  A(35,34,75)           119.7847         estimate D2E/DX2                !
 ! A119  A(34,35,36)           120.4752         estimate D2E/DX2                !
 ! A120  A(34,35,76)           120.3593         estimate D2E/DX2                !
 ! A121  A(36,35,76)           119.15           estimate D2E/DX2                !
 ! A122  A(35,36,37)           120.5614         estimate D2E/DX2                !
 ! A123  A(35,36,77)           120.283          estimate D2E/DX2                !
 ! A124  A(37,36,77)           119.1488         estimate D2E/DX2                !
 ! A125  A(16,37,32)           119.8939         estimate D2E/DX2                !
 ! A126  A(16,37,36)           121.0695         estimate D2E/DX2                !
 ! A127  A(32,37,36)           119.033          estimate D2E/DX2                !
 ! A128  A(15,38,39)           121.7126         estimate D2E/DX2                !
 ! A129  A(15,38,43)           120.033          estimate D2E/DX2                !
 ! A130  A(39,38,43)           118.2476         estimate D2E/DX2                !
 ! A131  A(38,39,40)           121.7262         estimate D2E/DX2                !
 ! A132  A(38,39,78)           118.1808         estimate D2E/DX2                !
 ! A133  A(40,39,78)           120.0883         estimate D2E/DX2                !
 ! A134  A(39,40,41)           119.7681         estimate D2E/DX2                !
 ! A135  A(39,40,79)           119.6513         estimate D2E/DX2                !
 ! A136  A(41,40,79)           120.5735         estimate D2E/DX2                !
 ! A137  A(40,41,42)           120.1059         estimate D2E/DX2                !
 ! A138  A(40,41,80)           119.3767         estimate D2E/DX2                !
 ! A139  A(42,41,80)           120.5054         estimate D2E/DX2                !
 ! A140  A(41,42,43)           121.7408         estimate D2E/DX2                !
 ! A141  A(41,42,81)           119.9066         estimate D2E/DX2                !
 ! A142  A(43,42,81)           118.3525         estimate D2E/DX2                !
 ! A143  A(11,43,38)           119.1072         estimate D2E/DX2                !
 ! A144  A(11,43,42)           122.4817         estimate D2E/DX2                !
 ! A145  A(38,43,42)           118.3883         estimate D2E/DX2                !
 ! A146  A(6,44,10)            121.6723         estimate D2E/DX2                !
 ! A147  A(6,44,82)            117.6073         estimate D2E/DX2                !
 ! A148  A(10,44,82)           120.7199         estimate D2E/DX2                !
 ! D1    D(45,1,2,3)           -61.973          estimate D2E/DX2                !
 ! D2    D(45,1,2,4)            62.288          estimate D2E/DX2                !
 ! D3    D(45,1,2,5)           179.887          estimate D2E/DX2                !
 ! D4    D(46,1,2,3)           177.5053         estimate D2E/DX2                !
 ! D5    D(46,1,2,4)           -58.2337         estimate D2E/DX2                !
 ! D6    D(46,1,2,5)            59.3653         estimate D2E/DX2                !
 ! D7    D(47,1,2,3)            57.962          estimate D2E/DX2                !
 ! D8    D(47,1,2,4)          -177.777          estimate D2E/DX2                !
 ! D9    D(47,1,2,5)           -60.1781         estimate D2E/DX2                !
 ! D10   D(1,2,3,48)           179.9743         estimate D2E/DX2                !
 ! D11   D(1,2,3,49)            59.6676         estimate D2E/DX2                !
 ! D12   D(1,2,3,50)           -59.5054         estimate D2E/DX2                !
 ! D13   D(4,2,3,48)            58.4149         estimate D2E/DX2                !
 ! D14   D(4,2,3,49)           -61.8919         estimate D2E/DX2                !
 ! D15   D(4,2,3,50)           178.9351         estimate D2E/DX2                !
 ! D16   D(5,2,3,48)           -67.8062         estimate D2E/DX2                !
 ! D17   D(5,2,3,49)           171.887          estimate D2E/DX2                !
 ! D18   D(5,2,3,50)            52.7141         estimate D2E/DX2                !
 ! D19   D(1,2,4,51)           -58.1428         estimate D2E/DX2                !
 ! D20   D(1,2,4,52)            62.0043         estimate D2E/DX2                !
 ! D21   D(1,2,4,53)          -177.9475         estimate D2E/DX2                !
 ! D22   D(3,2,4,51)            63.7026         estimate D2E/DX2                !
 ! D23   D(3,2,4,52)          -176.1504         estimate D2E/DX2                !
 ! D24   D(3,2,4,53)           -56.1022         estimate D2E/DX2                !
 ! D25   D(5,2,4,51)          -169.9265         estimate D2E/DX2                !
 ! D26   D(5,2,4,52)           -49.7795         estimate D2E/DX2                !
 ! D27   D(5,2,4,53)            70.2687         estimate D2E/DX2                !
 ! D28   D(1,2,5,6)            173.6315         estimate D2E/DX2                !
 ! D29   D(3,2,5,6)             56.9899         estimate D2E/DX2                !
 ! D30   D(4,2,5,6)            -70.4408         estimate D2E/DX2                !
 ! D31   D(2,5,6,7)             11.4318         estimate D2E/DX2                !
 ! D32   D(2,5,6,44)          -170.3075         estimate D2E/DX2                !
 ! D33   D(5,6,7,8)            179.2509         estimate D2E/DX2                !
 ! D34   D(5,6,7,54)            -1.783          estimate D2E/DX2                !
 ! D35   D(44,6,7,8)             1.0602         estimate D2E/DX2                !
 ! D36   D(44,6,7,54)         -179.9737         estimate D2E/DX2                !
 ! D37   D(5,6,44,10)         -178.6884         estimate D2E/DX2                !
 ! D38   D(5,6,44,82)            1.0486         estimate D2E/DX2                !
 ! D39   D(7,6,44,10)           -0.2655         estimate D2E/DX2                !
 ! D40   D(7,6,44,82)          179.4716         estimate D2E/DX2                !
 ! D41   D(6,7,8,9)             -1.2898         estimate D2E/DX2                !
 ! D42   D(6,7,8,55)           179.2928         estimate D2E/DX2                !
 ! D43   D(54,7,8,9)           179.7171         estimate D2E/DX2                !
 ! D44   D(54,7,8,55)            0.2997         estimate D2E/DX2                !
 ! D45   D(7,8,9,10)             0.6822         estimate D2E/DX2                !
 ! D46   D(7,8,9,56)           179.6509         estimate D2E/DX2                !
 ! D47   D(55,8,9,10)         -179.9039         estimate D2E/DX2                !
 ! D48   D(55,8,9,56)           -0.9352         estimate D2E/DX2                !
 ! D49   D(8,9,10,11)          177.8268         estimate D2E/DX2                !
 ! D50   D(8,9,10,44)            0.1272         estimate D2E/DX2                !
 ! D51   D(56,9,10,11)          -1.1534         estimate D2E/DX2                !
 ! D52   D(56,9,10,44)        -178.8529         estimate D2E/DX2                !
 ! D53   D(9,10,11,12)        -123.2862         estimate D2E/DX2                !
 ! D54   D(9,10,11,43)          57.3507         estimate D2E/DX2                !
 ! D55   D(44,10,11,12)         54.4005         estimate D2E/DX2                !
 ! D56   D(44,10,11,43)       -124.9626         estimate D2E/DX2                !
 ! D57   D(9,10,44,6)           -0.3315         estimate D2E/DX2                !
 ! D58   D(9,10,44,82)         179.9396         estimate D2E/DX2                !
 ! D59   D(11,10,44,6)        -178.064          estimate D2E/DX2                !
 ! D60   D(11,10,44,82)          2.2071         estimate D2E/DX2                !
 ! D61   D(10,11,12,13)        177.8601         estimate D2E/DX2                !
 ! D62   D(10,11,12,57)          1.1581         estimate D2E/DX2                !
 ! D63   D(43,11,12,13)         -2.7585         estimate D2E/DX2                !
 ! D64   D(43,11,12,57)       -179.4606         estimate D2E/DX2                !
 ! D65   D(10,11,43,38)       -177.8439         estimate D2E/DX2                !
 ! D66   D(10,11,43,42)          3.9232         estimate D2E/DX2                !
 ! D67   D(12,11,43,38)          2.7968         estimate D2E/DX2                !
 ! D68   D(12,11,43,42)       -175.4361         estimate D2E/DX2                !
 ! D69   D(11,12,13,14)       -178.678          estimate D2E/DX2                !
 ! D70   D(11,12,13,15)          0.3814         estimate D2E/DX2                !
 ! D71   D(57,12,13,14)         -1.896          estimate D2E/DX2                !
 ! D72   D(57,12,13,15)        177.1634         estimate D2E/DX2                !
 ! D73   D(12,13,14,58)        179.8882         estimate D2E/DX2                !
 ! D74   D(15,13,14,58)          0.8371         estimate D2E/DX2                !
 ! D75   D(12,13,15,16)       -177.0262         estimate D2E/DX2                !
 ! D76   D(12,13,15,38)          1.9022         estimate D2E/DX2                !
 ! D77   D(14,13,15,16)          1.979          estimate D2E/DX2                !
 ! D78   D(14,13,15,38)       -179.0926         estimate D2E/DX2                !
 ! D79   D(13,15,16,17)        107.5863         estimate D2E/DX2                !
 ! D80   D(13,15,16,37)        -71.6812         estimate D2E/DX2                !
 ! D81   D(38,15,16,17)        -71.306          estimate D2E/DX2                !
 ! D82   D(38,15,16,37)        109.4266         estimate D2E/DX2                !
 ! D83   D(13,15,38,39)        177.2595         estimate D2E/DX2                !
 ! D84   D(13,15,38,43)         -1.7704         estimate D2E/DX2                !
 ! D85   D(16,15,38,39)         -3.84           estimate D2E/DX2                !
 ! D86   D(16,15,38,43)        177.13           estimate D2E/DX2                !
 ! D87   D(15,16,17,18)          2.1647         estimate D2E/DX2                !
 ! D88   D(15,16,17,19)       -177.0126         estimate D2E/DX2                !
 ! D89   D(37,16,17,18)       -178.5496         estimate D2E/DX2                !
 ! D90   D(37,16,17,19)          2.2731         estimate D2E/DX2                !
 ! D91   D(15,16,37,32)        177.1825         estimate D2E/DX2                !
 ! D92   D(15,16,37,36)         -3.5135         estimate D2E/DX2                !
 ! D93   D(17,16,37,32)         -2.0804         estimate D2E/DX2                !
 ! D94   D(17,16,37,36)        177.2236         estimate D2E/DX2                !
 ! D95   D(16,17,18,59)          0.7062         estimate D2E/DX2                !
 ! D96   D(19,17,18,59)        179.9164         estimate D2E/DX2                !
 ! D97   D(16,17,19,20)         -0.5237         estimate D2E/DX2                !
 ! D98   D(16,17,19,60)        177.3133         estimate D2E/DX2                !
 ! D99   D(18,17,19,20)       -179.7511         estimate D2E/DX2                !
 ! D100  D(18,17,19,60)         -1.9141         estimate D2E/DX2                !
 ! D101  D(17,19,20,21)        178.1021         estimate D2E/DX2                !
 ! D102  D(17,19,20,32)         -1.4167         estimate D2E/DX2                !
 ! D103  D(60,19,20,21)          0.3063         estimate D2E/DX2                !
 ! D104  D(60,19,20,32)       -179.2125         estimate D2E/DX2                !
 ! D105  D(19,20,21,22)       -123.4746         estimate D2E/DX2                !
 ! D106  D(19,20,21,31)         54.5461         estimate D2E/DX2                !
 ! D107  D(32,20,21,22)         56.0288         estimate D2E/DX2                !
 ! D108  D(32,20,21,31)       -125.9506         estimate D2E/DX2                !
 ! D109  D(19,20,32,33)       -176.0591         estimate D2E/DX2                !
 ! D110  D(19,20,32,37)          1.5507         estimate D2E/DX2                !
 ! D111  D(21,20,32,33)          4.4403         estimate D2E/DX2                !
 ! D112  D(21,20,32,37)       -177.9499         estimate D2E/DX2                !
 ! D113  D(20,21,22,23)        177.8381         estimate D2E/DX2                !
 ! D114  D(20,21,22,61)         -0.7467         estimate D2E/DX2                !
 ! D115  D(31,21,22,23)         -0.183          estimate D2E/DX2                !
 ! D116  D(31,21,22,61)       -178.7678         estimate D2E/DX2                !
 ! D117  D(20,21,31,25)       -177.6466         estimate D2E/DX2                !
 ! D118  D(20,21,31,73)          3.8057         estimate D2E/DX2                !
 ! D119  D(22,21,31,25)          0.4215         estimate D2E/DX2                !
 ! D120  D(22,21,31,73)       -178.1262         estimate D2E/DX2                !
 ! D121  D(21,22,23,24)         -0.1398         estimate D2E/DX2                !
 ! D122  D(21,22,23,62)       -179.2383         estimate D2E/DX2                !
 ! D123  D(61,22,23,24)        178.4244         estimate D2E/DX2                !
 ! D124  D(61,22,23,62)         -0.6741         estimate D2E/DX2                !
 ! D125  D(22,23,24,25)          0.2302         estimate D2E/DX2                !
 ! D126  D(22,23,24,63)        179.8565         estimate D2E/DX2                !
 ! D127  D(62,23,24,25)        179.3253         estimate D2E/DX2                !
 ! D128  D(62,23,24,63)         -1.0483         estimate D2E/DX2                !
 ! D129  D(23,24,25,26)        178.339          estimate D2E/DX2                !
 ! D130  D(23,24,25,31)          0.0065         estimate D2E/DX2                !
 ! D131  D(63,24,25,26)         -1.3025         estimate D2E/DX2                !
 ! D132  D(63,24,25,31)       -179.6349         estimate D2E/DX2                !
 ! D133  D(24,25,26,27)        157.3717         estimate D2E/DX2                !
 ! D134  D(31,25,26,27)        -24.4211         estimate D2E/DX2                !
 ! D135  D(24,25,31,21)         -0.3339         estimate D2E/DX2                !
 ! D136  D(24,25,31,73)        178.1528         estimate D2E/DX2                !
 ! D137  D(26,25,31,21)       -178.481          estimate D2E/DX2                !
 ! D138  D(26,25,31,73)          0.0057         estimate D2E/DX2                !
 ! D139  D(25,26,27,28)         77.7951         estimate D2E/DX2                !
 ! D140  D(25,26,27,29)       -165.3708         estimate D2E/DX2                !
 ! D141  D(25,26,27,30)        -48.1712         estimate D2E/DX2                !
 ! D142  D(26,27,28,64)        167.5964         estimate D2E/DX2                !
 ! D143  D(26,27,28,65)        -71.5714         estimate D2E/DX2                !
 ! D144  D(26,27,28,66)         48.995          estimate D2E/DX2                !
 ! D145  D(29,27,28,64)         55.1459         estimate D2E/DX2                !
 ! D146  D(29,27,28,65)        175.9782         estimate D2E/DX2                !
 ! D147  D(29,27,28,66)        -63.4555         estimate D2E/DX2                !
 ! D148  D(30,27,28,64)        -66.7283         estimate D2E/DX2                !
 ! D149  D(30,27,28,65)         54.1039         estimate D2E/DX2                !
 ! D150  D(30,27,28,66)        174.6703         estimate D2E/DX2                !
 ! D151  D(26,27,29,67)       -179.292          estimate D2E/DX2                !
 ! D152  D(26,27,29,68)        -58.6335         estimate D2E/DX2                !
 ! D153  D(26,27,29,69)         60.7532         estimate D2E/DX2                !
 ! D154  D(28,27,29,67)        -61.1561         estimate D2E/DX2                !
 ! D155  D(28,27,29,68)         59.5024         estimate D2E/DX2                !
 ! D156  D(28,27,29,69)        178.8891         estimate D2E/DX2                !
 ! D157  D(30,27,29,67)         62.161          estimate D2E/DX2                !
 ! D158  D(30,27,29,68)       -177.1805         estimate D2E/DX2                !
 ! D159  D(30,27,29,69)        -57.7938         estimate D2E/DX2                !
 ! D160  D(26,27,30,70)        -52.8275         estimate D2E/DX2                !
 ! D161  D(26,27,30,71)       -171.3159         estimate D2E/DX2                !
 ! D162  D(26,27,30,72)         67.6101         estimate D2E/DX2                !
 ! D163  D(28,27,30,70)       -178.3505         estimate D2E/DX2                !
 ! D164  D(28,27,30,71)         63.161          estimate D2E/DX2                !
 ! D165  D(28,27,30,72)        -57.913          estimate D2E/DX2                !
 ! D166  D(29,27,30,70)         59.894          estimate D2E/DX2                !
 ! D167  D(29,27,30,71)        -58.5944         estimate D2E/DX2                !
 ! D168  D(29,27,30,72)       -179.6684         estimate D2E/DX2                !
 ! D169  D(20,32,33,34)        179.348          estimate D2E/DX2                !
 ! D170  D(20,32,33,74)         -0.402          estimate D2E/DX2                !
 ! D171  D(37,32,33,34)          1.724          estimate D2E/DX2                !
 ! D172  D(37,32,33,74)       -178.026          estimate D2E/DX2                !
 ! D173  D(20,32,37,16)          0.1746         estimate D2E/DX2                !
 ! D174  D(20,32,37,36)       -179.1435         estimate D2E/DX2                !
 ! D175  D(33,32,37,16)        177.8815         estimate D2E/DX2                !
 ! D176  D(33,32,37,36)         -1.4366         estimate D2E/DX2                !
 ! D177  D(32,33,34,35)         -0.6683         estimate D2E/DX2                !
 ! D178  D(32,33,34,75)        179.946          estimate D2E/DX2                !
 ! D179  D(74,33,34,35)        179.0819         estimate D2E/DX2                !
 ! D180  D(74,33,34,75)         -0.3038         estimate D2E/DX2                !
 ! D181  D(33,34,35,36)         -0.7032         estimate D2E/DX2                !
 ! D182  D(33,34,35,76)       -179.2632         estimate D2E/DX2                !
 ! D183  D(75,34,35,36)        178.6866         estimate D2E/DX2                !
 ! D184  D(75,34,35,76)          0.1265         estimate D2E/DX2                !
 ! D185  D(34,35,36,37)          0.9551         estimate D2E/DX2                !
 ! D186  D(34,35,36,77)       -178.0867         estimate D2E/DX2                !
 ! D187  D(76,35,36,37)        179.5325         estimate D2E/DX2                !
 ! D188  D(76,35,36,77)          0.4906         estimate D2E/DX2                !
 ! D189  D(35,36,37,16)       -179.18           estimate D2E/DX2                !
 ! D190  D(35,36,37,32)          0.1299         estimate D2E/DX2                !
 ! D191  D(77,36,37,16)         -0.1273         estimate D2E/DX2                !
 ! D192  D(77,36,37,32)        179.1825         estimate D2E/DX2                !
 ! D193  D(15,38,39,40)       -178.8807         estimate D2E/DX2                !
 ! D194  D(15,38,39,78)          0.3299         estimate D2E/DX2                !
 ! D195  D(43,38,39,40)          0.166          estimate D2E/DX2                !
 ! D196  D(43,38,39,78)        179.3766         estimate D2E/DX2                !
 ! D197  D(15,38,43,11)         -0.5503         estimate D2E/DX2                !
 ! D198  D(15,38,43,42)        177.7553         estimate D2E/DX2                !
 ! D199  D(39,38,43,11)       -179.6136         estimate D2E/DX2                !
 ! D200  D(39,38,43,42)         -1.3079         estimate D2E/DX2                !
 ! D201  D(38,39,40,41)          0.4993         estimate D2E/DX2                !
 ! D202  D(38,39,40,79)        179.5368         estimate D2E/DX2                !
 ! D203  D(78,39,40,41)       -178.6966         estimate D2E/DX2                !
 ! D204  D(78,39,40,79)          0.341          estimate D2E/DX2                !
 ! D205  D(39,40,41,42)          0.0227         estimate D2E/DX2                !
 ! D206  D(39,40,41,80)        178.7749         estimate D2E/DX2                !
 ! D207  D(79,40,41,42)       -179.0058         estimate D2E/DX2                !
 ! D208  D(79,40,41,80)         -0.2536         estimate D2E/DX2                !
 ! D209  D(40,41,42,43)         -1.2302         estimate D2E/DX2                !
 ! D210  D(40,41,42,81)        178.6282         estimate D2E/DX2                !
 ! D211  D(80,41,42,43)       -179.9681         estimate D2E/DX2                !
 ! D212  D(80,41,42,81)         -0.1097         estimate D2E/DX2                !
 ! D213  D(41,42,43,11)       -179.8846         estimate D2E/DX2                !
 ! D214  D(41,42,43,38)          1.8704         estimate D2E/DX2                !
 ! D215  D(81,42,43,11)          0.2549         estimate D2E/DX2                !
 ! D216  D(81,42,43,38)       -177.9902         estimate D2E/DX2                !
 --------------------------------------------------------------------------------
 Trust Radius=3.00D-01 FncErr=1.00D-07 GrdErr=1.00D-06 EigMax=2.50D+02 EigMin=1.00D-04
 Number of steps in this run=    461 maximum allowed number of steps=    492.
 GradGradGradGradGradGradGradGradGradGradGradGradGradGradGradGradGradGrad

 Leave Link  103 at Tue Mar 25 15:37:09 2025, MaxMem= 13421772800 cpu:               0.5 elap:               0.0
 (Enter /public/software/apps/Gaussian/g16/l202.exe)
 Symmetry turned off by external request.
 Stoichiometry    C40H38O4
 Framework group  C1[X(C40H38O4)]
 Deg. of freedom   240
 Full point group                 C1      NOp   1
                          Input orientation:                          
 ---------------------------------------------------------------------
 Center     Atomic      Atomic             Coordinates (Angstroms)
 Number     Number       Type             X           Y           Z
 ---------------------------------------------------------------------
      1          6           0       -9.489367    0.108031    2.889386
      2          6           0       -9.278316   -0.174420    1.391125
      3          6           0       -9.633313   -1.653528    1.093162
      4          6           0      -10.117703    0.836089    0.569139
      5          8           0       -7.838363    0.075564    1.227348
      6          6           0       -7.112635   -0.148933    0.108841
      7          6           0       -7.598491   -0.447577   -1.174191
      8          6           0       -6.697135   -0.637410   -2.234520
      9          6           0       -5.324425   -0.509881   -2.048970
     10          6           0       -4.824295   -0.197492   -0.767233
     11          6           0       -3.361291   -0.099361   -0.515826
     12          6           0       -2.803942   -0.894790    0.461997
     13          6           0       -1.412619   -0.882870    0.720762
     14          8           0       -0.970277   -1.726113    1.686508
     15          6           0       -0.553232   -0.064047    0.005900
     16          6           0        0.912195   -0.134291    0.267816
     17          6           0        1.733811   -0.728167   -0.683189
     18          8           0        1.266004   -1.208282   -1.857777
     19          6           0        3.122942   -0.874057   -0.450171
     20          6           0        3.717386   -0.423933    0.723078
     21          6           0        5.166765   -0.649330    0.914142
     22          6           0        5.664647   -1.343930    2.037468
     23          6           0        7.040370   -1.574569    2.156191
     24          6           0        7.920841   -1.129474    1.178437
     25          6           0        7.448127   -0.435427    0.054579
     26          8           0        8.399494   -0.020712   -0.812547
     27          6           0        8.200270    0.287220   -2.216013
     28          6           0        7.554394    1.663202   -2.396376
     29          6           0        9.635096    0.323069   -2.751956
     30          6           0        7.409844   -0.819366   -2.929622
     31          6           0        6.068719   -0.195962   -0.068779
     32          6           0        2.903794    0.235698    1.715918
     33          6           0        3.448373    0.792265    2.895218
     34          6           0        2.657563    1.430837    3.827184
     35          6           0        1.265416    1.551436    3.603361
     36          6           0        0.693737    1.045844    2.448875
     37          6           0        1.491627    0.379730    1.478990
     38          6           0       -1.106036    0.814996   -0.987476
     39          6           0       -0.291404    1.723729   -1.718446
     40          6           0       -0.826228    2.585560   -2.658055
     41          6           0       -2.219299    2.581774   -2.901814
     42          6           0       -3.037074    1.726109   -2.207863
     43          6           0       -2.519550    0.805753   -1.250006
     44          6           0       -5.723225   -0.025229    0.291769
     45          1           0      -10.553657   -0.040424    3.168329
     46          1           0       -9.194131    1.154139    3.120280
     47          1           0       -8.862587   -0.582580    3.496960
     48          1           0       -9.505429   -1.922730    0.041450
     49          1           0      -10.693983   -1.844031    1.365977
     50          1           0       -8.984375   -2.330167    1.699046
     51          1           0      -11.194607    0.750347    0.845354
     52          1           0       -9.771080    1.872712    0.773980
     53          1           0      -10.039688    0.665541   -0.513323
     54          1           0       -8.672993   -0.553849   -1.368382
     55          1           0       -7.088631   -0.881194   -3.226953
     56          1           0       -4.634986   -0.663961   -2.873139
     57          1           0       -3.426924   -1.599391    1.028693
     58          1           0       -0.003499   -1.628432    1.770442
     59          1           0        0.301498   -1.049177   -1.896682
     60          1           0        3.720275   -1.385459   -1.204400
     61          1           0        4.964998   -1.716000    2.794075
     62          1           0        7.419799   -2.122444    3.019249
     63          1           0        8.997739   -1.297676    1.254204
     64          1           0        7.612893    1.976254   -3.457072
     65          1           0        6.495730    1.686808   -2.094725
     66          1           0        8.103448    2.416700   -1.785459
     67          1           0        9.642671    0.563676   -3.828622
     68          1           0       10.226938    1.079335   -2.212575
     69          1           0       10.129250   -0.662408   -2.612007
     70          1           0        7.895903   -1.804235   -2.748485
     71          1           0        7.409395   -0.634422   -4.017579
     72          1           0        6.365401   -0.889860   -2.589042
     73          1           0        5.659211    0.363009   -0.906724
     74          1           0        4.524873    0.718591    3.072005
     75          1           0        3.100803    1.853500    4.733456
     76          1           0        0.632255    2.065706    4.329250
     77          1           0       -0.377111    1.168229    2.264548
     78          1           0        0.780707    1.737099   -1.510758
     79          1           0       -0.169336    3.275699   -3.195170
     80          1           0       -2.639327    3.282191   -3.634000
     81          1           0       -4.113989    1.741549   -2.382347
     82          1           0       -5.364286    0.216053    1.294608
 ---------------------------------------------------------------------
 Rotational constants (GHZ):           0.1876519           0.0255570           0.0238911
 Leave Link  202 at Tue Mar 25 15:37:09 2025, MaxMem= 13421772800 cpu:               0.1 elap:               0.0
 (Enter /public/software/apps/Gaussian/g16/l301.exe)
 Standard basis: def2SVPP (5D, 7F)
 Ernie: Thresh=  0.10000D-02 Tol=  0.10000D-05 Strict=F.
   692 basis functions,  1252 primitive gaussians,   736 cartesian basis functions
   155 alpha electrons      155 beta electrons
       nuclear repulsion energy      4806.0731207825 Hartrees.
 IExCor=  402 DFT=T Ex+Corr=B3LYP ExCW=0 ScaHFX=  0.200000
 ScaDFX=  0.800000  0.720000  1.000000  0.810000 ScalE2=  1.000000  1.000000
 IRadAn=      5 IRanWt=     -1 IRanGd=            0 ICorTp=0 IEmpDi=141
 NAtoms=   82 NActive=   82 NUniq=   82 SFac= 1.00D+00 NAtFMM=   60 NAOKFM=T Big=T
 Integral buffers will be    131072 words long.
 Raffenetti 2 integral format.
 Two-electron integral symmetry is turned off.
 R6Disp:  Grimme-D3(BJ) Dispersion energy=       -0.2001188589 Hartrees.
 Nuclear repulsion after empirical dispersion term =     4805.8730019237 Hartrees.
 Leave Link  301 at Tue Mar 25 15:37:09 2025, MaxMem= 13421772800 cpu:               0.6 elap:               0.0
 (Enter /public/software/apps/Gaussian/g16/l302.exe)
 NPDir=0 NMtPBC=     1 NCelOv=     1 NCel=       1 NClECP=     1 NCelD=      1
         NCelK=      1 NCelE2=     1 NClLst=     1 CellRange=     0.0.
 One-electron integrals computed using PRISM.
   1 Symmetry operations used in ECPInt.
 ECPInt:  NShTT=   57970 NPrTT=  232226 LenC2=   39743 LenP2D=   97565.
 LDataN:  DoStor=T MaxTD1= 4 Len=   56
 NBasis=   692 RedAO= T EigKep=  1.76D-04  NBF=   692
 NBsUse=   692 1.00D-06 EigRej= -1.00D+00 NBFU=   692
 Precomputing XC quadrature grid using
 IXCGrd= 4 IRadAn=           5 IRanWt=          -1 IRanGd=           0 AccXCQ= 0.00D+00.
 Generated NRdTot=       0 NPtTot=           0 NUsed=           0 NTot=          32
 NSgBfM=   662   662   662   662   662 MxSgAt=    82 MxSgA2=    82.
 Leave Link  302 at Tue Mar 25 15:37:10 2025, MaxMem= 13421772800 cpu:              30.6 elap:               1.0
 (Enter /public/software/apps/Gaussian/g16/l303.exe)
 DipDrv:  MaxL=1.
 Leave Link  303 at Tue Mar 25 15:37:10 2025, MaxMem= 13421772800 cpu:               3.6 elap:               0.1
 (Enter /public/software/apps/Gaussian/g16/l401.exe)
 ExpMin= 1.22D-01 ExpMax= 2.27D+03 ExpMxC= 3.41D+02 IAcc=3 IRadAn=         5 AccDes= 0.00D+00
 Harris functional with IExCor=  402 and IRadAn=       5 diagonalized for initial guess.
 HarFok:  IExCor=  402 AccDes= 0.00D+00 IRadAn=         5 IDoV= 1 UseB2=F ITyADJ=14
 ICtDFT=  3500011 ScaDFX=  1.000000  1.000000  1.000000  1.000000
 FoFCou: FMM=F IPFlag=           0 FMFlag=      100000 FMFlg1=        2001
         NFxFlg=           0 DoJE=T BraDBF=F KetDBF=T FulRan=T
         wScrn=  0.000000 ICntrl=       500 IOpCl=  0 I1Cent=   200000004 NGrid=           0
         NMat0=    1 NMatS0=      1 NMatT0=    0 NMatD0=    1 NMtDS0=    0 NMtDT0=    0
 Symmetry not used in FoFCou.
 Harris En= -1846.81190734292    
 JPrj=0 DoOrth=F DoCkMO=F.
 Leave Link  401 at Tue Mar 25 15:37:12 2025, MaxMem= 13421772800 cpu:              59.7 elap:               1.9
 (Enter /public/software/apps/Gaussian/g16/l502.exe)
 Two-electron integral symmetry not used.
 Closed shell SCF:
 Using DIIS extrapolation, IDIIS=  1040.
 NGot= 13421772800 LenX= 13420657582 LenY= 13420115150
 Requested convergence on RMS density matrix=1.00D-08 within 128 cycles.
 Requested convergence on MAX density matrix=1.00D-06.
 Requested convergence on             energy=1.00D-06.
 No special actions if energy rises.
 Fock matrices will be formed incrementally for  20 cycles.
 Integral accuracy reduced to 1.0D-05 until final iterations.

 Cycle   1  Pass 0  IDiag  1:
 FoFJK:  IHMeth= 1 ICntrl=       0 DoSepK=F KAlg= 0 I1Cent=           0 FoldK=F
 IRaf= 780000000 NMat=       1 IRICut=       1 DoRegI=T DoRafI=F ISym2E= 0 IDoP0=0 IntGTp=1.
 FoFCou: FMM=T IPFlag=           0 FMFlag=      100000 FMFlg1=        2001
         NFxFlg=           0 DoJE=F BraDBF=F KetDBF=F FulRan=T
         wScrn=  0.000000 ICntrl=         0 IOpCl=  0 I1Cent=           0 NGrid=           0
         NMat0=    1 NMatS0=      1 NMatT0=    0 NMatD0=    1 NMtDS0=    0 NMtDT0=    0
 Symmetry not used in FoFCou.
 FMM levels:  10  Number of levels for PrismC:   9
 E= -1845.89938291362    
 DIIS: error= 2.92D-02 at cycle   1 NSaved=   1.
 NSaved= 1 IEnMin= 1 EnMin= -1845.89938291362     IErMin= 1 ErrMin= 2.92D-02
 ErrMax= 2.92D-02  0.00D+00 EMaxC= 1.00D-01 BMatC= 8.49D-01 BMatP= 8.49D-01
 IDIUse=3 WtCom= 7.08D-01 WtEn= 2.92D-01
 Coeff-Com:  0.100D+01
 Coeff-En:   0.100D+01
 Coeff:      0.100D+01
 Gap=     0.163 Goal=   None    Shift=    0.000
 GapD=    0.163 DampG=1.000 DampE=0.500 DampFc=0.5000 IDamp=-1.
 Damping current iteration by 5.00D-01
 RMSDP=4.21D-03 MaxDP=1.79D-01              OVMax= 1.64D-01

 Cycle   2  Pass 0  IDiag  1:
 RMSU=  1.95D-03    CP:  9.50D-01
 E= -1846.34138357038     Delta-E=       -0.442000656764 Rises=F Damp=T
 DIIS: error= 3.44D-03 at cycle   2 NSaved=   2.
 NSaved= 2 IEnMin= 2 EnMin= -1846.34138357038     IErMin= 2 ErrMin= 3.44D-03
 ErrMax= 3.44D-03  0.00D+00 EMaxC= 1.00D-01 BMatC= 3.80D-02 BMatP= 8.49D-01
 IDIUse=3 WtCom= 9.66D-01 WtEn= 3.44D-02
 Coeff-Com:  0.340D-01 0.966D+00
 Coeff-En:   0.412D-01 0.959D+00
 Coeff:      0.343D-01 0.966D+00
 Gap=     0.165 Goal=   None    Shift=    0.000
 RMSDP=1.43D-03 MaxDP=1.07D-01 DE=-4.42D-01 OVMax= 1.39D-01

 Cycle   3  Pass 0  IDiag  1:
 RMSU=  1.31D-03    CP:  9.15D-01  1.11D+00
 E= -1846.80024661000     Delta-E=       -0.458863039620 Rises=F Damp=F
 DIIS: error= 6.21D-03 at cycle   3 NSaved=   3.
 NSaved= 3 IEnMin= 3 EnMin= -1846.80024661000     IErMin= 2 ErrMin= 3.44D-03
 ErrMax= 6.21D-03  0.00D+00 EMaxC= 1.00D-01 BMatC= 3.92D-02 BMatP= 3.80D-02
 IDIUse=3 WtCom= 9.38D-01 WtEn= 6.21D-02
 Coeff-Com: -0.162D-01 0.510D+00 0.507D+00
 Coeff-En:   0.000D+00 0.000D+00 0.100D+01
 Coeff:     -0.152D-01 0.478D+00 0.537D+00
 Gap=     0.157 Goal=   None    Shift=    0.000
 RMSDP=6.93D-04 MaxDP=4.55D-02 DE=-4.59D-01 OVMax= 9.75D-02

 Cycle   4  Pass 0  IDiag  1:
 RMSU=  5.71D-04    CP:  9.16D-01  1.17D+00  7.18D-01
 E= -1846.82603781311     Delta-E=       -0.025791203108 Rises=F Damp=F
 DIIS: error= 3.93D-03 at cycle   4 NSaved=   4.
 NSaved= 4 IEnMin= 4 EnMin= -1846.82603781311     IErMin= 2 ErrMin= 3.44D-03
 ErrMax= 3.93D-03  0.00D+00 EMaxC= 1.00D-01 BMatC= 1.58D-02 BMatP= 3.80D-02
 IDIUse=3 WtCom= 9.61D-01 WtEn= 3.93D-02
 Coeff-Com: -0.144D-01 0.153D+00 0.386D+00 0.476D+00
 Coeff-En:   0.000D+00 0.000D+00 0.333D+00 0.667D+00
 Coeff:     -0.138D-01 0.147D+00 0.384D+00 0.483D+00
 Gap=     0.149 Goal=   None    Shift=    0.000
 RMSDP=3.37D-04 MaxDP=2.51D-02 DE=-2.58D-02 OVMax= 5.17D-02

 Cycle   5  Pass 0  IDiag  1:
 RMSU=  1.65D-04    CP:  9.15D-01  1.15D+00  8.12D-01  5.42D-01
 E= -1846.84309752504     Delta-E=       -0.017059711927 Rises=F Damp=F
 DIIS: error= 9.24D-04 at cycle   5 NSaved=   5.
 NSaved= 5 IEnMin= 5 EnMin= -1846.84309752504     IErMin= 5 ErrMin= 9.24D-04
 ErrMax= 9.24D-04  0.00D+00 EMaxC= 1.00D-01 BMatC= 1.32D-03 BMatP= 1.58D-02
 IDIUse=3 WtCom= 9.91D-01 WtEn= 9.24D-03
 Coeff-Com: -0.679D-02 0.421D-01 0.191D+00 0.308D+00 0.466D+00
 Coeff-En:   0.000D+00 0.000D+00 0.000D+00 0.224D-01 0.978D+00
 Coeff:     -0.673D-02 0.417D-01 0.189D+00 0.305D+00 0.471D+00
 Gap=     0.149 Goal=   None    Shift=    0.000
 RMSDP=9.93D-05 MaxDP=4.46D-03 DE=-1.71D-02 OVMax= 1.60D-02

 Cycle   6  Pass 0  IDiag  1:
 RMSU=  7.14D-05    CP:  9.15D-01  1.15D+00  8.10D-01  5.77D-01  6.08D-01
 E= -1846.84441179985     Delta-E=       -0.001314274812 Rises=F Damp=F
 DIIS: error= 3.07D-04 at cycle   6 NSaved=   6.
 NSaved= 6 IEnMin= 6 EnMin= -1846.84441179985     IErMin= 6 ErrMin= 3.07D-04
 ErrMax= 3.07D-04  0.00D+00 EMaxC= 1.00D-01 BMatC= 1.58D-04 BMatP= 1.32D-03
 IDIUse=3 WtCom= 9.97D-01 WtEn= 3.07D-03
 Coeff-Com: -0.211D-02 0.545D-02 0.633D-01 0.122D+00 0.299D+00 0.512D+00
 Coeff-En:   0.000D+00 0.000D+00 0.000D+00 0.000D+00 0.103D+00 0.897D+00
 Coeff:     -0.211D-02 0.543D-02 0.631D-01 0.121D+00 0.299D+00 0.514D+00
 Gap=     0.148 Goal=   None    Shift=    0.000
 RMSDP=3.44D-05 MaxDP=1.24D-03 DE=-1.31D-03 OVMax= 4.86D-03

 Cycle   7  Pass 0  IDiag  1:
 RMSU=  2.35D-05    CP:  9.15D-01  1.15D+00  8.12D-01  5.78D-01  6.83D-01
                    CP:  6.98D-01
 E= -1846.84461505787     Delta-E=       -0.000203258021 Rises=F Damp=F
 DIIS: error= 8.39D-05 at cycle   7 NSaved=   7.
 NSaved= 7 IEnMin= 7 EnMin= -1846.84461505787     IErMin= 7 ErrMin= 8.39D-05
 ErrMax= 8.39D-05  0.00D+00 EMaxC= 1.00D-01 BMatC= 1.60D-05 BMatP= 1.58D-04
 IDIUse=1 WtCom= 1.00D+00 WtEn= 0.00D+00
 Coeff-Com: -0.637D-03-0.638D-03 0.196D-01 0.431D-01 0.135D+00 0.311D+00
 Coeff-Com:  0.493D+00
 Coeff:     -0.637D-03-0.638D-03 0.196D-01 0.431D-01 0.135D+00 0.311D+00
 Coeff:      0.493D+00
 Gap=     0.148 Goal=   None    Shift=    0.000
 RMSDP=1.38D-05 MaxDP=7.95D-04 DE=-2.03D-04 OVMax= 1.05D-03

 Cycle   8  Pass 0  IDiag  1:
 RMSU=  1.29D-05    CP:  9.15D-01  1.15D+00  8.12D-01  5.79D-01  6.60D-01
                    CP:  7.15D-01  9.13D-01
 E= -1846.84464484309     Delta-E=       -0.000029785218 Rises=F Damp=F
 DIIS: error= 2.48D-05 at cycle   8 NSaved=   8.
 NSaved= 8 IEnMin= 8 EnMin= -1846.84464484309     IErMin= 8 ErrMin= 2.48D-05
 ErrMax= 2.48D-05  0.00D+00 EMaxC= 1.00D-01 BMatC= 9.07D-07 BMatP= 1.60D-05
 IDIUse=1 WtCom= 1.00D+00 WtEn= 0.00D+00
 Coeff-Com: -0.197D-03-0.672D-03 0.653D-02 0.153D-01 0.536D-01 0.136D+00
 Coeff-Com:  0.266D+00 0.524D+00
 Coeff:     -0.197D-03-0.672D-03 0.653D-02 0.153D-01 0.536D-01 0.136D+00
 Coeff:      0.266D+00 0.524D+00
 Gap=     0.148 Goal=   None    Shift=    0.000
 RMSDP=1.14D-05 MaxDP=4.60D-04 DE=-2.98D-05 OVMax= 2.70D-04

 Cycle   9  Pass 0  IDiag  1:
 RMSU=  8.82D-06    CP:  9.15D-01  1.15D+00  8.13D-01  5.81D-01  6.60D-01
                    CP:  7.09D-01  1.06D+00  1.48D+00
 E= -1846.84464333979     Delta-E=        0.000001503298 Rises=F Damp=F
 DIIS: error= 2.08D-05 at cycle   9 NSaved=   9.
 NSaved= 9 IEnMin= 8 EnMin= -1846.84464484309     IErMin= 9 ErrMin= 2.08D-05
 ErrMax= 2.08D-05  0.00D+00 EMaxC= 1.00D-01 BMatC= 2.90D-07 BMatP= 9.07D-07
 IDIUse=1 WtCom= 1.00D+00 WtEn= 0.00D+00
 Coeff-Com: -0.792D-04-0.439D-03 0.292D-02 0.696D-02 0.260D-01 0.679D-01
 Coeff-Com:  0.141D+00 0.358D+00 0.398D+00
 Coeff:     -0.792D-04-0.439D-03 0.292D-02 0.696D-02 0.260D-01 0.679D-01
 Coeff:      0.141D+00 0.358D+00 0.398D+00
 Gap=     0.148 Goal=   None    Shift=    0.000
 RMSDP=1.26D-05 MaxDP=5.76D-04 DE= 1.50D-06 OVMax= 8.15D-05

 Cycle  10  Pass 0  IDiag  1:
 RMSU=  5.50D-06    CP:  9.15D-01  1.15D+00  8.14D-01  5.83D-01  6.61D-01
                    CP:  7.13D-01  1.18D+00  2.03D+00  1.93D+00
 E= -1846.84463533341     Delta-E=        0.000008006386 Rises=F Damp=F
 DIIS: error= 2.93D-05 at cycle  10 NSaved=  10.
 NSaved=10 IEnMin= 8 EnMin= -1846.84464484309     IErMin= 9 ErrMin= 2.08D-05
 ErrMax= 2.93D-05  0.00D+00 EMaxC= 1.00D-01 BMatC= 3.55D-07 BMatP= 2.90D-07
 IDIUse=1 WtCom= 1.00D+00 WtEn= 0.00D+00
 Coeff-Com: -0.689D-04-0.505D-03 0.277D-02 0.674D-02 0.262D-01 0.697D-01
 Coeff-Com:  0.150D+00 0.430D+00 0.669D+00-0.354D+00
 Coeff:     -0.689D-04-0.505D-03 0.277D-02 0.674D-02 0.262D-01 0.697D-01
 Coeff:      0.150D+00 0.430D+00 0.669D+00-0.354D+00
 Gap=     0.148 Goal=   None    Shift=    0.000
 RMSDP=9.38D-06 MaxDP=3.54D-04 DE= 8.01D-06 OVMax= 3.06D-05

 Initial convergence to 1.0D-05 achieved.  Increase integral accuracy.
 Cycle  11  Pass 1  IDiag  1:
 E= -1846.84433852610     Delta-E=        0.000296807309 Rises=F Damp=F
 DIIS: error= 7.31D-04 at cycle   1 NSaved=   1.
 NSaved= 1 IEnMin= 1 EnMin= -1846.84433852610     IErMin= 1 ErrMin= 7.31D-04
 ErrMax= 7.31D-04  0.00D+00 EMaxC= 1.00D-01 BMatC= 7.56D-05 BMatP= 7.56D-05
 IDIUse=3 WtCom= 9.93D-01 WtEn= 7.31D-03
 Coeff-Com:  0.100D+01
 Coeff-En:   0.100D+01
 Coeff:      0.100D+01
 Gap=     0.148 Goal=   None    Shift=    0.000
 RMSDP=9.38D-06 MaxDP=3.54D-04 DE= 2.97D-04 OVMax= 9.86D-04

 Cycle  12  Pass 1  IDiag  1:
 RMSU=  5.92D-04    CP:  9.96D-01
 E= -1846.84441692514     Delta-E=       -0.000078399040 Rises=F Damp=F
 DIIS: error= 1.19D-05 at cycle   2 NSaved=   2.
 NSaved= 2 IEnMin= 2 EnMin= -1846.84441692514     IErMin= 2 ErrMin= 1.19D-05
 ErrMax= 1.19D-05  0.00D+00 EMaxC= 1.00D-01 BMatC= 1.24D-07 BMatP= 7.56D-05
 IDIUse=1 WtCom= 1.00D+00 WtEn= 0.00D+00
 Coeff-Com: -0.738D-02 0.101D+01
 Coeff:     -0.738D-02 0.101D+01
 Gap=     0.148 Goal=   None    Shift=    0.000
 RMSDP=7.80D-06 MaxDP=2.71D-04 DE=-7.84D-05 OVMax= 2.71D-04

 Cycle  13  Pass 1  IDiag  1:
 RMSU=  3.28D-06    CP:  9.96D-01  1.01D+00
 E= -1846.84441645911     Delta-E=        0.000000466023 Rises=F Damp=F
 DIIS: error= 2.66D-05 at cycle   3 NSaved=   3.
 NSaved= 3 IEnMin= 2 EnMin= -1846.84441692514     IErMin= 2 ErrMin= 1.19D-05
 ErrMax= 2.66D-05  0.00D+00 EMaxC= 1.00D-01 BMatC= 5.39D-07 BMatP= 1.24D-07
 IDIUse=1 WtCom= 1.00D+00 WtEn= 0.00D+00
 Coeff-Com: -0.658D-02 0.688D+00 0.318D+00
 Coeff:     -0.658D-02 0.688D+00 0.318D+00
 Gap=     0.148 Goal=   None    Shift=    0.000
 RMSDP=1.58D-06 MaxDP=7.90D-05 DE= 4.66D-07 OVMax= 2.02D-04

 Cycle  14  Pass 1  IDiag  1:
 RMSU=  1.18D-06    CP:  9.96D-01  1.01D+00  6.82D-01
 E= -1846.84441706439     Delta-E=       -0.000000605274 Rises=F Damp=F
 DIIS: error= 1.45D-06 at cycle   4 NSaved=   4.
 NSaved= 4 IEnMin= 4 EnMin= -1846.84441706439     IErMin= 4 ErrMin= 1.45D-06
 ErrMax= 1.45D-06  0.00D+00 EMaxC= 1.00D-01 BMatC= 4.14D-09 BMatP= 1.24D-07
 IDIUse=1 WtCom= 1.00D+00 WtEn= 0.00D+00
 Coeff-Com: -0.326D-02 0.335D+00 0.169D+00 0.500D+00
 Coeff:     -0.326D-02 0.335D+00 0.169D+00 0.500D+00
 Gap=     0.148 Goal=   None    Shift=    0.000
 RMSDP=1.82D-07 MaxDP=1.17D-05 DE=-6.05D-07 OVMax= 2.04D-05

 Cycle  15  Pass 1  IDiag  1:
 RMSU=  1.65D-07    CP:  9.96D-01  1.01D+00  6.99D-01  9.59D-01
 E= -1846.84441706821     Delta-E=       -0.000000003822 Rises=F Damp=F
 DIIS: error= 9.60D-07 at cycle   5 NSaved=   5.
 NSaved= 5 IEnMin= 5 EnMin= -1846.84441706821     IErMin= 5 ErrMin= 9.60D-07
 ErrMax= 9.60D-07  0.00D+00 EMaxC= 1.00D-01 BMatC= 6.21D-10 BMatP= 4.14D-09
 IDIUse=1 WtCom= 1.00D+00 WtEn= 0.00D+00
 Coeff-Com: -0.689D-03 0.688D-01 0.402D-01 0.291D+00 0.600D+00
 Coeff:     -0.689D-03 0.688D-01 0.402D-01 0.291D+00 0.600D+00
 Gap=     0.148 Goal=   None    Shift=    0.000
 RMSDP=8.65D-08 MaxDP=7.64D-06 DE=-3.82D-09 OVMax= 1.10D-05

 Cycle  16  Pass 1  IDiag  1:
 RMSU=  6.99D-08    CP:  9.96D-01  1.01D+00  7.04D-01  9.72D-01  7.46D-01
 E= -1846.84441706856     Delta-E=       -0.000000000350 Rises=F Damp=F
 DIIS: error= 4.60D-07 at cycle   6 NSaved=   6.
 NSaved= 6 IEnMin= 6 EnMin= -1846.84441706856     IErMin= 6 ErrMin= 4.60D-07
 ErrMax= 4.60D-07  0.00D+00 EMaxC= 1.00D-01 BMatC= 1.74D-10 BMatP= 6.21D-10
 IDIUse=1 WtCom= 1.00D+00 WtEn= 0.00D+00
 Coeff-Com: -0.400D-04 0.268D-02 0.510D-02 0.132D+00 0.414D+00 0.446D+00
 Coeff:     -0.400D-04 0.268D-02 0.510D-02 0.132D+00 0.414D+00 0.446D+00
 Gap=     0.148 Goal=   None    Shift=    0.000
 RMSDP=3.36D-08 MaxDP=2.02D-06 DE=-3.50D-10 OVMax= 4.97D-06

 Cycle  17  Pass 1  IDiag  1:
 RMSU=  1.61D-08    CP:  9.96D-01  1.01D+00  7.05D-01  9.75D-01  7.94D-01
                    CP:  6.04D-01
 E= -1846.84441706885     Delta-E=       -0.000000000286 Rises=F Damp=F
 DIIS: error= 6.72D-08 at cycle   7 NSaved=   7.
 NSaved= 7 IEnMin= 7 EnMin= -1846.84441706885     IErMin= 7 ErrMin= 6.72D-08
 ErrMax= 6.72D-08  0.00D+00 EMaxC= 1.00D-01 BMatC= 9.34D-12 BMatP= 1.74D-10
 IDIUse=1 WtCom= 1.00D+00 WtEn= 0.00D+00
 Coeff-Com:  0.174D-04-0.257D-02 0.679D-03 0.638D-01 0.219D+00 0.273D+00
 Coeff-Com:  0.446D+00
 Coeff:      0.174D-04-0.257D-02 0.679D-03 0.638D-01 0.219D+00 0.273D+00
 Coeff:      0.446D+00
 Gap=     0.148 Goal=   None    Shift=    0.000
 RMSDP=8.09D-09 MaxDP=3.72D-07 DE=-2.86D-10 OVMax= 1.17D-06

 SCF Done:  E(RB3LYP) =  -1846.84441707     A.U. after   17 cycles
            NFock= 17  Conv=0.81D-08     -V/T= 2.0106
 KE= 1.827480897399D+03 PE=-1.389597831648D+04 EE= 5.415780000087D+03
 Leave Link  502 at Tue Mar 25 15:38:07 2025, MaxMem= 13421772800 cpu:            1734.8 elap:              55.0
 (Enter /public/software/apps/Gaussian/g16/l601.exe)
 Copying SCF densities to generalized density rwf, IOpCl= 0 IROHF=0.

 **********************************************************************

            Population analysis using the SCF Density.

 **********************************************************************

 Alpha  occ. eigenvalues --  -19.16321 -19.16075 -19.15699 -19.15325 -10.26373
 Alpha  occ. eigenvalues --  -10.25755 -10.25490 -10.25361 -10.25009 -10.24816
 Alpha  occ. eigenvalues --  -10.20699 -10.20498 -10.20458 -10.20406 -10.20044
 Alpha  occ. eigenvalues --  -10.19971 -10.19870 -10.19833 -10.19681 -10.19615
 Alpha  occ. eigenvalues --  -10.19111 -10.18934 -10.18915 -10.18893 -10.18850
 Alpha  occ. eigenvalues --  -10.18762 -10.18672 -10.18610 -10.18609 -10.18602
 Alpha  occ. eigenvalues --  -10.18586 -10.18569 -10.18545 -10.18540 -10.18519
 Alpha  occ. eigenvalues --  -10.18439 -10.18269 -10.18124 -10.18113 -10.18099
[...]
 ,0.00000534,0.00001839,0.00000966,-0.00001609,-0.00001789,-0.00000955,
 0.00002205,0.00000185,0.00000337,-0.00001453,0.00000248,0.00000007,0.0
 0000144,0.00000002,0.00000022,0.00000047,0.00000220,-0.00000025,0.0000
 0179,-0.00001109,0.00000109,-0.00000414,-0.00001650,-0.00000619,-0.000
 00691,-0.00000302,-0.00000035,-0.00000138,-0.00000710,0.00000050,-0.00
 000119,0.00000640,0.00000262,0.00000915,0.00000393,-0.00000979,-0.0000
 1332,-0.00004369,0.00004890,0.00005039,0.00110332,0.00125811,-0.001369
 34,0.00087086,-0.00000357,0.00022864,0.00004811,-0.00312563,0.00166477
 ,-0.01331411,0.00191996,-0.00472512,-0.33320725,0.00665987,-0.04834457
 ,-0.00767385,-0.00040231,-0.00157470,0.00063958,-0.00005007,-0.0002921
 9,-0.00000041,0.00000002,0.00000039,0.00000034,0.00000007,0.,0.0000002
 3,-0.00000072,-0.00000013,0.00000247,0.00000097,0.00000143,-0.00000056
 ,0.00000064,0.00000087,0.00000047,0.00000026,-0.00000030,0.00000047,0.
 00000045,0.00000109,-0.00000002,0.00000086,0.00000180,0.00000017,-0.00
 000072,0.00000270,-0.00000894,0.00003190,0.00000582,0.00002280,-0.0000
 1289,0.00000142,-0.00038725,-0.00016604,0.00037406,0.00003502,-0.00000
 303,-0.00007332,0.00003036,-0.00000274,0.00000873,0.00002271,-0.000038
 42,-0.00003752,-0.00000418,-0.00000002,0.00000177,0.00000141,-0.000001
 77,0.00000159,-0.00000139,0.00000069,-0.00000138,-0.00000139,0.0000002
 4,0.00000004,0.00000022,-0.00000064,0.00000139,-0.00000176,0.00000046,
 -0.00000014,-0.00000037,0.00000039,-0.00000075,-0.00000018,-0.00000040
 ,0.00000119,-0.00000015,-0.00000018,-0.00000057,-0.00000024,0.00000049
 ,-0.00000047,-0.00000048,0.00000022,-0.00000092,0.00000005,-0.00000040
 ,0.00000153,-0.00000143,-0.00000053,-0.00000102,0.00000341,0.00000021,
 -0.00000155,-0.00000248,-0.00000198,-0.00000294,-0.00000210,-0.0000009
 4,-0.00000283,0.00000106,-0.00000120,-0.00000382,-0.00000203,0.0000083
 1,0.00000912,-0.00011066,0.00008392,0.00008084,-0.00060527,0.00011888,
 -0.00025239,0.00091110,0.00048462,0.00056779,0.35432601,0.00003386,0.0
 0000880,0.00000616,-0.00035981,-0.00001885,0.00008278,0.00006586,0.000
 01010,0.00000633,0.00005849,0.00001832,0.00000517,0.00052091,-0.000143
 25,-0.00058062,-0.00018469,0.00010281,0.00059090,0.00009245,-0.0000908
 9,-0.00040855,-0.00067491,0.00000444,-0.00002205,-0.00090480,-0.001259
 29,0.00011746,-0.00021353,-0.00116869,0.00162574,0.00036503,-0.0011613
 1,-0.00165571,-0.00025698,0.00014139,-0.00024538,0.00033024,0.00007950
 ,-0.00037428,-0.00002777,-0.00013519,0.00015300,0.00092924,0.00030701,
 0.00015060,0.00000242,-0.00007890,0.00032721,-0.00003461,0.00006452,0.
 00003319,0.00000611,-0.00008873,-0.00004750,0.00000061,0.00000175,0.00
 000748,-0.00000151,0.00000359,0.00000712,-0.00001224,0.00000029,-0.000
 00247,0.00001089,-0.00000232,-0.00000262,-0.00000454,0.00000094,0.0000
 0088,0.00000514,0.00000085,-0.00000464,-0.00001564,-0.00000794,0.00001
 359,0.00001498,0.00000764,-0.00001957,-0.00000104,-0.00000271,0.000013
 64,-0.00000149,0.00000025,-0.00000181,-0.00000016,0.00000015,-0.000000
 73,-0.00000207,0.00000016,-0.00000188,0.00001046,-0.00000193,0.0000046
 0,0.00001880,0.00002051,0.00001030,0.00000783,-0.00000234,-0.00000075,
 0.00000357,-0.00000098,0.00000067,-0.00000512,-0.00000181,-0.00000245,
 -0.00000546,-0.00000072,0.00000996,0.00007693,-0.00005222,-0.00004557,
 -0.00001106,-0.00012715,0.00492558,-0.00004534,-0.00086279,0.00018576,
 -0.00243942,0.00153386,0.00572341,-0.02041114,0.00471284,-0.00282278,0
 .00572969,-0.04825169,0.01089457,0.01981230,0.00425040,0.00238476,0.00
 000916,0.00013358,-0.00018527,0.00001450,-0.00000087,-0.00001506,-0.00
 000732,-0.00000426,0.00000143,-0.00000549,-0.00000079,0.00000671,-0.00
 002249,-0.00001588,-0.00001315,0.00002161,0.00001361,-0.00000951,-0.00
 000873,-0.00000985,0.00000375,0.00002421,-0.00001087,-0.00000167,-0.00
 000922,-0.00000344,-0.00000967,-0.00001909,0.00000780,-0.00001245,0.00
 005204,0.00000745,-0.00002257,0.00001551,0.00003156,0.00003462,-0.0002
 9192,-0.00118813,-0.00012263,-0.00004067,0.00012583,0.00012327,-0.0000
 1999,0.00002449,-0.00001789,-0.00001293,0.00006665,0.00002074,0.000004
 70,0.00000041,-0.00000246,-0.00000132,0.00000226,-0.00000127,0.0000015
 8,-0.00000038,0.00000142,0.00000121,0.00000006,0.00000003,0.00000040,0
 .00000073,-0.00000129,0.00000141,-0.00000066,0.00000100,-0.00000023,-0
 .00000043,0.00000034,0.00000030,0.00000044,-0.00000095,-0.00000010,-0.
 00000001,0.00000030,0.00000014,-0.00000043,0.00000049,0.00000043,-0.00
 000022,0.00000073,0.00000039,0.00000032,-0.00000153,0.00000100,0.00000
 034,0.00000143,-0.00000276,-0.00000020,0.00000170,0.00000308,0.0000025
 8,0.00000375,0.00000178,0.00000194,0.00000189,-0.00000069,0.00000239,0
 .00000120,0.00000024,-0.00000031,-0.00000910,0.00012400,-0.00044402,-0
 .00053887,-0.00086862,0.00005864,-0.00013832,0.00081414,-0.00171165,-0
 .00298650,-0.00231414,0.04510298,-0.00001396,0.00000044,0.00000004,0.0
 0015221,0.00001442,-0.00003991,-0.00002901,-0.00000746,-0.00000308,-0.
 00002574,0.00000193,-0.00000045,-0.00017040,-0.00000220,0.00016145,0.0
 0001178,0.00001246,-0.00032653,-0.00011138,0.00011578,0.00017099,0.000
 13489,-0.00008177,-0.00006289,0.00019466,0.00023999,0.00040484,0.00010
 410,0.00045628,-0.00016656,-0.00032887,-0.00206196,-0.00075242,-0.0001
 1259,-0.00000852,-0.00018228,0.00007708,-0.00029842,-0.00001688,-0.000
 00571,0.00012334,-0.00010488,-0.00096556,-0.00020342,0.00024072,-0.000
 01191,0.00026639,-0.00011767,-0.00007547,-0.00003153,-0.00006535,0.000
 02184,-0.00000461,0.00003282,0.00001743,-0.00002714,0.00001751,-0.0000
 0714,-0.00000646,-0.00002388,0.00001548,0.00000007,0.00000034,-0.00001
 283,0.00000125,0.00000212,0.00000425,-0.00000190,-0.00000207,-0.000005
 31,-0.00000129,0.00000403,0.00001335,0.00000841,-0.00001136,-0.0000137
 5,-0.00000858,0.00001593,0.00000132,0.00000571,-0.00001063,0.00000109,
 -0.00000117,0.00000181,0.00000024,-0.00000077,0.00000077,0.00000165,-0
 .00000129,0.00000172,-0.00001055,0.00000129,-0.00000560,-0.00003137,-0
 .00000090,0.00001611,0.00000389,-0.00000618,-0.00000460,-0.00001122,0.
 00000296,-0.00000248,0.00001551,0.00000279,0.00000986,0.00000249,-0.00
 001169,-0.00002769,-0.00001210,0.00004769,0.00005469,-0.00094031,0.005
 25083,0.00004380,0.00014970,0.00007445,-0.00064425,0.00082560,0.005799
 31,0.00271378,0.01664575,0.00039539,0.00727910,-0.04766780,0.01121527,
 -0.05596634,-0.02070740,0.00000199,0.00014992,0.00037990,-0.00017982,-
 0.00026893,-0.00000895,-0.00000102,0.00000572,0.00000513,-0.00000144,-
 0.00000342,0.00000404,0.00000049,-0.00000237,0.00001258,0.00000927,0.0
 0000618,-0.00001089,-0.00000495,0.00000649,0.00000483,0.00000277,-0.00
 000100,-0.00001311,-0.00000011,0.00000463,0.00000860,-0.00000476,-0.00
 000177,0.00001447,-0.00000151,0.00000659,-0.00000375,-0.00002502,-0.00
 000266,-0.00004689,-0.00001632,-0.00001887,-0.00005614,-0.00044457,0.0
 0006051,-0.00003625,0.00014919,0.00014360,0.00001812,-0.00000709,0.000
 02286,0.00003237,-0.00000760,-0.00001124,-0.00000602,0.00000430,0.0000
 0097,0.00000151,-0.00000083,0.00000153,-0.00000167,0.00000089,-0.00000
 113,-0.00000105,0.00000037,0.00000028,-0.00000017,-0.00000029,0.000001
 14,-0.00000094,0.00000136,-0.00000064,-0.00000059,0.00000005,-0.000000
 74,-0.00000023,-0.00000002,0.00000077,-0.00000038,-0.00000024,-0.00000
 055,0.00000027,0.00000013,-0.00000026,-0.00000009,-0.00000026,-0.00000
 057,0.00000011,0.00000022,0.00000098,-0.00000119,0.00000012,-0.0000006
 0,0.00000247,0.00000089,-0.00000115,-0.00000226,-0.00000232,-0.0000010
 3,-0.00000174,-0.00000078,-0.00000277,-0.00000006,-0.00000369,-0.00000
 525,-0.00000201,0.00000602,0.00000960,0.00008657,-0.00057459,-0.000504
 72,0.00076610,0.00005849,0.00020449,0.00016676,-0.00314504,-0.00212084
 ,0.05157165,-0.01707283,0.04969270,0.00004872,0.00001618,-0.00000302,-
 0.00039332,-0.00000511,0.00034189,0.00017162,-0.00001884,-0.00009320,0
 .00016445,0.00004018,-0.00011103,0.00254874,0.00036289,-0.00027011,-0.
 00538290,-0.00715422,-0.02952345,-0.00558042,-0.00039394,0.00066232,-0
 .00086880,0.00013587,0.00074441,-0.00234111,0.00010694,0.00299202,0.00
 949393,0.00444431,0.01793205,0.00100203,0.00041735,0.00095952,-0.00014
 860,0.00011923,-0.00000277,-0.00028979,-0.00002664,-0.00017497,0.00009
 156,-0.00004936,0.00007401,0.00006062,0.00006527,-0.00008291,-0.000020
 39,0.00002463,-0.00000361,0.00000649,0.00001020,0.00002435,0.00002281,
 -0.00001819,-0.00002506,-0.00000293,-0.00000090,-0.00000217,-0.0000056
 8,0.00000941,0.00001011,-0.00001503,0.00000139,-0.00000431,0.00001369,
 -0.00000362,-0.00000215,-0.00000716,0.00000166,0.00000112,0.00000671,0
 .00000206,-0.00000677,-0.00002208,-0.00001160,0.00001943,0.00002213,0.
 00001185,-0.00002623,-0.00000269,-0.00000493,0.00001714,-0.00000252,0.
 00000023,-0.00000207,-0.00000006,0.00000009,-0.00000070,-0.00000251,0.
 00000081,-0.00000228,0.00001360,-0.00000175,0.00000550,0.00001486,-0.0
 0000645,-0.00000204,0.00000445,0.00000145,0.00000741,0.00000750,-0.000
 00317,-0.00000238,0.00000115,-0.00000614,-0.00001109,-0.00002404,0.000
 01374,0.00000547,0.00002338,-0.00001515,-0.00002340,0.00006097,0.00001
 050,0.00004836,-0.00001618,0.00000428,-0.00003767,0.00002461,0.0000092
 2,0.00000049,-0.00002094,0.00000652,-0.00002081,0.00006541,0.00000666,
 0.00001887,0.00009221,-0.00008282,0.00006895,-0.08813288,-0.02301681,-
 0.08633634,0.00006307,0.00000737,-0.00000977,-0.00005852,0.00003824,0.
 00002592,-0.00005388,-0.00005193,0.00005835,0.00005122,0.00008218,0.00
 002288,0.00003438,0.00006505,0.00003349,-0.00001201,-0.00002625,0.0000
 1736,0.00005657,-0.00003494,0.00005279,-0.00001895,0.00001642,0.000009
 55,0.00007676,-0.00003407,0.00005934,-0.00038700,-0.00040066,-0.001442
 50,0.00001684,0.00003894,-0.00002280,0.00045961,0.00023796,0.00097693,
 -0.00036986,0.00038118,0.00013620,-0.00002990,0.00000995,0.00000236,-0
 .00002181,0.00002560,0.00003432,0.00000442,-0.00000193,-0.00000180,-0.
 00000184,0.00000283,-0.00000216,0.00000174,-0.00000093,0.00000181,0.00
 000180,-0.00000023,-0.00000020,-0.00000023,0.00000068,-0.00000167,0.00
 000216,-0.00000082,0.00000036,0.00000037,-0.00000037,0.00000100,0.0000
 0020,0.00000040,-0.00000136,0.00000026,0.00000035,0.00000076,0.0000001
 6,-0.00000066,0.00000054,0.00000048,-0.00000023,0.00000110,-0.00000026
 ,0.00000028,-0.00000170,0.00000183,0.00000044,0.00000102,-0.00000393,-
 0.00000056,0.00000186,0.00000265,0.00000123,0.00000238,0.00000471,0.00
 000137,0.00000386,-0.00000374,0.00000061,-0.00000059,-0.00000115,-0.00
 000879,-0.00000467,0.00000844,0.00000497,-0.00000349,0.00000164,0.0000
 0692,-0.00000285,0.00000067,0.00001018,-0.00000991,-0.00000408,0.00005
 137,-0.00000502,0.08949554,-0.00005936,0.00001743,-0.00001891,0.000048
 83,-0.00074368,0.00030078,-0.00015761,0.00005729,0.00001298,0.00017540
 ,0.00006149,-0.00006629,0.00053734,-0.00302609,0.00101756,0.00021886,0
 .00481825,-0.00377838,-0.00079841,0.00450240,-0.00085164,-0.00005122,-
 0.00062985,0.00034704,0.00034187,0.00618455,-0.00123741,-0.00230939,0.
 00240073,-0.00260132,0.00054370,-0.00385392,0.00117936,0.00084179,0.00
 035847,-0.00052894,-0.00025552,-0.00011628,0.00029552,0.00004722,-0.00
 004324,0.00002699,-0.00000042,0.00008001,-0.00010868,-0.00001403,-0.00
 002336,0.00001940,0.00000245,-0.00000132,0.00000303,0.00000136,-0.0000
 0890,-0.00000713,-0.00000073,0.00000065,-0.00000366,-0.00000041,0.0000
 0108,0.00000254,-0.00000025,-0.00000002,-0.00000123,0.00000101,-0.0000
 0073,-0.00000094,-0.00000035,-0.00000046,-0.00000024,0.00000020,-0.000
 00063,0.00000051,0.00000281,0.00000180,-0.00000225,-0.00000231,-0.0000
 0289,0.00000354,-0.00000005,0.00000250,-0.00000210,0.00000016,-0.00000
 056,0.00000018,0.00000002,-0.00000024,0.00000010,0.00000014,-0.0000003
 8,0.00000021,-0.00000125,-0.00000080,-0.00000001,0.00000247,-0.0000010
 0,-0.00000102,0.00000305,-0.00000067,0.00000208,-0.00000031,-0.0000030
 3,-0.00000200,-0.00000014,-0.00000130,0.00000684,-0.00000833,-0.000008
 84,-0.00000126,0.00000863,0.00000781,0.00000819,0.00002182,-0.00013833
 ,0.00024115,-0.00000571,0.00001322,-0.00004889,0.00001890,-0.00003959,
 0.00003271,-0.00005457,-0.00003662,0.00002457,-0.00009662,0.00002046,-
 0.00014303,-0.00057679,0.00004650,0.00015084,-0.02339405,-0.05126259,-
 0.06337971,0.00000020,0.00000702,0.00001486,0.00001773,-0.00001295,-0.
 00000656,-0.00001709,-0.00001223,0.00002296,-0.00000049,0.00000168,0.0
 0000813,-0.00000278,-0.00006510,-0.00001283,-0.00000556,-0.00002357,0.
 00003854,0.00003673,-0.00003675,0.00004776,0.00001089,-0.00001240,-0.0
 0002034,0.00002366,-0.00000471,-0.00000515,0.00000098,0.00002615,-0.00
 015164,0.00003071,-0.00056867,0.00011804,-0.00009631,0.00052965,-0.000
 20472,0.00034809,-0.00047518,0.00012444,0.00002004,-0.00000546,-0.0000
 0088,-0.00000064,0.00000785,0.00000764,0.00000056,0.00000064,-0.000000
 47,-0.00000005,0.00000087,0.00000054,0.00000046,0.00000021,0.00000031,
 -0.00000003,0.00000030,0.00000011,-0.00000008,0.00000001,0.00000033,0.
 00000006,0.00000042,-0.00000011,-0.00000034,-0.00000011,-0.00000023,-0
 .00000005,0.00000010,0.00000023,-0.00000021,-0.00000005,-0.00000020,0.
 00000023,-0.00000021,0.,0.00000033,-0.00000031,-0.00000006,-0.00000001
 ,0.00000014,0.00000023,-0.00000029,0.00000031,-0.00000007,0.00000018,0
 .00000035,0.00000046,0.00000023,0.00000046,-0.00000032,0.00000035,0.00
 000135,-0.00000070,-0.00000128,0.00000235,-0.00000520,-0.00000166,0.00
 001267,-0.00000038,-0.00000944,-0.00000534,0.00001158,0.00000365,-0.00
 000185,0.00000232,-0.00000404,0.00000125,0.00001647,0.00004055,-0.0000
 0212,-0.00001064,0.02457455,0.04200390,-0.00008910,-0.00002745,-0.0000
 1678,0.00009673,0.00021992,0.00019579,0.00004595,-0.00000683,-0.000062
 34,-0.00001366,-0.00002640,-0.00004353,0.00084567,0.00092371,0.0005666
 7,0.00127997,-0.00166463,-0.00247208,-0.00094521,-0.00081151,0.0012734
 6,0.00047525,0.00027001,0.00062937,0.00390463,-0.00129773,-0.00088481,
 -0.00876746,-0.00467665,-0.01637515,-0.00210430,0.00096628,-0.00009498
 ,-0.00026543,0.00042086,0.00060459,0.00047419,-0.00011034,0.00021312,-
 0.00008524,0.00006951,-0.00008156,-0.00009426,-0.00014138,0.00013055,0
 .00001301,-0.00003488,0.,-0.00000456,-0.00000966,-0.00002503,-0.000014
 88,0.00001860,0.00002831,0.00000440,0.00000095,0.00000040,0.00000237,-
 0.00000601,-0.00000736,0.00000985,-0.00000120,0.00000281,-0.00000895,0
 .00000236,0.00000168,0.00000449,-0.00000098,-0.00000078,-0.00000439,-0
 .00000116,0.00000440,0.00001423,0.00000738,-0.00001256,-0.00001404,-0.
 00000714,0.00001737,0.00000150,0.00000235,-0.00001164,0.00000165,0.000
 00005,0.00000134,0.00000004,0.00000009,0.00000046,0.00000169,-0.000000
 20,0.00000153,-0.00000883,0.00000142,-0.00000339,-0.00000901,0.0000049
 1,0.00000103,-0.00000209,-0.00000089,-0.00000470,-0.00000534,0.0000022
 4,0.00000052,0.00000119,0.00000592,0.00000712,0.00001531,-0.00000538,-
 0.00000713,-0.00001659,0.00001249,0.00001972,-0.00014249,0.00010887,-0
 .00021203,0.00005292,-0.00004984,0.00004789,-0.00006605,0.00000356,-0.
 00001483,0.00007940,0.00002242,-0.00000369,-0.00004248,-0.00004903,0.0
 0012454,0.00053188,0.00026893,0.00002125,-0.08763997,-0.06283906,-0.29
 239129,-0.00000991,0.00000061,0.00002330,0.00000710,-0.00000237,0.0000
 0064,0.00001701,0.00001184,-0.00000792,0.00002483,0.00001557,0.0000094
 9,0.00000219,0.00002103,0.00002440,-0.00000153,-0.00000580,0.00000184,
 -0.00000812,0.00000943,0.00001549,-0.00000694,0.00001020,0.00000593,0.
 00002037,0.00000376,0.00002082,0.00012693,-0.00007052,-0.00009291,-0.0
 0007066,0.00009682,-0.00007982,-0.00050117,-0.00030113,-0.00080354,-0.
 00004424,-0.00035000,0.00001785,0.00002319,0.00000401,0.00001049,0.000
 01635,-0.00002409,-0.00003177,-0.00000325,0.00000104,0.00000112,0.0000
 0117,-0.00000183,0.00000127,-0.00000117,0.00000049,-0.00000119,-0.0000
 0113,0.00000006,0.00000004,0.00000005,-0.00000055,0.00000109,-0.000001
 44,0.00000036,-0.00000037,-0.00000003,0.00000034,-0.00000051,-0.000000
 16,-0.00000036,0.00000090,-0.00000003,-0.00000013,-0.00000040,-0.00000
 020,0.00000046,-0.00000040,-0.00000039,0.00000025,-0.00000073,0.,-0.00
 000032,0.00000123,-0.00000109,-0.00000038,-0.00000091,0.00000249,0.000
 00008,-0.00000138,-0.00000155,-0.00000106,-0.00000170,-0.00000261,-0.0
 0000133,-0.00000194,0.00000115,-0.00000288,0.00000020,0.00000138,0.000
 00353,0.00000999,0.00000113,-0.00000006,-0.00000575,0.00000116,-0.0000
 0131,0.00000281,0.00000118,-0.00001130,-0.00000219,-0.00000748,-0.0000
 8340,-0.00000309,0.09290343,0.06911448,0.30971933\\-0.00001240,0.00000
 010,0.00001010,0.00000938,0.00001300,0.00000542,-0.00002487,-0.0000149
 8,0.00001019,-0.00000807,-0.00000288,0.00000252,-0.00000819,-0.0000347
 8,-0.00002184,-0.00000743,0.00001189,-0.00000240,0.00001628,0.00001115
 ,-0.00003609,0.00000471,0.00000186,0.00000295,0.00000463,0.00000468,0.
 00000256,-0.00000700,-0.00000347,0.00000138,0.00000622,0.00000283,-0.0
 0000116,-0.00000138,-0.00000104,-0.00000456,0.00000457,-0.00000977,0.0
 0001394,-0.00000193,0.00000445,-0.00000655,0.00000100,0.00000407,-0.00
 000309,-0.00000273,0.00000034,0.00000091,-0.00000041,-0.00000305,0.000
 00389,0.00000304,0.00000073,-0.00000117,0.00000580,0.00000096,-0.00000
 249,-0.00000072,0.00000301,0.00000178,-0.00000091,-0.00000253,0.000000
 85,-0.00000418,0.00000044,0.00000025,0.00000502,-0.00000035,-0.0000019
 2,-0.00000375,-0.00000119,-0.00000229,0.00000006,-0.00000487,0.0000050
 5,-0.00000372,0.00000946,-0.00000430,0.00000220,-0.00000743,-0.0000027
 8,-0.00000098,-0.00000022,0.00000291,0.00000391,0.00000057,-0.00000185
 ,0.00000194,0.00000588,0.00000584,0.00000491,0.00000151,-0.00000751,-0
 .00000042,-0.00000615,-0.00000360,-0.00000620,0.00000538,0.00000364,0.
 00000573,-0.00000078,0.00000037,-0.00000285,-0.00000212,-0.00000118,-0
 .00000490,0.00000420,0.00000468,0.00000776,-0.00000324,-0.00000369,0.0
 0000240,-0.00000476,-0.00000040,-0.00000219,0.00000195,-0.00000127,0.0
 0000197,0.00000608,-0.00000141,0.00000202,-0.00000113,0.00000084,-0.00
 000200,-0.00001273,0.00000518,-0.00000893,0.00000747,0.00000106,0.0000
 0856,0.00000720,-0.00000791,-0.00000017,-0.00000018,0.00000310,-0.0000
 0018,-0.00000225,-0.00000048,-0.00000177,0.00000148,-0.00000332,-0.000
 02173,-0.00001177,0.00004614,0.00000306,0.00000468,0.00000556,0.000000
 10,0.00000083,0.00000003,0.00000465,-0.00000178,0.00000250,0.00000007,
 -0.00000119,-0.00000087,-0.00001100,0.00000181,0.00000891,0.00005227,0
 .00001885,-0.00002277,-0.00000017,0.00000178,0.00000041,0.00000376,0.0
 0000429,-0.00000116,-0.00000015,0.00000132,-0.00000152,0.00000029,-0.0
 0000124,0.00000103,-0.00000169,0.00000082,-0.00000013,-0.00000258,-0.0
 0000048,-0.00000029,0.00000314,-0.00000111,-0.00000251,0.00000014,-0.0
 0000117,0.00000016,0.00000062,-0.00000044,0.00000064,0.00000003,-0.000
 00130,0.00000159,-0.00000420,-0.00000239,0.00000256,-0.00000027,-0.000
 00116,0.00000009,-0.00000004,-0.00000017,-0.00000111,-0.00000037,-0.00
 000072,-0.00000006,-0.00000080,0.00000109,-0.00000035,-0.00000083,-0.0
 0000030,-0.00000063,-0.00000003,-0.00000002,-0.00000002,-0.00000312,0.
 00000015,0.00000278,0.00000183,0.00000292,-0.00000588,-0.00000033,0.00
 000092,-0.00000052,-0.00000134,-0.00000012,-0.00000018,0.00000061,0.00
 000063,0.00000083,0.00000281,-0.00000030,-0.00000048,0.00000035,0.0000
 0007,0.00000026,0.00000019,-0.00000129,0.00000062,-0.00000128,0.000000
 41,0.00000007,-0.00000700,-0.00000489,-0.00000177,-0.00000079,0.000000
 51,-0.00000007\\\@
 The archive entry for this job was punched.


 THOSE WHO ASPIRE NOT TO GUESS AND DIVINE,
 BUT TO DISCOVER AND KNOW, WHO PROPOSE NOT TO DEVISE 
 MIMIC AND FABULOUS WORLDS OF THEIR OWN, BUT TO 
 EXAMINE AND DISSECT THE NATURE OF THIS VERY WORLD 
 ITSELF, MUST GO TO THE FACTS THEMSELVES FOR EVERYTHING.

                               -- FRANCIS BACON, 1620
 Job cpu time:       0 days  9 hours 38 minutes 49.8 seconds.
 Elapsed time:       0 days  0 hours 18 minutes 11.4 seconds.
 File lengths (MBytes):  RWF=   4214 Int=      0 D2E=      0 Chk=     43 Scr=      1
 Normal termination of Gaussian 16 at Tue Mar 25 16:05:13 2025.
