 Entering Gaussian System, Link 0=g16
 Initial command:
 /public/software/apps/Gaussian/g16/l1.exe "/tmp/Gau-74243.inp" -scrdir="/tmp/"
 Entering Link 1 = /public/software/apps/Gaussian/g16/l1.exe PID=     74244.
  
 Copyright (c) 1988-2019, Gaussian, Inc.  All Rights Reserved.
  
 This is part of the Gaussian(R) 16 program.  It is based on
 the Gaussian(R) 09 system (copyright 2009, Gaussian, Inc.),
 the Gaussian(R) 03 system (copyright 2003, Gaussian, Inc.),
 the Gaussian(R) 98 system (copyright 1998, Gaussian, Inc.),
 the Gaussian(R) 94 system (copyright 1995, Gaussian, Inc.),
 the Gaussian 92(TM) system (copyright 1992, Gaussian, Inc.),
 the Gaussian 90(TM) system (copyright 1990, Gaussian, Inc.),
 the Gaussian 88(TM) system (copyright 1988, Gaussian, Inc.),
 the Gaussian 86(TM) system (copyright 1986, Carnegie Mellon
 University), and the Gaussian 82(TM) system (copyright 1983,
 Carnegie Mellon University). Gaussian is a federally registered
 trademark of Gaussian, Inc.
  
 This software contains proprietary and confidential information,
 including trade secrets, belonging to Gaussian, Inc.
  
 This software is provided under written license and may be
 used, copied, transmitted, or stored only in accord with that
 written license.
  
 The following legend is applicable only to US Government
 contracts under FAR:
  
                    RESTRICTED RIGHTS LEGEND
  
 Use, reproduction and disclosure by the US Government is
 subject to restrictions as set forth in subparagraphs (a)
 and (c) of the Commercial Computer Software - Restricted
 Rights clause in FAR 52.227-19.
  
 Gaussian, Inc.
 340 Quinnipiac St., Bldg. 40, Wallingford CT 06492
  
  
 ---------------------------------------------------------------
 Warning -- This program may not be used in any manner that
 competes with the business of Gaussian, Inc. or will provide
 assistance to any competitor of Gaussian, Inc.  The licensee
 of this program is prohibited from giving any competitor of
 Gaussian, Inc. access to this program.  By using this program,
 the user acknowledges that Gaussian, Inc. is engaged in the
 business of creating and licensing software in the field of
 computational chemistry and represents and warrants to the
 licensee that it is not a competitor of Gaussian, Inc. and that
 it will not use this program in any manner prohibited above.
 ---------------------------------------------------------------
  

 Cite this work as:
 Gaussian 16, Revision C.01,
 M. J. Frisch, G. W. Trucks, H. B. Schlegel, G. E. Scuseria, 
 M. A. Robb, J. R. Cheeseman, G. Scalmani, V. Barone, 
 G. A. Petersson, H. Nakatsuji, X. Li, M. Caricato, A. V. Marenich, 
 J. Bloino, B. G. Janesko, R. Gomperts, B. Mennucci, H. P. Hratchian, 
 J. V. Ortiz, A. F. Izmaylov, J. L. Sonnenberg, D. Williams-Young, 
 F. Ding, F. Lipparini, F. Egidi, J. Goings, B. Peng, A. Petrone, 
 T. Henderson, D. Ranasinghe, V. G. Zakrzewski, J. Gao, N. Rega, 
 G. Zheng, W. Liang, M. Hada, M. Ehara, K. Toyota, R. Fukuda, 
 J. Hasegawa, M. Ishida, T. Nakajima, Y. Honda, O. Kitao, H. Nakai, 
 T. Vreven, K. Throssell, J. A. Montgomery, Jr., J. E. Peralta, 
 F. Ogliaro, M. J. Bearpark, J. J. Heyd, E. N. Brothers, K. N. Kudin, 
 V. N. Staroverov, T. A. Keith, R. Kobayashi, J. Normand, 
 K. Raghavachari, A. P. Rendell, J. C. Burant, S. S. Iyengar, 
 J. Tomasi, M. Cossi, J. M. Millam, M. Klene, C. Adamo, R. Cammi, 
 J. W. Ochterski, R. L. Martin, K. Morokuma, O. Farkas, 
 J. B. Foresman, and D. J. Fox, Gaussian, Inc., Wallingford CT, 2019.
 
 ******************************************
 Gaussian 16:  ES64L-G16RevC.01  3-Jul-2019
                23-Mar-2025 
 ******************************************
 %nprocshared=32
 Will use up to   32 processors via shared memory.
 %mem=100GB
 ------------------------------------------
 #p opt freq b3lyp/def2svpp em=gd3bj nosymm
 ------------------------------------------
 1/18=20,19=15,26=3,38=1/1,3;
 2/9=110,12=2,15=1,17=6,18=5,40=1/2;
 3/5=43,7=202,11=2,25=1,30=1,71=1,74=-5,124=41/1,2,3;
 4//1;
 5/5=2,38=5/2;
 6/7=2,8=2,9=2,10=2,28=1/1;
 7/30=1/1,2,3,16;
 1/18=20,19=15,26=3/3(2);
 2/9=110,15=1/2;
 99//99;
 2/9=110,15=1/2;
 3/5=43,7=202,11=2,25=1,30=1,71=1,74=-5,124=41/1,2,3;
 4/5=5,16=3,69=1/1;
 5/5=2,38=5/2;
 7/30=1/1,2,3,16;
 1/18=20,19=15,26=3/3(-5);
 2/9=110,15=1/2;
 6/7=2,8=2,9=2,10=2,19=2,28=1/1;
 99/9=1/99;
 Leave Link    1 at Sun Mar 23 18:10:26 2025, MaxMem= 13421772800 cpu:               1.9 elap:               0.1
 (Enter /public/software/apps/Gaussian/g16/l101.exe)
 ----------------------
 $$$$Singlemol####0????
 ----------------------
 Symbolic Z-matrix:
 Charge =  0 Multiplicity = 1
 C                     9.91729   0.38693   1.70048 
 O                     9.17964   0.33402   0.50612 
 C                     7.82354   0.23845   0.58845 
 C                     7.0948    0.17579   1.76331 
 C                     5.71089   0.08133   1.73427 
 C                     5.0333    0.03399   0.52873 
 C                     3.56278  -0.04293   0.4955 
 C                     2.83537   0.89928   1.17727 
 C                     1.43145   0.90748   1.14463 
 O                     0.80164   1.87702   1.85778 
 C                     0.74273  -0.03996   0.41049 
 C                    -0.74314  -0.02082   0.40613 
 C                    -1.44017  -0.97047   1.12921 
 O                    -0.81854  -1.95155   1.83377 
 C                    -2.84419  -0.95098   1.16067 
 C                    -3.56318   0.00553   0.48993 
 C                    -5.03446  -0.05101   0.52685 
 C                    -5.70967  -0.10077   1.73363 
 C                    -7.09537  -0.16368   1.76536 
 C                    -7.82871  -0.19027   0.59199 
 O                    -9.18711  -0.24774   0.51237 
 C                    -9.92359  -0.28463   1.70803 
 C                    -7.14708  -0.1601   -0.64635 
 O                    -7.94062  -0.20237  -1.75325 
 C                    -7.32491  -0.17024  -3.01559 
 C                    -5.76734  -0.09012  -0.66208 
 C                    -2.87757   1.02066  -0.23364 
 C                    -3.55185   2.08443  -0.86838 
 C                    -2.86835   3.03349  -1.57662 
 C                    -1.47292   2.9624   -1.68723 
 C                    -0.78392   1.9683   -1.05252 
 C                    -1.45804   0.98782  -0.29082 
 C                     1.46629  -1.03739  -0.2933 
 C                     0.80117  -2.01867  -1.0618 
 C                     1.49944  -3.0015   -1.704 
 C                     2.89575  -3.05915  -1.59615 
 C                     3.57066  -2.10863  -0.88161 
 C                     2.88621  -1.05761  -0.23675 
 C                     5.76146   0.10432  -0.66161 
 C                     7.13917   0.2079   -0.64837 
 O                     7.92844   0.28688  -1.75634 
 C                     7.31033   0.26466  -3.01763 
 H                     9.78312  -0.52043   2.29934 
 H                     9.64891   1.26144   2.30298 
 H                     10.96025   0.46599   1.3978 
 H                     7.59489   0.2002    2.71826 
 H                     5.16113   0.02648   2.66146 
 H                     3.32917   1.67583   1.74008 
 H                    -0.15383   1.8096    1.721 
 H                     0.13774  -1.88819   1.70094 
 H                    -3.34502  -1.72858   1.7158 
 H                    -5.15652  -0.07109   2.65995 
 H                    -7.59341  -0.19033   2.72133 
 H                    -10.96935  -0.32372   1.4072 
 H                    -9.6855   -1.17329   2.30246 
 H                    -9.75572   0.61219   2.3142 
 H                    -8.13797  -0.20376  -3.73903 
 H                    -6.66969  -1.03459  -3.1684 
 H                    -6.74871   0.74988  -3.16212 
 H                    -5.22951  -0.08609  -1.59703 
 H                    -4.62532   2.14769  -0.77403 
 H                    -3.40011   3.84287  -2.05478 
 H                    -0.94447   3.70487  -2.26672 
 H                     0.29292   1.9195   -1.12675 
 H                    -0.27619  -1.97994  -1.13481 
 H                     0.97772  -3.74521  -2.28801 
 H                     3.43489  -3.85914  -2.08179 
 H                     4.64502  -2.16051  -0.7899 
 H                     5.22124   0.09947  -1.59521 
 H                     6.63209   1.11436  -3.15103 
 H                     8.12029   0.33475  -3.74199 
 H                     6.75827  -0.66716  -3.1821 
 
 ITRead=  0  0  0  0  0  0  0  0  0  0  0  0  0  0  0  0  0  0  0  0
 ITRead=  0  0  0  0  0  0  0  0  0  0  0  0  0  0  0  0  0  0  0  0
 ITRead=  0  0  0  0  0  0  0  0  0  0  0  0  0  0  0  0  0  0  0  0
 ITRead=  0  0  0  0  0  0  0  0  0  0  0  0
 MicOpt= -1 -1 -1 -1 -1 -1 -1 -1 -1 -1 -1 -1 -1 -1 -1 -1 -1 -1 -1 -1
 MicOpt= -1 -1 -1 -1 -1 -1 -1 -1 -1 -1 -1 -1 -1 -1 -1 -1 -1 -1 -1 -1
 MicOpt= -1 -1 -1 -1 -1 -1 -1 -1 -1 -1 -1 -1 -1 -1 -1 -1 -1 -1 -1 -1
 MicOpt= -1 -1 -1 -1 -1 -1 -1 -1 -1 -1 -1 -1
 NAtoms=     72 NQM=       72 NQMF=       0 NMMI=      0 NMMIF=      0
                NMic=       0 NMicF=      0.
                    Isotopes and Nuclear Properties:
 (Nuclear quadrupole moments (NQMom) in fm**2, nuclear magnetic moments (NMagM)
  in nuclear magnetons)

  Atom         1           2           3           4           5           6           7           8           9          10
 IAtWgt=          12          16          12          12          12          12          12          12          12          16
 AtmWgt=  12.0000000  15.9949146  12.0000000  12.0000000  12.0000000  12.0000000  12.0000000  12.0000000  12.0000000  15.9949146
 NucSpn=           0           0           0           0           0           0           0           0           0           0
 AtZEff=  -0.0000000  -0.0000000  -0.0000000  -0.0000000  -0.0000000  -0.0000000  -0.0000000  -0.0000000  -0.0000000  -0.0000000
 NQMom=    0.0000000   0.0000000   0.0000000   0.0000000   0.0000000   0.0000000   0.0000000   0.0000000   0.0000000   0.0000000
 NMagM=    0.0000000   0.0000000   0.0000000   0.0000000   0.0000000   0.0000000   0.0000000   0.0000000   0.0000000   0.0000000
 AtZNuc=   6.0000000   8.0000000   6.0000000   6.0000000   6.0000000   6.0000000   6.0000000   6.0000000   6.0000000   8.0000000

  Atom        11          12          13          14          15          16          17          18          19          20
 IAtWgt=          12          12          12          16          12          12          12          12          12          12
 AtmWgt=  12.0000000  12.0000000  12.0000000  15.9949146  12.0000000  12.0000000  12.0000000  12.0000000  12.0000000  12.0000000
 NucSpn=           0           0           0           0           0           0           0           0           0           0
 AtZEff=  -0.0000000  -0.0000000  -0.0000000  -0.0000000  -0.0000000  -0.0000000  -0.0000000  -0.0000000  -0.0000000  -0.0000000
 NQMom=    0.0000000   0.0000000   0.0000000   0.0000000   0.0000000   0.0000000   0.0000000   0.0000000   0.0000000   0.0000000
 NMagM=    0.0000000   0.0000000   0.0000000   0.0000000   0.0000000   0.0000000   0.0000000   0.0000000   0.0000000   0.0000000
 AtZNuc=   6.0000000   6.0000000   6.0000000   8.0000000   6.0000000   6.0000000   6.0000000   6.0000000   6.0000000   6.0000000

  Atom        21          22          23          24          25          26          27          28          29          30
 IAtWgt=          16          12          12          16          12          12          12          12          12          12
 AtmWgt=  15.9949146  12.0000000  12.0000000  15.9949146  12.0000000  12.0000000  12.0000000  12.0000000  12.0000000  12.0000000
 NucSpn=           0           0           0           0           0           0           0           0           0           0
 AtZEff=  -0.0000000  -0.0000000  -0.0000000  -0.0000000  -0.0000000  -0.0000000  -0.0000000  -0.0000000  -0.0000000  -0.0000000
 NQMom=    0.0000000   0.0000000   0.0000000   0.0000000   0.0000000   0.0000000   0.0000000   0.0000000   0.0000000   0.0000000
 NMagM=    0.0000000   0.0000000   0.0000000   0.0000000   0.0000000   0.0000000   0.0000000   0.0000000   0.0000000   0.0000000
 AtZNuc=   8.0000000   6.0000000   6.0000000   8.0000000   6.0000000   6.0000000   6.0000000   6.0000000   6.0000000   6.0000000

  Atom        31          32          33          34          35          36          37          38          39          40
 IAtWgt=          12          12          12          12          12          12          12          12          12          12
 AtmWgt=  12.0000000  12.0000000  12.0000000  12.0000000  12.0000000  12.0000000  12.0000000  12.0000000  12.0000000  12.0000000
 NucSpn=           0           0           0           0           0           0           0           0           0           0
 AtZEff=  -0.0000000  -0.0000000  -0.0000000  -0.0000000  -0.0000000  -0.0000000  -0.0000000  -0.0000000  -0.0000000  -0.0000000
 NQMom=    0.0000000   0.0000000   0.0000000   0.0000000   0.0000000   0.0000000   0.0000000   0.0000000   0.0000000   0.0000000
 NMagM=    0.0000000   0.0000000   0.0000000   0.0000000   0.0000000   0.0000000   0.0000000   0.0000000   0.0000000   0.0000000
 AtZNuc=   6.0000000   6.0000000   6.0000000   6.0000000   6.0000000   6.0000000   6.0000000   6.0000000   6.0000000   6.0000000

  Atom        41          42          43          44          45          46          47          48          49          50
 IAtWgt=          16          12           1           1           1           1           1           1           1           1
 AtmWgt=  15.9949146  12.0000000   1.0078250   1.0078250   1.0078250   1.0078250   1.0078250   1.0078250   1.0078250   1.0078250
 NucSpn=           0           0           1           1           1           1           1           1           1           1
 AtZEff=  -0.0000000  -0.0000000  -0.0000000  -0.0000000  -0.0000000  -0.0000000  -0.0000000  -0.0000000  -0.0000000  -0.0000000
 NQMom=    0.0000000   0.0000000   0.0000000   0.0000000   0.0000000   0.0000000   0.0000000   0.0000000   0.0000000   0.0000000
 NMagM=    0.0000000   0.0000000   2.7928460   2.7928460   2.7928460   2.7928460   2.7928460   2.7928460   2.7928460   2.7928460
 AtZNuc=   8.0000000   6.0000000   1.0000000   1.0000000   1.0000000   1.0000000   1.0000000   1.0000000   1.0000000   1.0000000

  Atom        51          52          53          54          55          56          57          58          59          60
 IAtWgt=           1           1           1           1           1           1           1           1           1           1
 AtmWgt=   1.0078250   1.0078250   1.0078250   1.0078250   1.0078250   1.0078250   1.0078250   1.0078250   1.0078250   1.0078250
 NucSpn=           1           1           1           1           1           1           1           1           1           1
 AtZEff=  -0.0000000  -0.0000000  -0.0000000  -0.0000000  -0.0000000  -0.0000000  -0.0000000  -0.0000000  -0.0000000  -0.0000000
 NQMom=    0.0000000   0.0000000   0.0000000   0.0000000   0.0000000   0.0000000   0.0000000   0.0000000   0.0000000   0.0000000
 NMagM=    2.7928460   2.7928460   2.7928460   2.7928460   2.7928460   2.7928460   2.7928460   2.7928460   2.7928460   2.7928460
 AtZNuc=   1.0000000   1.0000000   1.0000000   1.0000000   1.0000000   1.0000000   1.0000000   1.0000000   1.0000000   1.0000000

  Atom        61          62          63          64          65          66          67          68          69          70
 IAtWgt=           1           1           1           1           1           1           1           1           1           1
 AtmWgt=   1.0078250   1.0078250   1.0078250   1.0078250   1.0078250   1.0078250   1.0078250   1.0078250   1.0078250   1.0078250
 NucSpn=           1           1           1           1           1           1           1           1           1           1
 AtZEff=  -0.0000000  -0.0000000  -0.0000000  -0.0000000  -0.0000000  -0.0000000  -0.0000000  -0.0000000  -0.0000000  -0.0000000
 NQMom=    0.0000000   0.0000000   0.0000000   0.0000000   0.0000000   0.0000000   0.0000000   0.0000000   0.0000000   0.0000000
 NMagM=    2.7928460   2.7928460   2.7928460   2.7928460   2.7928460   2.7928460   2.7928460   2.7928460   2.7928460   2.7928460
 AtZNuc=   1.0000000   1.0000000   1.0000000   1.0000000   1.0000000   1.0000000   1.0000000   1.0000000   1.0000000   1.0000000

  Atom        71          72
 IAtWgt=           1           1
 AtmWgt=   1.0078250   1.0078250
 NucSpn=           1           1
 AtZEff=  -0.0000000  -0.0000000
 NQMom=    0.0000000   0.0000000
 NMagM=    2.7928460   2.7928460
 AtZNuc=   1.0000000   1.0000000
 Leave Link  101 at Sun Mar 23 18:10:26 2025, MaxMem= 13421772800 cpu:               6.5 elap:               0.2
 (Enter /public/software/apps/Gaussian/g16/l103.exe)

 GradGradGradGradGradGradGradGradGradGradGradGradGradGradGradGradGradGrad
 Berny optimization.
 Initialization pass.
                           ----------------------------
                           !    Initial Parameters    !
                           ! (Angstroms and Degrees)  !
 --------------------------                            --------------------------
 ! Name  Definition              Value          Derivative Info.                !
 --------------------------------------------------------------------------------
 ! R1    R(1,2)                  1.4048         estimate D2E/DX2                !
 ! R2    R(1,43)                 1.0954         estimate D2E/DX2                !
 ! R3    R(1,44)                 1.0953         estimate D2E/DX2                !
 ! R4    R(1,45)                 1.0889         estimate D2E/DX2                !
 ! R5    R(2,3)                  1.362          estimate D2E/DX2                !
 ! R6    R(3,4)                  1.3839         estimate D2E/DX2                !
 ! R7    R(3,40)                 1.4139         estimate D2E/DX2                !
 ! R8    R(4,5)                  1.3874         estimate D2E/DX2                !
 ! R9    R(4,46)                 1.0782         estimate D2E/DX2                !
 ! R10   R(5,6)                  1.3837         estimate D2E/DX2                !
 ! R11   R(5,47)                 1.0793         estimate D2E/DX2                !
 ! R12   R(6,7)                  1.4729         estimate D2E/DX2                !
 ! R13   R(6,39)                 1.3972         estimate D2E/DX2                !
 ! R14   R(7,8)                  1.3717         estimate D2E/DX2                !
 ! R15   R(7,38)                 1.4225         estimate D2E/DX2                !
 ! R16   R(8,9)                  1.4043         estimate D2E/DX2                !
 ! R17   R(8,48)                 1.0787         estimate D2E/DX2                !
 ! R18   R(9,10)                 1.3584         estimate D2E/DX2                !
 ! R19   R(9,11)                 1.3824         estimate D2E/DX2                !
 ! R20   R(10,49)                0.9676         estimate D2E/DX2                !
 ! R21   R(11,12)                1.486          estimate D2E/DX2                !
 ! R22   R(11,33)                1.4191         estimate D2E/DX2                !
 ! R23   R(12,13)                1.3822         estimate D2E/DX2                !
 ! R24   R(12,32)                1.4192         estimate D2E/DX2                !
 ! R25   R(13,14)                1.3584         estimate D2E/DX2                !
 ! R26   R(13,15)                1.4045         estimate D2E/DX2                !
 ! R27   R(14,50)                0.9675         estimate D2E/DX2                !
 ! R28   R(15,16)                1.3718         estimate D2E/DX2                !
 ! R29   R(15,51)                1.0787         estimate D2E/DX2                !
 ! R30   R(16,17)                1.4728         estimate D2E/DX2                !
 ! R31   R(16,27)                1.4227         estimate D2E/DX2                !
 ! R32   R(17,18)                1.3837         estimate D2E/DX2                !
 ! R33   R(17,26)                1.3972         estimate D2E/DX2                !
 ! R34   R(18,19)                1.3875         estimate D2E/DX2                !
 ! R35   R(18,52)                1.0793         estimate D2E/DX2                !
 ! R36   R(19,20)                1.3839         estimate D2E/DX2                !
 ! R37   R(19,53)                1.0783         estimate D2E/DX2                !
 ! R38   R(20,21)                1.3619         estimate D2E/DX2                !
 ! R39   R(20,23)                1.4139         estimate D2E/DX2                !
 ! R40   R(21,22)                1.4048         estimate D2E/DX2                !
 ! R41   R(22,54)                1.0889         estimate D2E/DX2                !
 ! R42   R(22,55)                1.0953         estimate D2E/DX2                !
 ! R43   R(22,56)                1.0954         estimate D2E/DX2                !
 ! R44   R(23,24)                1.3626         estimate D2E/DX2                !
 ! R45   R(23,26)                1.3816         estimate D2E/DX2                !
 ! R46   R(24,25)                1.4049         estimate D2E/DX2                !
 ! R47   R(25,57)                1.0888         estimate D2E/DX2                !
 ! R48   R(25,58)                1.0953         estimate D2E/DX2                !
 ! R49   R(25,59)                1.0955         estimate D2E/DX2                !
 ! R50   R(26,60)                1.0786         estimate D2E/DX2                !
 ! R51   R(27,28)                1.4104         estimate D2E/DX2                !
 ! R52   R(27,32)                1.4211         estimate D2E/DX2                !
 ! R53   R(28,29)                1.3673         estimate D2E/DX2                !
 ! R54   R(28,61)                1.0795         estimate D2E/DX2                !
 ! R55   R(29,30)                1.4016         estimate D2E/DX2                !
 ! R56   R(29,62)                1.08           estimate D2E/DX2                !
 ! R57   R(30,31)                1.366          estimate D2E/DX2                !
 ! R58   R(30,63)                1.08           estimate D2E/DX2                !
 ! R59   R(31,32)                1.4128         estimate D2E/DX2                !
 ! R60   R(31,64)                1.0805         estimate D2E/DX2                !
 ! R61   R(33,34)                1.4128         estimate D2E/DX2                !
 ! R62   R(33,38)                1.4212         estimate D2E/DX2                !
 ! R63   R(34,35)                1.366          estimate D2E/DX2                !
 ! R64   R(34,65)                1.0805         estimate D2E/DX2                !
 ! R65   R(35,36)                1.4017         estimate D2E/DX2                !
 ! R66   R(35,66)                1.08           estimate D2E/DX2                !
 ! R67   R(36,37)                1.3673         estimate D2E/DX2                !
 ! R68   R(36,67)                1.08           estimate D2E/DX2                !
 ! R69   R(37,38)                1.4103         estimate D2E/DX2                !
 ! R70   R(37,68)                1.0795         estimate D2E/DX2                !
 ! R71   R(39,40)                1.3817         estimate D2E/DX2                !
 ! R72   R(39,69)                1.0786         estimate D2E/DX2                !
 ! R73   R(40,41)                1.3626         estimate D2E/DX2                !
 ! R74   R(41,42)                1.4048         estimate D2E/DX2                !
 ! R75   R(42,70)                1.0953         estimate D2E/DX2                !
 ! R76   R(42,71)                1.0889         estimate D2E/DX2                !
 ! R77   R(42,72)                1.0955         estimate D2E/DX2                !
 ! A1    A(2,1,43)             111.6721         estimate D2E/DX2                !
 ! A2    A(2,1,44)             111.6581         estimate D2E/DX2                !
 ! A3    A(2,1,45)             105.6262         estimate D2E/DX2                !
 ! A4    A(43,1,44)            109.3051         estimate D2E/DX2                !
 ! A5    A(43,1,45)            109.2335         estimate D2E/DX2                !
 ! A6    A(44,1,45)            109.246          estimate D2E/DX2                !
 ! A7    A(1,2,3)              118.2998         estimate D2E/DX2                !
 ! A8    A(2,3,4)              125.3665         estimate D2E/DX2                !
 ! A9    A(2,3,40)             115.505          estimate D2E/DX2                !
 ! A10   A(4,3,40)             119.1281         estimate D2E/DX2                !
 ! A11   A(3,4,5)              120.7001         estimate D2E/DX2                !
 ! A12   A(3,4,46)             120.4378         estimate D2E/DX2                !
 ! A13   A(5,4,46)             118.8621         estimate D2E/DX2                !
 ! A14   A(4,5,6)              120.5977         estimate D2E/DX2                !
 ! A15   A(4,5,47)             119.5736         estimate D2E/DX2                !
 ! A16   A(6,5,47)             119.8194         estimate D2E/DX2                !
 ! A17   A(5,6,7)              120.6862         estimate D2E/DX2                !
 ! A18   A(5,6,39)             119.0342         estimate D2E/DX2                !
 ! A19   A(7,6,39)             120.2469         estimate D2E/DX2                !
 ! A20   A(6,7,8)              118.838          estimate D2E/DX2                !
 ! A21   A(6,7,38)             121.5821         estimate D2E/DX2                !
 ! A22   A(8,7,38)             119.5757         estimate D2E/DX2                !
 ! A23   A(7,8,9)              121.5059         estimate D2E/DX2                !
 ! A24   A(7,8,48)             120.7326         estimate D2E/DX2                !
 ! A25   A(9,8,48)             117.7463         estimate D2E/DX2                !
 ! A26   A(8,9,10)             117.0954         estimate D2E/DX2                !
 ! A27   A(8,9,11)             120.4254         estimate D2E/DX2                !
 ! A28   A(10,9,11)            122.4792         estimate D2E/DX2                !
 ! A29   A(9,10,49)            109.5054         estimate D2E/DX2                !
 ! A30   A(9,11,12)            119.4003         estimate D2E/DX2                !
 ! A31   A(9,11,33)            119.4126         estimate D2E/DX2                !
 ! A32   A(12,11,33)           121.1603         estimate D2E/DX2                !
 ! A33   A(11,12,13)           119.5947         estimate D2E/DX2                !
 ! A34   A(11,12,32)           120.9487         estimate D2E/DX2                !
 ! A35   A(13,12,32)           119.4172         estimate D2E/DX2                !
 ! A36   A(12,13,14)           122.4626         estimate D2E/DX2                !
 ! A37   A(12,13,15)           120.4172         estimate D2E/DX2                !
 ! A38   A(14,13,15)           117.1201         estimate D2E/DX2                !
 ! A39   A(13,14,50)           109.4989         estimate D2E/DX2                !
 ! A40   A(13,15,16)           121.512          estimate D2E/DX2                !
 ! A41   A(13,15,51)           117.7517         estimate D2E/DX2                !
 ! A42   A(16,15,51)           120.7246         estimate D2E/DX2                !
 ! A43   A(15,16,17)           118.9834         estimate D2E/DX2                !
 ! A44   A(15,16,27)           119.5786         estimate D2E/DX2                !
 ! A45   A(17,16,27)           121.4357         estimate D2E/DX2                !
 ! A46   A(16,17,18)           120.7104         estimate D2E/DX2                !
 ! A47   A(16,17,26)           120.246          estimate D2E/DX2                !
 ! A48   A(18,17,26)           119.023          estimate D2E/DX2                !
 ! A49   A(17,18,19)           120.5913         estimate D2E/DX2                !
 ! A50   A(17,18,52)           119.8297         estimate D2E/DX2                !
 ! A51   A(19,18,52)           119.5682         estimate D2E/DX2                !
 ! A52   A(18,19,20)           120.71           estimate D2E/DX2                !
 ! A53   A(18,19,53)           118.8618         estimate D2E/DX2                !
 ! A54   A(20,19,53)           120.4282         estimate D2E/DX2                !
 ! A55   A(19,20,21)           125.373          estimate D2E/DX2                !
 ! A56   A(19,20,23)           119.1246         estimate D2E/DX2                !
 ! A57   A(21,20,23)           115.5021         estimate D2E/DX2                !
 ! A58   A(20,21,22)           118.3107         estimate D2E/DX2                !
 ! A59   A(21,22,54)           105.6228         estimate D2E/DX2                !
 ! A60   A(21,22,55)           111.67           estimate D2E/DX2                !
 ! A61   A(21,22,56)           111.6638         estimate D2E/DX2                !
 ! A62   A(54,22,55)           109.2427         estimate D2E/DX2                !
 ! A63   A(54,22,56)           109.2357         estimate D2E/DX2                !
 ! A64   A(55,22,56)           109.3059         estimate D2E/DX2                !
 ! A65   A(20,23,24)           115.4712         estimate D2E/DX2                !
 ! A66   A(20,23,26)           119.5055         estimate D2E/DX2                !
 ! A67   A(24,23,26)           125.0232         estimate D2E/DX2                !
 ! A68   A(23,24,25)           118.2925         estimate D2E/DX2                !
 ! A69   A(24,25,57)           105.6068         estimate D2E/DX2                !
 ! A70   A(24,25,58)           111.6838         estimate D2E/DX2                !
 ! A71   A(24,25,59)           111.7105         estimate D2E/DX2                !
 ! A72   A(57,25,58)           109.2508         estimate D2E/DX2                !
 ! A73   A(57,25,59)           109.2533         estimate D2E/DX2                !
 ! A74   A(58,25,59)           109.2382         estimate D2E/DX2                !
 ! A75   A(17,26,23)           121.0343         estimate D2E/DX2                !
 ! A76   A(17,26,60)           118.4209         estimate D2E/DX2                !
 ! A77   A(23,26,60)           120.5317         estimate D2E/DX2                !
 ! A78   A(16,27,28)           122.4573         estimate D2E/DX2                !
 ! A79   A(16,27,32)           119.0361         estimate D2E/DX2                !
 ! A80   A(28,27,32)           118.4823         estimate D2E/DX2                !
 ! A81   A(27,28,29)           121.1759         estimate D2E/DX2                !
 ! A82   A(27,28,61)           118.7048         estimate D2E/DX2                !
 ! A83   A(29,28,61)           120.1132         estimate D2E/DX2                !
 ! A84   A(28,29,30)           120.2226         estimate D2E/DX2                !
 ! A85   A(28,29,62)           120.2229         estimate D2E/DX2                !
 ! A86   A(30,29,62)           119.5546         estimate D2E/DX2                !
 ! A87   A(29,30,31)           120.161          estimate D2E/DX2                !
 ! A88   A(29,30,63)           119.646          estimate D2E/DX2                !
 ! A89   A(31,30,63)           120.1886         estimate D2E/DX2                !
 ! A90   A(30,31,32)           120.9918         estimate D2E/DX2                !
 ! A91   A(30,31,64)           120.2421         estimate D2E/DX2                !
 ! A92   A(32,31,64)           118.7661         estimate D2E/DX2                !
 ! A93   A(12,32,27)           119.9898         estimate D2E/DX2                !
 ! A94   A(12,32,31)           121.1741         estimate D2E/DX2                !
 ! A95   A(27,32,31)           118.8358         estimate D2E/DX2                !
 ! A96   A(11,33,34)           121.1947         estimate D2E/DX2                !
 ! A97   A(11,33,38)           119.9798         estimate D2E/DX2                !
 ! A98   A(34,33,38)           118.8251         estimate D2E/DX2                !
 ! A99   A(33,34,35)           120.986          estimate D2E/DX2                !
 ! A100  A(33,34,65)           118.7685         estimate D2E/DX2                !
 ! A101  A(35,34,65)           120.2455         estimate D2E/DX2                !
 ! A102  A(34,35,36)           120.1753         estimate D2E/DX2                !
 ! A103  A(34,35,66)           120.1824         estimate D2E/DX2                !
 ! A104  A(36,35,66)           119.6384         estimate D2E/DX2                !
 ! A105  A(35,36,37)           120.221          estimate D2E/DX2                !
 ! A106  A(35,36,67)           119.5476         estimate D2E/DX2                !
 ! A107  A(37,36,67)           120.2313         estimate D2E/DX2                !
 ! A108  A(36,37,38)           121.1624         estimate D2E/DX2                !
 ! A109  A(36,37,68)           120.1478         estimate D2E/DX2                !
 ! A110  A(38,37,68)           118.6838         estimate D2E/DX2                !
 ! A111  A(7,38,33)            119.0474         estimate D2E/DX2                !
 ! A112  A(7,38,37)            122.4204         estimate D2E/DX2                !
 ! A113  A(33,38,37)           118.5091         estimate D2E/DX2                !
 ! A114  A(6,39,40)            121.0164         estimate D2E/DX2                !
 ! A115  A(6,39,69)            118.4352         estimate D2E/DX2                !
 ! A116  A(40,39,69)           120.5329         estimate D2E/DX2                !
 ! A117  A(3,40,39)            119.5155         estimate D2E/DX2                !
 ! A118  A(3,40,41)            115.447          estimate D2E/DX2                !
 ! A119  A(39,40,41)           125.0375         estimate D2E/DX2                !
 ! A120  A(40,41,42)           118.3125         estimate D2E/DX2                !
 ! A121  A(41,42,70)           111.6865         estimate D2E/DX2                !
 ! A122  A(41,42,71)           105.6027         estimate D2E/DX2                !
 ! A123  A(41,42,72)           111.7144         estimate D2E/DX2                !
 ! A124  A(70,42,71)           109.2472         estimate D2E/DX2                !
 ! A125  A(70,42,72)           109.2397         estimate D2E/DX2                !
 ! A126  A(71,42,72)           109.2525         estimate D2E/DX2                !
 ! D1    D(43,1,2,3)            61.6771         estimate D2E/DX2                !
 ! D2    D(44,1,2,3)           -61.0454         estimate D2E/DX2                !
 ! D3    D(45,1,2,3)          -179.6879         estimate D2E/DX2                !
 ! D4    D(1,2,3,4)             -0.6144         estimate D2E/DX2                !
 ! D5    D(1,2,3,40)           179.1654         estimate D2E/DX2                !
 ! D6    D(2,3,4,5)            179.9066         estimate D2E/DX2                !
 ! D7    D(2,3,4,46)            -0.0616         estimate D2E/DX2                !
 ! D8    D(40,3,4,5)             0.1341         estimate D2E/DX2                !
 ! D9    D(40,3,4,46)         -179.8341         estimate D2E/DX2                !
 ! D10   D(2,3,40,39)          179.6286         estimate D2E/DX2                !
 ! D11   D(2,3,40,41)           -0.4038         estimate D2E/DX2                !
 ! D12   D(4,3,40,39)           -0.5769         estimate D2E/DX2                !
 ! D13   D(4,3,40,41)          179.3907         estimate D2E/DX2                !
 ! D14   D(3,4,5,6)              0.6727         estimate D2E/DX2                !
 ! D15   D(3,4,5,47)           179.565          estimate D2E/DX2                !
 ! D16   D(46,4,5,6)          -179.3586         estimate D2E/DX2                !
 ! D17   D(46,4,5,47)           -0.4663         estimate D2E/DX2                !
 ! D18   D(4,5,6,7)           -178.9417         estimate D2E/DX2                !
 ! D19   D(4,5,6,39)            -1.0169         estimate D2E/DX2                !
 ! D20   D(47,5,6,7)             2.1687         estimate D2E/DX2                !
 ! D21   D(47,5,6,39)         -179.9066         estimate D2E/DX2                !
 ! D22   D(5,6,7,8)             53.9816         estimate D2E/DX2                !
 ! D23   D(5,6,7,38)          -126.7668         estimate D2E/DX2                !
 ! D24   D(39,6,7,8)          -123.918          estimate D2E/DX2                !
 ! D25   D(39,6,7,38)           55.3337         estimate D2E/DX2                !
 ! D26   D(5,6,39,40)            0.567          estimate D2E/DX2                !
 ! D27   D(5,6,39,69)         -178.0069         estimate D2E/DX2                !
 ! D28   D(7,6,39,40)          178.5011         estimate D2E/DX2                !
 ! D29   D(7,6,39,69)           -0.0729         estimate D2E/DX2                !
 ! D30   D(6,7,8,9)            177.6977         estimate D2E/DX2                !
 ! D31   D(6,7,8,48)            -0.8526         estimate D2E/DX2                !
 ! D32   D(38,7,8,9)            -1.5693         estimate D2E/DX2                !
 ! D33   D(38,7,8,48)          179.8804         estimate D2E/DX2                !
 ! D34   D(6,7,38,33)         -176.5138         estimate D2E/DX2                !
 ! D35   D(6,7,38,37)            5.2632         estimate D2E/DX2                !
 ! D36   D(8,7,38,33)            2.7325         estimate D2E/DX2                !
 ! D37   D(8,7,38,37)         -175.4905         estimate D2E/DX2                !
 ! D38   D(7,8,9,10)           179.6837         estimate D2E/DX2                !
 ! D39   D(7,8,9,11)            -0.3622         estimate D2E/DX2                !
 ! D40   D(48,8,9,10)           -1.7243         estimate D2E/DX2                !
 ! D41   D(48,8,9,11)          178.2297         estimate D2E/DX2                !
 ! D42   D(8,9,10,49)          177.0111         estimate D2E/DX2                !
 ! D43   D(11,9,10,49)          -2.9419         estimate D2E/DX2                !
 ! D44   D(8,9,11,12)          179.2126         estimate D2E/DX2                !
 ! D45   D(8,9,11,33)            1.0743         estimate D2E/DX2                !
 ! D46   D(10,9,11,12)          -0.8359         estimate D2E/DX2                !
 ! D47   D(10,9,11,33)        -178.9742         estimate D2E/DX2                !
 ! D48   D(9,11,12,13)        -105.454          estimate D2E/DX2                !
 ! D49   D(9,11,12,32)          72.2499         estimate D2E/DX2                !
 ! D50   D(33,11,12,13)         72.6508         estimate D2E/DX2                !
 ! D51   D(33,11,12,32)       -109.6453         estimate D2E/DX2                !
 ! D52   D(9,11,33,34)        -179.603          estimate D2E/DX2                !
 ! D53   D(9,11,33,38)           0.1413         estimate D2E/DX2                !
 ! D54   D(12,11,33,34)          2.2924         estimate D2E/DX2                !
 ! D55   D(12,11,33,38)       -177.9633         estimate D2E/DX2                !
 ! D56   D(11,12,13,14)         -1.3287         estimate D2E/DX2                !
 ! D57   D(11,12,13,15)        178.6174         estimate D2E/DX2                !
 ! D58   D(32,12,13,14)       -179.068          estimate D2E/DX2                !
 ! D59   D(32,12,13,15)          0.8781         estimate D2E/DX2                !
 ! D60   D(11,12,32,27)       -177.2671         estimate D2E/DX2                !
 ! D61   D(11,12,32,31)          2.9575         estimate D2E/DX2                !
 ! D62   D(13,12,32,27)          0.4409         estimate D2E/DX2                !
 ! D63   D(13,12,32,31)       -179.3346         estimate D2E/DX2                !
 ! D64   D(12,13,14,50)         -2.8201         estimate D2E/DX2                !
 ! D65   D(15,13,14,50)        177.2321         estimate D2E/DX2                !
 ! D66   D(12,13,15,16)         -0.4407         estimate D2E/DX2                !
 ! D67   D(12,13,15,51)        178.3261         estimate D2E/DX2                !
 ! D68   D(14,13,15,16)        179.5082         estimate D2E/DX2                !
 ! D69   D(14,13,15,51)         -1.725          estimate D2E/DX2                !
 ! D70   D(13,15,16,17)        178.1328         estimate D2E/DX2                !
 ! D71   D(13,15,16,27)         -1.324          estimate D2E/DX2                !
 ! D72   D(51,15,16,17)         -0.5976         estimate D2E/DX2                !
 ! D73   D(51,15,16,27)        179.9456         estimate D2E/DX2                !
 ! D74   D(15,16,17,18)         53.8918         estimate D2E/DX2                !
 ! D75   D(15,16,17,26)       -124.4426         estimate D2E/DX2                !
 ! D76   D(27,16,17,18)       -126.6619         estimate D2E/DX2                !
 ! D77   D(27,16,17,26)         55.0037         estimate D2E/DX2                !
 ! D78   D(15,16,27,28)       -175.5846         estimate D2E/DX2                !
 ! D79   D(15,16,27,32)          2.5962         estimate D2E/DX2                !
 ! D80   D(17,16,27,28)          4.9723         estimate D2E/DX2                !
 ! D81   D(17,16,27,32)       -176.8468         estimate D2E/DX2                !
 ! D82   D(16,17,18,19)       -179.5343         estimate D2E/DX2                !
 ! D83   D(16,17,18,52)          1.6658         estimate D2E/DX2                !
 ! D84   D(26,17,18,19)         -1.1798         estimate D2E/DX2                !
 ! D85   D(26,17,18,52)       -179.9796         estimate D2E/DX2                !
 ! D86   D(16,17,26,23)        179.1885         estimate D2E/DX2                !
 ! D87   D(16,17,26,60)          0.4998         estimate D2E/DX2                !
 ! D88   D(18,17,26,23)          0.8261         estimate D2E/DX2                !
 ! D89   D(18,17,26,60)       -177.8626         estimate D2E/DX2                !
 ! D90   D(17,18,19,20)          0.5961         estimate D2E/DX2                !
 ! D91   D(17,18,19,53)       -179.3264         estimate D2E/DX2                !
 ! D92   D(52,18,19,20)        179.399          estimate D2E/DX2                !
 ! D93   D(52,18,19,53)         -0.5234         estimate D2E/DX2                !
 ! D94   D(18,19,20,21)       -179.8158         estimate D2E/DX2                !
 ! D95   D(18,19,20,23)          0.3546         estimate D2E/DX2                !
 ! D96   D(53,19,20,21)          0.1054         estimate D2E/DX2                !
 ! D97   D(53,19,20,23)       -179.7241         estimate D2E/DX2                !
 ! D98   D(19,20,21,22)         -0.0404         estimate D2E/DX2                !
 ! D99   D(23,20,21,22)        179.7947         estimate D2E/DX2                !
 ! D100  D(19,20,23,24)        179.3895         estimate D2E/DX2                !
 ! D101  D(19,20,23,26)         -0.7015         estimate D2E/DX2                !
 ! D102  D(21,20,23,24)         -0.4565         estimate D2E/DX2                !
 ! D103  D(21,20,23,26)        179.4525         estimate D2E/DX2                !
 ! D104  D(20,21,22,54)        179.7789         estimate D2E/DX2                !
 ! D105  D(20,21,22,55)        -61.5782         estimate D2E/DX2                !
 ! D106  D(20,21,22,56)         61.1479         estimate D2E/DX2                !
 ! D107  D(20,23,24,25)        179.7561         estimate D2E/DX2                !
 ! D108  D(26,23,24,25)         -0.1472         estimate D2E/DX2                !
 ! D109  D(20,23,26,17)          0.1115         estimate D2E/DX2                !
 ! D110  D(20,23,26,60)        178.7725         estimate D2E/DX2                !
 ! D111  D(24,23,26,17)       -179.9889         estimate D2E/DX2                !
 ! D112  D(24,23,26,60)         -1.3278         estimate D2E/DX2                !
 ! D113  D(23,24,25,57)       -179.4725         estimate D2E/DX2                !
 ! D114  D(23,24,25,58)         61.8772         estimate D2E/DX2                !
 ! D115  D(23,24,25,59)        -60.8049         estimate D2E/DX2                !
 ! D116  D(16,27,28,29)       -178.8545         estimate D2E/DX2                !
 ! D117  D(16,27,28,61)          2.0455         estimate D2E/DX2                !
 ! D118  D(32,27,28,29)          2.955          estimate D2E/DX2                !
 ! D119  D(32,27,28,61)       -176.145          estimate D2E/DX2                !
 ! D120  D(16,27,32,12)         -2.1641         estimate D2E/DX2                !
 ! D121  D(16,27,32,31)        177.6166         estimate D2E/DX2                !
 ! D122  D(28,27,32,12)        176.0896         estimate D2E/DX2                !
 ! D123  D(28,27,32,31)         -4.1297         estimate D2E/DX2                !
 ! D124  D(27,28,29,30)          0.1517         estimate D2E/DX2                !
 ! D125  D(27,28,29,62)       -179.8617         estimate D2E/DX2                !
 ! D126  D(61,28,29,30)        179.2391         estimate D2E/DX2                !
 ! D127  D(61,28,29,62)         -0.7743         estimate D2E/DX2                !
 ! D128  D(28,29,30,31)         -2.0844         estimate D2E/DX2                !
 ! D129  D(28,29,30,63)        178.6777         estimate D2E/DX2                !
 ! D130  D(62,29,30,31)        177.9289         estimate D2E/DX2                !
 ! D131  D(62,29,30,63)         -1.309          estimate D2E/DX2                !
 ! D132  D(29,30,31,32)          0.8111         estimate D2E/DX2                !
 ! D133  D(29,30,31,64)       -179.232          estimate D2E/DX2                !
 ! D134  D(63,30,31,32)       -179.9552         estimate D2E/DX2                !
 ! D135  D(63,30,31,64)          0.0017         estimate D2E/DX2                !
 ! D136  D(30,31,32,12)       -177.9065         estimate D2E/DX2                !
 ! D137  D(30,31,32,27)          2.3155         estimate D2E/DX2                !
 ! D138  D(64,31,32,12)          2.136          estimate D2E/DX2                !
 ! D139  D(64,31,32,27)       -177.642          estimate D2E/DX2                !
 ! D140  D(11,33,34,35)       -177.9589         estimate D2E/DX2                !
 ! D141  D(11,33,34,65)          2.0517         estimate D2E/DX2                !
 ! D142  D(38,33,34,35)          2.294          estimate D2E/DX2                !
 ! D143  D(38,33,34,65)       -177.6955         estimate D2E/DX2                !
 ! D144  D(11,33,38,7)          -2.0298         estimate D2E/DX2                !
 ! D145  D(11,33,38,37)        176.2632         estimate D2E/DX2                !
 ! D146  D(34,33,38,7)         177.7205         estimate D2E/DX2                !
 ! D147  D(34,33,38,37)         -3.9865         estimate D2E/DX2                !
 ! D148  D(33,34,35,36)          0.7223         estimate D2E/DX2                !
 ! D149  D(33,34,35,66)        179.9956         estimate D2E/DX2                !
 ! D150  D(65,34,35,36)       -179.2884         estimate D2E/DX2                !
 ! D151  D(65,34,35,66)         -0.0151         estimate D2E/DX2                !
 ! D152  D(34,35,36,37)         -2.0115         estimate D2E/DX2                !
 ! D153  D(34,35,36,67)        178.0253         estimate D2E/DX2                !
 ! D154  D(66,35,36,37)        178.7112         estimate D2E/DX2                !
 ! D155  D(66,35,36,67)         -1.252          estimate D2E/DX2                !
 ! D156  D(35,36,37,38)          0.2065         estimate D2E/DX2                !
 ! D157  D(35,36,37,68)        179.3004         estimate D2E/DX2                !
 ! D158  D(67,36,37,38)       -179.8305         estimate D2E/DX2                !
 ! D159  D(67,36,37,68)         -0.7367         estimate D2E/DX2                !
 ! D160  D(36,37,38,7)        -178.9746         estimate D2E/DX2                !
 ! D161  D(36,37,38,33)          2.7933         estimate D2E/DX2                !
 ! D162  D(68,37,38,7)           1.9186         estimate D2E/DX2                !
 ! D163  D(68,37,38,33)       -176.3135         estimate D2E/DX2                !
 ! D164  D(6,39,40,3)            0.2268         estimate D2E/DX2                !
 ! D165  D(6,39,40,41)        -179.7374         estimate D2E/DX2                !
 ! D166  D(69,39,40,3)         178.7709         estimate D2E/DX2                !
 ! D167  D(69,39,40,41)         -1.1933         estimate D2E/DX2                !
 ! D168  D(3,40,41,42)        -179.8667         estimate D2E/DX2                !
 ! D169  D(39,40,41,42)          0.0988         estimate D2E/DX2                !
 ! D170  D(40,41,42,70)         61.534          estimate D2E/DX2                !
 ! D171  D(40,41,42,71)       -179.821          estimate D2E/DX2                !
 ! D172  D(40,41,42,72)        -61.1549         estimate D2E/DX2                !
 --------------------------------------------------------------------------------
 Trust Radius=3.00D-01 FncErr=1.00D-07 GrdErr=1.00D-06 EigMax=2.50D+02 EigMin=1.00D-04
 Number of steps in this run=    385 maximum allowed number of steps=    432.
 GradGradGradGradGradGradGradGradGradGradGradGradGradGradGradGradGradGrad

 Leave Link  103 at Sun Mar 23 18:10:26 2025, MaxMem= 13421772800 cpu:               0.8 elap:               0.0
 (Enter /public/software/apps/Gaussian/g16/l202.exe)
 Symmetry turned off by external request.
 Stoichiometry    C36H30O6
 Framework group  C1[X(C36H30O6)]
 Deg. of freedom   210
 Full point group                 C1      NOp   1
                          Input orientation:                          
 ---------------------------------------------------------------------
 Center     Atomic      Atomic             Coordinates (Angstroms)
 Number     Number       Type             X           Y           Z
 ---------------------------------------------------------------------
      1          6           0        9.917288    0.386933    1.700479
      2          8           0        9.179639    0.334023    0.506119
      3          6           0        7.823540    0.238446    0.588454
      4          6           0        7.094801    0.175793    1.763310
      5          6           0        5.710889    0.081334    1.734266
      6          6           0        5.033303    0.033994    0.528729
      7          6           0        3.562781   -0.042929    0.495495
      8          6           0        2.835370    0.899280    1.177267
      9          6           0        1.431446    0.907479    1.144630
     10          8           0        0.801635    1.877021    1.857782
     11          6           0        0.742728   -0.039955    0.410486
     12          6           0       -0.743144   -0.020824    0.406129
     13          6           0       -1.440174   -0.970469    1.129208
     14          8           0       -0.818535   -1.951553    1.833767
     15          6           0       -2.844185   -0.950980    1.160666
     16          6           0       -3.563181    0.005533    0.489925
     17          6           0       -5.034461   -0.051008    0.526854
     18          6           0       -5.709669   -0.100772    1.733631
     19          6           0       -7.095365   -0.163679    1.765363
     20          6           0       -7.828712   -0.190271    0.591992
     21          8           0       -9.187108   -0.247742    0.512365
     22          6           0       -9.923590   -0.284633    1.708030
     23          6           0       -7.147075   -0.160095   -0.646353
     24          8           0       -7.940624   -0.202369   -1.753254
     25          6           0       -7.324907   -0.170241   -3.015593
     26          6           0       -5.767337   -0.090120   -0.662081
     27          6           0       -2.877574    1.020663   -0.233636
     28          6           0       -3.551847    2.084431   -0.868378
     29          6           0       -2.868348    3.033489   -1.576621
     30          6           0       -1.472921    2.962399   -1.687232
     31          6           0       -0.783917    1.968302   -1.052515
     32          6           0       -1.458039    0.987820   -0.290823
     33          6           0        1.466285   -1.037394   -0.293300
     34          6           0        0.801168   -2.018675   -1.061797
     35          6           0        1.499440   -3.001502   -1.704004
     36          6           0        2.895748   -3.059154   -1.596150
     37          6           0        3.570660   -2.108632   -0.881607
     38          6           0        2.886206   -1.057612   -0.236750
     39          6           0        5.761458    0.104321   -0.661614
     40          6           0        7.139173    0.207895   -0.648371
     41          8           0        7.928436    0.286879   -1.756344
     42          6           0        7.310327    0.264661   -3.017634
     43          1           0        9.783124   -0.520433    2.299341
     44          1           0        9.648905    1.261437    2.302976
     45          1           0       10.960253    0.465989    1.397803
     46          1           0        7.594892    0.200197    2.718260
     47          1           0        5.161130    0.026482    2.661456
     48          1           0        3.329170    1.675831    1.740084
     49          1           0       -0.153832    1.809599    1.721003
     50          1           0        0.137739   -1.888192    1.700941
     51          1           0       -3.345016   -1.728575    1.715799
     52          1           0       -5.156517   -0.071090    2.659950
     53          1           0       -7.593406   -0.190327    2.721328
     54          1           0      -10.969352   -0.323719    1.407196
     55          1           0       -9.685504   -1.173295    2.302461
     56          1           0       -9.755721    0.612193    2.314202
     57          1           0       -8.137970   -0.203756   -3.739032
     58          1           0       -6.669685   -1.034589   -3.168404
     59          1           0       -6.748706    0.749877   -3.162121
     60          1           0       -5.229505   -0.086088   -1.597034
     61          1           0       -4.625316    2.147694   -0.774032
     62          1           0       -3.400111    3.842865   -2.054781
     63          1           0       -0.944472    3.704865   -2.266718
     64          1           0        0.292918    1.919497   -1.126748
     65          1           0       -0.276191   -1.979942   -1.134806
     66          1           0        0.977723   -3.745214   -2.288005
     67          1           0        3.434889   -3.859140   -2.081791
     68          1           0        4.645023   -2.160512   -0.789896
     69          1           0        5.221241    0.099467   -1.595212
     70          1           0        6.632092    1.114360   -3.151034
     71          1           0        8.120292    0.334748   -3.741988
     72          1           0        6.758274   -0.667162   -3.182100
 ---------------------------------------------------------------------
 Rotational constants (GHZ):           0.2460447           0.0279810           0.0277531
 Leave Link  202 at Sun Mar 23 18:10:26 2025, MaxMem= 13421772800 cpu:               1.3 elap:               0.1
 (Enter /public/software/apps/Gaussian/g16/l301.exe)
 Standard basis: def2SVPP (5D, 7F)
 Ernie: Thresh=  0.10000D-02 Tol=  0.10000D-05 Strict=F.
   648 basis functions,  1170 primitive gaussians,   690 cartesian basis functions
   147 alpha electrons      147 beta electrons
       nuclear repulsion energy      4510.5268559079 Hartrees.
 IExCor=  402 DFT=T Ex+Corr=B3LYP ExCW=0 ScaHFX=  0.200000
 ScaDFX=  0.800000  0.720000  1.000000  0.810000 ScalE2=  1.000000  1.000000
 IRadAn=      5 IRanWt=     -1 IRanGd=            0 ICorTp=0 IEmpDi=141
 NAtoms=   72 NActive=   72 NUniq=   72 SFac= 1.00D+00 NAtFMM=   60 NAOKFM=T Big=T
 Integral buffers will be    131072 words long.
 Raffenetti 2 integral format.
 Two-electron integral symmetry is turned off.
 R6Disp:  Grimme-D3(BJ) Dispersion energy=       -0.1798337807 Hartrees.
 Nuclear repulsion after empirical dispersion term =     4510.3470221272 Hartrees.
 Leave Link  301 at Sun Mar 23 18:10:26 2025, MaxMem= 13421772800 cpu:               1.4 elap:               0.1
 (Enter /public/software/apps/Gaussian/g16/l302.exe)
 NPDir=0 NMtPBC=     1 NCelOv=     1 NCel=       1 NClECP=     1 NCelD=      1
         NCelK=      1 NCelE2=     1 NClLst=     1 CellRange=     0.0.
 One-electron integrals computed using PRISM.
   1 Symmetry operations used in ECPInt.
 ECPInt:  NShTT=   48828 NPrTT=  195636 LenC2=   34862 LenP2D=   86475.
 LDataN:  DoStor=T MaxTD1= 4 Len=   56
 NBasis=   648 RedAO= T EigKep=  1.59D-04  NBF=   648
 NBsUse=   648 1.00D-06 EigRej= -1.00D+00 NBFU=   648
 Precomputing XC quadrature grid using
 IXCGrd= 4 IRadAn=           5 IRanWt=          -1 IRanGd=           0 AccXCQ= 0.00D+00.
 Generated NRdTot=       0 NPtTot=           0 NUsed=           0 NTot=          32
 NSgBfM=   623   623   623   623   623 MxSgAt=    72 MxSgA2=    72.
 Leave Link  302 at Sun Mar 23 18:10:27 2025, MaxMem= 13421772800 cpu:              25.0 elap:               0.8
 (Enter /public/software/apps/Gaussian/g16/l303.exe)
 DipDrv:  MaxL=1.
 Leave Link  303 at Sun Mar 23 18:10:27 2025, MaxMem= 13421772800 cpu:               2.4 elap:               0.1
 (Enter /public/software/apps/Gaussian/g16/l401.exe)
 ExpMin= 1.22D-01 ExpMax= 2.27D+03 ExpMxC= 3.41D+02 IAcc=3 IRadAn=         5 AccDes= 0.00D+00
 Harris functional with IExCor=  402 and IRadAn=       5 diagonalized for initial guess.
 HarFok:  IExCor=  402 AccDes= 0.00D+00 IRadAn=         5 IDoV= 1 UseB2=F ITyADJ=14
 ICtDFT=  3500011 ScaDFX=  1.000000  1.000000  1.000000  1.000000
 FoFCou: FMM=F IPFlag=           0 FMFlag=      100000 FMFlg1=        2001
         NFxFlg=           0 DoJE=T BraDBF=F KetDBF=T FulRan=T
         wScrn=  0.000000 ICntrl=       500 IOpCl=  0 I1Cent=   200000004 NGrid=           0
         NMat0=    1 NMatS0=      1 NMatT0=    0 NMatD0=    1 NMtDS0=    0 NMtDT0=    0
 Symmetry not used in FoFCou.
 Harris En= -1839.93858876005    
 JPrj=0 DoOrth=F DoCkMO=F.
 Leave Link  401 at Sun Mar 23 18:10:29 2025, MaxMem= 13421772800 cpu:              53.2 elap:               1.7
 (Enter /public/software/apps/Gaussian/g16/l502.exe)
 Two-electron integral symmetry not used.
 Closed shell SCF:
 Using DIIS extrapolation, IDIIS=  1040.
 NGot= 13421772800 LenX= 13420791016 LenY= 13420314226
 Requested convergence on RMS density matrix=1.00D-08 within 128 cycles.
 Requested convergence on MAX density matrix=1.00D-06.
 Requested convergence on             energy=1.00D-06.
 No special actions if energy rises.
 Fock matrices will be formed incrementally for  20 cycles.
 Integral accuracy reduced to 1.0D-05 until final iterations.

 Cycle   1  Pass 0  IDiag  1:
 FoFJK:  IHMeth= 1 ICntrl=       0 DoSepK=F KAlg= 0 I1Cent=           0 FoldK=F
 IRaf= 820000000 NMat=       1 IRICut=       1 DoRegI=T DoRafI=F ISym2E= 0 IDoP0=0 IntGTp=1.
 FoFCou: FMM=T IPFlag=           0 FMFlag=      100000 FMFlg1=        2001
         NFxFlg=           0 DoJE=F BraDBF=F KetDBF=F FulRan=T
         wScrn=  0.000000 ICntrl=         0 IOpCl=  0 I1Cent=           0 NGrid=           0
         NMat0=    1 NMatS0=      1 NMatT0=    0 NMatD0=    1 NMtDS0=    0 NMtDT0=    0
 Symmetry not used in FoFCou.
 FMM levels:  10  Number of levels for PrismC:   9
 E= -1839.20871814567    
 DIIS: error= 2.34D-02 at cycle   1 NSaved=   1.
 NSaved= 1 IEnMin= 1 EnMin= -1839.20871814567     IErMin= 1 ErrMin= 2.34D-02
 ErrMax= 2.34D-02  0.00D+00 EMaxC= 1.00D-01 BMatC= 6.96D-01 BMatP= 6.96D-01
 IDIUse=3 WtCom= 7.66D-01 WtEn= 2.34D-01
 Coeff-Com:  0.100D+01
 Coeff-En:   0.100D+01
 Coeff:      0.100D+01
 Gap=     0.172 Goal=   None    Shift=    0.000
 GapD=    0.172 DampG=1.000 DampE=0.500 DampFc=0.5000 IDamp=-1.
 Damping current iteration by 5.00D-01
 RMSDP=4.59D-03 MaxDP=1.60D-01              OVMax= 1.91D-01

 Cycle   2  Pass 0  IDiag  1:
 RMSU=  2.07D-03    CP:  9.43D-01
 E= -1839.56865231719     Delta-E=       -0.359934171516 Rises=F Damp=T
 DIIS: error= 4.11D-03 at cycle   2 NSaved=   2.
 NSaved= 2 IEnMin= 2 EnMin= -1839.56865231719     IErMin= 2 ErrMin= 4.11D-03
 ErrMax= 4.11D-03  0.00D+00 EMaxC= 1.00D-01 BMatC= 4.20D-02 BMatP= 6.96D-01
 IDIUse=3 WtCom= 9.59D-01 WtEn= 4.11D-02
 Coeff-Com:  0.212D-01 0.979D+00
 Coeff-En:   0.158D-01 0.984D+00
 Coeff:      0.209D-01 0.979D+00
 Gap=     0.162 Goal=   None    Shift=    0.000
 RMSDP=1.79D-03 MaxDP=1.17D-01 DE=-3.60D-01 OVMax= 1.60D-01

 Cycle   3  Pass 0  IDiag  1:
 RMSU=  1.57D-03    CP:  8.98D-01  1.17D+00
 E= -1839.90921530853     Delta-E=       -0.340562991346 Rises=F Damp=F
 DIIS: error= 7.73D-03 at cycle   3 NSaved=   3.
 NSaved= 3 IEnMin= 3 EnMin= -1839.90921530853     IErMin= 2 ErrMin= 4.11D-03
 ErrMax= 7.73D-03  0.00D+00 EMaxC= 1.00D-01 BMatC= 6.50D-02 BMatP= 4.20D-02
 IDIUse=3 WtCom= 1.02D-01 WtEn= 8.98D-01
 Coeff-Com: -0.378D-01 0.583D+00 0.454D+00
 Coeff-En:   0.000D+00 0.000D+00 0.100D+01
 Coeff:     -0.387D-02 0.596D-01 0.944D+00
 Gap=     0.166 Goal=   None    Shift=    0.000
 RMSDP=1.73D-03 MaxDP=1.10D-01 DE=-3.41D-01 OVMax= 1.82D-01

 Cycle   4  Pass 0  IDiag  1:
 RMSU=  1.20D-03    CP:  9.03D-01  1.38D+00  2.57D-01
 E= -1839.68434471458     Delta-E=        0.224870593956 Rises=F Damp=F
 DIIS: error= 1.62D-02 at cycle   4 NSaved=   4.
 NSaved= 4 IEnMin= 3 EnMin= -1839.90921530853     IErMin= 2 ErrMin= 4.11D-03
 ErrMax= 1.62D-02  0.00D+00 EMaxC= 1.00D-01 BMatC= 2.67D-01 BMatP= 4.20D-02
 IDIUse=2 WtCom= 0.00D+00 WtEn= 1.00D+00
 Coeff-En:   0.000D+00 0.000D+00 0.749D+00 0.251D+00
 Coeff:      0.000D+00 0.000D+00 0.749D+00 0.251D+00
 Gap=     0.155 Goal=   None    Shift=    0.000
 RMSDP=9.32D-04 MaxDP=7.04D-02 DE= 2.25D-01 OVMax= 1.03D-01

 Cycle   5  Pass 0  IDiag  1:
 RMSU=  2.11D-04    CP:  9.00D-01  1.26D+00  6.38D-01  4.69D-01
 E= -1839.96320841850     Delta-E=       -0.278863703928 Rises=F Damp=F
 DIIS: error= 3.99D-03 at cycle   5 NSaved=   5.
 NSaved= 5 IEnMin= 5 EnMin= -1839.96320841850     IErMin= 5 ErrMin= 3.99D-03
 ErrMax= 3.99D-03  0.00D+00 EMaxC= 1.00D-01 BMatC= 1.65D-02 BMatP= 4.20D-02
 IDIUse=3 WtCom= 9.60D-01 WtEn= 3.99D-02
 Coeff-Com:  0.697D-02 0.128D-01 0.391D+00 0.652D-01 0.524D+00
 Coeff-En:   0.000D+00 0.000D+00 0.250D+00 0.000D+00 0.750D+00
 Coeff:      0.669D-02 0.122D-01 0.385D+00 0.626D-01 0.533D+00
 Gap=     0.149 Goal=   None    Shift=    0.000
 RMSDP=2.92D-04 MaxDP=1.52D-02 DE=-2.79D-01 OVMax= 3.12D-02

 Cycle   6  Pass 0  IDiag  1:
 RMSU=  9.44D-05    CP:  8.99D-01  1.23D+00  7.59D-01  3.27D-01  6.10D-01
 E= -1839.98095247763     Delta-E=       -0.017744059127 Rises=F Damp=F
 DIIS: error= 5.23D-04 at cycle   6 NSaved=   6.
 NSaved= 6 IEnMin= 6 EnMin= -1839.98095247763     IErMin= 6 ErrMin= 5.23D-04
 ErrMax= 5.23D-04  0.00D+00 EMaxC= 1.00D-01 BMatC= 2.61D-04 BMatP= 1.65D-02
 IDIUse=3 WtCom= 9.95D-01 WtEn= 5.23D-03
 Coeff-Com:  0.321D-02-0.100D-01 0.114D+00-0.187D-01 0.324D+00 0.587D+00
 Coeff-En:   0.000D+00 0.000D+00 0.000D+00 0.000D+00 0.000D+00 0.100D+01
 Coeff:      0.320D-02-0.998D-02 0.113D+00-0.186D-01 0.323D+00 0.590D+00
 Gap=     0.148 Goal=   None    Shift=    0.000
 RMSDP=4.92D-05 MaxDP=2.74D-03 DE=-1.77D-02 OVMax= 5.39D-03

 Cycle   7  Pass 0  IDiag  1:
 RMSU=  3.61D-05    CP:  8.98D-01  1.23D+00  7.61D-01  3.24D-01  7.21D-01
                    CP:  7.57D-01
 E= -1839.98126840255     Delta-E=       -0.000315924915 Rises=F Damp=F
 DIIS: error= 1.68D-04 at cycle   7 NSaved=   7.
 NSaved= 7 IEnMin= 7 EnMin= -1839.98126840255     IErMin= 7 ErrMin= 1.68D-04
 ErrMax= 1.68D-04  0.00D+00 EMaxC= 1.00D-01 BMatC= 2.93D-05 BMatP= 2.61D-04
 IDIUse=3 WtCom= 9.98D-01 WtEn= 1.68D-03
 Coeff-Com:  0.129D-02-0.544D-02 0.451D-01-0.172D-01 0.168D+00 0.371D+00
 Coeff-Com:  0.438D+00
 Coeff-En:   0.000D+00 0.000D+00 0.000D+00 0.000D+00 0.000D+00 0.000D+00
 Coeff-En:   0.100D+01
 Coeff:      0.129D-02-0.543D-02 0.450D-01-0.172D-01 0.168D+00 0.370D+00
 Coeff:      0.438D+00
 Gap=     0.148 Goal=   None    Shift=    0.000
 RMSDP=1.87D-05 MaxDP=8.84D-04 DE=-3.16D-04 OVMax= 9.52D-04

 Cycle   8  Pass 0  IDiag  1:
 RMSU=  1.78D-05    CP:  8.99D-01  1.23D+00  7.62D-01  3.24D-01  7.01D-01
                    CP:  7.63D-01  1.01D+00
 E= -1839.98130828204     Delta-E=       -0.000039879491 Rises=F Damp=F
 DIIS: error= 3.84D-05 at cycle   8 NSaved=   8.
 NSaved= 8 IEnMin= 8 EnMin= -1839.98130828204     IErMin= 8 ErrMin= 3.84D-05
 ErrMax= 3.84D-05  0.00D+00 EMaxC= 1.00D-01 BMatC= 1.01D-06 BMatP= 2.93D-05
 IDIUse=1 WtCom= 1.00D+00 WtEn= 0.00D+00
 Coeff-Com:  0.445D-03-0.181D-02 0.144D-01-0.733D-02 0.595D-01 0.140D+00
 Coeff-Com:  0.210D+00 0.585D+00
 Coeff:      0.445D-03-0.181D-02 0.144D-01-0.733D-02 0.595D-01 0.140D+00
 Coeff:      0.210D+00 0.585D+00
 Gap=     0.148 Goal=   None    Shift=    0.000
 RMSDP=1.97D-05 MaxDP=8.02D-04 DE=-3.99D-05 OVMax= 2.91D-04

 Cycle   9  Pass 0  IDiag  1:
 RMSU=  1.47D-05    CP:  8.99D-01  1.23D+00  7.62D-01  3.23D-01  6.97D-01
                    CP:  7.78D-01  1.23D+00  1.57D+00
 E= -1839.98131027856     Delta-E=       -0.000001996522 Rises=F Damp=F
 DIIS: error= 2.47D-05 at cycle   9 NSaved=   9.
 NSaved= 9 IEnMin= 9 EnMin= -1839.98131027856     IErMin= 9 ErrMin= 2.47D-05
 ErrMax= 2.47D-05  0.00D+00 EMaxC= 1.00D-01 BMatC= 4.19D-07 BMatP= 1.01D-06
 IDIUse=1 WtCom= 1.00D+00 WtEn= 0.00D+00
 Coeff-Com:  0.153D-03-0.581D-03 0.469D-02-0.318D-02 0.217D-01 0.543D-01
 Coeff-Com:  0.944D-01 0.405D+00 0.424D+00
 Coeff:      0.153D-03-0.581D-03 0.469D-02-0.318D-02 0.217D-01 0.543D-01
 Coeff:      0.944D-01 0.405D+00 0.424D+00
 Gap=     0.148 Goal=   None    Shift=    0.000
 RMSDP=1.65D-05 MaxDP=6.36D-04 DE=-2.00D-06 OVMax= 1.19D-04

 Cycle  10  Pass 0  IDiag  1:
 RMSU=  6.90D-06    CP:  8.99D-01  1.23D+00  7.62D-01  3.23D-01  6.93D-01
                    CP:  7.91D-01  1.40D+00  2.08D+00  1.68D+00
 E= -1839.98131405451     Delta-E=       -0.000003775947 Rises=F Damp=F
 DIIS: error= 3.35D-05 at cycle  10 NSaved=  10.
 NSaved=10 IEnMin=10 EnMin= -1839.98131405451     IErMin= 9 ErrMin= 2.47D-05
 ErrMax= 3.35D-05  0.00D+00 EMaxC= 1.00D-01 BMatC= 2.20D-07 BMatP= 4.19D-07
 IDIUse=1 WtCom= 1.00D+00 WtEn= 0.00D+00
 Coeff-Com:  0.154D-03-0.583D-03 0.470D-02-0.320D-02 0.218D-01 0.545D-01
 Coeff-Com:  0.949D-01 0.408D+00 0.429D+00-0.881D-02
 Coeff:      0.154D-03-0.583D-03 0.470D-02-0.320D-02 0.218D-01 0.545D-01
 Coeff:      0.949D-01 0.408D+00 0.429D+00-0.881D-02
 Gap=     0.148 Goal=   None    Shift=    0.000
 RMSDP=3.02D-07 MaxDP=1.32D-05 DE=-3.78D-06 OVMax= 5.77D-07

 Initial convergence to 1.0D-05 achieved.  Increase integral accuracy.
 Cycle  11  Pass 1  IDiag  1:
 E= -1839.98095785801     Delta-E=        0.000356196501 Rises=F Damp=F
 DIIS: error= 6.46D-04 at cycle   1 NSaved=   1.
 NSaved= 1 IEnMin= 1 EnMin= -1839.98095785801     IErMin= 1 ErrMin= 6.46D-04
 ErrMax= 6.46D-04  0.00D+00 EMaxC= 1.00D-01 BMatC= 7.72D-05 BMatP= 7.72D-05
 IDIUse=3 WtCom= 9.94D-01 WtEn= 6.46D-03
 Coeff-Com:  0.100D+01
 Coeff-En:   0.100D+01
 Coeff:      0.100D+01
 Gap=     0.148 Goal=   None    Shift=    0.000
 RMSDP=3.02D-07 MaxDP=1.32D-05 DE= 3.56D-04 OVMax= 9.68D-04

 Cycle  12  Pass 1  IDiag  1:
 RMSU=  6.62D-04    CP:  9.96D-01
 E= -1839.98103506198     Delta-E=       -0.000077203971 Rises=F Damp=F
 DIIS: error= 5.64D-06 at cycle   2 NSaved=   2.
 NSaved= 2 IEnMin= 2 EnMin= -1839.98103506198     IErMin= 2 ErrMin= 5.64D-06
 ErrMax= 5.64D-06  0.00D+00 EMaxC= 1.00D-01 BMatC= 2.99D-08 BMatP= 7.72D-05
 IDIUse=1 WtCom= 1.00D+00 WtEn= 0.00D+00
 Coeff-Com: -0.883D-02 0.101D+01
 Coeff:     -0.883D-02 0.101D+01
 Gap=     0.148 Goal=   None    Shift=    0.000
 RMSDP=8.31D-06 MaxDP=2.25D-04 DE=-7.72D-05 OVMax= 1.06D-04

 Cycle  13  Pass 1  IDiag  1:
 RMSU=  2.77D-06    CP:  9.96D-01  1.01D+00
 E= -1839.98103501850     Delta-E=        0.000000043474 Rises=F Damp=F
 DIIS: error= 8.01D-06 at cycle   3 NSaved=   3.
 NSaved= 3 IEnMin= 2 EnMin= -1839.98103506198     IErMin= 2 ErrMin= 5.64D-06
 ErrMax= 8.01D-06  0.00D+00 EMaxC= 1.00D-01 BMatC= 7.39D-08 BMatP= 2.99D-08
 IDIUse=1 WtCom= 1.00D+00 WtEn= 0.00D+00
 Coeff-Com: -0.597D-02 0.651D+00 0.355D+00
 Coeff:     -0.597D-02 0.651D+00 0.355D+00
 Gap=     0.148 Goal=   None    Shift=    0.000
 RMSDP=7.32D-07 MaxDP=3.82D-05 DE= 4.35D-08 OVMax= 8.25D-05

 Cycle  14  Pass 1  IDiag  1:
 RMSU=  6.87D-07    CP:  9.96D-01  1.01D+00  9.09D-01
 E= -1839.98103509859     Delta-E=       -0.000000080085 Rises=F Damp=F
 DIIS: error= 1.84D-06 at cycle   4 NSaved=   4.
 NSaved= 4 IEnMin= 4 EnMin= -1839.98103509859     IErMin= 4 ErrMin= 1.84D-06
 ErrMax= 1.84D-06  0.00D+00 EMaxC= 1.00D-01 BMatC= 2.77D-09 BMatP= 2.99D-08
 IDIUse=1 WtCom= 1.00D+00 WtEn= 0.00D+00
 Coeff-Com: -0.274D-02 0.295D+00 0.202D+00 0.505D+00
 Coeff:     -0.274D-02 0.295D+00 0.202D+00 0.505D+00
 Gap=     0.148 Goal=   None    Shift=    0.000
 RMSDP=1.77D-07 MaxDP=1.16D-05 DE=-8.01D-08 OVMax= 2.18D-05

 Cycle  15  Pass 1  IDiag  1:
 RMSU=  1.49D-07    CP:  9.96D-01  1.01D+00  9.26D-01  8.84D-01
 E= -1839.98103510087     Delta-E=       -0.000000002284 Rises=F Damp=F
 DIIS: error= 1.12D-06 at cycle   5 NSaved=   5.
 NSaved= 5 IEnMin= 5 EnMin= -1839.98103510087     IErMin= 5 ErrMin= 1.12D-06
 ErrMax= 1.12D-06  0.00D+00 EMaxC= 1.00D-01 BMatC= 6.86D-10 BMatP= 2.77D-09
 IDIUse=1 WtCom= 1.00D+00 WtEn= 0.00D+00
 Coeff-Com: -0.354D-03 0.360D-01 0.480D-01 0.346D+00 0.570D+00
 Coeff:     -0.354D-03 0.360D-01 0.480D-01 0.346D+00 0.570D+00
 Gap=     0.148 Goal=   None    Shift=    0.000
 RMSDP=7.86D-08 MaxDP=4.69D-06 DE=-2.28D-09 OVMax= 8.90D-06

 Cycle  16  Pass 1  IDiag  1:
 RMSU=  4.58D-08    CP:  9.96D-01  1.01D+00  9.31D-01  9.31D-01  6.62D-01
 E= -1839.98103510150     Delta-E=       -0.000000000625 Rises=F Damp=F
 DIIS: error= 2.66D-07 at cycle   6 NSaved=   6.
 NSaved= 6 IEnMin= 6 EnMin= -1839.98103510150     IErMin= 6 ErrMin= 2.66D-07
 ErrMax= 2.66D-07  0.00D+00 EMaxC= 1.00D-01 BMatC= 7.58D-11 BMatP= 6.86D-10
 IDIUse=1 WtCom= 1.00D+00 WtEn= 0.00D+00
 Coeff-Com:  0.935D-05-0.230D-02 0.131D-01 0.172D+00 0.358D+00 0.460D+00
 Coeff:      0.935D-05-0.230D-02 0.131D-01 0.172D+00 0.358D+00 0.460D+00
 Gap=     0.148 Goal=   None    Shift=    0.000
 RMSDP=2.35D-08 MaxDP=8.43D-07 DE=-6.25D-10 OVMax= 2.37D-06

 Cycle  17  Pass 1  IDiag  1:
 RMSU=  1.41D-08    CP:  9.96D-01  1.01D+00  9.33D-01  9.29D-01  7.00D-01
                    CP:  6.29D-01
 E= -1839.98103510157     Delta-E=       -0.000000000075 Rises=F Damp=F
 DIIS: error= 5.34D-08 at cycle   7 NSaved=   7.
 NSaved= 7 IEnMin= 7 EnMin= -1839.98103510157     IErMin= 7 ErrMin= 5.34D-08
 ErrMax= 5.34D-08  0.00D+00 EMaxC= 1.00D-01 BMatC= 3.27D-12 BMatP= 7.58D-11
 IDIUse=1 WtCom= 1.00D+00 WtEn= 0.00D+00
 Coeff-Com:  0.243D-04-0.327D-02 0.498D-02 0.785D-01 0.174D+00 0.262D+00
 Coeff-Com:  0.484D+00
 Coeff:      0.243D-04-0.327D-02 0.498D-02 0.785D-01 0.174D+00 0.262D+00
 Coeff:      0.484D+00
 Gap=     0.148 Goal=   None    Shift=    0.000
 RMSDP=5.89D-09 MaxDP=1.82D-07 DE=-7.55D-11 OVMax= 4.87D-07

 SCF Done:  E(RB3LYP) =  -1839.98103510     A.U. after   17 cycles
            NFock= 17  Conv=0.59D-08     -V/T= 2.0091
 KE= 1.823358338875D+03 PE=-1.329920172414D+04 EE= 5.125515328037D+03
 Leave Link  502 at Sun Mar 23 18:11:17 2025, MaxMem= 13421772800 cpu:            1529.1 elap:              48.4
 (Enter /public/software/apps/Gaussian/g16/l601.exe)
 Copying SCF densities to generalized density rwf, IOpCl= 0 IROHF=0.

 **********************************************************************

            Population analysis using the SCF Density.

 **********************************************************************

 Alpha  occ. eigenvalues --  -19.16104 -19.16098 -19.16025 -19.16020 -19.15940
 Alpha  occ. eigenvalues --  -19.15925 -10.25069 -10.25058 -10.24465 -10.24461
 Alpha  occ. eigenvalues --  -10.24434 -10.24429 -10.23346 -10.23342 -10.23257
 Alpha  occ. eigenvalues --  -10.23254 -10.19955 -10.19948 -10.19822 -10.19818
 Alpha  occ. eigenvalues --  -10.19219 -10.19215 -10.19137 -10.19118 -10.18958
 Alpha  occ. eigenvalues --  -10.18957 -10.18404 -10.18399 -10.18338 -10.18333
 Alpha  occ. eigenvalues --  -10.18260 -10.18258 -10.18233 -10.18226 -10.18221
 Alpha  occ. eigenvalues --  -10.18220 -10.18098 -10.18091 -10.18085 -10.18085
 Alpha  occ. eigenvalues --  -10.17990 -10.17981  -1.06701  -1.06697  -1.05395
 Alpha  occ. eigenvalues --   -1.05108  -1.04714  -1.04709  -0.88430  -0.87721
 Alpha  occ. eigenvalues --   -0.85543  -0.85252  -0.82244  -0.81872  -0.80415
 Alpha  occ. eigenvalues --   -0.77736  -0.75982  -0.75587  -0.74733  -0.74348
 Alpha  occ. eigenvalues --   -0.73830  -0.73734  -0.72430  -0.71495  -0.70361
 Alpha  occ. eigenvalues --   -0.70157  -0.69217  -0.67430  -0.64675  -0.63413
 Alpha  occ. eigenvalues --   -0.61784  -0.61610  -0.61211  -0.60074  -0.60058
 Alpha  occ. eigenvalues --   -0.60016  -0.58381  -0.57484  -0.55544  -0.55372
 Alpha  occ. eigenvalues --   -0.54225  -0.53868  -0.52897  -0.52511  -0.51453
 Alpha  occ. eigenvalues --   -0.50816  -0.50795  -0.50531  -0.50112  -0.48701
 Alpha  occ. eigenvalues --   -0.48030  -0.48026  -0.46727  -0.46723  -0.46336
 Alpha  occ. eigenvalues --   -0.46096  -0.45883  -0.45775  -0.45588  -0.45583
 Alpha  occ. eigenvalues --   -0.45440  -0.44285  -0.43841  -0.43675  -0.43477
 Alpha  occ. eigenvalues --   -0.43128  -0.42529  -0.42322  -0.41965  -0.41083
 Alpha  occ. eigenvalues --   -0.40974  -0.40788  -0.39479  -0.39238  -0.39173
 Alpha  occ. eigenvalues --   -0.38785  -0.38746  -0.38267  -0.37826  -0.37614
 Alpha  occ. eigenvalues --   -0.37567  -0.37392  -0.37231  -0.35038  -0.34772
 Alpha  occ. eigenvalues --   -0.34756  -0.34012  -0.33377  -0.32985  -0.32974
 Alpha  occ. eigenvalues --   -0.32861  -0.32728  -0.32717  -0.32457  -0.32025
 Alpha  occ. eigenvalues --   -0.30842  -0.30813  -0.29248  -0.28060  -0.25012
 Alpha  occ. eigenvalues --   -0.24956  -0.23816  -0.23772  -0.22035  -0.21652
 Alpha  occ. eigenvalues --   -0.20649  -0.19955
 Alpha virt. eigenvalues --   -0.05137  -0.04197  -0.01387  -0.00868  -0.00477
 Alpha virt. eigenvalues --   -0.00369   0.00484   0.00500   0.03086   0.04085
 Alpha virt. eigenvalues --    0.06136   0.06255   0.06591   0.06615   0.07157
 Alpha virt. eigenvalues --    0.07597   0.07878   0.08532   0.08618   0.08766
 Alpha virt. eigenvalues --    0.09706   0.09845   0.10579   0.10801   0.10883
 Alpha virt. eigenvalues --    0.11214   0.11812   0.11978   0.12165   0.12284
 Alpha virt. eigenvalues --    0.12599   0.12655   0.13150   0.13277   0.13462
 Alpha virt. eigenvalues --    0.13572   0.14164   0.14233   0.14806   0.14908
 Alpha virt. eigenvalues --    0.15401   0.15471   0.16061   0.16249   0.16695
 Alpha virt. eigenvalues --    0.16761   0.16949   0.17207   0.19352   0.19537
 Alpha virt. eigenvalues --    0.20490   0.22875   0.22960   0.23795   0.25663
 Alpha virt. eigenvalues --    0.26139   0.26242   0.26464   0.26793   0.27277
 Alpha virt. eigenvalues --    0.27314   0.27565   0.28604   0.28756   0.29210
 Alpha virt. eigenvalues --    0.29636   0.30514   0.30629   0.30916   0.31573
 Alpha virt. eigenvalues --    0.31771   0.31981   0.32392   0.33332   0.33473
 Alpha virt. eigenvalues --    0.33715   0.34461   0.34598   0.35049   0.35548
 Alpha virt. eigenvalues --    0.35736   0.36508   0.36879   0.37274   0.37975
 Alpha virt. eigenvalues --    0.38135   0.38937   0.39221   0.39454   0.40120
 Alpha virt. eigenvalues --    0.41074   0.41726   0.42237   0.42581   0.42712
 Alpha virt. eigenvalues --    0.43137   0.43953   0.44231   0.44282   0.44312
 Alpha virt. eigenvalues --    0.45006   0.45269   0.45342   0.45379   0.45700
 Alpha virt. eigenvalues --    0.45970   0.46255   0.46349   0.46772   0.46926
 Alpha virt. eigenvalues --    0.47970   0.48296   0.48539   0.48747   0.48848
 Alpha virt. eigenvalues --    0.49163   0.49248   0.49406   0.49914   0.50250
 Alpha virt. eigenvalues --    0.50879   0.51158   0.51794   0.51888   0.52427
 Alpha virt. eigenvalues --    0.52511   0.53062   0.54029   0.54100   0.54448
 Alpha virt. eigenvalues --    0.54909   0.55562   0.55749   0.55844   0.56274
 Alpha virt. eigenvalues --    0.56315   0.56741   0.57413   0.58051   0.59049
 Alpha virt. eigenvalues --    0.59087   0.59298   0.59351   0.59941   0.60724
 Alpha virt. eigenvalues --    0.61085   0.61212   0.62037   0.62118   0.63217
 Alpha virt. eigenvalues --    0.63337   0.63410   0.64675   0.64875   0.65627
 Alpha virt. eigenvalues --    0.65652   0.66093   0.66250   0.66438   0.66731
 Alpha virt. eigenvalues --    0.66826   0.67233   0.67335   0.67722   0.67763
 Alpha virt. eigenvalues --    0.67785   0.68133   0.68545   0.68772   0.69003
 Alpha virt. eigenvalues --    0.69035   0.69266   0.69445   0.69703   0.69969
 Alpha virt. eigenvalues --    0.70135   0.70220   0.70802   0.70823   0.70928
 Alpha virt. eigenvalues --    0.71204   0.71781   0.72130   0.72626   0.72826
 Alpha virt. eigenvalues --    0.73326   0.73698   0.73826   0.74053   0.74475
 Alpha virt. eigenvalues --    0.75348   0.75656   0.75825   0.76402   0.76702
 Alpha virt. eigenvalues --    0.77572   0.77687   0.78244   0.78538   0.79106
 Alpha virt. eigenvalues --    0.79370   0.79662   0.80013   0.80191   0.80837
 Alpha virt. eigenvalues --    0.81228   0.81358   0.81757   0.81975   0.82057
 Alpha virt. eigenvalues --    0.82415   0.82572   0.84238   0.84374   0.84552
 Alpha virt. eigenvalues --    0.85577   0.86795   0.86952   0.87307   0.88305
 Alpha virt. eigenvalues --    0.89424   0.89694   0.90218   0.90300   0.92363
 Alpha virt. eigenvalues --    0.94427   0.94553   0.95467   0.95507   0.96584
 Alpha virt. eigenvalues --    0.96771   0.98134   0.98360   0.99219   1.00006
 Alpha virt. eigenvalues --    1.01454   1.04051   1.04098   1.04384   1.04427
 Alpha virt. eigenvalues --    1.05273   1.05433   1.07130   1.07526   1.08198
 Alpha virt. eigenvalues --    1.10715   1.10899   1.11075   1.11209   1.12752
 Alpha virt. eigenvalues --    1.13070   1.14679   1.14815   1.15304   1.15686
 Alpha virt. eigenvalues --    1.16603   1.17583   1.18251   1.18564   1.20104
 Alpha virt. eigenvalues --    1.20300   1.21164   1.22321   1.22645   1.23267
 Alpha virt. eigenvalues --    1.24840   1.25985   1.26021   1.26720   1.28005
 Alpha virt. eigenvalues --    1.28460   1.28680   1.30330   1.30945   1.32125
 Alpha virt. eigenvalues --    1.32762   1.35248   1.36475   1.38231   1.39227
 Alpha virt. eigenvalues --    1.40890   1.41855   1.41987   1.42850   1.42912
 Alpha virt. eigenvalues --    1.43381   1.43885   1.45338   1.46118   1.46566
 Alpha virt. eigenvalues --    1.46720   1.47048   1.47240   1.47764   1.48067
 Alpha virt. eigenvalues --    1.48241   1.48744   1.49365   1.49630   1.49880
 Alpha virt. eigenvalues --    1.50123   1.50330   1.50818   1.51819   1.52461
 Alpha virt. eigenvalues --    1.52932   1.52952   1.56949   1.57045   1.59825
 Alpha virt. eigenvalues --    1.60353   1.60586   1.62380   1.62923   1.65867
 Alpha virt. eigenvalues --    1.65895   1.66251   1.66322   1.67610   1.68365
 Alpha virt. eigenvalues --    1.71030   1.72726   1.73170   1.73524   1.73928
 Alpha virt. eigenvalues --    1.74961   1.75456   1.75848   1.76261   1.76698
 Alpha virt. eigenvalues --    1.77601   1.77625   1.78509   1.79482   1.79756
 Alpha virt. eigenvalues --    1.81347   1.81875   1.82881   1.83897   1.85042
 Alpha virt. eigenvalues --    1.85322   1.85750   1.86085   1.86105   1.87219
 Alpha virt. eigenvalues --    1.87686   1.88203   1.88891   1.89521   1.89727
 Alpha virt. eigenvalues --    1.90004   1.90772   1.92984   1.93215   1.94536
 Alpha virt. eigenvalues --    1.96613   1.97260   1.98968   1.99501   2.00211
 Alpha virt. eigenvalues --    2.01963   2.02670   2.02714   2.03068   2.04347
 Alpha virt. eigenvalues --    2.04367   2.04681   2.04684   2.05466   2.06281
 Alpha virt. eigenvalues --    2.06550   2.06751   2.06881   2.07423   2.07830
 Alpha virt. eigenvalues --    2.08239   2.08630   2.08887   2.08923   2.08990
 Alpha virt. eigenvalues --    2.09798   2.09910   2.10221   2.10236   2.10531
 Alpha virt. eigenvalues --    2.12793   2.12801   2.13312   2.13560   2.14207
 Alpha virt. eigenvalues --    2.15200   2.16794   2.16958   2.17554   2.19083
 Alpha virt. eigenvalues --    2.19404   2.20661   2.20870   2.22131   2.23801
 Alpha virt. eigenvalues --    2.24319   2.25440   2.26228   2.26325   2.26799
 Alpha virt. eigenvalues --    2.27489   2.27852   2.27955   2.30330   2.30388
 Alpha virt. eigenvalues --    2.30970   2.31919   2.32152   2.33982   2.34095
 Alpha virt. eigenvalues --    2.36762   2.38696   2.38796   2.40845   2.43783
 Alpha virt. eigenvalues --    2.43875   2.45544   2.45782   2.47481   2.47827
 Alpha virt. eigenvalues --    2.49418   2.49982   2.50141   2.53090   2.53830
[...]
 000202,-0.00000325,-0.00000031,0.00000426,-0.00000319,-0.00000046,-0.0
 0000802,0.00000447,0.00000026,0.00000813,0.00000056,-0.00000008,-0.000
 00375,0.00000186,0.00000108,-0.00000184,0.00000518,-0.00000059,0.00000
 033,-0.00000062,-0.00000057,0.00000045,0.00000260,-0.00000114,0.000000
 30,-0.00000204,0.00000296,-0.00000195,0.00000207,-0.00000585,0.0000044
 7,0.00000093,0.00001372,-0.00000839,-0.00000987,0.00000695,0.00001048,
 0.00000217,0.00000417,0.00000207,0.00000434,0.00000540,0.00000833,0.00
 001520,-0.00000929,-0.00000566,-0.00001325,0.00003348,-0.00001080,0.00
 004934,-0.00001772,0.00002242,0.00102482,0.00015531,0.00072094,-0.0053
 4046,0.00093518,0.00722807,-0.02575788,0.02598897,-0.02192520,-0.01143
 795,0.01704925,-0.05374583,0.00000026,0.00000919,-0.00004987,0.0000018
 8,-0.00000849,-0.00004411,-0.00002430,0.00000191,0.00000014,-0.0000039
 1,0.00007712,-0.00003667,0.00001312,0.00009232,0.00001446,-0.00001162,
 0.00001647,0.00000226,-0.00000560,0.00000198,-0.00000266,-0.00000933,-
 0.00000746,0.00000335,0.00000083,0.00000023,-0.00000065,-0.00000052,0.
 ,0.00000070,0.00000029,0.00000015,-0.00000045,0.00000072,0.00000004,0.
 ,-0.00000012,0.00000010,-0.00000082,-0.00000006,-0.00000008,-0.0000008
 2,0.00000059,0.00000003,0.00000048,-0.00000060,-0.00000018,0.00000026,
 -0.00000060,0.00000019,0.00000024,-0.00000090,-0.00000018,-0.00000056,
 0.00000073,-0.00000090,0.00000014,0.00000074,-0.00000076,0.00000040,0.
 00000047,-0.00000143,0.00000148,0.00000137,0.00000434,-0.00000407,0.00
 000265,0.00000291,0.00000141,0.00000396,0.00000160,0.00000189,0.000001
 81,0.00001002,0.00000044,0.00001414,-0.00003099,-0.00001491,0.00079532
 ,0.00129277,-0.00108901,0.02715748,-0.02723902,0.06312982,-0.00006353,
 -0.00000561,-0.00006165,0.00017017,0.00001391,0.00015831,0.00042852,0.
 00002424,-0.00049544,-0.00022967,-0.00001387,-0.00002120,0.00000489,0.
 00000183,0.00018639,0.00046907,0.00002788,0.00004294,0.00007412,0.0000
 0555,-0.00002775,-0.00002865,-0.00001302,0.00000163,0.00004500,-0.0000
 4073,-0.00002791,-0.00004753,0.00004098,0.00002708,-0.00000484,0.00001
 125,0.00001393,0.00001194,0.00000798,-0.00000685,0.00000683,-0.0000037
 3,0.00000160,-0.00002106,0.00000369,0.00000218,-0.00000326,0.00000120,
 -0.00000284,0.00000857,0.00000485,-0.00000315,0.00000345,0.00000006,-0
 .00000106,-0.00000350,0.00000230,-0.00000260,-0.00000276,-0.00000121,-
 0.00000283,0.00002198,0.00000145,-0.00000261,-0.00002823,-0.00000187,0
 .00000487,0.00000765,0.00000071,-0.00001013,0.00000864,0.00000108,0.00
 001994,-0.00001088,-0.00000054,-0.00002052,-0.00000146,0.00000009,0.00
 000971,-0.00000464,-0.00000279,0.00000430,-0.00001085,-0.00000217,0.00
 000138,-0.00000175,0.00000211,-0.00000210,-0.00000429,-0.00000121,0.00
 000066,0.00000203,-0.00000563,0.00000328,0.00000835,0.00000756,-0.0000
 0740,-0.00000569,-0.00001946,0.00001313,0.00000933,-0.00001957,-0.0000
 1111,-0.00000923,0.00000683,0.00000329,0.00001563,0.00000020,-0.000001
 53,-0.00002062,0.00000968,0.00001426,0.00002765,0.00000463,0.00002337,
 -0.00003101,-0.00001541,0.00000081,-0.00107557,-0.00008877,-0.00030067
 ,-0.00016789,-0.00010416,-0.00355346,0.01532391,0.00085839,-0.01683065
 ,-0.21736954,-0.01010849,0.14208849,0.00000398,-0.00000155,0.00001777,
 0.00000310,0.00000290,0.00001838,0.00000912,0.00000004,-0.00000177,0.0
 0003121,0.00000162,-0.00003540,0.00002446,0.00000543,0.00004508,0.0000
 0395,-0.00000267,-0.00000441,0.00001460,-0.00000161,0.00000087,0.00001
 509,0.00001112,-0.00001386,-0.00000149,-0.00000100,0.00000117,0.000001
 24,0.00000003,-0.00000166,-0.00000080,-0.00000035,0.00000102,-0.000001
 69,-0.00000011,0.,0.00000027,-0.00000027,0.00000191,0.00000016,0.00000
 024,0.00000193,-0.00000162,-0.00000016,-0.00000114,0.00000148,0.000000
 38,-0.00000059,0.00000157,-0.00000033,-0.00000046,0.00000234,0.0000006
 5,0.00000164,-0.00000184,0.00000174,0.00000007,-0.00000273,0.00000232,
 -0.00000059,0.00000217,0.00000082,-0.00000016,-0.00000016,-0.00000480,
 0.00000417,-0.00000485,-0.00000219,-0.00000192,-0.00000821,-0.00000506
 ,-0.00000304,0.00000539,0.00000042,-0.00000134,-0.00000610,0.00003715,
 -0.00002743,0.00049431,0.00003338,0.00067542,-0.01135251,-0.00243866,0
 .01013200,0.22205254,-0.00000376,-0.00000336,-0.00000367,0.00001770,-0
 .00002819,0.00001023,0.00002063,0.00023707,-0.00005434,-0.00002965,-0.
 00000977,-0.00000054,0.00001124,-0.00002472,0.00002015,0.00003264,0.00
 014901,-0.00001639,-0.00000947,0.00001987,0.00000046,-0.00000558,0.000
 00698,0.00000071,0.00000029,-0.00000737,-0.00000361,-0.00000782,0.0000
 1021,0.00000606,0.00000227,0.00000586,0.00000323,0.00000084,0.00000264
 ,0.00000054,0.00000118,-0.00000064,-0.00000036,-0.00000227,0.00000109,
 0.00000165,0.00000019,0.00000037,-0.00000059,0.00000109,0.00000069,-0.
 00000043,0.00000043,0.00000004,-0.00000015,-0.00000039,0.00000015,-0.0
 0000029,-0.00000033,-0.00000033,-0.00000035,0.00000260,0.00000027,-0.0
 0000028,-0.00000335,-0.00000045,0.00000062,0.00000090,0.00000039,-0.00
 000125,0.00000090,0.00000021,0.00000220,-0.00000121,-0.00000037,-0.000
 00219,-0.00000016,0.00000047,0.00000100,-0.00000051,-0.00000046,0.0000
 0052,-0.00000130,-0.00000021,-0.00000011,0.00000049,0.00000021,-0.0000
 0032,-0.00000109,0.00000016,-0.00000014,0.00000137,-0.00000050,-0.0000
 0006,-0.00000220,0.00000154,-0.00000130,0.00000117,-0.00000395,0.00000
 267,-0.00000536,-0.00000469,-0.00000231,-0.00001100,0.00000530,0.00000
 193,0.00001264,0.00000156,0.00000231,-0.00001471,0.00000654,0.00001681
 ,0.00004289,-0.00000624,0.00002191,-0.00000435,-0.00001977,-0.00001737
 ,-0.00012413,0.00041759,0.00000789,-0.00010840,0.00078901,-0.00022015,
 0.00126115,0.00055885,-0.00163031,-0.01024805,-0.05265604,0.00890992,-
 0.00000124,-0.00000464,0.00001026,0.00000261,-0.00000417,-0.00000786,-
 0.00000032,0.00000884,-0.00000034,0.00000521,-0.00003440,-0.00000309,0
 .00000341,-0.00002732,0.00000244,-0.00000051,0.00000104,0.00000330,0.0
 0000214,0.00000012,0.00000054,0.00000172,0.00000031,-0.00000364,-0.000
 00020,-0.00000009,0.00000015,0.00000015,0.00000013,-0.00000020,-0.0000
 0011,0.00000008,0.00000012,-0.00000020,0.00000004,0.,0.00000009,-0.000
 00012,0.00000029,-0.00000002,-0.00000005,0.00000018,-0.00000017,0.0000
 0009,-0.00000013,0.00000028,-0.00000006,-0.00000004,0.00000006,-0.0000
 0019,-0.00000010,0.00000026,0.00000018,0.00000018,-0.00000013,0.000000
 35,-0.00000004,0.00000024,0.00000015,0.00000003,-0.00000056,0.00000070
 ,-0.00000014,-0.00000077,-0.00000114,0.00000152,-0.00000102,0.00000033
 ,0.00000043,-0.00000467,-0.00000071,-0.00000144,0.00000500,0.00000991,
 -0.00000070,0.00000131,0.00002226,-0.00004743,0.00005002,-0.00044289,0
 .00005912,0.01835177,0.00341447,-0.01600889,0.01087930,0.04626700,0.00
 013070,0.00001091,0.00018393,-0.00050744,-0.00004085,0.00004361,0.0016
 9637,0.00012348,-0.00098910,-0.00057226,-0.00002355,-0.00014035,0.0001
 9466,-0.00001041,0.00002757,0.00030471,0.00001860,-0.00001191,-0.00012
 988,-0.00002169,-0.00006949,0.00007538,-0.00000286,0.00000160,-0.00005
 836,0.00002702,0.00000832,0.00004145,-0.00002484,-0.00001055,0.0000246
 8,0.00000345,-0.00000456,-0.00001350,-0.00000516,0.00001019,-0.0000043
 0,0.00000496,-0.00000418,0.00002059,-0.00000312,0.00000348,0.00000311,
 -0.00000080,0.00000253,-0.00000632,-0.00000340,0.00000223,-0.00000258,
 -0.00000031,0.00000096,0.00000262,-0.00000187,0.00000181,0.00000216,0.
 00000098,0.00000233,-0.00001735,-0.00000114,0.00000198,0.00002224,0.00
 000146,-0.00000386,-0.00000609,-0.00000055,0.00000803,-0.00000621,-0.0
 0000083,-0.00001509,0.00000833,0.00000039,0.00001539,0.00000110,-0.000
 00003,-0.00000716,0.00000352,0.00000209,-0.00000346,0.00000905,0.00000
 017,-0.00000032,0.00000032,-0.00000136,0.00000123,0.00000408,-0.000000
 48,0.00000018,-0.00000229,0.00000528,-0.00000267,-0.00000215,-0.000007
 53,0.00000770,0.00000408,0.00002022,-0.00001263,0.00000116,0.00001061,
 0.00000622,-0.00000047,-0.00000078,0.00000092,-0.00000092,0.00000903,0
 .00000931,0.00001909,-0.00000495,0.00000868,-0.00000454,0.00001416,-0.
 00000279,0.00004767,-0.00001799,0.00000552,-0.00089456,-0.00002067,-0.
 00019289,-0.00385048,-0.00044619,-0.00163451,0.02048113,0.00120382,-0.
 03798471,0.12780188,0.00787914,-0.15129609,0.00000263,0.00000138,-0.00
 003774,0.00000235,-0.00000158,-0.00003768,-0.00004512,-0.00000342,-0.0
 0002277,0.00007664,0.00000417,-0.00011871,0.00002329,0.00000679,0.0000
 0868,-0.00001253,0.00001684,0.00000550,-0.00001079,0.00000162,-0.00000
 309,-0.00001486,-0.00001313,0.00000733,0.00000146,0.00000057,-0.000001
 10,-0.00000097,-0.00000003,0.00000131,0.00000057,0.00000028,-0.0000008
 2,0.00000133,0.00000009,0.00000002,-0.00000022,0.00000020,-0.00000152,
 -0.00000013,-0.00000019,-0.00000153,0.00000114,0.00000012,0.00000089,-
 0.00000108,-0.00000031,0.00000048,-0.00000116,0.00000025,0.00000038,-0
 .00000170,-0.00000042,-0.00000116,0.00000141,-0.00000154,0.00000007,0.
 00000184,-0.00000170,0.00000049,-0.00000063,-0.00000194,0.00000087,0.0
 0000085,0.00000490,-0.00000630,0.00000432,0.00000308,0.00000281,0.0000
 0508,0.00000417,0.00000182,0.00000080,0.00001240,0.00000079,0.00000094
 ,-0.00002785,-0.00002282,0.00015994,0.00000144,0.00044671,-0.00276325,
 -0.00142738,0.00506920,-0.13971346,-0.00839032,0.18208761,0.00022656,-
 0.00001259,0.00028325,-0.00051565,0.00003351,-0.00009727,0.00051350,0.
 00009065,-0.00045159,0.00001256,0.00000357,0.00012873,0.00017858,-0.00
 003672,-0.00037292,-0.00005967,-0.00043740,0.00023643,-0.00013613,0.00
 001341,-0.00004891,0.00006451,-0.00000549,0.00000225,-0.00006380,0.000
 03352,0.00002017,0.00004863,-0.00002902,-0.00001249,0.00002515,0.00000
 040,-0.00001114,-0.00001675,-0.00000563,0.00001310,-0.00000401,0.00000
 293,-0.00000315,0.00002360,-0.00000005,0.00000249,0.00000300,-0.000000
 47,0.00000318,-0.00000779,-0.00000479,0.00000321,-0.00000353,-0.000000
 23,0.00000108,0.00000342,-0.00000209,0.00000234,0.00000249,0.00000147,
 0.00000284,-0.00002072,-0.00000150,0.00000259,0.00002656,0.00000205,-0
 .00000415,-0.00000700,-0.00000107,0.00000914,-0.00000874,-0.00000125,-
 0.00002012,0.00001065,0.00000096,0.00002161,0.00000230,-0.00000076,-0.
 00001048,0.00000477,0.00000301,-0.00000429,0.00001109,0.00000069,-0.00
 000069,0.00000091,-0.00000184,0.00000198,0.00000529,-0.00000014,0.0000
 0039,-0.00000267,0.00000696,-0.00000342,-0.00000388,-0.00000914,0.0000
 0941,0.00000575,0.00002425,-0.00001523,0.00000171,0.00002916,0.0000152
 7,0.00000043,-0.00000529,-0.00000603,-0.00001121,0.00001586,0.00000975
 ,0.00003396,-0.00002997,-0.00003613,0.00005940,0.00004665,0.00001237,0
 .00003112,0.00001135,-0.00001833,0.00022471,0.00075813,-0.00055576,-0.
 00129930,0.00063116,0.00343958,-0.00863487,-0.01151588,-0.01428628,-0.
 11067493,-0.10488240,-0.01018202,0.00000209,0.00002056,-0.00006923,-0.
 00000405,-0.00001361,-0.00006262,-0.00003345,-0.00001067,-0.00000739,0
 .00000653,-0.00001557,-0.00004503,0.00000325,0.00006626,-0.00001272,-0
 .00001436,0.00002125,0.00000454,-0.00001392,0.00000138,-0.00000431,-0.
 00001780,-0.00001810,0.00001003,0.00000202,0.00000057,-0.00000164,-0.0
 0000116,-0.00000025,0.00000168,0.00000069,0.00000016,-0.00000096,0.000
 00159,0.00000004,-0.00000001,-0.00000031,0.00000029,-0.00000186,-0.000
 00010,-0.00000004,-0.00000172,0.00000157,0.00000005,0.00000116,-0.0000
 0173,-0.00000006,0.00000060,-0.00000150,0.00000038,0.00000054,-0.00000
 221,-0.00000087,-0.00000147,0.00000173,-0.00000213,-0.00000007,0.00000
 230,-0.00000225,0.00000032,-0.00000082,-0.00000243,0.00000067,0.000001
 16,0.00000634,-0.00000736,0.00000475,0.00000368,0.00000442,0.00000896,
 0.00000550,0.00000326,0.00000924,0.00002288,0.00000913,0.00000309,-0.0
 0008098,-0.00003547,-0.00039708,0.00078530,0.00110631,0.01114184,0.016
 69024,0.00312069,-0.00878624,-0.02012116,-0.00253905,0.11803390,0.0001
 1343,-0.00002233,0.00013949,-0.00008456,0.00009430,0.00005440,0.000316
 47,-0.00029805,-0.00066370,-0.00012704,0.00000471,0.00022136,0.0002214
 6,-0.00009231,-0.00003731,0.00034325,-0.00009607,0.00021052,-0.0000850
 9,-0.00001884,-0.00005954,0.00000822,-0.00000665,0.00000415,-0.0000011
 8,-0.00004877,-0.00004026,-0.00003474,0.00006516,0.00004381,0.00002879
 ,0.00002980,0.00002019,0.00000184,0.00001198,0.00000546,0.00000682,-0.
 00000563,-0.00000064,-0.00000885,0.00001036,0.00000847,-0.00000078,0.0
 0000283,-0.00000113,0.00000386,0.00000182,-0.00000104,0.00000083,0.000
 00027,-0.00000068,-0.00000119,0.00000151,-0.00000126,-0.00000202,-0.00
 000013,-0.00000107,0.00001162,0.00000049,-0.00000068,-0.00001527,-0.00
 000049,0.00000427,0.00000473,-0.00000031,-0.00000710,0.00000046,-0.000
 00005,0.00000403,-0.00000374,0.00000074,-0.00000001,0.00000269,-0.0000
 0155,-0.00000144,-0.00000067,-0.00000017,0.00000155,-0.00000424,-0.000
 00159,0.00000030,0.00000058,0.00000124,-0.00000022,-0.00000160,0.00000
 123,0.00000127,0.00000058,-0.00000352,0.00000621,0.00000270,0.00000794
 ,-0.00000070,0.00000152,-0.00000902,0.00000743,0.00001171,-0.00002010,
 -0.00002280,-0.00001891,0.00001064,0.00000929,0.00002627,0.00001444,0.
 00001605,-0.00000610,0.00000402,0.00005473,0.00005032,-0.00002072,0.00
 008285,-0.00000455,-0.00004644,-0.00001296,-0.00086049,-0.00013769,-0.
 00058461,-0.00149845,0.00087347,0.00232072,-0.00075980,0.00696586,-0.0
 0851676,-0.10468258,-0.24076103,-0.01982095,0.00000520,0.00001848,-0.0
 0002937,-0.00000015,-0.00000878,-0.00002200,-0.00000582,-0.00000546,0.
 00000059,0.00000964,0.00001220,-0.00002013,0.00003046,0.00004361,0.000
 05319,-0.00001078,0.00001694,0.00001323,0.00000761,-0.00000528,-0.0000
 0331,0.00000463,-0.00000424,-0.00001600,-0.00000028,-0.00000102,-0.000
 00059,0.00000077,-0.00000041,-0.00000045,-0.00000064,-0.00000049,0.000
 00063,-0.00000088,-0.00000017,-0.00000002,0.00000009,-0.00000020,0.000
 00103,0.00000019,0.00000058,0.00000133,-0.00000033,-0.00000018,-0.0000
 0026,-0.00000030,0.00000131,-0.00000018,0.00000039,-0.00000039,-0.0000
 0006,0.00000101,-0.00000063,0.00000073,-0.00000080,0.00000022,-0.00000
 067,-0.00000162,0.00000022,-0.00000152,-0.00000016,-0.00000066,-0.0000
 0326,-0.00000153,-0.00000722,-0.00000154,-0.00000118,0.00000017,-0.000
 00043,-0.00000148,0.00000323,-0.00000507,0.00000604,0.00003223,-0.0000
 0835,-0.00002148,0.00002348,-0.00011750,0.00065712,-0.00000670,0.00032
 827,-0.01244022,-0.01848174,-0.00120280,0.00089099,0.00134078,0.001117
 07,0.11791724,0.25051879,0.00019093,0.00001056,0.00015143,0.00010871,-
 0.00004951,-0.00007310,-0.00025727,0.00051720,-0.00177667,-0.00098852,
 0.00013845,0.00053872,0.00092806,0.00009365,0.00040145,0.00017879,0.00
 046034,-0.00084003,-0.00016104,-0.00004256,-0.00006246,0.00006486,-0.0
 0000509,0.00000068,-0.00003819,0.00000819,-0.00001003,0.00001774,-0.00
 000148,0.00000422,0.00002282,0.00001008,0.00000137,-0.00000867,0.00000
 076,0.00000862,0.00000053,0.00000056,-0.00000210,0.00000905,0.00000202
 ,0.00000405,0.00000137,0.00000020,0.00000085,-0.00000229,-0.00000143,0
 .00000104,-0.00000102,-0.00000014,0.00000045,0.00000104,-0.00000080,0.
 00000062,0.00000087,0.00000038,0.00000100,-0.00000723,-0.00000045,0.00
 000084,0.00000922,0.00000054,-0.00000151,-0.00000252,-0.00000015,0.000
 00323,-0.00000256,-0.00000032,-0.00000634,0.00000353,0.00000004,0.0000
 0651,0.00000046,0.00000020,-0.00000302,0.00000146,0.00000080,-0.000001
 40,0.00000379,-0.00000053,-0.00000024,0.00000023,-0.00000057,0.0000004
 2,0.00000162,-0.00000049,0.00000022,-0.00000042,0.00000302,-0.00000179
 ,-0.00000132,-0.00000346,0.00000366,0.00000311,0.00000901,-0.00000507,
 -0.00000697,0.00000811,-0.00000289,-0.00001639,0.00000683,0.00000665,0
 .00001002,0.00001100,0.00000356,-0.00001098,0.00001761,0.00002251,0.00
 007935,-0.00000292,0.00003654,0.00000523,-0.00006580,0.00000436,0.0010
 0337,0.00002636,0.00081676,-0.00510672,-0.00172240,0.00733160,-0.02176
 556,-0.02994515,-0.02114476,-0.00657423,-0.01413550,-0.05296359,0.0000
 0096,0.00000737,-0.00004267,0.00000217,-0.00000917,-0.00004635,-0.0000
 2290,-0.00000498,0.00000057,0.00000549,-0.00007511,-0.00003123,0.00002
 567,-0.00008126,0.00001227,-0.00001075,0.00001561,0.00001125,-0.000003
 84,0.00000044,-0.00000229,-0.00000716,-0.00000983,-0.00000016,0.000000
 83,0.00000009,-0.00000062,-0.00000039,0.,0.00000054,0.00000019,0.00000
 014,-0.00000035,0.00000056,0.00000006,0.00000001,-0.00000007,0.0000000
 4,-0.00000061,-0.00000007,-0.00000008,-0.00000065,0.00000046,0.0000000
 9,0.00000038,-0.00000041,-0.00000020,0.00000024,-0.00000054,0.00000006
 ,0.00000016,-0.00000069,-0.00000012,-0.00000042,0.00000060,-0.00000068
 ,0.00000002,0.00000100,-0.00000073,0.00000022,-0.00000019,-0.00000098,
 0.00000060,0.00000025,0.00000263,-0.00000321,0.00000112,0.00000215,0.0
 0000277,-0.00000407,0.00000045,0.00000052,0.00000878,0.00000971,0.0000
 0775,-0.00002168,0.00000714,-0.00008394,0.00095229,-0.00117121,-0.0010
 4287,0.00325363,0.00215398,0.00230511,0.00767772,0.01733151,0.00465286
 ,0.02044679,0.02647574,0.06180377\\-0.00001447,0.00000107,-0.00001638,
 0.00000330,-0.00000461,0.00000966,0.00001276,0.00000745,0.00000258,-0.
 00000479,0.00000152,-0.00000800,-0.00000094,-0.00000388,0.00001441,-0.
 00000794,-0.00000140,-0.00000773,0.00000333,0.00001645,0.00000484,0.00
 000696,-0.00001105,-0.00000542,-0.00000325,0.00000313,0.00000899,-0.00
 001658,0.00000864,-0.00001278,0.00000740,0.00000363,-0.00000393,-0.000
 00882,0.00000366,-0.00001043,0.00000324,-0.00000895,0.00001435,0.00001
 494,-0.00000449,-0.00001328,-0.00000692,0.00001090,-0.00000427,-0.0000
 0306,-0.00001597,0.00000222,0.00000624,0.00000049,0.00000114,0.0000006
 7,0.00000193,0.00001201,0.00000555,-0.00000418,-0.00000830,-0.00001167
 ,0.00000349,0.00000191,-0.00000331,-0.00001018,0.00000986,0.00001421,0
 .00000610,-0.00001643,-0.00000201,-0.00000131,-0.00000786,0.00000546,0
 .00001058,-0.00001294,-0.00000490,-0.00000822,0.00002320,-0.00000492,0
 .00000335,0.00000071,0.00000401,0.00001347,-0.00000710,-0.00001224,-0.
 00001345,0.00000948,0.00001017,0.00000915,-0.00000856,-0.00000902,0.00
 001335,-0.00000610,0.00001330,-0.00001711,0.00000886,-0.00000211,-0.00
 000051,-0.00000761,0.00000310,-0.00000294,-0.00001163,-0.00001270,0.00
 001753,0.00000954,0.00000962,-0.00001570,-0.00000607,-0.00001165,-0.00
 000903,-0.00000990,0.00001207,0.00001879,0.00001122,-0.00000349,-0.000
 01463,-0.00000478,0.00000505,-0.00000676,0.00000494,-0.00000011,0.0000
 1012,-0.00000830,-0.00000484,-0.00001957,-0.00001238,0.00000429,0.0000
 1213,0.00002211,0.00000204,0.00000125,0.00000238,0.00000095,-0.0000013
 3,0.00000293,-0.00000124,0.00000065,-0.00000036,0.00000444,0.00000026,
 0.00000236,0.00000024,0.00000220,0.00000162,-0.00000016,0.00000073,0.0
 0000697,0.00001589,-0.00000310,0.00000883,-0.00001505,0.00000119,0.000
 00755,0.00000083,-0.00000052,0.00000688,-0.00000012,-0.00000260,0.0000
 0159,-0.00000459,-0.00000020,0.00000227,0.00000115,0.00000035,-0.00000
 028,-0.00000270,0.00000031,0.00000262,-0.00000026,-0.00000197,0.000002
 88,0.00000036,-0.00000062,0.00000093,0.00000275,0.00000239,-0.00000120
 ,0.00000007,0.00000010,-0.00000421,-0.00000288,-0.00000157,-0.00000522
 ,-0.00000094,0.00000313,0.00000068,-0.00000384,-0.00000202,0.00000086,
 0.00000291,-0.00000210,0.00000087,0.00000189,0.00000252,0.00000278,-0.
 00000197,-0.00000241,0.00000351,-0.00000239,0.00000267,0.00000019,0.00
 000434,0.00000191,0.00000130,0.00000422,-0.00000116,0.00000012,0.00000
 097,-0.00000085,-0.00000649,-0.00000327,-0.00000302,-0.00000073,-0.000
 00037,0.00000144,0.00000110,0.00000084,-0.00000061,-0.00000457\\\@
 The archive entry for this job was punched.


 CLIMB THE MOUNTAINS AND GET THEIR GOOD TIDINGS.
 NATURE'S PEACE WILL FLOW INTO YOU AS SUNSHINE FLOWS INTO TREES.
 THE WINDS WILL BLOW THEIR OWN FRESHNESS INTO YOU, 
 AND CARES WILL DROP OFF LIKE AUTUMN LEAVES.

                                         -- JOHN MUIR
 Job cpu time:       0 days  7 hours 56 minutes 48.2 seconds.
 Elapsed time:       0 days  0 hours 14 minutes 57.5 seconds.
 File lengths (MBytes):  RWF=   3306 Int=      0 D2E=      0 Chk=     37 Scr=      1
 Normal termination of Gaussian 16 at Sun Mar 23 18:32:35 2025.
