 Entering Gaussian System, Link 0=g16
 Initial command:
 /public/software/apps/Gaussian/g16/l1.exe "/tmp/Gau-125945.inp" -scrdir="/tmp/"
 Entering Link 1 = /public/software/apps/Gaussian/g16/l1.exe PID=    125946.
  
 Copyright (c) 1988-2019, Gaussian, Inc.  All Rights Reserved.
  
 This is part of the Gaussian(R) 16 program.  It is based on
 the Gaussian(R) 09 system (copyright 2009, Gaussian, Inc.),
 the Gaussian(R) 03 system (copyright 2003, Gaussian, Inc.),
 the Gaussian(R) 98 system (copyright 1998, Gaussian, Inc.),
 the Gaussian(R) 94 system (copyright 1995, Gaussian, Inc.),
 the Gaussian 92(TM) system (copyright 1992, Gaussian, Inc.),
 the Gaussian 90(TM) system (copyright 1990, Gaussian, Inc.),
 the Gaussian 88(TM) system (copyright 1988, Gaussian, Inc.),
 the Gaussian 86(TM) system (copyright 1986, Carnegie Mellon
 University), and the Gaussian 82(TM) system (copyright 1983,
 Carnegie Mellon University). Gaussian is a federally registered
 trademark of Gaussian, Inc.
  
 This software contains proprietary and confidential information,
 including trade secrets, belonging to Gaussian, Inc.
  
 This software is provided under written license and may be
 used, copied, transmitted, or stored only in accord with that
 written license.
  
 The following legend is applicable only to US Government
 contracts under FAR:
  
                    RESTRICTED RIGHTS LEGEND
  
 Use, reproduction and disclosure by the US Government is
 subject to restrictions as set forth in subparagraphs (a)
 and (c) of the Commercial Computer Software - Restricted
 Rights clause in FAR 52.227-19.
  
 Gaussian, Inc.
 340 Quinnipiac St., Bldg. 40, Wallingford CT 06492
  
  
 ---------------------------------------------------------------
 Warning -- This program may not be used in any manner that
 competes with the business of Gaussian, Inc. or will provide
 assistance to any competitor of Gaussian, Inc.  The licensee
 of this program is prohibited from giving any competitor of
 Gaussian, Inc. access to this program.  By using this program,
 the user acknowledges that Gaussian, Inc. is engaged in the
 business of creating and licensing software in the field of
 computational chemistry and represents and warrants to the
 licensee that it is not a competitor of Gaussian, Inc. and that
 it will not use this program in any manner prohibited above.
 ---------------------------------------------------------------
  

 Cite this work as:
 Gaussian 16, Revision C.01,
 M. J. Frisch, G. W. Trucks, H. B. Schlegel, G. E. Scuseria, 
 M. A. Robb, J. R. Cheeseman, G. Scalmani, V. Barone, 
 G. A. Petersson, H. Nakatsuji, X. Li, M. Caricato, A. V. Marenich, 
 J. Bloino, B. G. Janesko, R. Gomperts, B. Mennucci, H. P. Hratchian, 
 J. V. Ortiz, A. F. Izmaylov, J. L. Sonnenberg, D. Williams-Young, 
 F. Ding, F. Lipparini, F. Egidi, J. Goings, B. Peng, A. Petrone, 
 T. Henderson, D. Ranasinghe, V. G. Zakrzewski, J. Gao, N. Rega, 
 G. Zheng, W. Liang, M. Hada, M. Ehara, K. Toyota, R. Fukuda, 
 J. Hasegawa, M. Ishida, T. Nakajima, Y. Honda, O. Kitao, H. Nakai, 
 T. Vreven, K. Throssell, J. A. Montgomery, Jr., J. E. Peralta, 
 F. Ogliaro, M. J. Bearpark, J. J. Heyd, E. N. Brothers, K. N. Kudin, 
 V. N. Staroverov, T. A. Keith, R. Kobayashi, J. Normand, 
 K. Raghavachari, A. P. Rendell, J. C. Burant, S. S. Iyengar, 
 J. Tomasi, M. Cossi, J. M. Millam, M. Klene, C. Adamo, R. Cammi, 
 J. W. Ochterski, R. L. Martin, K. Morokuma, O. Farkas, 
 J. B. Foresman, and D. J. Fox, Gaussian, Inc., Wallingford CT, 2019.
 
 ******************************************
 Gaussian 16:  ES64L-G16RevC.01  3-Jul-2019
                23-Mar-2025 
 ******************************************
 %nprocshared=32
 Will use up to   32 processors via shared memory.
 %mem=100GB
 ------------------------------------------
 #p opt freq b3lyp/def2svpp em=gd3bj nosymm
 ------------------------------------------
 1/18=20,19=15,26=3,38=1/1,3;
 2/9=110,12=2,15=1,17=6,18=5,40=1/2;
 3/5=43,7=202,11=2,25=1,30=1,71=1,74=-5,124=41/1,2,3;
 4//1;
 5/5=2,38=5/2;
 6/7=2,8=2,9=2,10=2,28=1/1;
 7/30=1/1,2,3,16;
 1/18=20,19=15,26=3/3(2);
 2/9=110,15=1/2;
 99//99;
 2/9=110,15=1/2;
 3/5=43,7=202,11=2,25=1,30=1,71=1,74=-5,124=41/1,2,3;
 4/5=5,16=3,69=1/1;
 5/5=2,38=5/2;
 7/30=1/1,2,3,16;
 1/18=20,19=15,26=3/3(-5);
 2/9=110,15=1/2;
 6/7=2,8=2,9=2,10=2,19=2,28=1/1;
 99/9=1/99;
 Leave Link    1 at Sun Mar 23 18:49:14 2025, MaxMem= 13421772800 cpu:               0.9 elap:               0.0
 (Enter /public/software/apps/Gaussian/g16/l101.exe)
 ----------------------
 $$$$Singlemol####0????
 ----------------------
 Symbolic Z-matrix:
 Charge =  0 Multiplicity = 1
 O                     1.28403  -0.61072  -2.19646 
 C                     1.67813   0.16885  -1.15599 
 C                     3.06056   0.31883  -0.95733 
 C                     3.55836   1.10581   0.04963 
 C                     5.01789   1.27737   0.16461 
 C                     5.59011   2.5438    0.1417 
 C                     6.9663    2.6771    0.2169 
 C                     7.77371   1.5639    0.31778 
 C                     7.21204   0.28483   0.33331 
 O                     8.09595  -0.74122   0.43554 
 C                     7.62624  -2.0784    0.44744 
 C                     7.15472  -2.55588  -0.94284 
 C                     8.30664  -3.40087  -1.4834 
 C                     8.84624  -4.08739  -0.23307 
 C                     8.82564  -2.97303   0.81179 
 C                     5.83144   0.15132   0.24948 
 C                     2.6626    1.74541   0.95021 
 C                     3.11124   2.48261   2.06541 
 C                     2.22648   3.08157   2.91864 
 C                     0.84676   2.96114   2.70405 
 C                     0.37643   2.23319   1.64806 
 C                     1.26335   1.60478   0.74622 
 C                     0.77906   0.82123  -0.3337 
 C                    -0.67708   0.71835  -0.61129 
 C                    -1.34097   1.80018  -1.15875 
 O                    -0.71665   2.97344  -1.4375 
 C                    -2.71238   1.71915  -1.45095 
 C                    -3.4287    0.57439  -1.21179 
 C                    -4.87573   0.56824  -1.49186 
 C                    -5.35065   0.92506  -2.74714 
 C                    -6.714     0.9312   -2.99024 
 C                    -7.60501   0.5904   -1.99451 
 C                    -7.14099   0.23864  -0.72451 
 O                    -8.09869  -0.07132   0.1874 
 C                    -7.72348  -0.48905   1.4896 
 C                    -9.01531  -0.60218   2.31398 
 C                    -9.36219  -2.08774   2.28757 
 C                    -7.9945   -2.75336   2.40114 
 C                    -7.10097  -1.90439   1.49317 
 C                    -5.77366   0.23272  -0.48156 
 C                    -2.77082  -0.56989  -0.68167 
 C                    -3.42995  -1.80222  -0.49092 
 C                    -2.77927  -2.87673   0.04882 
 C                    -1.43324  -2.77018   0.42514 
 C                    -0.7524   -1.60437   0.21707 
 C                    -1.38921  -0.48304  -0.36014 
 H                     0.31775  -0.65285  -2.22078 
 H                     3.72275  -0.1809   -1.64719 
 H                     4.96083   3.41576   0.04431 
 H                     7.41259   3.66033   0.19582 
 H                     8.84647   1.6532    0.38289 
 H                     6.82432  -2.17061   1.1917 
 H                     6.2572   -3.16721  -0.83844 
 H                     6.92474  -1.70976  -1.58917 
 H                     9.07424  -2.7532   -1.90852 
 H                     7.98146  -4.10484  -2.24776 
 H                     9.84314  -4.50108  -0.37435 
 H                     8.17561  -4.89537   0.06481 
 H                     8.75782  -3.35231   1.82956 
 H                     9.72487  -2.36175   0.73143 
 H                     5.36204  -0.8199    0.25953 
 H                     4.1729    2.55538   2.24649 
 H                     2.58643   3.64155   3.76899 
 H                     0.15684   3.43453   3.38691 
 H                    -0.68723   2.11581   1.49829 
 H                     0.20786   2.92209  -1.15662 
 H                    -3.19382   2.59742  -1.85175 
 H                    -4.65285   1.17952  -3.53038 
 H                    -7.08465   1.203    -3.96749 
 H                    -8.66921   0.59106  -2.1694 
 H                    -7.04636   0.25789   1.92483 
 H                    -9.79331   0.02348   1.88157 
 H                    -8.82781  -0.27676   3.33737 
 H                    -9.8224   -2.34252   1.33251 
 H                    -10.03937  -2.37293   3.09085 
 H                    -7.64165  -2.69612   3.43235 
 H                    -8.00746  -3.79984   2.10076 
 H                    -6.06503  -1.90081   1.83067 
 H                    -7.12589  -2.29231   0.47348 
 H                    -5.38267  -0.014     0.49286 
 H                    -4.463    -1.89016  -0.79099 
 H                    -3.29943  -3.81289   0.18859 
 H                    -0.93437  -3.61847   0.86998 
 H                     0.2882   -1.52424   0.4968 
 
 ITRead=  0  0  0  0  0  0  0  0  0  0  0  0  0  0  0  0  0  0  0  0
 ITRead=  0  0  0  0  0  0  0  0  0  0  0  0  0  0  0  0  0  0  0  0
 ITRead=  0  0  0  0  0  0  0  0  0  0  0  0  0  0  0  0  0  0  0  0
 ITRead=  0  0  0  0  0  0  0  0  0  0  0  0  0  0  0  0  0  0  0  0
 ITRead=  0  0  0  0
 MicOpt= -1 -1 -1 -1 -1 -1 -1 -1 -1 -1 -1 -1 -1 -1 -1 -1 -1 -1 -1 -1
 MicOpt= -1 -1 -1 -1 -1 -1 -1 -1 -1 -1 -1 -1 -1 -1 -1 -1 -1 -1 -1 -1
 MicOpt= -1 -1 -1 -1 -1 -1 -1 -1 -1 -1 -1 -1 -1 -1 -1 -1 -1 -1 -1 -1
 MicOpt= -1 -1 -1 -1 -1 -1 -1 -1 -1 -1 -1 -1 -1 -1 -1 -1 -1 -1 -1 -1
 MicOpt= -1 -1 -1 -1
 NAtoms=     84 NQM=       84 NQMF=       0 NMMI=      0 NMMIF=      0
                NMic=       0 NMicF=      0.
                    Isotopes and Nuclear Properties:
 (Nuclear quadrupole moments (NQMom) in fm**2, nuclear magnetic moments (NMagM)
  in nuclear magnetons)

  Atom         1           2           3           4           5           6           7           8           9          10
 IAtWgt=          16          12          12          12          12          12          12          12          12          16
 AtmWgt=  15.9949146  12.0000000  12.0000000  12.0000000  12.0000000  12.0000000  12.0000000  12.0000000  12.0000000  15.9949146
 NucSpn=           0           0           0           0           0           0           0           0           0           0
 AtZEff=  -0.0000000  -0.0000000  -0.0000000  -0.0000000  -0.0000000  -0.0000000  -0.0000000  -0.0000000  -0.0000000  -0.0000000
 NQMom=    0.0000000   0.0000000   0.0000000   0.0000000   0.0000000   0.0000000   0.0000000   0.0000000   0.0000000   0.0000000
 NMagM=    0.0000000   0.0000000   0.0000000   0.0000000   0.0000000   0.0000000   0.0000000   0.0000000   0.0000000   0.0000000
 AtZNuc=   8.0000000   6.0000000   6.0000000   6.0000000   6.0000000   6.0000000   6.0000000   6.0000000   6.0000000   8.0000000

  Atom        11          12          13          14          15          16          17          18          19          20
 IAtWgt=          12          12          12          12          12          12          12          12          12          12
 AtmWgt=  12.0000000  12.0000000  12.0000000  12.0000000  12.0000000  12.0000000  12.0000000  12.0000000  12.0000000  12.0000000
 NucSpn=           0           0           0           0           0           0           0           0           0           0
 AtZEff=  -0.0000000  -0.0000000  -0.0000000  -0.0000000  -0.0000000  -0.0000000  -0.0000000  -0.0000000  -0.0000000  -0.0000000
 NQMom=    0.0000000   0.0000000   0.0000000   0.0000000   0.0000000   0.0000000   0.0000000   0.0000000   0.0000000   0.0000000
 NMagM=    0.0000000   0.0000000   0.0000000   0.0000000   0.0000000   0.0000000   0.0000000   0.0000000   0.0000000   0.0000000
 AtZNuc=   6.0000000   6.0000000   6.0000000   6.0000000   6.0000000   6.0000000   6.0000000   6.0000000   6.0000000   6.0000000

  Atom        21          22          23          24          25          26          27          28          29          30
 IAtWgt=          12          12          12          12          12          16          12          12          12          12
 AtmWgt=  12.0000000  12.0000000  12.0000000  12.0000000  12.0000000  15.9949146  12.0000000  12.0000000  12.0000000  12.0000000
 NucSpn=           0           0           0           0           0           0           0           0           0           0
 AtZEff=  -0.0000000  -0.0000000  -0.0000000  -0.0000000  -0.0000000  -0.0000000  -0.0000000  -0.0000000  -0.0000000  -0.0000000
 NQMom=    0.0000000   0.0000000   0.0000000   0.0000000   0.0000000   0.0000000   0.0000000   0.0000000   0.0000000   0.0000000
 NMagM=    0.0000000   0.0000000   0.0000000   0.0000000   0.0000000   0.0000000   0.0000000   0.0000000   0.0000000   0.0000000
 AtZNuc=   6.0000000   6.0000000   6.0000000   6.0000000   6.0000000   8.0000000   6.0000000   6.0000000   6.0000000   6.0000000

  Atom        31          32          33          34          35          36          37          38          39          40
 IAtWgt=          12          12          12          16          12          12          12          12          12          12
 AtmWgt=  12.0000000  12.0000000  12.0000000  15.9949146  12.0000000  12.0000000  12.0000000  12.0000000  12.0000000  12.0000000
 NucSpn=           0           0           0           0           0           0           0           0           0           0
 AtZEff=  -0.0000000  -0.0000000  -0.0000000  -0.0000000  -0.0000000  -0.0000000  -0.0000000  -0.0000000  -0.0000000  -0.0000000
 NQMom=    0.0000000   0.0000000   0.0000000   0.0000000   0.0000000   0.0000000   0.0000000   0.0000000   0.0000000   0.0000000
 NMagM=    0.0000000   0.0000000   0.0000000   0.0000000   0.0000000   0.0000000   0.0000000   0.0000000   0.0000000   0.0000000
 AtZNuc=   6.0000000   6.0000000   6.0000000   8.0000000   6.0000000   6.0000000   6.0000000   6.0000000   6.0000000   6.0000000

  Atom        41          42          43          44          45          46          47          48          49          50
 IAtWgt=          12          12          12          12          12          12           1           1           1           1
 AtmWgt=  12.0000000  12.0000000  12.0000000  12.0000000  12.0000000  12.0000000   1.0078250   1.0078250   1.0078250   1.0078250
 NucSpn=           0           0           0           0           0           0           1           1           1           1
 AtZEff=  -0.0000000  -0.0000000  -0.0000000  -0.0000000  -0.0000000  -0.0000000  -0.0000000  -0.0000000  -0.0000000  -0.0000000
 NQMom=    0.0000000   0.0000000   0.0000000   0.0000000   0.0000000   0.0000000   0.0000000   0.0000000   0.0000000   0.0000000
 NMagM=    0.0000000   0.0000000   0.0000000   0.0000000   0.0000000   0.0000000   2.7928460   2.7928460   2.7928460   2.7928460
 AtZNuc=   6.0000000   6.0000000   6.0000000   6.0000000   6.0000000   6.0000000   1.0000000   1.0000000   1.0000000   1.0000000

  Atom        51          52          53          54          55          56          57          58          59          60
 IAtWgt=           1           1           1           1           1           1           1           1           1           1
 AtmWgt=   1.0078250   1.0078250   1.0078250   1.0078250   1.0078250   1.0078250   1.0078250   1.0078250   1.0078250   1.0078250
 NucSpn=           1           1           1           1           1           1           1           1           1           1
 AtZEff=  -0.0000000  -0.0000000  -0.0000000  -0.0000000  -0.0000000  -0.0000000  -0.0000000  -0.0000000  -0.0000000  -0.0000000
 NQMom=    0.0000000   0.0000000   0.0000000   0.0000000   0.0000000   0.0000000   0.0000000   0.0000000   0.0000000   0.0000000
 NMagM=    2.7928460   2.7928460   2.7928460   2.7928460   2.7928460   2.7928460   2.7928460   2.7928460   2.7928460   2.7928460
 AtZNuc=   1.0000000   1.0000000   1.0000000   1.0000000   1.0000000   1.0000000   1.0000000   1.0000000   1.0000000   1.0000000

  Atom        61          62          63          64          65          66          67          68          69          70
 IAtWgt=           1           1           1           1           1           1           1           1           1           1
 AtmWgt=   1.0078250   1.0078250   1.0078250   1.0078250   1.0078250   1.0078250   1.0078250   1.0078250   1.0078250   1.0078250
 NucSpn=           1           1           1           1           1           1           1           1           1           1
 AtZEff=  -0.0000000  -0.0000000  -0.0000000  -0.0000000  -0.0000000  -0.0000000  -0.0000000  -0.0000000  -0.0000000  -0.0000000
 NQMom=    0.0000000   0.0000000   0.0000000   0.0000000   0.0000000   0.0000000   0.0000000   0.0000000   0.0000000   0.0000000
 NMagM=    2.7928460   2.7928460   2.7928460   2.7928460   2.7928460   2.7928460   2.7928460   2.7928460   2.7928460   2.7928460
 AtZNuc=   1.0000000   1.0000000   1.0000000   1.0000000   1.0000000   1.0000000   1.0000000   1.0000000   1.0000000   1.0000000

  Atom        71          72          73          74          75          76          77          78          79          80
 IAtWgt=           1           1           1           1           1           1           1           1           1           1
 AtmWgt=   1.0078250   1.0078250   1.0078250   1.0078250   1.0078250   1.0078250   1.0078250   1.0078250   1.0078250   1.0078250
 NucSpn=           1           1           1           1           1           1           1           1           1           1
 AtZEff=  -0.0000000  -0.0000000  -0.0000000  -0.0000000  -0.0000000  -0.0000000  -0.0000000  -0.0000000  -0.0000000  -0.0000000
 NQMom=    0.0000000   0.0000000   0.0000000   0.0000000   0.0000000   0.0000000   0.0000000   0.0000000   0.0000000   0.0000000
 NMagM=    2.7928460   2.7928460   2.7928460   2.7928460   2.7928460   2.7928460   2.7928460   2.7928460   2.7928460   2.7928460
 AtZNuc=   1.0000000   1.0000000   1.0000000   1.0000000   1.0000000   1.0000000   1.0000000   1.0000000   1.0000000   1.0000000

  Atom        81          82          83          84
 IAtWgt=           1           1           1           1
 AtmWgt=   1.0078250   1.0078250   1.0078250   1.0078250
 NucSpn=           1           1           1           1
 AtZEff=  -0.0000000  -0.0000000  -0.0000000  -0.0000000
 NQMom=    0.0000000   0.0000000   0.0000000   0.0000000
 NMagM=    2.7928460   2.7928460   2.7928460   2.7928460
 AtZNuc=   1.0000000   1.0000000   1.0000000   1.0000000
 Leave Link  101 at Sun Mar 23 18:49:14 2025, MaxMem= 13421772800 cpu:               4.1 elap:               0.1
 (Enter /public/software/apps/Gaussian/g16/l103.exe)

 GradGradGradGradGradGradGradGradGradGradGradGradGradGradGradGradGradGrad
 Berny optimization.
 Initialization pass.
                           ----------------------------
                           !    Initial Parameters    !
                           ! (Angstroms and Degrees)  !
 --------------------------                            --------------------------
 ! Name  Definition              Value          Derivative Info.                !
 --------------------------------------------------------------------------------
 ! R1    R(1,2)                  1.3585         estimate D2E/DX2                !
 ! R2    R(1,47)                 0.9675         estimate D2E/DX2                !
 ! R3    R(2,3)                  1.4047         estimate D2E/DX2                !
 ! R4    R(2,23)                 1.3821         estimate D2E/DX2                !
 ! R5    R(3,4)                  1.3715         estimate D2E/DX2                !
 ! R6    R(3,48)                 1.079          estimate D2E/DX2                !
 ! R7    R(4,5)                  1.4741         estimate D2E/DX2                !
 ! R8    R(4,17)                 1.4221         estimate D2E/DX2                !
 ! R9    R(5,6)                  1.3899         estimate D2E/DX2                !
 ! R10   R(5,16)                 1.3918         estimate D2E/DX2                !
 ! R11   R(6,7)                  1.3847         estimate D2E/DX2                !
 ! R12   R(6,49)                 1.0797         estimate D2E/DX2                !
 ! R13   R(7,8)                  1.3789         estimate D2E/DX2                !
 ! R14   R(7,50)                 1.08           estimate D2E/DX2                !
 ! R15   R(8,9)                  1.397          estimate D2E/DX2                !
 ! R16   R(8,51)                 1.0784         estimate D2E/DX2                !
 ! R17   R(9,10)                 1.3581         estimate D2E/DX2                !
 ! R18   R(9,16)                 1.3896         estimate D2E/DX2                !
 ! R19   R(10,11)                1.4173         estimate D2E/DX2                !
 ! R20   R(11,12)                1.5438         estimate D2E/DX2                !
 ! R21   R(11,15)                1.54           estimate D2E/DX2                !
 ! R22   R(11,52)                1.098          estimate D2E/DX2                !
 ! R23   R(12,13)                1.5275         estimate D2E/DX2                !
 ! R24   R(12,53)                1.0909         estimate D2E/DX2                !
 ! R25   R(12,54)                1.0893         estimate D2E/DX2                !
 ! R26   R(13,14)                1.5251         estimate D2E/DX2                !
 ! R27   R(13,55)                1.0906         estimate D2E/DX2                !
 ! R28   R(13,56)                1.0888         estimate D2E/DX2                !
 ! R29   R(14,15)                1.5277         estimate D2E/DX2                !
 ! R30   R(14,57)                1.0885         estimate D2E/DX2                !
 ! R31   R(14,58)                1.0915         estimate D2E/DX2                !
 ! R32   R(15,59)                1.0883         estimate D2E/DX2                !
 ! R33   R(15,60)                1.0903         estimate D2E/DX2                !
 ! R34   R(16,61)                1.0787         estimate D2E/DX2                !
 ! R35   R(17,18)                1.4101         estimate D2E/DX2                !
 ! R36   R(17,22)                1.421          estimate D2E/DX2                !
 ! R37   R(18,19)                1.3673         estimate D2E/DX2                !
 ! R38   R(18,62)                1.0794         estimate D2E/DX2                !
 ! R39   R(19,20)                1.4015         estimate D2E/DX2                !
 ! R40   R(19,63)                1.0799         estimate D2E/DX2                !
 ! R41   R(20,21)                1.3661         estimate D2E/DX2                !
 ! R42   R(20,64)                1.08           estimate D2E/DX2                !
 ! R43   R(21,22)                1.4124         estimate D2E/DX2                !
 ! R44   R(21,65)                1.0805         estimate D2E/DX2                !
 ! R45   R(22,23)                1.4194         estimate D2E/DX2                !
 ! R46   R(23,24)                1.4859         estimate D2E/DX2                !
 ! R47   R(24,25)                1.3823         estimate D2E/DX2                !
 ! R48   R(24,46)                1.419          estimate D2E/DX2                !
 ! R49   R(25,26)                1.3579         estimate D2E/DX2                !
 ! R50   R(25,27)                1.4045         estimate D2E/DX2                !
 ! R51   R(26,66)                0.9676         estimate D2E/DX2                !
 ! R52   R(27,28)                1.3714         estimate D2E/DX2                !
 ! R53   R(27,67)                1.0788         estimate D2E/DX2                !
 ! R54   R(28,29)                1.4739         estimate D2E/DX2                !
 ! R55   R(28,41)                1.4224         estimate D2E/DX2                !
 ! R56   R(29,30)                1.3887         estimate D2E/DX2                !
 ! R57   R(29,40)                1.3927         estimate D2E/DX2                !
 ! R58   R(30,31)                1.3849         estimate D2E/DX2                !
 ! R59   R(30,68)                1.0794         estimate D2E/DX2                !
 ! R60   R(31,32)                1.379          estimate D2E/DX2                !
 ! R61   R(31,69)                1.0799         estimate D2E/DX2                !
 ! R62   R(32,33)                1.3971         estimate D2E/DX2                !
 ! R63   R(32,70)                1.0785         estimate D2E/DX2                !
 ! R64   R(33,34)                1.3582         estimate D2E/DX2                !
 ! R65   R(33,40)                1.3888         estimate D2E/DX2                !
 ! R66   R(34,35)                1.4181         estimate D2E/DX2                !
 ! R67   R(35,36)                1.5366         estimate D2E/DX2                !
 ! R68   R(35,39)                1.5462         estimate D2E/DX2                !
 ! R69   R(35,71)                1.0981         estimate D2E/DX2                !
 ! R70   R(36,37)                1.5258         estimate D2E/DX2                !
 ! R71   R(36,72)                1.088          estimate D2E/DX2                !
 ! R72   R(36,73)                1.0901         estimate D2E/DX2                !
 ! R73   R(37,38)                1.5253         estimate D2E/DX2                !
 ! R74   R(37,74)                1.0903         estimate D2E/DX2                !
 ! R75   R(37,75)                1.0887         estimate D2E/DX2                !
 ! R76   R(38,39)                1.5309         estimate D2E/DX2                !
 ! R77   R(38,76)                1.0914         estimate D2E/DX2                !
 ! R78   R(38,77)                1.0888         estimate D2E/DX2                !
 ! R79   R(39,78)                1.0895         estimate D2E/DX2                !
 ! R80   R(39,79)                1.0913         estimate D2E/DX2                !
 ! R81   R(40,80)                1.0785         estimate D2E/DX2                !
 ! R82   R(41,42)                1.4105         estimate D2E/DX2                !
 ! R83   R(41,46)                1.4212         estimate D2E/DX2                !
 ! R84   R(42,43)                1.3672         estimate D2E/DX2                !
 ! R85   R(42,81)                1.0793         estimate D2E/DX2                !
 ! R86   R(43,44)                1.4017         estimate D2E/DX2                !
 ! R87   R(43,82)                1.08           estimate D2E/DX2                !
 ! R88   R(44,45)                1.366          estimate D2E/DX2                !
 ! R89   R(44,83)                1.08           estimate D2E/DX2                !
 ! R90   R(45,46)                1.4128         estimate D2E/DX2                !
 ! R91   R(45,84)                1.0805         estimate D2E/DX2                !
 ! A1    A(2,1,47)             109.5098         estimate D2E/DX2                !
 ! A2    A(1,2,3)              117.0706         estimate D2E/DX2                !
 ! A3    A(1,2,23)             122.5357         estimate D2E/DX2                !
 ! A4    A(3,2,23)             120.3773         estimate D2E/DX2                !
 ! A5    A(2,3,4)              121.4871         estimate D2E/DX2                !
 ! A6    A(2,3,48)             117.6547         estimate D2E/DX2                !
 ! A7    A(4,3,48)             120.8258         estimate D2E/DX2                !
 ! A8    A(3,4,5)              118.909          estimate D2E/DX2                !
 ! A9    A(3,4,17)             119.6287         estimate D2E/DX2                !
 ! A10   A(5,4,17)             121.4603         estimate D2E/DX2                !
 ! A11   A(4,5,6)              120.8238         estimate D2E/DX2                !
 ! A12   A(4,5,16)             119.2986         estimate D2E/DX2                !
 ! A13   A(6,5,16)             119.8385         estimate D2E/DX2                !
 ! A14   A(5,6,7)              119.7356         estimate D2E/DX2                !
 ! A15   A(5,6,49)             119.8272         estimate D2E/DX2                !
 ! A16   A(7,6,49)             120.4243         estimate D2E/DX2                !
 ! A17   A(6,7,8)              120.5455         estimate D2E/DX2                !
 ! A18   A(6,7,50)             119.821          estimate D2E/DX2                !
 ! A19   A(8,7,50)             119.6335         estimate D2E/DX2                !
 ! A20   A(7,8,9)              120.301          estimate D2E/DX2                !
 ! A21   A(7,8,51)             121.3347         estimate D2E/DX2                !
 ! A22   A(9,8,51)             118.364          estimate D2E/DX2                !
 ! A23   A(8,9,10)             115.5224         estimate D2E/DX2                !
 ! A24   A(8,9,16)             119.1264         estimate D2E/DX2                !
 ! A25   A(10,9,16)            125.3509         estimate D2E/DX2                !
 ! A26   A(9,10,11)            119.8486         estimate D2E/DX2                !
 ! A27   A(10,11,12)           112.6725         estimate D2E/DX2                !
 ! A28   A(10,11,15)           106.9751         estimate D2E/DX2                !
 ! A29   A(10,11,52)           109.0853         estimate D2E/DX2                !
 ! A30   A(12,11,15)           105.7398         estimate D2E/DX2                !
 ! A31   A(12,11,52)           111.1866         estimate D2E/DX2                !
 ! A32   A(15,11,52)           111.0801         estimate D2E/DX2                !
 ! A33   A(11,12,13)           105.0387         estimate D2E/DX2                !
 ! A34   A(11,12,53)           109.7803         estimate D2E/DX2                !
 ! A35   A(11,12,54)           111.0138         estimate D2E/DX2                !
 ! A36   A(13,12,53)           110.1394         estimate D2E/DX2                !
 ! A37   A(13,12,54)           112.2685         estimate D2E/DX2                !
 ! A38   A(53,12,54)           108.5636         estimate D2E/DX2                !
 ! A39   A(12,13,14)           103.0449         estimate D2E/DX2                !
 ! A40   A(12,13,55)           109.8899         estimate D2E/DX2                !
 ! A41   A(12,13,56)           112.3877         estimate D2E/DX2                !
 ! A42   A(14,13,55)           109.748          estimate D2E/DX2                !
 ! A43   A(14,13,56)           112.9645         estimate D2E/DX2                !
 ! A44   A(55,13,56)           108.6941         estimate D2E/DX2                !
 ! A45   A(13,14,15)           103.1556         estimate D2E/DX2                !
 ! A46   A(13,14,57)           112.8739         estimate D2E/DX2                !
 ! A47   A(13,14,58)           109.8517         estimate D2E/DX2                !
 ! A48   A(15,14,57)           112.2305         estimate D2E/DX2                !
 ! A49   A(15,14,58)           110.1836         estimate D2E/DX2                !
 ! A50   A(57,14,58)           108.4691         estimate D2E/DX2                !
 ! A51   A(11,15,14)           105.8089         estimate D2E/DX2                !
 ! A52   A(11,15,59)           112.0359         estimate D2E/DX2                !
 ! A53   A(11,15,60)           107.4095         estimate D2E/DX2                !
 ! A54   A(14,15,59)           112.7217         estimate D2E/DX2                !
 ! A55   A(14,15,60)           110.3298         estimate D2E/DX2                !
 ! A56   A(59,15,60)           108.4052         estimate D2E/DX2                !
 ! A57   A(5,16,9)             120.4447         estimate D2E/DX2                !
 ! A58   A(5,16,61)            118.336          estimate D2E/DX2                !
 ! A59   A(9,16,61)            121.2156         estimate D2E/DX2                !
 ! A60   A(4,17,18)            122.3807         estimate D2E/DX2                !
 ! A61   A(4,17,22)            118.9991         estimate D2E/DX2                !
 ! A62   A(18,17,22)           118.5911         estimate D2E/DX2                !
 ! A63   A(17,18,19)           121.1077         estimate D2E/DX2                !
 ! A64   A(17,18,62)           118.7395         estimate D2E/DX2                !
 ! A65   A(19,18,62)           120.146          estimate D2E/DX2                !
 ! A66   A(18,19,20)           120.2541         estimate D2E/DX2                !
 ! A67   A(18,19,63)           120.187          estimate D2E/DX2                !
 ! A68   A(20,19,63)           119.5554         estimate D2E/DX2                !
 ! A69   A(19,20,21)           120.2045         estimate D2E/DX2                !
 ! A70   A(19,20,64)           119.6312         estimate D2E/DX2                !
 ! A71   A(21,20,64)           120.1577         estimate D2E/DX2                !
 ! A72   A(20,21,22)           120.9616         estimate D2E/DX2                !
 ! A73   A(20,21,65)           120.2609         estimate D2E/DX2                !
 ! A74   A(22,21,65)           118.7704         estimate D2E/DX2                !
 ! A75   A(17,22,21)           118.8581         estimate D2E/DX2                !
 ! A76   A(17,22,23)           119.988          estimate D2E/DX2                !
 ! A77   A(21,22,23)           121.142          estimate D2E/DX2                !
 ! A78   A(2,23,22)            119.4251         estimate D2E/DX2                !
 ! A79   A(2,23,24)            119.5814         estimate D2E/DX2                !
 ! A80   A(22,23,24)           120.9779         estimate D2E/DX2                !
 ! A81   A(23,24,25)           119.3698         estimate D2E/DX2                !
 ! A82   A(23,24,46)           121.1549         estimate D2E/DX2                !
 ! A83   A(25,24,46)           119.4502         estimate D2E/DX2                !
 ! A84   A(24,25,26)           122.4567         estimate D2E/DX2                !
 ! A85   A(24,25,27)           120.4103         estimate D2E/DX2                !
 ! A86   A(26,25,27)           117.133          estimate D2E/DX2                !
 ! A87   A(25,26,66)           109.5025         estimate D2E/DX2                !
 ! A88   A(25,27,28)           121.4585         estimate D2E/DX2                !
 ! A89   A(25,27,67)           117.7797         estimate D2E/DX2                !
 ! A90   A(28,27,67)           120.7483         estimate D2E/DX2                !
 ! A91   A(27,28,29)           118.8912         estimate D2E/DX2                !
 ! A92   A(27,28,41)           119.6652         estimate D2E/DX2                !
 ! A93   A(29,28,41)           121.4357         estimate D2E/DX2                !
 ! A94   A(28,29,30)           120.4263         estimate D2E/DX2                !
 ! A95   A(28,29,40)           119.7459         estimate D2E/DX2                !
 ! A96   A(30,29,40)           119.8105         estimate D2E/DX2                !
 ! A97   A(29,30,31)           119.7673         estimate D2E/DX2                !
 ! A98   A(29,30,68)           119.6945         estimate D2E/DX2                !
 ! A99   A(31,30,68)           120.5303         estimate D2E/DX2                !
 ! A100  A(30,31,32)           120.5473         estimate D2E/DX2                !
 ! A101  A(30,31,69)           119.8573         estimate D2E/DX2                !
 ! A102  A(32,31,69)           119.5952         estimate D2E/DX2                !
 ! A103  A(31,32,33)           120.2655         estimate D2E/DX2                !
 ! A104  A(31,32,70)           121.3554         estimate D2E/DX2                !
 ! A105  A(33,32,70)           118.3787         estimate D2E/DX2                !
 ! A106  A(32,33,34)           115.6941         estimate D2E/DX2                !
 ! A107  A(32,33,40)           119.1503         estimate D2E/DX2                !
 ! A108  A(34,33,40)           125.1553         estimate D2E/DX2                !
 ! A109  A(33,34,35)           119.8134         estimate D2E/DX2                !
 ! A110  A(34,35,36)           106.9712         estimate D2E/DX2                !
 ! A111  A(34,35,39)           112.2275         estimate D2E/DX2                !
 ! A112  A(34,35,71)           109.0705         estimate D2E/DX2                !
 ! A113  A(36,35,39)           105.655          estimate D2E/DX2                !
 ! A114  A(36,35,71)           110.8445         estimate D2E/DX2                !
 ! A115  A(39,35,71)           111.9297         estimate D2E/DX2                !
 ! A116  A(35,36,37)           104.6863         estimate D2E/DX2                !
 ! A117  A(35,36,72)           110.2191         estimate D2E/DX2                !
 ! A118  A(35,36,73)           109.6984         estimate D2E/DX2                !
 ! A119  A(37,36,72)           112.9829         estimate D2E/DX2                !
 ! A120  A(37,36,73)           110.2434         estimate D2E/DX2                !
 ! A121  A(72,36,73)           108.9312         estimate D2E/DX2                !
 ! A122  A(36,37,38)           102.6937         estimate D2E/DX2                !
 ! A123  A(36,37,74)           109.7937         estimate D2E/DX2                !
 ! A124  A(36,37,75)           112.5634         estimate D2E/DX2                !
 ! A125  A(38,37,74)           109.9818         estimate D2E/DX2                !
 ! A126  A(38,37,75)           112.8612         estimate D2E/DX2                !
 ! A127  A(74,37,75)           108.8182         estimate D2E/DX2                !
 ! A128  A(37,38,39)           103.7215         estimate D2E/DX2                !
 ! A129  A(37,38,76)           109.7164         estimate D2E/DX2                !
 ! A130  A(37,38,77)           112.8426         estimate D2E/DX2                !
 ! A131  A(39,38,76)           110.0358         estimate D2E/DX2                !
 ! A132  A(39,38,77)           112.1064         estimate D2E/DX2                !
 ! A133  A(76,38,77)           108.3554         estimate D2E/DX2                !
 ! A134  A(35,39,38)           105.9027         estimate D2E/DX2                !
 ! A135  A(35,39,78)           112.366          estimate D2E/DX2                !
 ! A136  A(35,39,79)           108.3026         estimate D2E/DX2                !
 ! A137  A(38,39,78)           111.9044         estimate D2E/DX2                !
 ! A138  A(38,39,79)           110.1045         estimate D2E/DX2                !
 ! A139  A(78,39,79)           108.1998         estimate D2E/DX2                !
 ! A140  A(29,40,33)           120.4552         estimate D2E/DX2                !
 ! A141  A(29,40,80)           118.4756         estimate D2E/DX2                !
 ! A142  A(33,40,80)           121.0612         estimate D2E/DX2                !
 ! A143  A(28,41,42)           122.4886         estimate D2E/DX2                !
 ! A144  A(28,41,46)           118.999          estimate D2E/DX2                !
 ! A145  A(42,41,46)           118.495          estimate D2E/DX2                !
 ! A146  A(41,42,43)           121.1738         estimate D2E/DX2                !
 ! A147  A(41,42,81)           118.7406         estimate D2E/DX2                !
 ! A148  A(43,42,81)           120.0816         estimate D2E/DX2                !
 ! A149  A(42,43,44)           120.2159         estimate D2E/DX2                !
 ! A150  A(42,43,82)           120.2051         estimate D2E/DX2                !
 ! A151  A(44,43,82)           119.579          estimate D2E/DX2                !
 ! A152  A(43,44,45)           120.1726         estimate D2E/DX2                !
 ! A153  A(43,44,83)           119.6336         estimate D2E/DX2                !
 ! A154  A(45,44,83)           120.1901         estimate D2E/DX2                !
 ! A155  A(44,45,46)           120.9935         estimate D2E/DX2                !
 ! A156  A(44,45,84)           120.2565         estimate D2E/DX2                !
 ! A157  A(46,45,84)           118.7496         estimate D2E/DX2                !
 ! A158  A(24,46,41)           119.9719         estimate D2E/DX2                !
 ! A159  A(24,46,45)           121.2031         estimate D2E/DX2                !
 ! A160  A(41,46,45)           118.8235         estimate D2E/DX2                !
 ! D1    D(47,1,2,3)           178.8393         estimate D2E/DX2                !
 ! D2    D(47,1,2,23)           -2.6304         estimate D2E/DX2                !
 ! D3    D(1,2,3,4)            178.7288         estimate D2E/DX2                !
 ! D4    D(1,2,3,48)             0.7843         estimate D2E/DX2                !
 ! D5    D(23,2,3,4)             0.1651         estimate D2E/DX2                !
 ! D6    D(23,2,3,48)         -177.7795         estimate D2E/DX2                !
 ! D7    D(1,2,23,22)          179.1398         estimate D2E/DX2                !
 ! D8    D(1,2,23,24)           -2.2798         estimate D2E/DX2                !
 ! D9    D(3,2,23,22)           -2.3772         estimate D2E/DX2                !
 ! D10   D(3,2,23,24)          176.2032         estimate D2E/DX2                !
 ! D11   D(2,3,4,5)           -176.9415         estimate D2E/DX2                !
 ! D12   D(2,3,4,17)             2.5453         estimate D2E/DX2                !
 ! D13   D(48,3,4,5)             0.9383         estimate D2E/DX2                !
 ! D14   D(48,3,4,17)         -179.5749         estimate D2E/DX2                !
 ! D15   D(3,4,5,6)            123.2751         estimate D2E/DX2                !
 ! D16   D(3,4,5,16)           -54.4478         estimate D2E/DX2                !
 ! D17   D(17,4,5,6)           -56.202          estimate D2E/DX2                !
 ! D18   D(17,4,5,16)          126.0751         estimate D2E/DX2                !
 ! D19   D(3,4,17,18)          175.0333         estimate D2E/DX2                !
 ! D20   D(3,4,17,22)           -2.9746         estimate D2E/DX2                !
 ! D21   D(5,4,17,18)           -5.4933         estimate D2E/DX2                !
 ! D22   D(5,4,17,22)          176.4988         estimate D2E/DX2                !
 ! D23   D(4,5,6,7)           -178.3485         estimate D2E/DX2                !
 ! D24   D(4,5,6,49)             0.3534         estimate D2E/DX2                !
 ! D25   D(16,5,6,7)            -0.6379         estimate D2E/DX2                !
 ! D26   D(16,5,6,49)          178.0641         estimate D2E/DX2                !
 ! D27   D(4,5,16,9)           178.7881         estimate D2E/DX2                !
 ! D28   D(4,5,16,61)           -1.8917         estimate D2E/DX2                !
 ! D29   D(6,5,16,9)             1.0423         estimate D2E/DX2                !
 ! D30   D(6,5,16,61)         -179.6374         estimate D2E/DX2                !
 ! D31   D(5,6,7,8)             -0.1669         estimate D2E/DX2                !
 ! D32   D(5,6,7,50)           179.7916         estimate D2E/DX2                !
 ! D33   D(49,6,7,8)          -178.861          estimate D2E/DX2                !
 ! D34   D(49,6,7,50)            1.0976         estimate D2E/DX2                !
 ! D35   D(6,7,8,9)              0.5746         estimate D2E/DX2                !
 ! D36   D(6,7,8,51)          -179.6402         estimate D2E/DX2                !
 ! D37   D(50,7,8,9)          -179.384          estimate D2E/DX2                !
 ! D38   D(50,7,8,51)            0.4011         estimate D2E/DX2                !
 ! D39   D(7,8,9,10)           179.9922         estimate D2E/DX2                !
 ! D40   D(7,8,9,16)            -0.172          estimate D2E/DX2                !
 ! D41   D(51,8,9,10)            0.2008         estimate D2E/DX2                !
 ! D42   D(51,8,9,16)         -179.9634         estimate D2E/DX2                !
 ! D43   D(8,9,10,11)         -179.4317         estimate D2E/DX2                !
 ! D44   D(16,9,10,11)           0.7442         estimate D2E/DX2                !
 ! D45   D(8,9,16,5)            -0.6353         estimate D2E/DX2                !
 ! D46   D(8,9,16,61)         -179.9357         estimate D2E/DX2                !
 ! D47   D(10,9,16,5)          179.183          estimate D2E/DX2                !
 ! D48   D(10,9,16,61)          -0.1174         estimate D2E/DX2                !
 ! D49   D(9,10,11,12)          73.6899         estimate D2E/DX2                !
 ! D50   D(9,10,11,15)        -170.5312         estimate D2E/DX2                !
 ! D51   D(9,10,11,52)         -50.2963         estimate D2E/DX2                !
 ! D52   D(10,11,12,13)        100.9325         estimate D2E/DX2                !
 ! D53   D(10,11,12,53)       -140.676          estimate D2E/DX2                !
 ! D54   D(10,11,12,54)        -20.6382         estimate D2E/DX2                !
 ! D55   D(15,11,12,13)        -15.585          estimate D2E/DX2                !
 ! D56   D(15,11,12,53)        102.8065         estimate D2E/DX2                !
 ! D57   D(15,11,12,54)       -137.1557         estimate D2E/DX2                !
 ! D58   D(52,11,12,13)       -136.2498         estimate D2E/DX2                !
 ! D59   D(52,11,12,53)        -17.8583         estimate D2E/DX2                !
 ! D60   D(52,11,12,54)        102.1795         estimate D2E/DX2                !
 ! D61   D(10,11,15,14)       -130.5628         estimate D2E/DX2                !
 ! D62   D(10,11,15,59)        106.2294         estimate D2E/DX2                !
 ! D63   D(10,11,15,60)        -12.7102         estimate D2E/DX2                !
 ! D64   D(12,11,15,14)        -10.2476         estimate D2E/DX2                !
 ! D65   D(12,11,15,59)       -133.4555         estimate D2E/DX2                !
 ! D66   D(12,11,15,60)        107.605          estimate D2E/DX2                !
 ! D67   D(52,11,15,14)        110.4866         estimate D2E/DX2                !
 ! D68   D(52,11,15,59)        -12.7213         estimate D2E/DX2                !
 ! D69   D(52,11,15,60)       -131.6609         estimate D2E/DX2                !
 ! D70   D(11,12,13,14)         35.52           estimate D2E/DX2                !
 ! D71   D(11,12,13,55)        -81.3946         estimate D2E/DX2                !
 ! D72   D(11,12,13,56)        157.4298         estimate D2E/DX2                !
 ! D73   D(53,12,13,14)        -82.629          estimate D2E/DX2                !
 ! D74   D(53,12,13,55)        160.4564         estimate D2E/DX2                !
 ! D75   D(53,12,13,56)         39.2808         estimate D2E/DX2                !
 ! D76   D(54,12,13,14)        156.2674         estimate D2E/DX2                !
 ! D77   D(54,12,13,55)         39.3528         estimate D2E/DX2                !
 ! D78   D(54,12,13,56)        -81.8228         estimate D2E/DX2                !
 ! D79   D(12,13,14,15)        -41.8073         estimate D2E/DX2                !
 ! D80   D(12,13,14,57)       -163.1595         estimate D2E/DX2                !
 ! D81   D(12,13,14,58)         75.6509         estimate D2E/DX2                !
 ! D82   D(55,13,14,15)         75.2078         estimate D2E/DX2                !
 ! D83   D(55,13,14,57)        -46.1444         estimate D2E/DX2                !
 ! D84   D(55,13,14,58)       -167.3339         estimate D2E/DX2                !
 ! D85   D(56,13,14,15)       -163.327          estimate D2E/DX2                !
 ! D86   D(56,13,14,57)         75.3208         estimate D2E/DX2                !
 ! D87   D(56,13,14,58)        -45.8688         estimate D2E/DX2                !
 ! D88   D(13,14,15,11)         32.1743         estimate D2E/DX2                !
 ! D89   D(13,14,15,59)        154.9471         estimate D2E/DX2                !
 ! D90   D(13,14,15,60)        -83.7079         estimate D2E/DX2                !
 ! D91   D(57,14,15,11)        153.9613         estimate D2E/DX2                !
 ! D92   D(57,14,15,59)        -83.2658         estimate D2E/DX2                !
 ! D93   D(57,14,15,60)         38.0791         estimate D2E/DX2                !
 ! D94   D(58,14,15,11)        -85.0501         estimate D2E/DX2                !
 ! D95   D(58,14,15,59)         37.7228         estimate D2E/DX2                !
 ! D96   D(58,14,15,60)        159.0677         estimate D2E/DX2                !
 ! D97   D(4,17,18,19)        -179.6638         estimate D2E/DX2                !
 ! D98   D(4,17,18,62)          -0.6082         estimate D2E/DX2                !
 ! D99   D(22,17,18,19)         -1.6481         estimate D2E/DX2                !
 ! D100  D(22,17,18,62)        177.4075         estimate D2E/DX2                !
 ! D101  D(4,17,22,21)         179.5437         estimate D2E/DX2                !
 ! D102  D(4,17,22,23)           0.7873         estimate D2E/DX2                !
 ! D103  D(18,17,22,21)          1.4596         estimate D2E/DX2                !
 ! D104  D(18,17,22,23)       -177.2967         estimate D2E/DX2                !
 ! D105  D(17,18,19,20)          0.6034         estimate D2E/DX2                !
 ! D106  D(17,18,19,63)        179.9166         estimate D2E/DX2                !
 ! D107  D(62,18,19,20)       -178.439          estimate D2E/DX2                !
 ! D108  D(62,18,19,63)          0.8741         estimate D2E/DX2                !
 ! D109  D(18,19,20,21)          0.6484         estimate D2E/DX2                !
 ! D110  D(18,19,20,64)        179.7161         estimate D2E/DX2                !
 ! D111  D(63,19,20,21)       -178.6691         estimate D2E/DX2                !
 ! D112  D(63,19,20,64)          0.3986         estimate D2E/DX2                !
 ! D113  D(19,20,21,22)         -0.8095         estimate D2E/DX2                !
 ! D114  D(19,20,21,65)        178.2149         estimate D2E/DX2                !
 ! D115  D(64,20,21,22)       -179.8723         estimate D2E/DX2                !
 ! D116  D(64,20,21,65)         -0.8479         estimate D2E/DX2                !
 ! D117  D(20,21,22,17)         -0.2587         estimate D2E/DX2                !
 ! D118  D(20,21,22,23)        178.4828         estimate D2E/DX2                !
 ! D119  D(65,21,22,17)       -179.2974         estimate D2E/DX2                !
 ! D120  D(65,21,22,23)         -0.5559         estimate D2E/DX2                !
 ! D121  D(17,22,23,2)           1.8711         estimate D2E/DX2                !
 ! D122  D(17,22,23,24)       -176.689          estimate D2E/DX2                !
 ! D123  D(21,22,23,2)        -176.8563         estimate D2E/DX2                !
 ! D124  D(21,22,23,24)          4.5836         estimate D2E/DX2                !
 ! D125  D(2,23,24,25)        -105.6233         estimate D2E/DX2                !
 ! D126  D(2,23,24,46)          72.5425         estimate D2E/DX2                !
 ! D127  D(22,23,24,25)         72.9345         estimate D2E/DX2                !
 ! D128  D(22,23,24,46)       -108.8997         estimate D2E/DX2                !
 ! D129  D(23,24,25,26)         -1.0698         estimate D2E/DX2                !
 ! D130  D(23,24,25,27)        178.9211         estimate D2E/DX2                !
 ! D131  D(46,24,25,26)       -179.2672         estimate D2E/DX2                !
 ! D132  D(46,24,25,27)          0.7236         estimate D2E/DX2                !
 ! D133  D(23,24,46,41)       -177.6421         estimate D2E/DX2                !
 ! D134  D(23,24,46,45)          2.8104         estimate D2E/DX2                !
 ! D135  D(25,24,46,41)          0.5222         estimate D2E/DX2                !
 ! D136  D(25,24,46,45)       -179.0252         estimate D2E/DX2                !
 ! D137  D(24,25,26,66)         -2.6341         estimate D2E/DX2                !
 ! D138  D(27,25,26,66)        177.3747         estimate D2E/DX2                !
 ! D139  D(24,25,27,28)         -0.3368         estimate D2E/DX2                !
 ! D140  D(24,25,27,67)        178.3371         estimate D2E/DX2                !
 ! D141  D(26,25,27,28)        179.6545         estimate D2E/DX2                !
 ! D142  D(26,25,27,67)         -1.6715         estimate D2E/DX2                !
 ! D143  D(25,27,28,29)        177.6938         estimate D2E/DX2                !
 ! D144  D(25,27,28,41)         -1.3018         estimate D2E/DX2                !
 ! D145  D(67,27,28,29)         -0.9411         estimate D2E/DX2                !
 ! D146  D(67,27,28,41)       -179.9367         estimate D2E/DX2                !
 ! D147  D(27,28,29,30)         54.5228         estimate D2E/DX2                !
 ! D148  D(27,28,29,40)       -123.9614         estimate D2E/DX2                !
 ! D149  D(41,28,29,30)       -126.5001         estimate D2E/DX2                !
 ! D150  D(41,28,29,40)         55.0156         estimate D2E/DX2                !
 ! D151  D(27,28,41,42)       -175.9558         estimate D2E/DX2                !
 ! D152  D(27,28,41,46)          2.5025         estimate D2E/DX2                !
 ! D153  D(29,28,41,42)          5.0749         estimate D2E/DX2                !
 ! D154  D(29,28,41,46)       -176.4667         estimate D2E/DX2                !
 ! D155  D(28,29,30,31)       -179.1658         estimate D2E/DX2                !
 ! D156  D(28,29,30,68)          1.8513         estimate D2E/DX2                !
 ! D157  D(40,29,30,31)         -0.6825         estimate D2E/DX2                !
 ! D158  D(40,29,30,68)       -179.6654         estimate D2E/DX2                !
 ! D159  D(28,29,40,33)        179.1801         estimate D2E/DX2                !
 ! D160  D(28,29,40,80)          0.1967         estimate D2E/DX2                !
 ! D161  D(30,29,40,33)          0.6864         estimate D2E/DX2                !
 ! D162  D(30,29,40,80)       -178.297          estimate D2E/DX2                !
 ! D163  D(29,30,31,32)          0.2314         estimate D2E/DX2                !
 ! D164  D(29,30,31,69)       -179.6523         estimate D2E/DX2                !
 ! D165  D(68,30,31,32)        179.2057         estimate D2E/DX2                !
 ! D166  D(68,30,31,69)         -0.6781         estimate D2E/DX2                !
 ! D167  D(30,31,32,33)          0.2228         estimate D2E/DX2                !
 ! D168  D(30,31,32,70)        179.9816         estimate D2E/DX2                !
 ! D169  D(69,31,32,33)       -179.8931         estimate D2E/DX2                !
 ! D170  D(69,31,32,70)         -0.1343         estimate D2E/DX2                !
 ! D171  D(31,32,33,34)        179.5745         estimate D2E/DX2                !
 ! D172  D(31,32,33,40)         -0.2205         estimate D2E/DX2                !
 ! D173  D(70,32,33,34)         -0.1913         estimate D2E/DX2                !
 ! D174  D(70,32,33,40)       -179.9864         estimate D2E/DX2                !
 ! D175  D(32,33,34,35)        177.6519         estimate D2E/DX2                !
 ! D176  D(40,33,34,35)         -2.567          estimate D2E/DX2                !
 ! D177  D(32,33,40,29)         -0.2342         estimate D2E/DX2                !
 ! D178  D(32,33,40,80)        178.7226         estimate D2E/DX2                !
 ! D179  D(34,33,40,29)        179.9917         estimate D2E/DX2                !
 ! D180  D(34,33,40,80)         -1.0515         estimate D2E/DX2                !
 ! D181  D(33,34,35,36)        173.5664         estimate D2E/DX2                !
 ! D182  D(33,34,35,39)        -70.9982         estimate D2E/DX2                !
 ! D183  D(33,34,35,71)         53.6232         estimate D2E/DX2                !
 ! D184  D(34,35,36,37)         98.5003         estimate D2E/DX2                !
 ! D185  D(34,35,36,72)        -23.2812         estimate D2E/DX2                !
 ! D186  D(34,35,36,73)       -143.2209         estimate D2E/DX2                !
 ! D187  D(39,35,36,37)        -21.2533         estimate D2E/DX2                !
 ! D188  D(39,35,36,72)       -143.0347         estimate D2E/DX2                !
 ! D189  D(39,35,36,73)         97.0255         estimate D2E/DX2                !
 ! D190  D(71,35,36,37)       -142.7012         estimate D2E/DX2                !
 ! D191  D(71,35,36,72)         95.5174         estimate D2E/DX2                !
 ! D192  D(71,35,36,73)        -24.4224         estimate D2E/DX2                !
 ! D193  D(34,35,39,38)       -120.3556         estimate D2E/DX2                !
 ! D194  D(34,35,39,78)        117.1855         estimate D2E/DX2                !
 ! D195  D(34,35,39,79)         -2.2761         estimate D2E/DX2                !
 ! D196  D(36,35,39,38)         -4.1246         estimate D2E/DX2                !
 ! D197  D(36,35,39,78)       -126.5834         estimate D2E/DX2                !
 ! D198  D(36,35,39,79)        113.955          estimate D2E/DX2                !
 ! D199  D(71,35,39,38)        116.6187         estimate D2E/DX2                !
 ! D200  D(71,35,39,78)         -5.8402         estimate D2E/DX2                !
 ! D201  D(71,35,39,79)       -125.3018         estimate D2E/DX2                !
 ! D202  D(35,36,37,38)         38.6045         estimate D2E/DX2                !
 ! D203  D(35,36,37,74)        -78.3538         estimate D2E/DX2                !
 ! D204  D(35,36,37,75)        160.2616         estimate D2E/DX2                !
 ! D205  D(72,36,37,38)        158.5548         estimate D2E/DX2                !
 ! D206  D(72,36,37,74)         41.5965         estimate D2E/DX2                !
 ! D207  D(72,36,37,75)        -79.7881         estimate D2E/DX2                !
 ! D208  D(73,36,37,38)        -79.3032         estimate D2E/DX2                !
 ! D209  D(73,36,37,74)        163.7384         estimate D2E/DX2                !
 ! D210  D(73,36,37,75)         42.3539         estimate D2E/DX2                !
 ! D211  D(36,37,38,39)        -41.0678         estimate D2E/DX2                !
 ! D212  D(36,37,38,76)         76.4575         estimate D2E/DX2                !
 ! D213  D(36,37,38,77)       -162.6152         estimate D2E/DX2                !
 ! D214  D(74,37,38,39)         75.7564         estimate D2E/DX2                !
 ! D215  D(74,37,38,76)       -166.7183         estimate D2E/DX2                !
 ! D216  D(74,37,38,77)        -45.791          estimate D2E/DX2                !
 ! D217  D(75,37,38,39)       -162.522          estimate D2E/DX2                !
 ! D218  D(75,37,38,76)        -44.9966         estimate D2E/DX2                !
 ! D219  D(75,37,38,77)         75.9307         estimate D2E/DX2                !
 ! D220  D(37,38,39,35)         27.9072         estimate D2E/DX2                !
 ! D221  D(37,38,39,78)        150.6596         estimate D2E/DX2                !
 ! D222  D(37,38,39,79)        -88.9654         estimate D2E/DX2                !
 ! D223  D(76,38,39,35)        -89.3955         estimate D2E/DX2                !
 ! D224  D(76,38,39,78)         33.3569         estimate D2E/DX2                !
 ! D225  D(76,38,39,79)        153.7319         estimate D2E/DX2                !
 ! D226  D(77,38,39,35)        149.9459         estimate D2E/DX2                !
 ! D227  D(77,38,39,78)        -87.3017         estimate D2E/DX2                !
 ! D228  D(77,38,39,79)         33.0733         estimate D2E/DX2                !
 ! D229  D(28,41,42,43)       -178.5149         estimate D2E/DX2                !
 ! D230  D(28,41,42,81)          2.2178         estimate D2E/DX2                !
 ! D231  D(46,41,42,43)          3.0193         estimate D2E/DX2                !
 ! D232  D(46,41,42,81)       -176.248          estimate D2E/DX2                !
 ! D233  D(28,41,46,24)         -2.12           estimate D2E/DX2                !
 ! D234  D(28,41,46,45)        177.4381         estimate D2E/DX2                !
 ! D235  D(42,41,46,24)        176.4004         estimate D2E/DX2                !
 ! D236  D(42,41,46,45)         -4.0414         estimate D2E/DX2                !
 ! D237  D(41,42,43,44)          0.0008         estimate D2E/DX2                !
 ! D238  D(41,42,43,82)        179.9553         estimate D2E/DX2                !
 ! D239  D(81,42,43,44)        179.2584         estimate D2E/DX2                !
 ! D240  D(81,42,43,82)         -0.7871         estimate D2E/DX2                !
 ! D241  D(42,43,44,45)         -2.0025         estimate D2E/DX2                !
 ! D242  D(42,43,44,83)        178.7008         estimate D2E/DX2                !
 ! D243  D(82,43,44,45)        178.0427         estimate D2E/DX2                !
 ! D244  D(82,43,44,83)         -1.254          estimate D2E/DX2                !
 ! D245  D(43,44,45,46)          0.8847         estimate D2E/DX2                !
 ! D246  D(43,44,45,84)       -179.3332         estimate D2E/DX2                !
 ! D247  D(83,44,45,46)       -179.8226         estimate D2E/DX2                !
 ! D248  D(83,44,45,84)         -0.0405         estimate D2E/DX2                !
 ! D249  D(44,45,46,24)       -178.2896         estimate D2E/DX2                !
 ! D250  D(44,45,46,41)          2.1578         estimate D2E/DX2                !
 ! D251  D(84,45,46,24)          1.9251         estimate D2E/DX2                !
 ! D252  D(84,45,46,41)       -177.6275         estimate D2E/DX2                !
 --------------------------------------------------------------------------------
 Trust Radius=3.00D-01 FncErr=1.00D-07 GrdErr=1.00D-06 EigMax=2.50D+02 EigMin=1.00D-04
 Number of steps in this run=    504 maximum allowed number of steps=    504.
 GradGradGradGradGradGradGradGradGradGradGradGradGradGradGradGradGradGrad

 Leave Link  103 at Sun Mar 23 18:49:14 2025, MaxMem= 13421772800 cpu:               0.7 elap:               0.0
 (Enter /public/software/apps/Gaussian/g16/l202.exe)
 Symmetry turned off by external request.
 Stoichiometry    C42H38O4
 Framework group  C1[X(C42H38O4)]
 Deg. of freedom   246
 Full point group                 C1      NOp   1
                          Input orientation:                          
 ---------------------------------------------------------------------
 Center     Atomic      Atomic             Coordinates (Angstroms)
 Number     Number       Type             X           Y           Z
 ---------------------------------------------------------------------
      1          8           0        1.284025   -0.610721   -2.196458
      2          6           0        1.678130    0.168851   -1.155985
      3          6           0        3.060557    0.318829   -0.957328
      4          6           0        3.558356    1.105806    0.049628
      5          6           0        5.017894    1.277368    0.164608
      6          6           0        5.590109    2.543796    0.141703
      7          6           0        6.966300    2.677098    0.216898
      8          6           0        7.773714    1.563897    0.317779
      9          6           0        7.212044    0.284825    0.333306
     10          8           0        8.095948   -0.741215    0.435538
     11          6           0        7.626241   -2.078402    0.447442
     12          6           0        7.154720   -2.555882   -0.942843
     13          6           0        8.306642   -3.400870   -1.483404
     14          6           0        8.846243   -4.087394   -0.233066
     15          6           0        8.825639   -2.973034    0.811794
     16          6           0        5.831436    0.151319    0.249479
     17          6           0        2.662603    1.745412    0.950206
     18          6           0        3.111244    2.482613    2.065408
     19          6           0        2.226477    3.081574    2.918643
     20          6           0        0.846757    2.961141    2.704050
     21          6           0        0.376425    2.233188    1.648064
     22          6           0        1.263346    1.604776    0.746216
     23          6           0        0.779055    0.821232   -0.333700
     24          6           0       -0.677078    0.718348   -0.611288
     25          6           0       -1.340973    1.800177   -1.158754
     26          8           0       -0.716647    2.973438   -1.437496
     27          6           0       -2.712384    1.719146   -1.450949
     28          6           0       -3.428698    0.574394   -1.211789
     29          6           0       -4.875732    0.568238   -1.491859
     30          6           0       -5.350649    0.925058   -2.747137
     31          6           0       -6.714004    0.931203   -2.990244
     32          6           0       -7.605015    0.590398   -1.994508
     33          6           0       -7.140988    0.238641   -0.724510
     34          8           0       -8.098689   -0.071323    0.187396
     35          6           0       -7.723480   -0.489054    1.489603
     36          6           0       -9.015311   -0.602181    2.313980
     37          6           0       -9.362194   -2.087743    2.287568
     38          6           0       -7.994503   -2.753356    2.401144
     39          6           0       -7.100965   -1.904385    1.493173
     40          6           0       -5.773658    0.232717   -0.481561
     41          6           0       -2.770822   -0.569886   -0.681670
     42          6           0       -3.429951   -1.802223   -0.490916
     43          6           0       -2.779269   -2.876732    0.048815
     44          6           0       -1.433239   -2.770178    0.425141
     45          6           0       -0.752403   -1.604374    0.217074
     46          6           0       -1.389211   -0.483043   -0.360140
     47          1           0        0.317753   -0.652853   -2.220778
     48          1           0        3.722746   -0.180903   -1.647189
     49          1           0        4.960825    3.415762    0.044310
     50          1           0        7.412591    3.660331    0.195818
     51          1           0        8.846471    1.653203    0.382891
     52          1           0        6.824315   -2.170611    1.191701
     53          1           0        6.257201   -3.167212   -0.838440
     54          1           0        6.924735   -1.709764   -1.589165
     55          1           0        9.074242   -2.753201   -1.908520
     56          1           0        7.981464   -4.104836   -2.247757
     57          1           0        9.843140   -4.501085   -0.374350
     58          1           0        8.175612   -4.895370    0.064806
     59          1           0        8.757816   -3.352309    1.829559
     60          1           0        9.724872   -2.361748    0.731429
     61          1           0        5.362039   -0.819895    0.259533
     62          1           0        4.172904    2.555383    2.246487
     63          1           0        2.586434    3.641548    3.768991
     64          1           0        0.156841    3.434525    3.386908
     65          1           0       -0.687231    2.115811    1.498286
     66          1           0        0.207856    2.922091   -1.156620
     67          1           0       -3.193822    2.597421   -1.851750
     68          1           0       -4.652845    1.179518   -3.530378
     69          1           0       -7.084645    1.203002   -3.967494
     70          1           0       -8.669214    0.591062   -2.169397
     71          1           0       -7.046364    0.257891    1.924832
     72          1           0       -9.793315    0.023477    1.881571
     73          1           0       -8.827814   -0.276758    3.337371
     74          1           0       -9.822401   -2.342518    1.332511
     75          1           0      -10.039369   -2.372926    3.090855
     76          1           0       -7.641652   -2.696122    3.432353
     77          1           0       -8.007464   -3.799843    2.100763
     78          1           0       -6.065029   -1.900814    1.830673
     79          1           0       -7.125894   -2.292307    0.473478
     80          1           0       -5.382670   -0.014001    0.492857
     81          1           0       -4.463005   -1.890158   -0.790992
     82          1           0       -3.299428   -3.812892    0.188594
     83          1           0       -0.934373   -3.618469    0.869978
     84          1           0        0.288203   -1.524236    0.496798
 ---------------------------------------------------------------------
 Rotational constants (GHZ):           0.1455315           0.0248590           0.0237054
 Leave Link  202 at Sun Mar 23 18:49:14 2025, MaxMem= 13421772800 cpu:               1.1 elap:               0.0
 (Enter /public/software/apps/Gaussian/g16/l301.exe)
 Standard basis: def2SVPP (5D, 7F)
 Ernie: Thresh=  0.10000D-02 Tol=  0.10000D-05 Strict=F.
   720 basis functions,  1302 primitive gaussians,   766 cartesian basis functions
   161 alpha electrons      161 beta electrons
       nuclear repulsion energy      5161.8762104801 Hartrees.
 IExCor=  402 DFT=T Ex+Corr=B3LYP ExCW=0 ScaHFX=  0.200000
 ScaDFX=  0.800000  0.720000  1.000000  0.810000 ScalE2=  1.000000  1.000000
 IRadAn=      5 IRanWt=     -1 IRanGd=            0 ICorTp=0 IEmpDi=141
 NAtoms=   84 NActive=   84 NUniq=   84 SFac= 1.00D+00 NAtFMM=   60 NAOKFM=T Big=T
 Integral buffers will be    131072 words long.
 Raffenetti 2 integral format.
 Two-electron integral symmetry is turned off.
 R6Disp:  Grimme-D3(BJ) Dispersion energy=       -0.2092636030 Hartrees.
 Nuclear repulsion after empirical dispersion term =     5161.6669468771 Hartrees.
 Leave Link  301 at Sun Mar 23 18:49:14 2025, MaxMem= 13421772800 cpu:               1.1 elap:               0.0
 (Enter /public/software/apps/Gaussian/g16/l302.exe)
 NPDir=0 NMtPBC=     1 NCelOv=     1 NCel=       1 NClECP=     1 NCelD=      1
         NCelK=      1 NCelE2=     1 NClLst=     1 CellRange=     0.0.
 One-electron integrals computed using PRISM.
   1 Symmetry operations used in ECPInt.
 ECPInt:  NShTT=   62128 NPrTT=  248872 LenC2=   42644 LenP2D=  104362.
 LDataN:  DoStor=T MaxTD1= 4 Len=   56
 NBasis=   720 RedAO= T EigKep=  1.59D-04  NBF=   720
 NBsUse=   720 1.00D-06 EigRej= -1.00D+00 NBFU=   720
 Precomputing XC quadrature grid using
 IXCGrd= 4 IRadAn=           5 IRanWt=          -1 IRanGd=           0 AccXCQ= 0.00D+00.
 Generated NRdTot=       0 NPtTot=           0 NUsed=           0 NTot=          32
 NSgBfM=   727   727   727   727   727 MxSgAt=    84 MxSgA2=    84.
 Leave Link  302 at Sun Mar 23 18:49:15 2025, MaxMem= 13421772800 cpu:              27.1 elap:               0.9
 (Enter /public/software/apps/Gaussian/g16/l303.exe)
 DipDrv:  MaxL=1.
 Leave Link  303 at Sun Mar 23 18:49:15 2025, MaxMem= 13421772800 cpu:               2.6 elap:               0.1
 (Enter /public/software/apps/Gaussian/g16/l401.exe)
 ExpMin= 1.22D-01 ExpMax= 2.27D+03 ExpMxC= 3.41D+02 IAcc=3 IRadAn=         5 AccDes= 0.00D+00
 Harris functional with IExCor=  402 and IRadAn=       5 diagonalized for initial guess.
 HarFok:  IExCor=  402 AccDes= 0.00D+00 IRadAn=         5 IDoV= 1 UseB2=F ITyADJ=14
 ICtDFT=  3500011 ScaDFX=  1.000000  1.000000  1.000000  1.000000
 FoFCou: FMM=F IPFlag=           0 FMFlag=      100000 FMFlg1=        2001
         NFxFlg=           0 DoJE=T BraDBF=F KetDBF=T FulRan=T
         wScrn=  0.000000 ICntrl=       500 IOpCl=  0 I1Cent=   200000004 NGrid=           0
         NMat0=    1 NMatS0=      1 NMatT0=    0 NMatD0=    1 NMtDS0=    0 NMtDT0=    0
 Symmetry not used in FoFCou.
 Harris En= -1922.98737730834    
 JPrj=0 DoOrth=F DoCkMO=F.
 Leave Link  401 at Sun Mar 23 18:49:17 2025, MaxMem= 13421772800 cpu:              55.8 elap:               1.8
 (Enter /public/software/apps/Gaussian/g16/l502.exe)
 Two-electron integral symmetry not used.
 Closed shell SCF:
 Using DIIS extrapolation, IDIIS=  1040.
 NGot= 13421772800 LenX= 13420566244 LenY= 13419978722
 Requested convergence on RMS density matrix=1.00D-08 within 128 cycles.
 Requested convergence on MAX density matrix=1.00D-06.
 Requested convergence on             energy=1.00D-06.
 No special actions if energy rises.
 Fock matrices will be formed incrementally for  20 cycles.
 Integral accuracy reduced to 1.0D-05 until final iterations.

 Cycle   1  Pass 0  IDiag  1:
 FoFJK:  IHMeth= 1 ICntrl=       0 DoSepK=F KAlg= 0 I1Cent=           0 FoldK=F
 IRaf= 780000000 NMat=       1 IRICut=       1 DoRegI=T DoRafI=F ISym2E= 0 IDoP0=0 IntGTp=1.
 FoFCou: FMM=T IPFlag=           0 FMFlag=      100000 FMFlg1=        2001
         NFxFlg=           0 DoJE=F BraDBF=F KetDBF=F FulRan=T
         wScrn=  0.000000 ICntrl=         0 IOpCl=  0 I1Cent=           0 NGrid=           0
         NMat0=    1 NMatS0=      1 NMatT0=    0 NMatD0=    1 NMtDS0=    0 NMtDT0=    0
 Symmetry not used in FoFCou.
 FMM levels:  10  Number of levels for PrismC:   9
 E= -1922.02987499430    
 DIIS: error= 3.07D-02 at cycle   1 NSaved=   1.
 NSaved= 1 IEnMin= 1 EnMin= -1922.02987499430     IErMin= 1 ErrMin= 3.07D-02
 ErrMax= 3.07D-02  0.00D+00 EMaxC= 1.00D-01 BMatC= 8.56D-01 BMatP= 8.56D-01
 IDIUse=3 WtCom= 6.93D-01 WtEn= 3.07D-01
 Coeff-Com:  0.100D+01
 Coeff-En:   0.100D+01
 Coeff:      0.100D+01
 Gap=     0.167 Goal=   None    Shift=    0.000
 GapD=    0.167 DampG=1.000 DampE=0.500 DampFc=0.5000 IDamp=-1.
 Damping current iteration by 5.00D-01
 RMSDP=4.45D-03 MaxDP=1.68D-01              OVMax= 1.76D-01

 Cycle   2  Pass 0  IDiag  1:
 RMSU=  2.02D-03    CP:  9.41D-01
 E= -1922.47256797905     Delta-E=       -0.442692984751 Rises=F Damp=T
 DIIS: error= 5.62D-03 at cycle   2 NSaved=   2.
 NSaved= 2 IEnMin= 2 EnMin= -1922.47256797905     IErMin= 2 ErrMin= 5.62D-03
 ErrMax= 5.62D-03  0.00D+00 EMaxC= 1.00D-01 BMatC= 4.75D-02 BMatP= 8.56D-01
 IDIUse=3 WtCom= 9.44D-01 WtEn= 5.62D-02
 Coeff-Com:  0.446D-01 0.955D+00
 Coeff-En:   0.583D-01 0.942D+00
 Coeff:      0.453D-01 0.955D+00
 Gap=     0.167 Goal=   None    Shift=    0.000
 RMSDP=1.62D-03 MaxDP=1.14D-01 DE=-4.43D-01 OVMax= 1.37D-01

 Cycle   3  Pass 0  IDiag  1:
 RMSU=  1.44D-03    CP:  8.99D-01  1.14D+00
 E= -1922.95086252030     Delta-E=       -0.478294541247 Rises=F Damp=F
 DIIS: error= 4.84D-03 at cycle   3 NSaved=   3.
 NSaved= 3 IEnMin= 3 EnMin= -1922.95086252030     IErMin= 3 ErrMin= 4.84D-03
 ErrMax= 4.84D-03  0.00D+00 EMaxC= 1.00D-01 BMatC= 4.56D-02 BMatP= 4.75D-02
 IDIUse=3 WtCom= 9.52D-01 WtEn= 4.84D-02
 Coeff-Com: -0.212D-01 0.500D+00 0.521D+00
 Coeff-En:   0.000D+00 0.000D+00 0.100D+01
 Coeff:     -0.202D-01 0.476D+00 0.544D+00
 Gap=     0.159 Goal=   None    Shift=    0.000
 RMSDP=6.78D-04 MaxDP=4.27D-02 DE=-4.78D-01 OVMax= 9.14D-02

 Cycle   4  Pass 0  IDiag  1:
 RMSU=  5.56D-04    CP:  9.01D-01  1.19D+00  7.43D-01
 E= -1922.98466912134     Delta-E=       -0.033806601045 Rises=F Damp=F
 DIIS: error= 3.42D-03 at cycle   4 NSaved=   4.
 NSaved= 4 IEnMin= 4 EnMin= -1922.98466912134     IErMin= 4 ErrMin= 3.42D-03
 ErrMax= 3.42D-03  0.00D+00 EMaxC= 1.00D-01 BMatC= 1.40D-02 BMatP= 4.56D-02
 IDIUse=3 WtCom= 9.66D-01 WtEn= 3.42D-02
 Coeff-Com: -0.179D-01 0.180D+00 0.368D+00 0.470D+00
 Coeff-En:   0.000D+00 0.000D+00 0.274D+00 0.726D+00
 Coeff:     -0.173D-01 0.174D+00 0.364D+00 0.479D+00
 Gap=     0.152 Goal=   None    Shift=    0.000
 RMSDP=3.30D-04 MaxDP=2.73D-02 DE=-3.38D-02 OVMax= 4.95D-02

 Cycle   5  Pass 0  IDiag  1:
 RMSU=  1.79D-04    CP:  8.99D-01  1.17D+00  8.15D-01  5.44D-01
 E= -1922.99908097119     Delta-E=       -0.014411849842 Rises=F Damp=F
 DIIS: error= 1.08D-03 at cycle   5 NSaved=   5.
 NSaved= 5 IEnMin= 5 EnMin= -1922.99908097119     IErMin= 5 ErrMin= 1.08D-03
 ErrMax= 1.08D-03  0.00D+00 EMaxC= 1.00D-01 BMatC= 1.55D-03 BMatP= 1.40D-02
 IDIUse=3 WtCom= 9.89D-01 WtEn= 1.08D-02
 Coeff-Com: -0.851D-02 0.480D-01 0.164D+00 0.308D+00 0.488D+00
 Coeff-En:   0.000D+00 0.000D+00 0.000D+00 0.751D-01 0.925D+00
 Coeff:     -0.842D-02 0.475D-01 0.162D+00 0.306D+00 0.493D+00
 Gap=     0.152 Goal=   None    Shift=    0.000
 RMSDP=1.08D-04 MaxDP=4.93D-03 DE=-1.44D-02 OVMax= 1.71D-02

 Cycle   6  Pass 0  IDiag  1:
 RMSU=  7.87D-05    CP:  8.99D-01  1.18D+00  8.11D-01  5.95D-01  6.32D-01
 E= -1923.00062104713     Delta-E=       -0.001540075948 Rises=F Damp=F
 DIIS: error= 3.45D-04 at cycle   6 NSaved=   6.
 NSaved= 6 IEnMin= 6 EnMin= -1923.00062104713     IErMin= 6 ErrMin= 3.45D-04
 ErrMax= 3.45D-04  0.00D+00 EMaxC= 1.00D-01 BMatC= 2.02D-04 BMatP= 1.55D-03
 IDIUse=3 WtCom= 9.97D-01 WtEn= 3.45D-03
 Coeff-Com: -0.318D-02 0.866D-02 0.558D-01 0.132D+00 0.317D+00 0.490D+00
 Coeff-En:   0.000D+00 0.000D+00 0.000D+00 0.000D+00 0.105D+00 0.895D+00
 Coeff:     -0.317D-02 0.863D-02 0.556D-01 0.131D+00 0.316D+00 0.492D+00
 Gap=     0.151 Goal=   None    Shift=    0.000
 RMSDP=3.87D-05 MaxDP=1.37D-03 DE=-1.54D-03 OVMax= 5.34D-03

 Cycle   7  Pass 0  IDiag  1:
 RMSU=  2.81D-05    CP:  8.99D-01  1.18D+00  8.12D-01  5.96D-01  7.05D-01
                    CP:  7.08D-01
 E= -1923.00087614307     Delta-E=       -0.000255095934 Rises=F Damp=F
 DIIS: error= 7.67D-05 at cycle   7 NSaved=   7.
 NSaved= 7 IEnMin= 7 EnMin= -1923.00087614307     IErMin= 7 ErrMin= 7.67D-05
 ErrMax= 7.67D-05  0.00D+00 EMaxC= 1.00D-01 BMatC= 1.76D-05 BMatP= 2.02D-04
 IDIUse=1 WtCom= 1.00D+00 WtEn= 0.00D+00
 Coeff-Com: -0.102D-02 0.285D-03 0.158D-01 0.451D-01 0.136D+00 0.294D+00
 Coeff-Com:  0.509D+00
 Coeff:     -0.102D-02 0.285D-03 0.158D-01 0.451D-01 0.136D+00 0.294D+00
 Coeff:      0.509D+00
 Gap=     0.151 Goal=   None    Shift=    0.000
 RMSDP=1.57D-05 MaxDP=6.04D-04 DE=-2.55D-04 OVMax= 1.00D-03

 Cycle   8  Pass 0  IDiag  1:
 RMSU=  1.48D-05    CP:  8.99D-01  1.18D+00  8.13D-01  5.96D-01  6.86D-01
                    CP:  7.50D-01  1.02D+00
 E= -1923.00091407613     Delta-E=       -0.000037933061 Rises=F Damp=F
 DIIS: error= 1.81D-05 at cycle   8 NSaved=   8.
 NSaved= 8 IEnMin= 8 EnMin= -1923.00091407613     IErMin= 8 ErrMin= 1.81D-05
 ErrMax= 1.81D-05  0.00D+00 EMaxC= 1.00D-01 BMatC= 6.82D-07 BMatP= 1.76D-05
 IDIUse=1 WtCom= 1.00D+00 WtEn= 0.00D+00
 Coeff-Com: -0.340D-03-0.315D-03 0.506D-02 0.157D-01 0.522D-01 0.123D+00
 Coeff-Com:  0.251D+00 0.554D+00
 Coeff:     -0.340D-03-0.315D-03 0.506D-02 0.157D-01 0.522D-01 0.123D+00
 Coeff:      0.251D+00 0.554D+00
 Gap=     0.151 Goal=   None    Shift=    0.000
 RMSDP=1.31D-05 MaxDP=5.32D-04 DE=-3.79D-05 OVMax= 2.18D-04

 Cycle   9  Pass 0  IDiag  1:
 RMSU=  9.52D-06    CP:  8.99D-01  1.18D+00  8.13D-01  5.97D-01  6.87D-01
                    CP:  7.66D-01  1.21D+00  1.49D+00
 E= -1923.00092054011     Delta-E=       -0.000006463984 Rises=F Damp=F
 DIIS: error= 2.63D-05 at cycle   9 NSaved=   9.
 NSaved= 9 IEnMin= 9 EnMin= -1923.00092054011     IErMin= 8 ErrMin= 1.81D-05
 ErrMax= 2.63D-05  0.00D+00 EMaxC= 1.00D-01 BMatC= 3.52D-07 BMatP= 6.82D-07
 IDIUse=1 WtCom= 1.00D+00 WtEn= 0.00D+00
 Coeff-Com: -0.154D-03-0.264D-03 0.231D-02 0.738D-02 0.259D-01 0.628D-01
 Coeff-Com:  0.136D+00 0.400D+00 0.367D+00
 Coeff:     -0.154D-03-0.264D-03 0.231D-02 0.738D-02 0.259D-01 0.628D-01
 Coeff:      0.136D+00 0.400D+00 0.367D+00
 Gap=     0.151 Goal=   None    Shift=    0.000
 RMSDP=1.20D-05 MaxDP=5.76D-04 DE=-6.46D-06 OVMax= 6.65D-05

 Cycle  10  Pass 0  IDiag  1:
 RMSU=  5.68D-06    CP:  8.99D-01  1.18D+00  8.13D-01  5.96D-01  6.88D-01
                    CP:  7.83D-01  1.34D+00  1.96D+00  1.74D+00
 E= -1923.00092365561     Delta-E=       -0.000003115493 Rises=F Damp=F
 DIIS: error= 3.42D-05 at cycle  10 NSaved=  10.
 NSaved=10 IEnMin=10 EnMin= -1923.00092365561     IErMin= 8 ErrMin= 1.81D-05
 ErrMax= 3.42D-05  0.00D+00 EMaxC= 1.00D-01 BMatC= 3.77D-07 BMatP= 3.52D-07
 IDIUse=1 WtCom= 1.00D+00 WtEn= 0.00D+00
 Coeff-Com: -0.138D-03-0.356D-03 0.209D-02 0.696D-02 0.255D-01 0.634D-01
 Coeff-Com:  0.143D+00 0.503D+00 0.682D+00-0.425D+00
 Coeff:     -0.138D-03-0.356D-03 0.209D-02 0.696D-02 0.255D-01 0.634D-01
 Coeff:      0.143D+00 0.503D+00 0.682D+00-0.425D+00
 Gap=     0.151 Goal=   None    Shift=    0.000
 RMSDP=1.09D-05 MaxDP=3.35D-04 DE=-3.12D-06 OVMax= 2.37D-05

 Cycle  11  Pass 0  IDiag  1:
 RMSU=  5.87D-06    CP:  8.99D-01  1.18D+00  8.13D-01  5.96D-01  6.89D-01
                    CP:  7.79D-01  1.26D+00  1.61D+00  1.16D+00  1.60D-01
 E= -1923.00092619691     Delta-E=       -0.000002541299 Rises=F Damp=F
 DIIS: error= 3.01D-05 at cycle  11 NSaved=  11.
 NSaved=11 IEnMin=11 EnMin= -1923.00092619691     IErMin= 8 ErrMin= 1.81D-05
 ErrMax= 3.01D-05  0.00D+00 EMaxC= 1.00D-01 BMatC= 2.75D-07 BMatP= 3.52D-07
 IDIUse=1 WtCom= 1.00D+00 WtEn= 0.00D+00
 Coeff-Com: -0.107D-03-0.310D-03 0.162D-02 0.543D-02 0.204D-01 0.514D-01
 Coeff-Com:  0.118D+00 0.442D+00 0.662D+00-0.720D+00 0.420D+00
 Coeff:     -0.107D-03-0.310D-03 0.162D-02 0.543D-02 0.204D-01 0.514D-01
 Coeff:      0.118D+00 0.442D+00 0.662D+00-0.720D+00 0.420D+00
 Gap=     0.151 Goal=   None    Shift=    0.000
 RMSDP=7.51D-06 MaxDP=2.40D-04 DE=-2.54D-06 OVMax= 1.73D-05

 Initial convergence to 1.0D-05 achieved.  Increase integral accuracy.
 Cycle  12  Pass 1  IDiag  1:
[...]
 0000451,-0.00000334,-0.00000283,0.00014602,0.00003442,-0.00006192,-0.0
 0007057,-0.00003657,0.00011126,-0.00000558,0.00001900,-0.00005779,0.00
 000177,0.00000110,-0.00000543,-0.00000707,-0.00000050,0.00000564,0.000
 00752,0.00001283,-0.00000391,-0.00001143,-0.00001047,-0.00002003,-0.00
 004610,0.00008487,-0.00001496,-0.00032097,-0.00083601,0.00034608,-0.00
 479598,-0.00235082,-0.00230716,-0.00851902,0.02496366,-0.01293146,-0.1
 1871619,0.09881014,-0.06143757,0.01108730,-0.01361154,0.00726626,-0.00
 086454,-0.00371951,-0.00124443,0.00000795,-0.00002312,0.00000195,-0.00
 000332,-0.00000411,0.00000469,-0.00000053,0.00000024,0.00000015,0.0000
 0068,0.00000124,-0.00000020,0.00000108,0.00000026,-0.00000014,0.000001
 16,-0.00000145,-0.00000476,-0.00000103,0.00000488,0.00000013,-0.000000
 65,-0.00000214,0.00000207,0.00000190,0.00000021,0.00000010,0.00000022,
 -0.00000100,-0.00000095,0.00000224,-0.00000006,-0.00000005,-0.00000077
 ,-0.00000100,-0.00000024,-0.00000116,0.00000001,-0.00000074,0.00000132
 ,0.00000061,-0.00000031,-0.00000382,0.00000042,0.00000126,0.00000055,-
 0.00000099,0.00000014,0.00000091,0.00000126,0.00000111,-0.00000120,0.0
 0000219,0.00000105,-0.00000043,0.00000183,-0.00000485,0.00000177,0.000
 00173,-0.00000565,0.00000903,0.00000240,-0.00001922,0.00000280,-0.0000
 0221,-0.00000353,-0.00000275,0.00000171,-0.00000322,-0.00000443,-0.000
 00011,-0.00000356,0.00000386,-0.00000356,0.00000318,-0.00000084,-0.000
 00267,-0.00000080,-0.00000231,-0.00000129,0.00000619,0.00000592,0.0000
 0048,0.00000117,-0.00000470,-0.00000197,0.00000177,-0.00000905,-0.0000
 0266,0.00001531,-0.00000524,-0.00000467,-0.00000573,0.00000941,0.00000
 442,-0.00001582,0.00002210,0.00001400,0.00001938,0.00001230,-0.0000294
 8,-0.00003397,-0.00044706,0.00109130,-0.00053275,0.00103916,-0.0000600
 4,0.00129542,0.12048400,-0.00005918,0.00006590,0.00003046,0.00002243,-
 0.00003725,-0.00007899,-0.00000080,0.00001568,0.00000009,-0.00000746,-
 0.00001267,-0.00001978,0.00002242,-0.00000478,0.00000246,-0.00001237,0
 .00000579,-0.00000038,0.00000468,-0.00000079,-0.00000224,-0.00000520,0
 .00000925,-0.00000143,0.00002280,-0.00003108,0.00000898,-0.00001293,0.
 00005372,-0.00000966,-0.00002122,-0.00003064,0.00000973,0.00000257,-0.
 00000676,0.00000297,-0.00000050,0.00000123,-0.00000051,-0.00000018,-0.
 00000029,0.00000007,-0.00000163,-0.00000023,0.00000044,-0.00002326,-0.
 00001155,-0.00000727,-0.00002743,0.00000765,-0.00000683,-0.00000611,-0
 .00000078,-0.00000826,-0.00001458,0.00000116,-0.00000758,0.00001043,0.
 00001147,0.00000291,0.00002480,-0.00000332,-0.00002921,-0.00002642,0.0
 0003691,0.00009352,0.00007486,0.00005996,0.00005971,0.00108925,-0.0003
 9966,0.00046983,-0.00008074,-0.00022145,-0.00018743,-0.00009244,-0.000
 34240,0.00008782,-0.00021606,-0.00004460,0.00001631,0.00008598,0.00019
 015,-0.00033420,-0.00002930,-0.00003825,0.00000251,0.00004628,0.000012
 80,-0.00000995,-0.00001437,-0.00000284,0.00000313,0.00001930,0.0000053
 0,-0.00001475,-0.00006153,-0.00000913,0.00006126,0.00005155,0.00002511
 ,-0.00008285,0.00000533,-0.00001466,0.00004695,0.00000025,0.00000024,0
 .00000436,0.00000171,-0.00000092,-0.00000270,-0.00000254,-0.00000331,0
 .00000648,0.00000663,0.00000123,0.00000250,0.00001970,-0.00001529,0.00
 002564,-0.00056271,-0.00009883,-0.00035154,-0.00119439,0.00178524,0.00
 106762,-0.00324033,0.00549614,-0.00168684,0.09811737,-0.22109751,0.098
 31911,0.01452583,-0.01579778,0.01194044,-0.00442153,-0.00163666,0.0027
 6932,0.00009761,-0.00003205,-0.00007729,-0.00001372,-0.00000509,0.0000
 0798,0.00000165,0.00000421,0.00000039,-0.00000100,0.00000014,0.0000003
 4,-0.00000076,0.00000019,0.00000050,0.00000477,-0.00000066,-0.00000499
 ,0.,0.00000768,0.00000183,-0.00000161,-0.00000110,-0.00000113,0.000003
 21,0.00000123,-0.00000093,-0.00000014,-0.00000093,-0.00000076,0.000001
 57,0.00000010,-0.00000053,-0.00000079,0.00000098,0.00000001,-0.0000011
 7,0.00000359,-0.00000187,0.00000110,-0.00000028,0.00000039,0.00000035,
 -0.00000142,0.00000532,-0.00000413,-0.00000511,-0.00000272,-0.00000338
 ,-0.00000547,-0.00000122,0.00000190,-0.00000760,0.00000017,-0.00000651
 ,0.00000374,0.00001997,0.00007104,0.00001679,0.00002406,-0.00000215,-0
 .00000361,0.00002931,-0.00000514,-0.00000138,-0.00000556,0.00000604,-0
 .00000209,0.00000392,0.00000361,0.00000018,0.00000065,-0.00000369,0.00
 000097,-0.00000163,-0.00000012,0.00000054,0.00000123,0.00000144,0.0000
 0134,-0.00000538,-0.00000338,-0.00000121,-0.00000090,0.00000319,0.0000
 0189,-0.00000156,0.00000327,0.00000228,-0.00000690,0.00000013,0.000000
 88,0.00000038,-0.00000407,0.00000251,0.00000848,-0.00000596,-0.0000046
 0,-0.00001008,-0.00001805,0.00000696,0.00000363,-0.00020936,0.00013337
 ,-0.00005964,0.00084927,0.00022220,-0.00098783,-0.10523042,0.23125601,
 -0.00007876,-0.00020218,-0.00007403,0.00007736,0.00021819,0.00009053,-
 0.00007690,-0.00002963,-0.00000643,0.00000247,0.00003604,0.00005606,-0
 .00001864,0.00000020,-0.00000465,0.00001221,-0.00000514,-0.00000271,-0
 .00000608,0.00000140,0.00000105,0.00000535,-0.00001047,-0.00000019,-0.
 00002551,0.00003452,-0.00000573,0.00001568,-0.00005369,-0.00000004,0.0
 0000960,0.00003173,0.00000923,0.00000196,0.00000807,-0.00000546,0.0000
 0049,-0.00000184,0.00000019,0.00000081,0.00000202,0.00000178,-0.000000
 60,-0.00000070,-0.00000192,0.00001959,0.00000642,-0.00000157,0.0000368
 7,-0.00001716,-0.00002962,0.00000348,0.00002271,0.00001853,0.00002618,
 -0.00001011,-0.00001410,-0.00002286,-0.00001240,-0.00001893,-0.0000180
 1,0.00002206,0.00001915,0.00003957,-0.00007051,-0.00003051,-0.00000561
 ,0.00008692,0.00022766,-0.00033003,0.00013948,0.00002522,0.00023482,-0
 .00028876,-0.00052466,0.00005227,0.00008706,-0.00007202,-0.00004815,0.
 00003493,0.00011249,0.00014113,-0.00015747,-0.00063782,0.00002303,-0.0
 0004255,0.00002795,-0.00000797,0.00000461,-0.00000903,-0.00000029,0.00
 000073,-0.00000245,-0.00000576,-0.00000226,-0.00000254,0.00004761,0.00
 001870,-0.00001094,-0.00003022,-0.00000557,0.00002002,0.00000714,-0.00
 000170,-0.00000872,0.00000118,0.00000103,-0.00000099,-0.00000216,-0.00
 000286,0.00000263,0.00000257,0.00000961,0.00000127,0.00000672,0.000000
 15,0.00000693,-0.00006111,0.00003046,0.00001258,0.00021617,-0.00062363
 ,-0.00032112,-0.00272332,0.00079318,0.00433225,-0.00203088,0.00656630,
 0.00051430,-0.06151348,0.09820258,-0.09405389,-0.00337337,0.00420029,0
 .00168880,-0.00078086,0.00277230,0.00736056,-0.00001020,0.00009176,0.0
 0000807,0.00000967,0.00000501,-0.00000681,-0.00000146,-0.00000329,0.00
 000160,0.00000101,0.00000026,0.00000063,0.00000091,0.00000029,0.000000
 77,-0.00000094,-0.00000056,0.00000081,0.00000006,-0.00000920,0.0000014
 3,0.00000173,0.00000391,0.00000167,-0.00000367,-0.00000099,0.00000132,
 0.00000193,-0.00000069,-0.00000272,-0.00000116,-0.00000053,-0.00000075
 ,0.00000111,-0.00000257,-0.00000058,0.00000149,-0.00000089,0.00000140,
 -0.00000239,-0.00000040,-0.00000114,-0.00000245,0.00000282,0.00000351,
 0.00000059,0.00000277,0.00000279,0.00000153,0.00000023,0.00000134,-0.0
 0000057,-0.00000421,0.00000041,0.00000192,-0.00001137,-0.00000661,-0.0
 0002447,0.00000255,0.00001074,-0.00001062,0.00002897,0.00005139,0.0000
 0037,-0.00000122,0.00000027,-0.00000197,0.00000078,-0.00000365,-0.0000
 0287,-0.00000002,-0.00000120,-0.00000013,-0.00000451,0.00000088,-0.000
 00191,0.00000031,-0.00000069,-0.00000006,-0.00000146,0.00000014,0.0000
 0023,0.00000169,-0.00000200,-0.00000366,-0.00000043,0.00000225,-0.0000
 0071,-0.00000102,0.00000060,-0.00000215,-0.00000360,-0.00000151,-0.000
 00209,-0.00000158,-0.00000963,0.00000603,0.00000500,0.00000438,-0.0000
 0689,-0.00000750,-0.00002459,-0.00007485,0.00031376,-0.00002304,0.0009
 5334,-0.00116104,-0.00232193,0.06792096,-0.10914527,0.08756969,-0.0001
 8093,-0.00051563,-0.00020348,-0.00030064,-0.00110221,0.00149867,0.0001
 6706,0.00014935,-0.00001119,-0.00006699,-0.00005621,-0.00014904,0.0000
 2663,-0.00000434,0.00000985,-0.00001141,0.00000295,0.00000100,0.000002
 98,0.00000105,-0.00000161,-0.00000299,0.00000111,0.00000093,0.00000888
 ,-0.00000391,0.00000353,-0.00000681,0.00001484,-0.00000182,-0.00000371
 ,-0.00000862,0.00000112,0.00000157,-0.00000008,-0.00000003,0.00000032,
 0.00000003,-0.00000003,0.00000049,-0.00000028,-0.00000041,0.00000057,0
 .00000087,-0.00000081,-0.00001671,-0.00001192,-0.00000228,-0.00003170,
 0.00009347,0.00003351,-0.00000189,-0.00002418,-0.00001353,-0.00002655,
 0.00002134,0.00001772,0.00004434,0.00001026,0.00002929,0.00000608,0.00
 005608,-0.00002529,0.00018947,-0.00005701,0.00036047,-0.00013560,-0.00
 121932,0.00048981,-0.00079421,-0.00109591,0.00113030,-0.00036351,0.000
 14332,-0.00000703,0.00019535,0.00003704,-0.00004036,0.00019119,0.00007
 616,0.00001143,-0.00057782,-0.00049374,0.00006699,0.00008157,0.0001487
 3,-0.00009653,-0.00009058,-0.00000392,0.00001165,0.00002419,-0.0000062
 9,-0.00002431,-0.00001572,-0.00000796,0.00002527,0.00004410,0.00001043
 ,-0.00006317,-0.00005128,-0.00002092,0.00007489,-0.00000410,0.00000580
 ,-0.00004222,-0.00000069,0.00000117,-0.00000397,-0.00000083,-0.0000005
 0,0.00000255,0.00000316,0.00000484,-0.00000423,-0.00000305,0.00000051,
 -0.00000118,-0.00001156,0.00000347,-0.00000135,0.00114445,0.00185307,-
 0.00207908,0.00074758,0.00017131,0.00035871,0.00114029,-0.00342255,-0.
 00061622,-0.01022171,0.00106805,-0.00467998,-0.31744211,-0.02074370,-0
 .07366051,-0.01044540,-0.00147981,-0.00343055,-0.00019886,0.00019738,-
 0.00019016,0.00000959,0.00001488,-0.00001049,0.00000196,0.00000319,-0.
 00000096,-0.00000135,-0.00000073,-0.00000058,-0.00000039,0.00000078,-0
 .00000061,0.,0.00000078,-0.00000130,-0.00000009,0.00000123,0.00000072,
 -0.00000036,-0.00000040,-0.00000009,0.00000037,-0.00000024,-0.00000046
 ,0.00000027,0.00000041,0.00000034,-0.00000059,-0.00000019,0.00000002,0
 .00000021,0.00000034,0.00000012,-0.00000016,0.00000010,0.00000013,0.00
 000053,-0.00000031,0.00000024,-0.00000207,0.00000164,0.00000070,-0.000
 00036,-0.00000055,0.00000033,-0.00000238,0.00000178,-0.00000269,-0.000
 00192,0.00000062,-0.00000147,-0.00002089,0.00002624,-0.00002628,-0.000
 06188,0.00004585,-0.00002396,0.00000590,0.00001667,-0.00001492,0.00000
 470,0.00000473,0.00000503,-0.00000964,0.00000211,-0.00000501,-0.000004
 26,0.00000230,0.00000061,0.00000307,-0.00000033,0.00000222,-0.00000103
 ,0.00000025,-0.00000139,-0.00000105,-0.00000201,0.00000490,0.00000261,
 0.00000189,0.00000018,-0.00000384,-0.00000136,0.00000211,-0.00000236,-
 0.00000244,0.00000496,0.00000051,-0.00000042,-0.00000030,0.00000185,-0
 .00000468,-0.00000727,0.00000646,0.00000428,0.00000990,0.00000787,0.00
 000979,-0.00000658,-0.00015559,0.00006336,0.00022242,-0.00049409,0.000
 09462,-0.00026726,0.00052935,0.00044651,0.00142866,0.33717618,-0.00036
 697,-0.00069621,-0.00074132,-0.00075487,0.00011085,0.00175610,-0.00017
 903,0.00002824,-0.00007761,-0.00003326,0.00009217,0.00020377,-0.000087
 27,0.00000813,-0.00001702,0.00006872,-0.00002619,-0.00000838,-0.000027
 00,0.00000655,0.00000789,0.00002800,-0.00003763,0.00000240,-0.00009434
 ,0.00012549,-0.00002964,0.00006963,-0.00018565,0.00002010,0.00003905,0
 .00010483,-0.00000412,-0.00000388,0.00001416,-0.00000954,-0.00000189,-
 0.00000229,0.00000275,0.00000202,0.00000310,0.00000271,0.00000118,-0.0
 0000027,-0.00000328,0.00008244,0.00003829,0.00001459,0.00016718,-0.000
 11027,-0.00014000,-0.00004804,0.00004399,0.00007054,0.00011812,-0.0000
 1355,-0.00000791,-0.00014882,-0.00004210,-0.00009129,0.00004888,0.0001
 8990,0.00011240,-0.00032864,-0.00053308,-0.00041823,0.00006739,-0.0006
 7784,0.00023545,0.00047347,0.00008812,-0.00065869,0.00014835,0.0002536
 0,-0.00024639,-0.00021484,-0.00003724,0.00006764,0.00009549,0.00002303
 ,-0.00004500,0.00127205,0.00036308,0.00004348,-0.00006120,-0.00028199,
 0.00022740,0.00012259,0.00001149,-0.00001005,-0.00002106,0.00001381,0.
 00003886,0.00001549,0.00000771,-0.00002388,-0.00003490,-0.00001078,0.0
 0006178,0.00004072,0.00002336,-0.00006588,0.00000470,-0.00001957,0.000
 03785,-0.00000256,0.00000350,-0.00000041,0.00000274,-0.00000107,0.0000
 0035,-0.00000204,-0.00000061,-0.00000184,0.00000284,0.00000809,-0.0000
 0015,-0.00000238,0.00001607,-0.00001606,0.00029728,-0.00319231,0.00331
 015,0.00016047,-0.00074528,0.00007857,-0.00216805,-0.00308328,0.003665
 61,-0.02704431,0.00201853,-0.00691198,-0.02138132,-0.05594124,0.001687
 88,0.02398223,0.00565497,0.00575314,0.00019973,0.00007284,0.00005196,0
 .00004303,0.00000369,-0.00002724,-0.00000850,-0.00001412,0.00000400,0.
 00000821,0.00000433,0.00000089,0.00000549,-0.00000034,0.00000044,-0.00
 000794,-0.00000184,0.00000411,-0.00000039,-0.00002013,-0.00000374,0.00
 000481,0.00000440,0.00000833,-0.00000766,-0.00000183,0.00000455,0.0000
 0227,-0.00000193,-0.00000327,0.00000026,-0.00000056,0.00000001,0.00000
 133,-0.00000597,-0.00000152,0.00000287,-0.00000823,0.00000359,-0.00000
 374,0.00000153,-0.00000268,-0.00000881,0.00001167,-0.00000135,0.000009
 49,0.00000864,0.00001089,0.00000549,0.00000797,0.00001150,-0.00000591,
 0.00000467,0.00001651,-0.00000105,-0.00000579,0.00003507,0.00009269,-0
 .00007649,0.00003531,-0.00003245,-0.00001615,0.00001677,-0.00000501,-0
 .00000761,-0.00000286,0.00001253,-0.00000238,0.00000498,0.00000363,-0.
 00000333,-0.00000058,-0.00000291,0.00000361,-0.00000221,-0.00000065,0.
 00000085,0.00000196,0.00000117,0.00000140,-0.00000278,-0.00000176,-0.0
 0000096,-0.00000052,0.00000024,0.00000172,-0.00000077,0.00000125,0.000
 00075,-0.00000163,0.00000247,0.00000200,0.00000061,-0.00000234,-0.0000
 0314,-0.00000546,0.00000314,-0.00000774,0.00000147,-0.00000685,-0.0000
 1925,0.00000440,0.00010879,-0.00003378,-0.00036758,-0.00115582,-0.0000
 1654,-0.00025441,0.00096284,0.00048331,-0.00189083,0.02547572,0.056022
 10,-0.00022825,-0.00091945,-0.00045367,0.00075917,0.00140166,0.0004293
 9,0.00017005,0.00002602,-0.00007966,0.00001284,-0.00009733,-0.00004882
 ,0.00005093,-0.00001759,-0.00001182,-0.00004113,0.00001054,0.00000228,
 0.00001113,-0.00000504,-0.00000492,-0.00001693,0.00001338,-0.00000180,
 0.00004415,-0.00005230,0.00001391,-0.00003672,0.00006735,-0.00001729,-
 0.00001267,-0.00003397,0.00001875,0.00000611,-0.00000044,0.00000104,0.
 00000343,-0.00000266,-0.00000568,-0.00000221,-0.00000091,0.00000079,-0
 .00000216,-0.00000210,-0.00000048,-0.00003699,-0.00000911,-0.00001451,
 -0.00022154,0.00003183,-0.00002284,0.00006721,0.00000235,-0.00000727,-
 0.00006078,-0.00003594,-0.00005272,0.00007157,0.00003221,-0.00001158,-
 0.00003446,-0.00009797,-0.00016416,0.00017204,0.00001364,0.00042167,0.
 00015501,0.00034799,-0.00038269,0.00021544,-0.00107541,-0.00198275,0.0
 0020367,-0.00049285,-0.00016068,0.00011582,0.00022376,0.00016860,-0.00
 007741,-0.00009914,-0.00012678,-0.00062374,-0.00023169,-0.00003692,-0.
 00004906,0.00023539,0.00016028,-0.00001639,0.00000808,0.00001563,-0.00
 000487,-0.00001938,0.00000765,-0.00002316,0.00001011,-0.00001044,0.000
 05230,-0.00000281,-0.00001751,-0.00003419,-0.00001002,0.00003522,0.000
 00194,0.00000812,-0.00002176,0.00000237,-0.00000176,0.00000053,-0.0000
 0168,-0.00000017,0.00000070,0.00000290,0.00000317,0.00000072,0.0000049
 5,0.00000121,0.00000530,-0.00005610,-0.00000340,-0.00008877,-0.0016649
 4,0.00339690,0.00322838,0.00032383,0.00060717,-0.00074545,-0.00082339,
 0.00324087,0.00646296,0.00592599,0.00085626,0.00566581,-0.07342146,0.0
 0240777,-0.05910186,-0.01220454,-0.00250244,0.00059668,-0.00032088,0.0
 0040941,-0.00052558,0.00002544,0.00002419,-0.00000450,0.00000484,0.000
 00537,0.00000051,-0.00000578,-0.00000362,0.00000049,-0.00000359,0.0000
 0025,0.00000128,0.00000515,0.00000175,0.00000113,0.00000223,-0.0000019
 5,0.00000474,0.00000093,0.00000614,-0.00000677,-0.00000047,0.00000036,
 -0.00000139,0.00000064,0.00000083,-0.00000022,-0.00000305,0.00000023,-
 0.00000149,0.00000068,0.00000229,0.00000019,0.00000022,0.00000535,-0.0
 0000094,-0.00000162,-0.00000149,0.00000053,0.00000871,-0.00000477,0.00
 001440,-0.00000752,-0.00000427,-0.00000055,0.00000182,-0.00000988,-0.0
 0000238,0.00000594,-0.00001569,-0.00000676,0.00002779,-0.00003355,-0.0
 0000577,-0.00008615,0.00006387,-0.00005102,-0.00000242,0.00002407,0.00
 003136,0.00000561,0.00001093,0.00000168,-0.00000449,-0.00000442,-0.000
 00633,-0.00000223,-0.00000224,-0.00000107,0.00000155,-0.00000415,0.000
 00069,-0.00000037,-0.00000005,-0.00000158,-0.00000048,-0.00000134,0.00
 000106,0.00000094,0.00000128,-0.00000105,-0.00000196,-0.00000145,0.000
 00186,-0.00000037,-0.00000031,0.00000060,-0.00000165,-0.00000241,-0.00
 000089,-0.00000195,-0.00000088,-0.00000082,-0.00000071,0.00000363,-0.0
 0000161,0.00002292,-0.00001859,0.00001023,0.00021386,-0.00030763,-0.00
 084894,0.00029153,0.00013212,0.00034325,0.00123608,-0.00198458,-0.0039
 4836,0.07991069,-0.00552064,0.05134057\\0.00000129,-0.00000046,0.00000
 104,-0.00000231,0.00000270,-0.00000190,0.00000159,-0.00000135,-0.00000
 106,-0.00000337,0.00000157,0.00000070,0.00000280,-0.00000042,0.0000002
 5,-0.00000063,-0.00000042,-0.00000081,-0.00000073,-0.00000050,-0.00000
 026,-0.00000037,-0.00000003,0.00000055,-0.00000228,0.00000327,0.000005
 65,0.00000293,-0.00000158,-0.00000901,-0.00000298,-0.00000115,0.000001
 46,0.00000359,0.00000444,0.00000250,-0.00000090,-0.00000006,0.00000028
 ,-0.00000110,0.00000108,0.00000319,0.00000247,-0.00000353,-0.00000086,
 -0.00000192,-0.00000022,-0.00000146,0.00000019,-0.00000189,-0.00000094
 ,-0.00000076,0.00000161,0.00000113,0.00000197,-0.00000051,-0.00000163,
 -0.00000112,-0.00000160,-0.00000192,0.00000078,0.00000116,-0.00000166,
 -0.00000222,-0.00000258,0.00000150,0.00000486,0.00000619,0.00000174,-0
 .00000408,-0.00000392,-0.00000270,0.00000198,-0.00000321,-0.00000307,-
 0.00000070,-0.00000001,0.00000094,0.00000037,0.00000195,-0.00000033,0.
 00000173,-0.00000368,0.00000138,-0.00000069,0.00000012,0.00000051,-0.0
 0000067,-0.00000076,-0.00000028,0.00000030,-0.00000067,0.00000048,-0.0
 0000083,0.00000119,0.00000043,0.00000350,0.00000353,-0.00000065,0.0000
 0043,-0.00000776,0.00000114,0.00000151,0.00000400,-0.00000615,-0.00000
 261,0.00000271,0.00000185,0.00000327,-0.00000236,0.00000210,-0.0000041
 4,-0.00000065,-0.00000257,0.00000225,0.00000241,0.00000119,-0.00000483
 ,-0.00000288,0.00000199,-0.00000033,0.00000265,-0.00000079,0.00000073,
 -0.00000132,0.00000113,-0.00000163,0.00000179,-0.00000106,0.00000163,0
 .00000213,0.00000010,-0.00000037,-0.00000088,-0.00000148,0.00000059,0.
 00000130,0.00000420,-0.00000324,0.00000084,0.00000163,0.00000053,0.000
 00011,0.00000037,-0.00000026,0.00000006,-0.00000022,0.00000020,0.00000
 035,-0.00000044,0.00000031,-0.00000018,0.,0.00000031,0.00000109,-0.000
 00019,-0.00000022,-0.00000198,0.00000059,-0.00000131,-0.00000127,-0.00
 000077,-0.00000008,0.00000071,0.00000038,0.00000007,-0.00000009,-0.000
 00026,0.00000090,-0.00000057,0.00000023,0.00000024,-0.00000050,0.00000
 070,0.00000033,-0.00000028,0.00000046,0.00000010,0.00000040,0.00000057
 ,-0.00000067,0.00000178,-0.00000026,0.00000027,0.00000025,-0.00000064,
 -0.00000041,0.00000052,0.00000014,0.00000002,0.00000083,0.00000007,-0.
 00000093,-0.00000012,-0.00000190,0.00000234,-0.00000238,0.00000145,-0.
 00000061,-0.00000036,0.00000021,0.00000017,-0.00000038,-0.00000043,-0.
 00000018,-0.00000034,-0.00000062,-0.00000017,-0.00000024,0.00000019,0.
 00000267,0.00000018,-0.00000082,0.00000030,0.00000068,-0.00000101,0.00
 000022,0.00000058,-0.00000027,-0.00000037,0.00000036,-0.00000068,-0.00
 000035,0.,0.00000019,0.00000093,0.00000061,0.00000117,0.00000062,-0.00
 000062,0.00000029,-0.00000001,-0.00000063,0.00000091,-0.00000037,0.000
 00012,-0.00000102,-0.00000047,-0.00000091,0.00000288,-0.00000111,0.000
 00009,-0.00000004,0.00000010,-0.00000041,0.00000073,-0.00000007,-0.000
 00062,0.00000031,0.00000099,0.00000089,-0.00000078\\\@
 The archive entry for this job was punched.


 CURIOUSER AND CURIOUSER

                  -- ALICE, IN WONDERLAND
 Job cpu time:       0 days  9 hours 48 minutes 28.0 seconds.
 Elapsed time:       0 days  0 hours 18 minutes 28.8 seconds.
 File lengths (MBytes):  RWF=   4662 Int=      0 D2E=      0 Chk=     47 Scr=      1
 Normal termination of Gaussian 16 at Sun Mar 23 19:37:19 2025.
