 Entering Gaussian System, Link 0=g16
 Initial command:
 /public/software/apps/Gaussian/g16/l1.exe "/tmp/Gau-113785.inp" -scrdir="/tmp/"
 Entering Link 1 = /public/software/apps/Gaussian/g16/l1.exe PID=    113786.
  
 Copyright (c) 1988-2019, Gaussian, Inc.  All Rights Reserved.
  
 This is part of the Gaussian(R) 16 program.  It is based on
 the Gaussian(R) 09 system (copyright 2009, Gaussian, Inc.),
 the Gaussian(R) 03 system (copyright 2003, Gaussian, Inc.),
 the Gaussian(R) 98 system (copyright 1998, Gaussian, Inc.),
 the Gaussian(R) 94 system (copyright 1995, Gaussian, Inc.),
 the Gaussian 92(TM) system (copyright 1992, Gaussian, Inc.),
 the Gaussian 90(TM) system (copyright 1990, Gaussian, Inc.),
 the Gaussian 88(TM) system (copyright 1988, Gaussian, Inc.),
 the Gaussian 86(TM) system (copyright 1986, Carnegie Mellon
 University), and the Gaussian 82(TM) system (copyright 1983,
 Carnegie Mellon University). Gaussian is a federally registered
 trademark of Gaussian, Inc.
  
 This software contains proprietary and confidential information,
 including trade secrets, belonging to Gaussian, Inc.
  
 This software is provided under written license and may be
 used, copied, transmitted, or stored only in accord with that
 written license.
  
 The following legend is applicable only to US Government
 contracts under FAR:
  
                    RESTRICTED RIGHTS LEGEND
  
 Use, reproduction and disclosure by the US Government is
 subject to restrictions as set forth in subparagraphs (a)
 and (c) of the Commercial Computer Software - Restricted
 Rights clause in FAR 52.227-19.
  
 Gaussian, Inc.
 340 Quinnipiac St., Bldg. 40, Wallingford CT 06492
  
  
 ---------------------------------------------------------------
 Warning -- This program may not be used in any manner that
 competes with the business of Gaussian, Inc. or will provide
 assistance to any competitor of Gaussian, Inc.  The licensee
 of this program is prohibited from giving any competitor of
 Gaussian, Inc. access to this program.  By using this program,
 the user acknowledges that Gaussian, Inc. is engaged in the
 business of creating and licensing software in the field of
 computational chemistry and represents and warrants to the
 licensee that it is not a competitor of Gaussian, Inc. and that
 it will not use this program in any manner prohibited above.
 ---------------------------------------------------------------
  

 Cite this work as:
 Gaussian 16, Revision C.01,
 M. J. Frisch, G. W. Trucks, H. B. Schlegel, G. E. Scuseria, 
 M. A. Robb, J. R. Cheeseman, G. Scalmani, V. Barone, 
 G. A. Petersson, H. Nakatsuji, X. Li, M. Caricato, A. V. Marenich, 
 J. Bloino, B. G. Janesko, R. Gomperts, B. Mennucci, H. P. Hratchian, 
 J. V. Ortiz, A. F. Izmaylov, J. L. Sonnenberg, D. Williams-Young, 
 F. Ding, F. Lipparini, F. Egidi, J. Goings, B. Peng, A. Petrone, 
 T. Henderson, D. Ranasinghe, V. G. Zakrzewski, J. Gao, N. Rega, 
 G. Zheng, W. Liang, M. Hada, M. Ehara, K. Toyota, R. Fukuda, 
 J. Hasegawa, M. Ishida, T. Nakajima, Y. Honda, O. Kitao, H. Nakai, 
 T. Vreven, K. Throssell, J. A. Montgomery, Jr., J. E. Peralta, 
 F. Ogliaro, M. J. Bearpark, J. J. Heyd, E. N. Brothers, K. N. Kudin, 
 V. N. Staroverov, T. A. Keith, R. Kobayashi, J. Normand, 
 K. Raghavachari, A. P. Rendell, J. C. Burant, S. S. Iyengar, 
 J. Tomasi, M. Cossi, J. M. Millam, M. Klene, C. Adamo, R. Cammi, 
 J. W. Ochterski, R. L. Martin, K. Morokuma, O. Farkas, 
 J. B. Foresman, and D. J. Fox, Gaussian, Inc., Wallingford CT, 2019.
 
 ******************************************
 Gaussian 16:  ES64L-G16RevC.01  3-Jul-2019
                24-Mar-2025 
 ******************************************
 %nprocshared=32
 Will use up to   32 processors via shared memory.
 %mem=100GB
 ------------------------------------------
 #p opt freq b3lyp/def2svpp em=gd3bj nosymm
 ------------------------------------------
 1/18=20,19=15,26=3,38=1/1,3;
 2/9=110,12=2,15=1,17=6,18=5,40=1/2;
 3/5=43,7=202,11=2,25=1,30=1,71=1,74=-5,124=41/1,2,3;
 4//1;
 5/5=2,38=5/2;
 6/7=2,8=2,9=2,10=2,28=1/1;
 7/30=1/1,2,3,16;
 1/18=20,19=15,26=3/3(2);
 2/9=110,15=1/2;
 99//99;
 2/9=110,15=1/2;
 3/5=43,7=202,11=2,25=1,30=1,71=1,74=-5,124=41/1,2,3;
 4/5=5,16=3,69=1/1;
 5/5=2,38=5/2;
 7/30=1/1,2,3,16;
 1/18=20,19=15,26=3/3(-5);
 2/9=110,15=1/2;
 6/7=2,8=2,9=2,10=2,19=2,28=1/1;
 99/9=1/99;
 Leave Link    1 at Mon Mar 24 04:25:50 2025, MaxMem= 13421772800 cpu:               1.6 elap:               0.1
 (Enter /public/software/apps/Gaussian/g16/l101.exe)
 ----------------------
 $$$$Singlemol####0????
 ----------------------
 Symbolic Z-matrix:
 Charge =  0 Multiplicity = 1
 O                     0.61277   1.19741   1.84108 
 C                     1.37196   0.64074   0.86458 
 C                     2.77261   0.70873   0.90102 
 C                     3.54389   0.15012  -0.091 
 C                     5.00802   0.20467   0.04603 
 C                     5.64645   1.417     0.29088 
 C                     7.02292   1.46358   0.45491 
 C                     7.66687   2.80215   0.69932 
 F                     7.0045    3.51245   1.62866 
 F                     7.67713   3.56054  -0.41172 
 F                     8.93366   2.71173   1.11378 
 C                     7.79508   0.31421   0.37548 
 C                     7.15207  -0.89218   0.14026 
 C                     7.93169  -2.17685   0.04924 
 F                     9.24479  -2.01583   0.23291 
 F                     7.77792  -2.76472  -1.15092 
 F                     7.52001  -3.07621   0.95964 
 C                     5.77593  -0.95538  -0.02023 
 C                     2.92355  -0.47872  -1.20263 
 C                     3.65366  -0.9863   -2.29893 
 C                     3.02019  -1.60057  -3.34253 
 C                     1.62425  -1.73908  -3.3417 
 C                     0.88356  -1.22745  -2.31515 
 C                     1.50426  -0.56574  -1.23117 
 C                     0.73586  -0.00238  -0.18321 
 C                    -0.74617  -0.05798  -0.19373 
 C                    -1.45561   0.78563  -1.02528 
 O                    -0.85684   1.64265  -1.89018 
 C                    -2.85948   0.80144  -0.98606 
 C                    -3.55621  -0.00729  -0.12419 
 C                    -5.02093   0.12036  -0.07169 
 C                    -5.67544   0.34933   1.13617 
 C                    -7.0548    0.49224   1.16786 
 C                    -7.71054   0.72354   2.5025 
 F                    -7.51788  -0.31576   3.33617 
 F                    -7.2078    1.8003    3.13041 
 F                    -9.03178   0.90785   2.42194 
 C                    -7.81275   0.4153    0.00887 
 C                    -7.15316   0.20373  -1.19334 
 C                    -7.93745   0.09138  -2.47309 
 F                    -9.15768   0.63348  -2.39139 
 F                    -8.11468  -1.19326  -2.8366 
 F                    -7.31789   0.68763  -3.50345 
 C                    -5.77517   0.05575  -1.24022 
 C                    -2.86014  -0.92846   0.70626 
 C                    -3.52286  -1.86171   1.53063 
 C                    -2.82058  -2.73711   2.31163 
 C                    -1.41928  -2.73178   2.29349 
 C                    -0.74629  -1.8624    1.48269 
 C                    -1.43987  -0.94129   0.66904 
 H                     1.17436   1.59586   2.51675 
 H                     3.25112   1.18551   1.7468 
 H                     5.07033   2.32881   0.34378 
 H                     8.86568   0.35648   0.50043 
 H                     5.29825  -1.91069  -0.1796 
 H                     4.72698  -0.87208  -2.31508 
 H                     3.59317  -1.98326  -4.17317 
 H                     1.13886  -2.24284  -4.16354 
 H                    -0.19225  -1.3207   -2.31619 
 H                     0.10335   1.55315  -1.82769 
 H                    -3.36971   1.50548  -1.6247 
 H                    -5.1061    0.4348    2.04974 
 H                    -8.88531   0.52626   0.03967 
 H                    -5.28473  -0.11741  -2.18626 
 H                    -4.60205  -1.8947    1.52792 
 H                    -3.34356  -3.44381   2.93805 
 H                    -0.87613  -3.43086   2.91178 
 H                     0.33285  -1.87896   1.44401 
 
 ITRead=  0  0  0  0  0  0  0  0  0  0  0  0  0  0  0  0  0  0  0  0
 ITRead=  0  0  0  0  0  0  0  0  0  0  0  0  0  0  0  0  0  0  0  0
 ITRead=  0  0  0  0  0  0  0  0  0  0  0  0  0  0  0  0  0  0  0  0
 ITRead=  0  0  0  0  0  0  0  0
 MicOpt= -1 -1 -1 -1 -1 -1 -1 -1 -1 -1 -1 -1 -1 -1 -1 -1 -1 -1 -1 -1
 MicOpt= -1 -1 -1 -1 -1 -1 -1 -1 -1 -1 -1 -1 -1 -1 -1 -1 -1 -1 -1 -1
 MicOpt= -1 -1 -1 -1 -1 -1 -1 -1 -1 -1 -1 -1 -1 -1 -1 -1 -1 -1 -1 -1
 MicOpt= -1 -1 -1 -1 -1 -1 -1 -1
 NAtoms=     68 NQM=       68 NQMF=       0 NMMI=      0 NMMIF=      0
                NMic=       0 NMicF=      0.
                    Isotopes and Nuclear Properties:
 (Nuclear quadrupole moments (NQMom) in fm**2, nuclear magnetic moments (NMagM)
  in nuclear magnetons)

  Atom         1           2           3           4           5           6           7           8           9          10
 IAtWgt=          16          12          12          12          12          12          12          12          19          19
 AtmWgt=  15.9949146  12.0000000  12.0000000  12.0000000  12.0000000  12.0000000  12.0000000  12.0000000  18.9984032  18.9984032
 NucSpn=           0           0           0           0           0           0           0           0           1           1
 AtZEff=  -0.0000000  -0.0000000  -0.0000000  -0.0000000  -0.0000000  -0.0000000  -0.0000000  -0.0000000  -0.0000000  -0.0000000
 NQMom=    0.0000000   0.0000000   0.0000000   0.0000000   0.0000000   0.0000000   0.0000000   0.0000000   0.0000000   0.0000000
 NMagM=    0.0000000   0.0000000   0.0000000   0.0000000   0.0000000   0.0000000   0.0000000   0.0000000   2.6288670   2.6288670
 AtZNuc=   8.0000000   6.0000000   6.0000000   6.0000000   6.0000000   6.0000000   6.0000000   6.0000000   9.0000000   9.0000000

  Atom        11          12          13          14          15          16          17          18          19          20
 IAtWgt=          19          12          12          12          19          19          19          12          12          12
 AtmWgt=  18.9984032  12.0000000  12.0000000  12.0000000  18.9984032  18.9984032  18.9984032  12.0000000  12.0000000  12.0000000
 NucSpn=           1           0           0           0           1           1           1           0           0           0
 AtZEff=  -0.0000000  -0.0000000  -0.0000000  -0.0000000  -0.0000000  -0.0000000  -0.0000000  -0.0000000  -0.0000000  -0.0000000
 NQMom=    0.0000000   0.0000000   0.0000000   0.0000000   0.0000000   0.0000000   0.0000000   0.0000000   0.0000000   0.0000000
 NMagM=    2.6288670   0.0000000   0.0000000   0.0000000   2.6288670   2.6288670   2.6288670   0.0000000   0.0000000   0.0000000
 AtZNuc=   9.0000000   6.0000000   6.0000000   6.0000000   9.0000000   9.0000000   9.0000000   6.0000000   6.0000000   6.0000000

  Atom        21          22          23          24          25          26          27          28          29          30
 IAtWgt=          12          12          12          12          12          12          12          16          12          12
 AtmWgt=  12.0000000  12.0000000  12.0000000  12.0000000  12.0000000  12.0000000  12.0000000  15.9949146  12.0000000  12.0000000
 NucSpn=           0           0           0           0           0           0           0           0           0           0
 AtZEff=  -0.0000000  -0.0000000  -0.0000000  -0.0000000  -0.0000000  -0.0000000  -0.0000000  -0.0000000  -0.0000000  -0.0000000
 NQMom=    0.0000000   0.0000000   0.0000000   0.0000000   0.0000000   0.0000000   0.0000000   0.0000000   0.0000000   0.0000000
 NMagM=    0.0000000   0.0000000   0.0000000   0.0000000   0.0000000   0.0000000   0.0000000   0.0000000   0.0000000   0.0000000
 AtZNuc=   6.0000000   6.0000000   6.0000000   6.0000000   6.0000000   6.0000000   6.0000000   8.0000000   6.0000000   6.0000000

  Atom        31          32          33          34          35          36          37          38          39          40
 IAtWgt=          12          12          12          12          19          19          19          12          12          12
 AtmWgt=  12.0000000  12.0000000  12.0000000  12.0000000  18.9984032  18.9984032  18.9984032  12.0000000  12.0000000  12.0000000
 NucSpn=           0           0           0           0           1           1           1           0           0           0
 AtZEff=  -0.0000000  -0.0000000  -0.0000000  -0.0000000  -0.0000000  -0.0000000  -0.0000000  -0.0000000  -0.0000000  -0.0000000
 NQMom=    0.0000000   0.0000000   0.0000000   0.0000000   0.0000000   0.0000000   0.0000000   0.0000000   0.0000000   0.0000000
 NMagM=    0.0000000   0.0000000   0.0000000   0.0000000   2.6288670   2.6288670   2.6288670   0.0000000   0.0000000   0.0000000
 AtZNuc=   6.0000000   6.0000000   6.0000000   6.0000000   9.0000000   9.0000000   9.0000000   6.0000000   6.0000000   6.0000000

  Atom        41          42          43          44          45          46          47          48          49          50
 IAtWgt=          19          19          19          12          12          12          12          12          12          12
 AtmWgt=  18.9984032  18.9984032  18.9984032  12.0000000  12.0000000  12.0000000  12.0000000  12.0000000  12.0000000  12.0000000
 NucSpn=           1           1           1           0           0           0           0           0           0           0
 AtZEff=  -0.0000000  -0.0000000  -0.0000000  -0.0000000  -0.0000000  -0.0000000  -0.0000000  -0.0000000  -0.0000000  -0.0000000
 NQMom=    0.0000000   0.0000000   0.0000000   0.0000000   0.0000000   0.0000000   0.0000000   0.0000000   0.0000000   0.0000000
 NMagM=    2.6288670   2.6288670   2.6288670   0.0000000   0.0000000   0.0000000   0.0000000   0.0000000   0.0000000   0.0000000
 AtZNuc=   9.0000000   9.0000000   9.0000000   6.0000000   6.0000000   6.0000000   6.0000000   6.0000000   6.0000000   6.0000000

  Atom        51          52          53          54          55          56          57          58          59          60
 IAtWgt=           1           1           1           1           1           1           1           1           1           1
 AtmWgt=   1.0078250   1.0078250   1.0078250   1.0078250   1.0078250   1.0078250   1.0078250   1.0078250   1.0078250   1.0078250
 NucSpn=           1           1           1           1           1           1           1           1           1           1
 AtZEff=  -0.0000000  -0.0000000  -0.0000000  -0.0000000  -0.0000000  -0.0000000  -0.0000000  -0.0000000  -0.0000000  -0.0000000
 NQMom=    0.0000000   0.0000000   0.0000000   0.0000000   0.0000000   0.0000000   0.0000000   0.0000000   0.0000000   0.0000000
 NMagM=    2.7928460   2.7928460   2.7928460   2.7928460   2.7928460   2.7928460   2.7928460   2.7928460   2.7928460   2.7928460
 AtZNuc=   1.0000000   1.0000000   1.0000000   1.0000000   1.0000000   1.0000000   1.0000000   1.0000000   1.0000000   1.0000000

  Atom        61          62          63          64          65          66          67          68
 IAtWgt=           1           1           1           1           1           1           1           1
 AtmWgt=   1.0078250   1.0078250   1.0078250   1.0078250   1.0078250   1.0078250   1.0078250   1.0078250
 NucSpn=           1           1           1           1           1           1           1           1
 AtZEff=  -0.0000000  -0.0000000  -0.0000000  -0.0000000  -0.0000000  -0.0000000  -0.0000000  -0.0000000
 NQMom=    0.0000000   0.0000000   0.0000000   0.0000000   0.0000000   0.0000000   0.0000000   0.0000000
 NMagM=    2.7928460   2.7928460   2.7928460   2.7928460   2.7928460   2.7928460   2.7928460   2.7928460
 AtZNuc=   1.0000000   1.0000000   1.0000000   1.0000000   1.0000000   1.0000000   1.0000000   1.0000000
 Leave Link  101 at Mon Mar 24 04:25:50 2025, MaxMem= 13421772800 cpu:               6.4 elap:               0.2
 (Enter /public/software/apps/Gaussian/g16/l103.exe)

 GradGradGradGradGradGradGradGradGradGradGradGradGradGradGradGradGradGrad
 Berny optimization.
 Initialization pass.
                           ----------------------------
                           !    Initial Parameters    !
                           ! (Angstroms and Degrees)  !
 --------------------------                            --------------------------
 ! Name  Definition              Value          Derivative Info.                !
 --------------------------------------------------------------------------------
 ! R1    R(1,2)                  1.3564         estimate D2E/DX2                !
 ! R2    R(1,51)                 0.9647         estimate D2E/DX2                !
 ! R3    R(2,3)                  1.4028         estimate D2E/DX2                !
 ! R4    R(2,25)                 1.3842         estimate D2E/DX2                !
 ! R5    R(3,4)                  1.3751         estimate D2E/DX2                !
 ! R6    R(3,52)                 1.0824         estimate D2E/DX2                !
 ! R7    R(4,5)                  1.4715         estimate D2E/DX2                !
 ! R8    R(4,19)                 1.4198         estimate D2E/DX2                !
 ! R9    R(5,6)                  1.3919         estimate D2E/DX2                !
 ! R10   R(5,18)                 1.3928         estimate D2E/DX2                !
 ! R11   R(6,7)                  1.387          estimate D2E/DX2                !
 ! R12   R(6,53)                 1.0799         estimate D2E/DX2                !
 ! R13   R(7,8)                  1.5054         estimate D2E/DX2                !
 ! R14   R(7,12)                 1.3869         estimate D2E/DX2                !
 ! R15   R(8,9)                  1.3442         estimate D2E/DX2                !
 ! R16   R(8,10)                 1.3452         estimate D2E/DX2                !
 ! R17   R(8,11)                 1.3359         estimate D2E/DX2                !
 ! R18   R(12,13)                1.3871         estimate D2E/DX2                !
 ! R19   R(12,54)                1.0787         estimate D2E/DX2                !
 ! R20   R(13,14)                1.5055         estimate D2E/DX2                !
 ! R21   R(13,18)                1.3869         estimate D2E/DX2                !
 ! R22   R(14,15)                1.3356         estimate D2E/DX2                !
 ! R23   R(14,16)                1.3452         estimate D2E/DX2                !
 ! R24   R(14,17)                1.3443         estimate D2E/DX2                !
 ! R25   R(18,55)                1.0799         estimate D2E/DX2                !
 ! R26   R(19,20)                1.4116         estimate D2E/DX2                !
 ! R27   R(19,24)                1.4222         estimate D2E/DX2                !
 ! R28   R(20,21)                1.3666         estimate D2E/DX2                !
 ! R29   R(20,56)                1.0795         estimate D2E/DX2                !
 ! R30   R(21,22)                1.4028         estimate D2E/DX2                !
 ! R31   R(21,57)                1.0792         estimate D2E/DX2                !
 ! R32   R(22,23)                1.3654         estimate D2E/DX2                !
 ! R33   R(22,58)                1.0793         estimate D2E/DX2                !
 ! R34   R(23,24)                1.4136         estimate D2E/DX2                !
 ! R35   R(23,59)                1.0798         estimate D2E/DX2                !
 ! R36   R(24,25)                1.4164         estimate D2E/DX2                !
 ! R37   R(25,26)                1.4831         estimate D2E/DX2                !
 ! R38   R(26,27)                1.3807         estimate D2E/DX2                !
 ! R39   R(26,50)                1.4163         estimate D2E/DX2                !
 ! R40   R(27,28)                1.3569         estimate D2E/DX2                !
 ! R41   R(27,29)                1.4045         estimate D2E/DX2                !
 ! R42   R(28,60)                0.9664         estimate D2E/DX2                !
 ! R43   R(29,30)                1.372          estimate D2E/DX2                !
 ! R44   R(29,61)                1.0788         estimate D2E/DX2                !
 ! R45   R(30,31)                1.4712         estimate D2E/DX2                !
 ! R46   R(30,45)                1.4222         estimate D2E/DX2                !
 ! R47   R(31,32)                1.3927         estimate D2E/DX2                !
 ! R48   R(31,44)                1.3923         estimate D2E/DX2                !
 ! R49   R(32,33)                1.3871         estimate D2E/DX2                !
 ! R50   R(32,62)                1.0798         estimate D2E/DX2                !
 ! R51   R(33,34)                1.5049         estimate D2E/DX2                !
 ! R52   R(33,38)                1.387          estimate D2E/DX2                !
 ! R53   R(34,35)                1.3462         estimate D2E/DX2                !
 ! R54   R(34,36)                1.344          estimate D2E/DX2                !
 ! R55   R(34,37)                1.3365         estimate D2E/DX2                !
 ! R56   R(38,39)                1.3875         estimate D2E/DX2                !
 ! R57   R(38,63)                1.0787         estimate D2E/DX2                !
 ! R58   R(39,40)                1.5052         estimate D2E/DX2                !
 ! R59   R(39,44)                1.3867         estimate D2E/DX2                !
 ! R60   R(40,41)                1.3377         estimate D2E/DX2                !
 ! R61   R(40,42)                1.3468         estimate D2E/DX2                !
 ! R62   R(40,43)                1.342          estimate D2E/DX2                !
 ! R63   R(44,64)                1.0796         estimate D2E/DX2                !
 ! R64   R(45,46)                1.4106         estimate D2E/DX2                !
 ! R65   R(45,50)                1.4208         estimate D2E/DX2                !
 ! R66   R(46,47)                1.3673         estimate D2E/DX2                !
 ! R67   R(46,65)                1.0797         estimate D2E/DX2                !
 ! R68   R(47,48)                1.4014         estimate D2E/DX2                !
 ! R69   R(47,66)                1.0795         estimate D2E/DX2                !
 ! R70   R(48,49)                1.3661         estimate D2E/DX2                !
 ! R71   R(48,67)                1.0798         estimate D2E/DX2                !
 ! R72   R(49,50)                1.4112         estimate D2E/DX2                !
 ! R73   R(49,68)                1.08           estimate D2E/DX2                !
 ! A1    A(2,1,51)             110.359          estimate D2E/DX2                !
 ! A2    A(1,2,3)              121.351          estimate D2E/DX2                !
 ! A3    A(1,2,25)             118.5814         estimate D2E/DX2                !
 ! A4    A(3,2,25)             120.0676         estimate D2E/DX2                !
 ! A5    A(2,3,4)              121.4393         estimate D2E/DX2                !
 ! A6    A(2,3,52)             118.8851         estimate D2E/DX2                !
 ! A7    A(4,3,52)             119.6475         estimate D2E/DX2                !
 ! A8    A(3,4,5)              118.4123         estimate D2E/DX2                !
 ! A9    A(3,4,19)             119.9775         estimate D2E/DX2                !
 ! A10   A(5,4,19)             121.6026         estimate D2E/DX2                !
 ! A11   A(4,5,6)              120.3343         estimate D2E/DX2                !
 ! A12   A(4,5,18)             120.8825         estimate D2E/DX2                !
 ! A13   A(6,5,18)             118.7469         estimate D2E/DX2                !
 ! A14   A(5,6,7)              120.3491         estimate D2E/DX2                !
 ! A15   A(5,6,53)             119.9576         estimate D2E/DX2                !
 ! A16   A(7,6,53)             119.6903         estimate D2E/DX2                !
 ! A17   A(6,7,8)              118.2672         estimate D2E/DX2                !
 ! A18   A(6,7,12)             121.1921         estimate D2E/DX2                !
 ! A19   A(8,7,12)             120.5325         estimate D2E/DX2                !
 ! A20   A(7,8,9)              111.7973         estimate D2E/DX2                !
 ! A21   A(7,8,10)             111.7438         estimate D2E/DX2                !
 ! A22   A(7,8,11)             113.3164         estimate D2E/DX2                !
 ! A23   A(9,8,10)             106.0735         estimate D2E/DX2                !
 ! A24   A(9,8,11)             106.7699         estimate D2E/DX2                !
 ! A25   A(10,8,11)            106.6872         estimate D2E/DX2                !
 ! A26   A(7,12,13)            118.1877         estimate D2E/DX2                !
 ! A27   A(7,12,54)            120.8942         estimate D2E/DX2                !
 ! A28   A(13,12,54)           120.9167         estimate D2E/DX2                !
 ! A29   A(12,13,14)           120.8198         estimate D2E/DX2                !
 ! A30   A(12,13,18)           121.2787         estimate D2E/DX2                !
 ! A31   A(14,13,18)           117.9015         estimate D2E/DX2                !
 ! A32   A(13,14,15)           113.4487         estimate D2E/DX2                !
 ! A33   A(13,14,16)           111.5709         estimate D2E/DX2                !
 ! A34   A(13,14,17)           111.7995         estimate D2E/DX2                !
 ! A35   A(15,14,16)           106.7235         estimate D2E/DX2                !
 ! A36   A(15,14,17)           106.7742         estimate D2E/DX2                !
 ! A37   A(16,14,17)           106.0712         estimate D2E/DX2                !
 ! A38   A(5,18,13)            120.2398         estimate D2E/DX2                !
 ! A39   A(5,18,55)            119.9971         estimate D2E/DX2                !
 ! A40   A(13,18,55)           119.7542         estimate D2E/DX2                !
 ! A41   A(4,19,20)            122.7741         estimate D2E/DX2                !
 ! A42   A(4,19,24)            118.6075         estimate D2E/DX2                !
 ! A43   A(20,19,24)           118.5918         estimate D2E/DX2                !
 ! A44   A(19,20,21)           120.9934         estimate D2E/DX2                !
 ! A45   A(19,20,56)           119.1986         estimate D2E/DX2                !
 ! A46   A(21,20,56)           119.8019         estimate D2E/DX2                !
 ! A47   A(20,21,22)           120.3435         estimate D2E/DX2                !
 ! A48   A(20,21,57)           120.0675         estimate D2E/DX2                !
 ! A49   A(22,21,57)           119.5889         estimate D2E/DX2                !
 ! A50   A(21,22,23)           120.2177         estimate D2E/DX2                !
 ! A51   A(21,22,58)           119.5498         estimate D2E/DX2                !
 ! A52   A(23,22,58)           120.2287         estimate D2E/DX2                !
 ! A53   A(22,23,24)           120.9144         estimate D2E/DX2                !
 ! A54   A(22,23,59)           120.4894         estimate D2E/DX2                !
 ! A55   A(24,23,59)           118.5963         estimate D2E/DX2                !
 ! A56   A(19,24,23)           118.8312         estimate D2E/DX2                !
 ! A57   A(19,24,25)           120.1464         estimate D2E/DX2                !
 ! A58   A(23,24,25)           121.0214         estimate D2E/DX2                !
 ! A59   A(2,25,24)            119.7065         estimate D2E/DX2                !
 ! A60   A(2,25,26)            118.8153         estimate D2E/DX2                !
 ! A61   A(24,25,26)           121.4645         estimate D2E/DX2                !
 ! A62   A(25,26,27)           119.6571         estimate D2E/DX2                !
 ! A63   A(25,26,50)           120.5646         estimate D2E/DX2                !
 ! A64   A(27,26,50)           119.7534         estimate D2E/DX2                !
 ! A65   A(26,27,28)           122.8922         estimate D2E/DX2                !
 ! A66   A(26,27,29)           120.2413         estimate D2E/DX2                !
 ! A67   A(28,27,29)           116.8576         estimate D2E/DX2                !
 ! A68   A(27,28,60)           109.8002         estimate D2E/DX2                !
 ! A69   A(27,29,30)           121.2318         estimate D2E/DX2                !
 ! A70   A(27,29,61)           117.6165         estimate D2E/DX2                !
 ! A71   A(30,29,61)           121.0905         estimate D2E/DX2                !
 ! A72   A(29,30,31)           118.4806         estimate D2E/DX2                !
 ! A73   A(29,30,45)           120.0043         estimate D2E/DX2                !
 ! A74   A(31,30,45)           121.5086         estimate D2E/DX2                !
 ! A75   A(30,31,32)           120.8695         estimate D2E/DX2                !
 ! A76   A(30,31,44)           120.3546         estimate D2E/DX2                !
 ! A77   A(32,31,44)           118.7455         estimate D2E/DX2                !
 ! A78   A(31,32,33)           120.2697         estimate D2E/DX2                !
 ! A79   A(31,32,62)           119.9305         estimate D2E/DX2                !
 ! A80   A(33,32,62)           119.7897         estimate D2E/DX2                !
 ! A81   A(32,33,34)           117.9952         estimate D2E/DX2                !
 ! A82   A(32,33,38)           121.2403         estimate D2E/DX2                !
 ! A83   A(34,33,38)           120.7628         estimate D2E/DX2                !
 ! A84   A(33,34,35)           111.6044         estimate D2E/DX2                !
 ! A85   A(33,34,36)           111.9915         estimate D2E/DX2                !
 ! A86   A(33,34,37)           113.485          estimate D2E/DX2                !
 ! A87   A(35,34,36)           106.0005         estimate D2E/DX2                !
 ! A88   A(35,34,37)           106.5757         estimate D2E/DX2                !
 ! A89   A(36,34,37)           106.7064         estimate D2E/DX2                !
 ! A90   A(33,38,39)           118.2103         estimate D2E/DX2                !
 ! A91   A(33,38,63)           120.9173         estimate D2E/DX2                !
 ! A92   A(39,38,63)           120.87           estimate D2E/DX2                !
 ! A93   A(38,39,40)           120.0251         estimate D2E/DX2                !
 ! A94   A(38,39,44)           121.1955         estimate D2E/DX2                !
 ! A95   A(40,39,44)           118.7564         estimate D2E/DX2                !
 ! A96   A(39,40,41)           113.1491         estimate D2E/DX2                !
 ! A97   A(39,40,42)           111.6697         estimate D2E/DX2                !
 ! A98   A(39,40,43)           112.2759         estimate D2E/DX2                !
 ! A99   A(41,40,42)           106.4385         estimate D2E/DX2                !
 ! A100  A(41,40,43)           106.7359         estimate D2E/DX2                !
 ! A101  A(42,40,43)           106.1004         estimate D2E/DX2                !
 ! A102  A(31,44,39)           120.3306         estimate D2E/DX2                !
 ! A103  A(31,44,64)           119.7894         estimate D2E/DX2                !
 ! A104  A(39,44,64)           119.8786         estimate D2E/DX2                !
 ! A105  A(30,45,46)           122.672          estimate D2E/DX2                !
 ! A106  A(30,45,50)           118.672          estimate D2E/DX2                !
 ! A107  A(46,45,50)           118.618          estimate D2E/DX2                !
 ! A108  A(45,46,47)           121.0714         estimate D2E/DX2                !
 ! A109  A(45,46,65)           119.232          estimate D2E/DX2                !
 ! A110  A(47,46,65)           119.6864         estimate D2E/DX2                !
 ! A111  A(46,47,48)           120.2483         estimate D2E/DX2                !
 ! A112  A(46,47,66)           120.1174         estimate D2E/DX2                !
 ! A113  A(48,47,66)           119.6311         estimate D2E/DX2                !
 ! A114  A(47,48,49)           120.1794         estimate D2E/DX2                !
 ! A115  A(47,48,67)           119.5433         estimate D2E/DX2                !
 ! A116  A(49,48,67)           120.2689         estimate D2E/DX2                !
 ! A117  A(48,49,50)           121.0287         estimate D2E/DX2                !
 ! A118  A(48,49,68)           120.2502         estimate D2E/DX2                !
 ! A119  A(50,49,68)           118.7157         estimate D2E/DX2                !
 ! A120  A(26,50,45)           119.9963         estimate D2E/DX2                !
 ! A121  A(26,50,49)           121.1702         estimate D2E/DX2                !
 ! A122  A(45,50,49)           118.8217         estimate D2E/DX2                !
 ! D1    D(51,1,2,3)            -1.2313         estimate D2E/DX2                !
 ! D2    D(51,1,2,25)          178.8541         estimate D2E/DX2                !
 ! D3    D(1,2,3,4)           -179.71           estimate D2E/DX2                !
 ! D4    D(1,2,3,52)             2.2274         estimate D2E/DX2                !
 ! D5    D(25,2,3,4)             0.2034         estimate D2E/DX2                !
 ! D6    D(25,2,3,52)         -177.8593         estimate D2E/DX2                !
 ! D7    D(1,2,25,24)          178.5786         estimate D2E/DX2                !
 ! D8    D(1,2,25,26)           -0.0958         estimate D2E/DX2                !
 ! D9    D(3,2,25,24)           -1.3371         estimate D2E/DX2                !
 ! D10   D(3,2,25,26)          179.9885         estimate D2E/DX2                !
 ! D11   D(2,3,4,5)           -177.1471         estimate D2E/DX2                !
 ! D12   D(2,3,4,19)             1.8629         estimate D2E/DX2                !
 ! D13   D(52,3,4,5)             0.901          estimate D2E/DX2                !
 ! D14   D(52,3,4,19)          179.9111         estimate D2E/DX2                !
 ! D15   D(3,4,5,6)            -52.3446         estimate D2E/DX2                !
 ! D16   D(3,4,5,18)           125.438          estimate D2E/DX2                !
 ! D17   D(19,4,5,6)           128.6622         estimate D2E/DX2                !
 ! D18   D(19,4,5,18)          -53.5552         estimate D2E/DX2                !
 ! D19   D(3,4,19,20)          175.3719         estimate D2E/DX2                !
 ! D20   D(3,4,19,24)           -2.7239         estimate D2E/DX2                !
 ! D21   D(5,4,19,20)           -5.6504         estimate D2E/DX2                !
 ! D22   D(5,4,19,24)          176.2538         estimate D2E/DX2                !
 ! D23   D(4,5,6,7)            178.3062         estimate D2E/DX2                !
 ! D24   D(4,5,6,53)            -2.3223         estimate D2E/DX2                !
 ! D25   D(18,5,6,7)             0.4767         estimate D2E/DX2                !
 ! D26   D(18,5,6,53)          179.8482         estimate D2E/DX2                !
 ! D27   D(4,5,18,13)         -178.5657         estimate D2E/DX2                !
 ! D28   D(4,5,18,55)            0.3465         estimate D2E/DX2                !
 ! D29   D(6,5,18,13)           -0.7486         estimate D2E/DX2                !
 ! D30   D(6,5,18,55)          178.1636         estimate D2E/DX2                !
 ! D31   D(5,6,7,8)            179.194          estimate D2E/DX2                !
 ! D32   D(5,6,7,12)             0.23           estimate D2E/DX2                !
 ! D33   D(53,6,7,8)            -0.1792         estimate D2E/DX2                !
 ! D34   D(53,6,7,12)         -179.1432         estimate D2E/DX2                !
 ! D35   D(6,7,8,9)             46.2647         estimate D2E/DX2                !
 ! D36   D(6,7,8,10)           -72.4554         estimate D2E/DX2                !
 ! D37   D(6,7,8,11)           166.9784         estimate D2E/DX2                !
 ! D38   D(12,7,8,9)          -134.7642         estimate D2E/DX2                !
 ! D39   D(12,7,8,10)          106.5157         estimate D2E/DX2                !
 ! D40   D(12,7,8,11)          -14.0506         estimate D2E/DX2                !
 ! D41   D(6,7,12,13)           -0.6538         estimate D2E/DX2                !
 ! D42   D(6,7,12,54)          179.7862         estimate D2E/DX2                !
 ! D43   D(8,7,12,13)         -179.5944         estimate D2E/DX2                !
 ! D44   D(8,7,12,54)            0.8456         estimate D2E/DX2                !
 ! D45   D(7,12,13,14)        -179.7172         estimate D2E/DX2                !
 ! D46   D(7,12,13,18)           0.3772         estimate D2E/DX2                !
 ! D47   D(54,12,13,14)         -0.1573         estimate D2E/DX2                !
 ! D48   D(54,12,13,18)        179.937          estimate D2E/DX2                !
 ! D49   D(12,13,14,15)          0.858          estimate D2E/DX2                !
 ! D50   D(12,13,14,16)       -119.723          estimate D2E/DX2                !
 ! D51   D(12,13,14,17)        121.6746         estimate D2E/DX2                !
 ! D52   D(18,13,14,15)       -179.2333         estimate D2E/DX2                !
 ! D53   D(18,13,14,16)         60.1857         estimate D2E/DX2                !
 ! D54   D(18,13,14,17)        -58.4167         estimate D2E/DX2                !
 ! D55   D(12,13,18,5)           0.3247         estimate D2E/DX2                !
 ! D56   D(12,13,18,55)       -178.5902         estimate D2E/DX2                !
 ! D57   D(14,13,18,5)        -179.5836         estimate D2E/DX2                !
 ! D58   D(14,13,18,55)          1.5015         estimate D2E/DX2                !
 ! D59   D(4,19,20,21)         179.1506         estimate D2E/DX2                !
 ! D60   D(4,19,20,56)          -1.7515         estimate D2E/DX2                !
 ! D61   D(24,19,20,21)         -2.7533         estimate D2E/DX2                !
 ! D62   D(24,19,20,56)        176.3446         estimate D2E/DX2                !
 ! D63   D(4,19,24,23)        -178.0571         estimate D2E/DX2                !
 ! D64   D(4,19,24,25)           1.6004         estimate D2E/DX2                !
 ! D65   D(20,19,24,23)          3.7663         estimate D2E/DX2                !
 ! D66   D(20,19,24,25)       -176.5762         estimate D2E/DX2                !
 ! D67   D(19,20,21,22)         -0.0506         estimate D2E/DX2                !
 ! D68   D(19,20,21,57)       -179.9966         estimate D2E/DX2                !
 ! D69   D(56,20,21,22)       -179.1431         estimate D2E/DX2                !
 ! D70   D(56,20,21,57)          0.9109         estimate D2E/DX2                !
 ! D71   D(20,21,22,23)          1.8464         estimate D2E/DX2                !
 ! D72   D(20,21,22,58)       -178.8516         estimate D2E/DX2                !
 ! D73   D(57,21,22,23)       -178.2074         estimate D2E/DX2                !
 ! D74   D(57,21,22,58)          1.0946         estimate D2E/DX2                !
 ! D75   D(21,22,23,24)         -0.745          estimate D2E/DX2                !
 ! D76   D(21,22,23,59)        179.2293         estimate D2E/DX2                !
 ! D77   D(58,22,23,24)        179.9578         estimate D2E/DX2                !
 ! D78   D(58,22,23,59)         -0.0678         estimate D2E/DX2                !
 ! D79   D(22,23,24,19)         -2.0748         estimate D2E/DX2                !
 ! D80   D(22,23,24,25)        178.2708         estimate D2E/DX2                !
 ! D81   D(59,23,24,19)        177.9504         estimate D2E/DX2                !
 ! D82   D(59,23,24,25)         -1.704          estimate D2E/DX2                !
 ! D83   D(19,24,25,2)           0.4116         estimate D2E/DX2                !
 ! D84   D(19,24,25,26)        179.0499         estimate D2E/DX2                !
 ! D85   D(23,24,25,2)        -179.9385         estimate D2E/DX2                !
 ! D86   D(23,24,25,26)         -1.3002         estimate D2E/DX2                !
 ! D87   D(2,25,26,27)         102.8726         estimate D2E/DX2                !
 ! D88   D(2,25,26,50)         -75.3073         estimate D2E/DX2                !
 ! D89   D(24,25,26,27)        -75.7775         estimate D2E/DX2                !
 ! D90   D(24,25,26,50)        106.0426         estimate D2E/DX2                !
 ! D91   D(25,26,27,28)          2.7893         estimate D2E/DX2                !
 ! D92   D(25,26,27,29)       -176.0882         estimate D2E/DX2                !
 ! D93   D(50,26,27,28)       -179.0159         estimate D2E/DX2                !
 ! D94   D(50,26,27,29)          2.1065         estimate D2E/DX2                !
 ! D95   D(25,26,50,45)        176.2613         estimate D2E/DX2                !
 ! D96   D(25,26,50,49)         -5.0025         estimate D2E/DX2                !
 ! D97   D(27,26,50,45)         -1.9168         estimate D2E/DX2                !
 ! D98   D(27,26,50,49)        176.8194         estimate D2E/DX2                !
 ! D99   D(26,27,28,60)          0.5453         estimate D2E/DX2                !
 ! D100  D(29,27,28,60)        179.4583         estimate D2E/DX2                !
 ! D101  D(26,27,29,30)          0.3569         estimate D2E/DX2                !
 ! D102  D(26,27,29,61)        177.5412         estimate D2E/DX2                !
 ! D103  D(28,27,29,30)       -178.5866         estimate D2E/DX2                !
 ! D104  D(28,27,29,61)         -1.4023         estimate D2E/DX2                !
 ! D105  D(27,29,30,31)        176.1049         estimate D2E/DX2                !
 ! D106  D(27,29,30,45)         -2.9897         estimate D2E/DX2                !
 ! D107  D(61,29,30,31)         -0.9816         estimate D2E/DX2                !
 ! D108  D(61,29,30,45)        179.9238         estimate D2E/DX2                !
 ! D109  D(29,30,31,32)       -125.8519         estimate D2E/DX2                !
 ! D110  D(29,30,31,44)         52.1155         estimate D2E/DX2                !
 ! D111  D(45,30,31,32)         53.2285         estimate D2E/DX2                !
 ! D112  D(45,30,31,44)       -128.8041         estimate D2E/DX2                !
 ! D113  D(29,30,45,46)       -174.6297         estimate D2E/DX2                !
 ! D114  D(29,30,45,50)          3.0957         estimate D2E/DX2                !
 ! D115  D(31,30,45,46)          6.3037         estimate D2E/DX2                !
 ! D116  D(31,30,45,50)       -175.9708         estimate D2E/DX2                !
 ! D117  D(30,31,32,33)        178.8075         estimate D2E/DX2                !
 ! D118  D(30,31,32,62)         -0.0295         estimate D2E/DX2                !
 ! D119  D(44,31,32,33)          0.8079         estimate D2E/DX2                !
 ! D120  D(44,31,32,62)       -178.0291         estimate D2E/DX2                !
 ! D121  D(30,31,44,39)       -178.6642         estimate D2E/DX2                !
 ! D122  D(30,31,44,64)          1.7686         estimate D2E/DX2                !
 ! D123  D(32,31,44,39)         -0.6541         estimate D2E/DX2                !
 ! D124  D(32,31,44,64)        179.7788         estimate D2E/DX2                !
 ! D125  D(31,32,33,34)        179.3655         estimate D2E/DX2                !
 ! D126  D(31,32,33,38)         -0.1652         estimate D2E/DX2                !
 ! D127  D(62,32,33,34)         -1.7958         estimate D2E/DX2                !
 ! D128  D(62,32,33,38)        178.6735         estimate D2E/DX2                !
 ! D129  D(32,33,34,35)        -62.385          estimate D2E/DX2                !
 ! D130  D(32,33,34,36)         56.2788         estimate D2E/DX2                !
 ! D131  D(32,33,34,37)        177.1761         estimate D2E/DX2                !
 ! D132  D(38,33,34,35)        117.148          estimate D2E/DX2                !
 ! D133  D(38,33,34,36)       -124.1881         estimate D2E/DX2                !
 ! D134  D(38,33,34,37)         -3.2909         estimate D2E/DX2                !
 ! D135  D(32,33,38,39)         -0.6308         estimate D2E/DX2                !
 ! D136  D(32,33,38,63)        179.9398         estimate D2E/DX2                !
 ! D137  D(34,33,38,39)        179.8514         estimate D2E/DX2                !
 ! D138  D(34,33,38,63)          0.4221         estimate D2E/DX2                !
 ! D139  D(33,38,39,40)        179.0183         estimate D2E/DX2                !
 ! D140  D(33,38,39,44)          0.7873         estimate D2E/DX2                !
 ! D141  D(63,38,39,40)         -1.5521         estimate D2E/DX2                !
 ! D142  D(63,38,39,44)       -179.7831         estimate D2E/DX2                !
 ! D143  D(38,39,40,41)         20.6284         estimate D2E/DX2                !
 ! D144  D(38,39,40,42)        -99.4412         estimate D2E/DX2                !
 ! D145  D(38,39,40,43)        141.5305         estimate D2E/DX2                !
 ! D146  D(44,39,40,41)       -161.0977         estimate D2E/DX2                !
 ! D147  D(44,39,40,42)         78.8327         estimate D2E/DX2                !
 ! D148  D(44,39,40,43)        -40.1956         estimate D2E/DX2                !
 ! D149  D(38,39,44,31)         -0.1485         estimate D2E/DX2                !
 ! D150  D(38,39,44,64)        179.4182         estimate D2E/DX2                !
 ! D151  D(40,39,44,31)       -178.4014         estimate D2E/DX2                !
 ! D152  D(40,39,44,64)          1.1654         estimate D2E/DX2                !
 ! D153  D(30,45,46,47)        179.6824         estimate D2E/DX2                !
 ! D154  D(30,45,46,65)          0.8503         estimate D2E/DX2                !
 ! D155  D(50,45,46,47)          1.9558         estimate D2E/DX2                !
 ! D156  D(50,45,46,65)       -176.8763         estimate D2E/DX2                !
 ! D157  D(30,45,50,26)         -0.6625         estimate D2E/DX2                !
 ! D158  D(30,45,50,49)       -179.4283         estimate D2E/DX2                !
 ! D159  D(46,45,50,26)        177.1564         estimate D2E/DX2                !
 ! D160  D(46,45,50,49)         -1.6094         estimate D2E/DX2                !
 ! D161  D(45,46,47,48)         -0.7641         estimate D2E/DX2                !
 ! D162  D(45,46,47,66)        179.8944         estimate D2E/DX2                !
 ! D163  D(65,46,47,48)        178.0627         estimate D2E/DX2                !
 ! D164  D(65,46,47,66)         -1.2787         estimate D2E/DX2                !
 ! D165  D(46,47,48,49)         -0.7987         estimate D2E/DX2                !
 ! D166  D(46,47,48,67)       -179.7474         estimate D2E/DX2                !
 ! D167  D(66,47,48,49)        178.546          estimate D2E/DX2                !
 ! D168  D(66,47,48,67)         -0.4027         estimate D2E/DX2                !
 ! D169  D(47,48,49,50)          1.1184         estimate D2E/DX2                !
 ! D170  D(47,48,49,68)       -178.0235         estimate D2E/DX2                !
 ! D171  D(67,48,49,50)       -179.9406         estimate D2E/DX2                !
 ! D172  D(67,48,49,68)          0.9175         estimate D2E/DX2                !
 ! D173  D(48,49,50,26)       -178.6476         estimate D2E/DX2                !
 ! D174  D(48,49,50,45)          0.1032         estimate D2E/DX2                !
 ! D175  D(68,49,50,26)          0.5072         estimate D2E/DX2                !
 ! D176  D(68,49,50,45)        179.2579         estimate D2E/DX2                !
 --------------------------------------------------------------------------------
 Trust Radius=3.00D-01 FncErr=1.00D-07 GrdErr=1.00D-06 EigMax=2.50D+02 EigMin=1.00D-04
 Number of steps in this run=    381 maximum allowed number of steps=    408.
 GradGradGradGradGradGradGradGradGradGradGradGradGradGradGradGradGradGrad

 Leave Link  103 at Mon Mar 24 04:25:50 2025, MaxMem= 13421772800 cpu:               0.6 elap:               0.0
 (Enter /public/software/apps/Gaussian/g16/l202.exe)
 Symmetry turned off by external request.
 Stoichiometry    C36H18F12O2
 Framework group  C1[X(C36H18F12O2)]
 Deg. of freedom   198
 Full point group                 C1      NOp   1
                          Input orientation:                          
 ---------------------------------------------------------------------
 Center     Atomic      Atomic             Coordinates (Angstroms)
 Number     Number       Type             X           Y           Z
 ---------------------------------------------------------------------
      1          8           0        0.612771    1.197407    1.841075
      2          6           0        1.371964    0.640744    0.864584
      3          6           0        2.772607    0.708728    0.901024
      4          6           0        3.543886    0.150124   -0.091004
      5          6           0        5.008019    0.204667    0.046027
      6          6           0        5.646454    1.417000    0.290875
      7          6           0        7.022919    1.463584    0.454910
      8          6           0        7.666866    2.802154    0.699322
      9          9           0        7.004505    3.512448    1.628660
     10          9           0        7.677135    3.560541   -0.411724
     11          9           0        8.933665    2.711729    1.113779
     12          6           0        7.795081    0.314213    0.375481
     13          6           0        7.152072   -0.892179    0.140261
     14          6           0        7.931690   -2.176854    0.049241
     15          9           0        9.244795   -2.015831    0.232911
     16          9           0        7.777918   -2.764720   -1.150922
     17          9           0        7.520013   -3.076210    0.959637
     18          6           0        5.775926   -0.955375   -0.020233
     19          6           0        2.923550   -0.478718   -1.202631
     20          6           0        3.653660   -0.986298   -2.298930
     21          6           0        3.020188   -1.600566   -3.342533
     22          6           0        1.624249   -1.739079   -3.341696
     23          6           0        0.883557   -1.227448   -2.315146
     24          6           0        1.504263   -0.565741   -1.231173
     25          6           0        0.735858   -0.002383   -0.183205
     26          6           0       -0.746166   -0.057975   -0.193727
     27          6           0       -1.455606    0.785627   -1.025278
     28          8           0       -0.856838    1.642650   -1.890184
     29          6           0       -2.859483    0.801441   -0.986064
     30          6           0       -3.556209   -0.007289   -0.124189
     31          6           0       -5.020931    0.120363   -0.071686
     32          6           0       -5.675439    0.349330    1.136169
     33          6           0       -7.054797    0.492242    1.167859
     34          6           0       -7.710537    0.723540    2.502497
     35          9           0       -7.517877   -0.315760    3.336175
     36          9           0       -7.207797    1.800297    3.130408
     37          9           0       -9.031780    0.907854    2.421937
     38          6           0       -7.812754    0.415302    0.008874
     39          6           0       -7.153160    0.203730   -1.193340
     40          6           0       -7.937451    0.091379   -2.473091
     41          9           0       -9.157676    0.633475   -2.391390
     42          9           0       -8.114681   -1.193258   -2.836597
     43          9           0       -7.317889    0.687634   -3.503449
     44          6           0       -5.775166    0.055748   -1.240217
     45          6           0       -2.860139   -0.928455    0.706260
     46          6           0       -3.522855   -1.861711    1.530628
     47          6           0       -2.820584   -2.737112    2.311626
     48          6           0       -1.419279   -2.731775    2.293491
     49          6           0       -0.746289   -1.862404    1.482690
     50          6           0       -1.439873   -0.941294    0.669040
     51          1           0        1.174360    1.595862    2.516750
     52          1           0        3.251121    1.185514    1.746798
     53          1           0        5.070327    2.328814    0.343783
     54          1           0        8.865683    0.356481    0.500434
     55          1           0        5.298253   -1.910690   -0.179602
     56          1           0        4.726979   -0.872082   -2.315078
     57          1           0        3.593169   -1.983255   -4.173167
     58          1           0        1.138857   -2.242840   -4.163540
     59          1           0       -0.192252   -1.320697   -2.316189
     60          1           0        0.103347    1.553148   -1.827687
     61          1           0       -3.369709    1.505481   -1.624704
     62          1           0       -5.106096    0.434798    2.049740
     63          1           0       -8.885312    0.526256    0.039674
     64          1           0       -5.284732   -0.117407   -2.186258
     65          1           0       -4.602045   -1.894700    1.527923
     66          1           0       -3.343555   -3.443810    2.938047
     67          1           0       -0.876128   -3.430856    2.911780
     68          1           0        0.332847   -1.878962    1.444011
 ---------------------------------------------------------------------
 Rotational constants (GHZ):           0.1220412           0.0184451           0.0180333
 Leave Link  202 at Mon Mar 24 04:25:50 2025, MaxMem= 13421772800 cpu:               1.0 elap:               0.0
 (Enter /public/software/apps/Gaussian/g16/l301.exe)
 Standard basis: def2SVPP (5D, 7F)
 Ernie: Thresh=  0.10000D-02 Tol=  0.10000D-05 Strict=F.
   736 basis functions,  1322 primitive gaussians,   786 cartesian basis functions
   179 alpha electrons      179 beta electrons
       nuclear repulsion energy      6154.5170514035 Hartrees.
 IExCor=  402 DFT=T Ex+Corr=B3LYP ExCW=0 ScaHFX=  0.200000
 ScaDFX=  0.800000  0.720000  1.000000  0.810000 ScalE2=  1.000000  1.000000
 IRadAn=      5 IRanWt=     -1 IRanGd=            0 ICorTp=0 IEmpDi=141
 NAtoms=   68 NActive=   68 NUniq=   68 SFac= 1.00D+00 NAtFMM=   60 NAOKFM=T Big=T
 Integral buffers will be    131072 words long.
 Raffenetti 2 integral format.
 Two-electron integral symmetry is turned off.
 R6Disp:  Grimme-D3(BJ) Dispersion energy=       -0.1777400802 Hartrees.
 Nuclear repulsion after empirical dispersion term =     6154.3393113233 Hartrees.
 Leave Link  301 at Mon Mar 24 04:25:50 2025, MaxMem= 13421772800 cpu:               0.9 elap:               0.0
 (Enter /public/software/apps/Gaussian/g16/l302.exe)
 NPDir=0 NMtPBC=     1 NCelOv=     1 NCel=       1 NClECP=     1 NCelD=      1
         NCelK=      1 NCelE2=     1 NClLst=     1 CellRange=     0.0.
 One-electron integrals computed using PRISM.
   1 Symmetry operations used in ECPInt.
 ECPInt:  NShTT=   56616 NPrTT=  226832 LenC2=   36957 LenP2D=   90538.
 LDataN:  DoStor=T MaxTD1= 4 Len=   56
 NBasis=   736 RedAO= T EigKep=  1.62D-04  NBF=   736
 NBsUse=   736 1.00D-06 EigRej= -1.00D+00 NBFU=   736
 Precomputing XC quadrature grid using
 IXCGrd= 4 IRadAn=           5 IRanWt=          -1 IRanGd=           0 AccXCQ= 0.00D+00.
 Generated NRdTot=       0 NPtTot=           0 NUsed=           0 NTot=          32
 NSgBfM=   683   680   683   683   683 MxSgAt=    68 MxSgA2=    68.
 Leave Link  302 at Mon Mar 24 04:25:51 2025, MaxMem= 13421772800 cpu:              26.0 elap:               0.8
 (Enter /public/software/apps/Gaussian/g16/l303.exe)
 DipDrv:  MaxL=1.
 Leave Link  303 at Mon Mar 24 04:25:51 2025, MaxMem= 13421772800 cpu:               4.5 elap:               0.2
 (Enter /public/software/apps/Gaussian/g16/l401.exe)
 ExpMin= 1.22D-01 ExpMax= 2.89D+03 ExpMxC= 4.35D+02 IAcc=3 IRadAn=         5 AccDes= 0.00D+00
 Harris functional with IExCor=  402 and IRadAn=       5 diagonalized for initial guess.
 HarFok:  IExCor=  402 AccDes= 0.00D+00 IRadAn=         5 IDoV= 1 UseB2=F ITyADJ=14
 ICtDFT=  3500011 ScaDFX=  1.000000  1.000000  1.000000  1.000000
 FoFCou: FMM=F IPFlag=           0 FMFlag=      100000 FMFlg1=        2001
         NFxFlg=           0 DoJE=T BraDBF=F KetDBF=T FulRan=T
         wScrn=  0.000000 ICntrl=       500 IOpCl=  0 I1Cent=   200000004 NGrid=           0
         NMat0=    1 NMatS0=      1 NMatT0=    0 NMatD0=    1 NMtDS0=    0 NMtDT0=    0
 Symmetry not used in FoFCou.
 Harris En= -2729.26563472906    
 JPrj=0 DoOrth=F DoCkMO=F.
 Leave Link  401 at Mon Mar 24 04:25:53 2025, MaxMem= 13421772800 cpu:              45.6 elap:               1.5
 (Enter /public/software/apps/Gaussian/g16/l502.exe)
 Two-electron integral symmetry not used.
 Closed shell SCF:
 Using DIIS extrapolation, IDIIS=  1040.
 NGot= 13421772800 LenX= 13420504288 LenY= 13419885706
 Requested convergence on RMS density matrix=1.00D-08 within 128 cycles.
 Requested convergence on MAX density matrix=1.00D-06.
 Requested convergence on             energy=1.00D-06.
 No special actions if energy rises.
 Fock matrices will be formed incrementally for  20 cycles.
 Integral accuracy reduced to 1.0D-05 until final iterations.

 Cycle   1  Pass 0  IDiag  1:
 FoFJK:  IHMeth= 1 ICntrl=       0 DoSepK=F KAlg= 0 I1Cent=           0 FoldK=F
 IRaf= 720000000 NMat=       1 IRICut=       1 DoRegI=T DoRafI=F ISym2E= 0 IDoP0=0 IntGTp=1.
 FoFCou: FMM=T IPFlag=           0 FMFlag=      100000 FMFlg1=        2001
         NFxFlg=           0 DoJE=F BraDBF=F KetDBF=F FulRan=T
         wScrn=  0.000000 ICntrl=         0 IOpCl=  0 I1Cent=           0 NGrid=           0
         NMat0=    1 NMatS0=      1 NMatT0=    0 NMatD0=    1 NMtDS0=    0 NMtDT0=    0
 Symmetry not used in FoFCou.
 FMM levels:  10  Number of levels for PrismC:   9
 E= -2728.58276664524    
 DIIS: error= 2.29D-02 at cycle   1 NSaved=   1.
 NSaved= 1 IEnMin= 1 EnMin= -2728.58276664524     IErMin= 1 ErrMin= 2.29D-02
 ErrMax= 2.29D-02  0.00D+00 EMaxC= 1.00D-01 BMatC= 8.76D-01 BMatP= 8.76D-01
 IDIUse=3 WtCom= 7.71D-01 WtEn= 2.29D-01
 Coeff-Com:  0.100D+01
 Coeff-En:   0.100D+01
 Coeff:      0.100D+01
 Gap=     0.154 Goal=   None    Shift=    0.000
 GapD=    0.154 DampG=1.000 DampE=0.500 DampFc=0.5000 IDamp=-1.
 Damping current iteration by 5.00D-01
 RMSDP=4.12D-03 MaxDP=1.75D-01              OVMax= 1.79D-01

 Cycle   2  Pass 0  IDiag  1:
 RMSU=  1.92D-03    CP:  9.54D-01
 E= -2728.93356268871     Delta-E=       -0.350796043474 Rises=F Damp=T
 DIIS: error= 4.73D-03 at cycle   2 NSaved=   2.
 NSaved= 2 IEnMin= 2 EnMin= -2728.93356268871     IErMin= 2 ErrMin= 4.73D-03
 ErrMax= 4.73D-03  0.00D+00 EMaxC= 1.00D-01 BMatC= 5.03D-02 BMatP= 8.76D-01
 IDIUse=3 WtCom= 9.53D-01 WtEn= 4.73D-02
 Coeff-Com:  0.916D-01 0.908D+00
 Coeff-En:   0.137D+00 0.863D+00
 Coeff:      0.938D-01 0.906D+00
 Gap=     0.159 Goal=   None    Shift=    0.000
 RMSDP=1.47D-03 MaxDP=9.71D-02 DE=-3.51D-01 OVMax= 1.31D-01

 Cycle   3  Pass 0  IDiag  1:
 RMSU=  1.28D-03    CP:  9.17D-01  1.21D+00
 E= -2729.37439743187     Delta-E=       -0.440834743160 Rises=F Damp=F
 DIIS: error= 4.37D-03 at cycle   3 NSaved=   3.
 NSaved= 3 IEnMin= 3 EnMin= -2729.37439743187     IErMin= 3 ErrMin= 4.37D-03
 ErrMax= 4.37D-03  0.00D+00 EMaxC= 1.00D-01 BMatC= 3.43D-02 BMatP= 5.03D-02
 IDIUse=3 WtCom= 9.56D-01 WtEn= 4.37D-02
 Coeff-Com: -0.581D-02 0.444D+00 0.562D+00
 Coeff-En:   0.000D+00 0.000D+00 0.100D+01
 Coeff:     -0.555D-02 0.425D+00 0.581D+00
 Gap=     0.142 Goal=   None    Shift=    0.000
 RMSDP=4.71D-04 MaxDP=2.53D-02 DE=-4.41D-01 OVMax= 5.95D-02

 Cycle   4  Pass 0  IDiag  1:
 RMSU=  4.05D-04    CP:  9.20D-01  1.22D+00  8.16D-01
 E= -2729.39890826267     Delta-E=       -0.024510830799 Rises=F Damp=F
 DIIS: error= 2.30D-03 at cycle   4 NSaved=   4.
 NSaved= 4 IEnMin= 4 EnMin= -2729.39890826267     IErMin= 4 ErrMin= 2.30D-03
 ErrMax= 2.30D-03  0.00D+00 EMaxC= 1.00D-01 BMatC= 7.19D-03 BMatP= 3.43D-02
 IDIUse=3 WtCom= 9.77D-01 WtEn= 2.30D-02
 Coeff-Com: -0.148D-01 0.149D+00 0.346D+00 0.520D+00
 Coeff-En:   0.000D+00 0.000D+00 0.201D+00 0.799D+00
 Coeff:     -0.144D-01 0.146D+00 0.343D+00 0.526D+00
 Gap=     0.139 Goal=   None    Shift=    0.000
 RMSDP=2.36D-04 MaxDP=1.37D-02 DE=-2.45D-02 OVMax= 3.23D-02

 Cycle   5  Pass 0  IDiag  1:
 RMSU=  1.52D-04    CP:  9.19D-01  1.22D+00  8.63D-01  5.81D-01
 E= -2729.40543954599     Delta-E=       -0.006531283314 Rises=F Damp=F
 DIIS: error= 1.07D-03 at cycle   5 NSaved=   5.
 NSaved= 5 IEnMin= 5 EnMin= -2729.40543954599     IErMin= 5 ErrMin= 1.07D-03
 ErrMax= 1.07D-03  0.00D+00 EMaxC= 1.00D-01 BMatC= 1.39D-03 BMatP= 7.19D-03
 IDIUse=3 WtCom= 9.89D-01 WtEn= 1.07D-02
 Coeff-Com: -0.929D-02 0.454D-01 0.158D+00 0.352D+00 0.454D+00
 Coeff-En:   0.000D+00 0.000D+00 0.000D+00 0.169D+00 0.831D+00
 Coeff:     -0.919D-02 0.449D-01 0.156D+00 0.351D+00 0.458D+00
 Gap=     0.140 Goal=   None    Shift=    0.000
 RMSDP=9.69D-05 MaxDP=4.38D-03 DE=-6.53D-03 OVMax= 1.58D-02

 Cycle   6  Pass 0  IDiag  1:
 RMSU=  6.98D-05    CP:  9.18D-01  1.23D+00  8.52D-01  6.58D-01  6.43D-01
 E= -2729.40690679295     Delta-E=       -0.001467246966 Rises=F Damp=F
 DIIS: error= 4.89D-04 at cycle   6 NSaved=   6.
 NSaved= 6 IEnMin= 6 EnMin= -2729.40690679295     IErMin= 6 ErrMin= 4.89D-04
 ErrMax= 4.89D-04  0.00D+00 EMaxC= 1.00D-01 BMatC= 1.47D-04 BMatP= 1.39D-03
 IDIUse=3 WtCom= 9.95D-01 WtEn= 4.89D-03
 Coeff-Com: -0.411D-02 0.106D-01 0.539D-01 0.151D+00 0.290D+00 0.499D+00
 Coeff-En:   0.000D+00 0.000D+00 0.000D+00 0.000D+00 0.675D-01 0.933D+00
 Coeff:     -0.409D-02 0.105D-01 0.536D-01 0.150D+00 0.289D+00 0.501D+00
 Gap=     0.139 Goal=   None    Shift=    0.000
 RMSDP=3.52D-05 MaxDP=2.44D-03 DE=-1.47D-03 OVMax= 5.97D-03

 Cycle   7  Pass 0  IDiag  1:
 RMSU=  2.90D-05    CP:  9.18D-01  1.23D+00  8.52D-01  6.53D-01  7.10D-01
                    CP:  7.58D-01
 E= -2729.40708057872     Delta-E=       -0.000173785767 Rises=F Damp=F
 DIIS: error= 1.74D-04 at cycle   7 NSaved=   7.
 NSaved= 7 IEnMin= 7 EnMin= -2729.40708057872     IErMin= 7 ErrMin= 1.74D-04
 ErrMax= 1.74D-04  0.00D+00 EMaxC= 1.00D-01 BMatC= 2.15D-05 BMatP= 1.47D-04
 IDIUse=3 WtCom= 9.98D-01 WtEn= 1.74D-03
 Coeff-Com: -0.184D-02 0.233D-02 0.189D-01 0.613D-01 0.143D+00 0.334D+00
 Coeff-Com:  0.442D+00
 Coeff-En:   0.000D+00 0.000D+00 0.000D+00 0.000D+00 0.000D+00 0.331D-01
 Coeff-En:   0.967D+00
 Coeff:     -0.183D-02 0.233D-02 0.189D-01 0.612D-01 0.142D+00 0.334D+00
 Coeff:      0.443D+00
 Gap=     0.139 Goal=   None    Shift=    0.000
 RMSDP=1.78D-05 MaxDP=9.30D-04 DE=-1.74D-04 OVMax= 1.70D-03

 Cycle   8  Pass 0  IDiag  1:
 RMSU=  1.60D-05    CP:  9.18D-01  1.23D+00  8.55D-01  6.52D-01  6.89D-01
                    CP:  8.36D-01  1.06D+00
 E= -2729.40712085019     Delta-E=       -0.000040271465 Rises=F Damp=F
 DIIS: error= 3.05D-05 at cycle   8 NSaved=   8.
 NSaved= 8 IEnMin= 8 EnMin= -2729.40712085019     IErMin= 8 ErrMin= 3.05D-05
 ErrMax= 3.05D-05  0.00D+00 EMaxC= 1.00D-01 BMatC= 6.84D-07 BMatP= 2.15D-05
 IDIUse=1 WtCom= 1.00D+00 WtEn= 0.00D+00
 Coeff-Com: -0.618D-03 0.149D-03 0.502D-02 0.190D-01 0.500D-01 0.129D+00
 Coeff-Com:  0.210D+00 0.587D+00
 Coeff:     -0.618D-03 0.149D-03 0.502D-02 0.190D-01 0.500D-01 0.129D+00
 Coeff:      0.210D+00 0.587D+00
 Gap=     0.139 Goal=   None    Shift=    0.000
 RMSDP=1.28D-05 MaxDP=4.34D-04 DE=-4.03D-05 OVMax= 2.45D-04

 Cycle   9  Pass 0  IDiag  1:
 RMSU=  7.54D-06    CP:  9.18D-01  1.23D+00  8.55D-01  6.52D-01  6.91D-01
                    CP:  8.70D-01  1.30D+00  1.44D+00
 E= -2729.40712477300     Delta-E=       -0.000003922813 Rises=F Damp=F
 DIIS: error= 1.48D-05 at cycle   9 NSaved=   9.
 NSaved= 9 IEnMin= 9 EnMin= -2729.40712477300     IErMin= 9 ErrMin= 1.48D-05
 ErrMax= 1.48D-05  0.00D+00 EMaxC= 1.00D-01 BMatC= 2.48D-07 BMatP= 6.84D-07
 IDIUse=1 WtCom= 1.00D+00 WtEn= 0.00D+00
 Coeff-Com: -0.226D-03-0.801D-04 0.141D-02 0.610D-02 0.179D-01 0.499D-01
 Coeff-Com:  0.883D-01 0.370D+00 0.467D+00
 Coeff:     -0.226D-03-0.801D-04 0.141D-02 0.610D-02 0.179D-01 0.499D-01
 Coeff:      0.883D-01 0.370D+00 0.467D+00
 Gap=     0.139 Goal=   None    Shift=    0.000
 RMSDP=9.99D-06 MaxDP=3.19D-04 DE=-3.92D-06 OVMax= 9.82D-05

 Initial convergence to 1.0D-05 achieved.  Increase integral accuracy.
 Cycle  10  Pass 1  IDiag  1:
 E= -2729.40679103966     Delta-E=        0.000333733340 Rises=F Damp=F
 DIIS: error= 6.93D-04 at cycle   1 NSaved=   1.
 NSaved= 1 IEnMin= 1 EnMin= -2729.40679103966     IErMin= 1 ErrMin= 6.93D-04
 ErrMax= 6.93D-04  0.00D+00 EMaxC= 1.00D-01 BMatC= 7.98D-05 BMatP= 7.98D-05
 IDIUse=3 WtCom= 9.93D-01 WtEn= 6.93D-03
 Coeff-Com:  0.100D+01
 Coeff-En:   0.100D+01
 Coeff:      0.100D+01
 Gap=     0.139 Goal=   None    Shift=    0.000
 RMSDP=9.99D-06 MaxDP=3.19D-04 DE= 3.34D-04 OVMax= 9.09D-04

 Cycle  11  Pass 1  IDiag  1:
 RMSU=  4.94D-04    CP:  9.97D-01
 E= -2729.40687124167     Delta-E=       -0.000080202011 Rises=F Damp=F
 DIIS: error= 5.79D-06 at cycle   2 NSaved=   2.
 NSaved= 2 IEnMin= 2 EnMin= -2729.40687124167     IErMin= 2 ErrMin= 5.79D-06
 ErrMax= 5.79D-06  0.00D+00 EMaxC= 1.00D-01 BMatC= 4.15D-08 BMatP= 7.98D-05
 IDIUse=1 WtCom= 1.00D+00 WtEn= 0.00D+00
 Coeff-Com: -0.877D-02 0.101D+01
 Coeff:     -0.877D-02 0.101D+01
 Gap=     0.139 Goal=   None    Shift=    0.000
 RMSDP=6.23D-06 MaxDP=2.22D-04 DE=-8.02D-05 OVMax= 1.58D-04

 Cycle  12  Pass 1  IDiag  1:
 RMSU=  2.15D-06    CP:  9.97D-01  1.01D+00
 E= -2729.40687114421     Delta-E=        0.000000097456 Rises=F Damp=F
 DIIS: error= 1.21D-05 at cycle   3 NSaved=   3.
 NSaved= 3 IEnMin= 2 EnMin= -2729.40687124167     IErMin= 2 ErrMin= 5.79D-06
 ErrMax= 1.21D-05  0.00D+00 EMaxC= 1.00D-01 BMatC= 1.33D-07 BMatP= 4.15D-08
 IDIUse=1 WtCom= 1.00D+00 WtEn= 0.00D+00
 Coeff-Com: -0.624D-02 0.671D+00 0.335D+00
 Coeff:     -0.624D-02 0.671D+00 0.335D+00
 Gap=     0.139 Goal=   None    Shift=    0.000
 RMSDP=7.56D-07 MaxDP=4.58D-05 DE= 9.75D-08 OVMax= 1.17D-04

 Cycle  13  Pass 1  IDiag  1:
 RMSU=  6.66D-07    CP:  9.97D-01  1.01D+00  8.34D-01
 E= -2729.40687129276     Delta-E=       -0.000000148550 Rises=F Damp=F
 DIIS: error= 9.37D-07 at cycle   4 NSaved=   4.
 NSaved= 4 IEnMin= 4 EnMin= -2729.40687129276     IErMin= 4 ErrMin= 9.37D-07
 ErrMax= 9.37D-07  0.00D+00 EMaxC= 1.00D-01 BMatC= 1.52D-09 BMatP= 4.15D-08
 IDIUse=1 WtCom= 1.00D+00 WtEn= 0.00D+00
 Coeff-Com: -0.230D-02 0.244D+00 0.149D+00 0.609D+00
 Coeff:     -0.230D-02 0.244D+00 0.149D+00 0.609D+00
 Gap=     0.139 Goal=   None    Shift=    0.000
 RMSDP=1.33D-07 MaxDP=7.40D-06 DE=-1.49D-07 OVMax= 1.52D-05

 Cycle  14  Pass 1  IDiag  1:
 RMSU=  1.24D-07    CP:  9.97D-01  1.01D+00  8.49D-01  9.57D-01
 E= -2729.40687129381     Delta-E=       -0.000000001046 Rises=F Damp=F
 DIIS: error= 6.12D-07 at cycle   5 NSaved=   5.
 NSaved= 5 IEnMin= 5 EnMin= -2729.40687129381     IErMin= 5 ErrMin= 6.12D-07
 ErrMax= 6.12D-07  0.00D+00 EMaxC= 1.00D-01 BMatC= 6.01D-10 BMatP= 1.52D-09
 IDIUse=1 WtCom= 1.00D+00 WtEn= 0.00D+00
 Coeff-Com: -0.289D-03 0.288D-01 0.320D-01 0.403D+00 0.536D+00
 Coeff:     -0.289D-03 0.288D-01 0.320D-01 0.403D+00 0.536D+00
 Gap=     0.139 Goal=   None    Shift=    0.000
 RMSDP=5.83D-08 MaxDP=3.22D-06 DE=-1.05D-09 OVMax= 7.37D-06

 Cycle  15  Pass 1  IDiag  1:
 RMSU=  3.66D-08    CP:  9.97D-01  1.01D+00  8.52D-01  9.85D-01  6.79D-01
 E= -2729.40687129440     Delta-E=       -0.000000000588 Rises=F Damp=F
 DIIS: error= 1.69D-07 at cycle   6 NSaved=   6.
 NSaved= 6 IEnMin= 6 EnMin= -2729.40687129440     IErMin= 6 ErrMin= 1.69D-07
 ErrMax= 1.69D-07  0.00D+00 EMaxC= 1.00D-01 BMatC= 6.23D-11 BMatP= 6.01D-10
 IDIUse=1 WtCom= 1.00D+00 WtEn= 0.00D+00
 Coeff-Com:  0.447D-05-0.173D-02 0.803D-02 0.205D+00 0.338D+00 0.451D+00
 Coeff:      0.447D-05-0.173D-02 0.803D-02 0.205D+00 0.338D+00 0.451D+00
 Gap=     0.139 Goal=   None    Shift=    0.000
 RMSDP=1.94D-08 MaxDP=1.16D-06 DE=-5.88D-10 OVMax= 2.96D-06

 Cycle  16  Pass 1  IDiag  1:
 RMSU=  1.11D-08    CP:  9.97D-01  1.01D+00  8.53D-01  9.85D-01  7.03D-01
                    CP:  5.80D-01
 E= -2729.40687129445     Delta-E=       -0.000000000055 Rises=F Damp=F
 DIIS: error= 6.87D-08 at cycle   7 NSaved=   7.
 NSaved= 7 IEnMin= 7 EnMin= -2729.40687129445     IErMin= 7 ErrMin= 6.87D-08
 ErrMax= 6.87D-08  0.00D+00 EMaxC= 1.00D-01 BMatC= 4.74D-12 BMatP= 6.23D-11
 IDIUse=1 WtCom= 1.00D+00 WtEn= 0.00D+00
 Coeff-Com:  0.219D-04-0.298D-02 0.290D-02 0.100D+00 0.173D+00 0.285D+00
 Coeff-Com:  0.442D+00
 Coeff:      0.219D-04-0.298D-02 0.290D-02 0.100D+00 0.173D+00 0.285D+00
 Coeff:      0.442D+00
 Gap=     0.139 Goal=   None    Shift=    0.000
 RMSDP=5.96D-09 MaxDP=4.56D-07 DE=-5.46D-11 OVMax= 9.15D-07

 SCF Done:  E(RB3LYP) =  -2729.40687129     A.U. after   16 cycles
            NFock= 16  Conv=0.60D-08     -V/T= 2.0076
 KE= 2.708823437642D+03 PE=-1.871380776863D+04 EE= 7.121238148370D+03
 Leave Link  502 at Mon Mar 24 04:26:35 2025, MaxMem= 13421772800 cpu:            1320.8 elap:              41.8
 (Enter /public/software/apps/Gaussian/g16/l601.exe)
 Copying SCF densities to generalized density rwf, IOpCl= 0 IROHF=0.

 **********************************************************************

            Population analysis using the SCF Density.

 **********************************************************************

 Alpha  occ. eigenvalues --  -24.73475 -24.73467 -24.72970 -24.72707 -24.72695
 Alpha  occ. eigenvalues --  -24.72649 -24.72602 -24.72500 -24.72160 -24.71928
 Alpha  occ. eigenvalues --  -24.71848 -24.71632 -19.18668 -19.16998 -10.44829
 Alpha  occ. eigenvalues --  -10.44772 -10.43918 -10.43885 -10.27594 -10.25976
 Alpha  occ. eigenvalues --  -10.24126 -10.24120 -10.23874 -10.23454 -10.23196
 Alpha  occ. eigenvalues --  -10.23174 -10.23074 -10.23047 -10.22993 -10.22628
 Alpha  occ. eigenvalues --  -10.22394 -10.22030 -10.21998 -10.21977 -10.21747
 Alpha  occ. eigenvalues --  -10.21663 -10.21356 -10.21333 -10.20505 -10.20415
 Alpha  occ. eigenvalues --  -10.20294 -10.20260 -10.20187 -10.20080 -10.19981
 Alpha  occ. eigenvalues --  -10.19642 -10.19158 -10.19130 -10.18892 -10.18876
 Alpha  occ. eigenvalues --   -1.31405  -1.31345  -1.30516  -1.30480  -1.22159
 Alpha  occ. eigenvalues --   -1.22100  -1.21473  -1.21406  -1.21263  -1.21225
 Alpha  occ. eigenvalues --   -1.20577  -1.20545  -1.08058  -1.06378  -0.91798
 Alpha  occ. eigenvalues --   -0.90594  -0.89889  -0.88333  -0.84760  -0.83475
 Alpha  occ. eigenvalues --   -0.83412  -0.82427  -0.81382  -0.80639  -0.78345
 Alpha  occ. eigenvalues --   -0.76561  -0.76059  -0.74946  -0.74166  -0.72367
 Alpha  occ. eigenvalues --   -0.72155  -0.71524  -0.71328  -0.70535  -0.67997
 Alpha  occ. eigenvalues --   -0.66133  -0.65637  -0.64900  -0.64831  -0.64398
 Alpha  occ. eigenvalues --   -0.64068  -0.63061  -0.62359  -0.61685  -0.60931
 Alpha  occ. eigenvalues --   -0.60466  -0.60374  -0.60332  -0.60000  -0.59607
 Alpha  occ. eigenvalues --   -0.59579  -0.59521  -0.58807  -0.58181  -0.57340
 Alpha  occ. eigenvalues --   -0.55670  -0.55269  -0.54502  -0.54027  -0.53798
 Alpha  occ. eigenvalues --   -0.53411  -0.52789  -0.52376  -0.51483  -0.50835
 Alpha  occ. eigenvalues --   -0.50213  -0.49836  -0.48335  -0.48226  -0.48078
 Alpha  occ. eigenvalues --   -0.47943  -0.47484  -0.47434  -0.47362  -0.47319
 Alpha  occ. eigenvalues --   -0.46987  -0.46785  -0.46695  -0.46151  -0.45720
 Alpha  occ. eigenvalues --   -0.45371  -0.45044  -0.44683  -0.44298  -0.44253
 Alpha  occ. eigenvalues --   -0.44137  -0.43972  -0.43865  -0.43606  -0.43379
 Alpha  occ. eigenvalues --   -0.43278  -0.43230  -0.43186  -0.42988  -0.42739
 Alpha  occ. eigenvalues --   -0.42303  -0.42287  -0.42157  -0.42037  -0.41979
 Alpha  occ. eigenvalues --   -0.41366  -0.41171  -0.41117  -0.40813  -0.40423
 Alpha  occ. eigenvalues --   -0.40144  -0.39914  -0.39097  -0.38980  -0.38671
 Alpha  occ. eigenvalues --   -0.38539  -0.38334  -0.37628  -0.37482  -0.36025
 Alpha  occ. eigenvalues --   -0.35780  -0.34278  -0.34050  -0.32820  -0.31450
 Alpha  occ. eigenvalues --   -0.30481  -0.29861  -0.29473  -0.29356  -0.28237
 Alpha  occ. eigenvalues --   -0.26504  -0.24884  -0.23437  -0.21817
 Alpha virt. eigenvalues --   -0.07881  -0.06816  -0.06223  -0.05667  -0.04914
 Alpha virt. eigenvalues --   -0.03753  -0.03132  -0.01623   0.00402   0.01914
 Alpha virt. eigenvalues --    0.02561   0.05848   0.06145   0.06843   0.07085
 Alpha virt. eigenvalues --    0.07406   0.07651   0.08074   0.08399   0.08903
 Alpha virt. eigenvalues --    0.09115   0.09588   0.09887   0.10247   0.10534
 Alpha virt. eigenvalues --    0.11081   0.11237   0.12148   0.12552   0.12875
 Alpha virt. eigenvalues --    0.12991   0.13545   0.13933   0.14484   0.14837
 Alpha virt. eigenvalues --    0.15124   0.17273   0.18333   0.18821   0.19099
 Alpha virt. eigenvalues --    0.19676   0.19836   0.19919   0.20561   0.20635
 Alpha virt. eigenvalues --    0.20920   0.21568   0.21970   0.22319   0.23412
 Alpha virt. eigenvalues --    0.23584   0.24417   0.24613   0.24984   0.25004
 Alpha virt. eigenvalues --    0.25302   0.25795   0.26091   0.26338   0.26461
 Alpha virt. eigenvalues --    0.26741   0.27226   0.27628   0.27958   0.28358
 Alpha virt. eigenvalues --    0.29362   0.29855   0.30204   0.30650   0.31128
 Alpha virt. eigenvalues --    0.31574   0.31829   0.31992   0.32723   0.32874
 Alpha virt. eigenvalues --    0.33122   0.33577   0.33748   0.33830   0.34486
 Alpha virt. eigenvalues --    0.34845   0.34959   0.35201   0.35801   0.35963
 Alpha virt. eigenvalues --    0.36481   0.36761   0.37399   0.37892   0.38565
 Alpha virt. eigenvalues --    0.38909   0.39402   0.40305   0.40726   0.41010
 Alpha virt. eigenvalues --    0.41279   0.41733   0.41953   0.42508   0.42794
 Alpha virt. eigenvalues --    0.43139   0.44103   0.44430   0.44947   0.45203
 Alpha virt. eigenvalues --    0.45676   0.45720   0.46113   0.46262   0.46408
 Alpha virt. eigenvalues --    0.46675   0.46925   0.47327   0.47531   0.47666
 Alpha virt. eigenvalues --    0.47992   0.48256   0.48801   0.48932   0.49652
 Alpha virt. eigenvalues --    0.50067   0.50401   0.50735   0.51432   0.51738
 Alpha virt. eigenvalues --    0.52276   0.52792   0.53111   0.53324   0.54077
 Alpha virt. eigenvalues --    0.54656   0.55096   0.55321   0.56132   0.56342
 Alpha virt. eigenvalues --    0.56769   0.57567   0.58531   0.58763   0.58886
 Alpha virt. eigenvalues --    0.59765   0.60126   0.60785   0.60997   0.61757
 Alpha virt. eigenvalues --    0.62108   0.62606   0.62863   0.63122   0.63667
 Alpha virt. eigenvalues --    0.63870   0.64370   0.64921   0.65093   0.65205
 Alpha virt. eigenvalues --    0.65752   0.66216   0.66301   0.66426   0.66939
 Alpha virt. eigenvalues --    0.67253   0.67552   0.67807   0.68277   0.68493
 Alpha virt. eigenvalues --    0.68605   0.68794   0.69043   0.69174   0.69807
 Alpha virt. eigenvalues --    0.70000   0.70250   0.70599   0.71280   0.71425
 Alpha virt. eigenvalues --    0.71544   0.71969   0.72714   0.72900   0.73948
 Alpha virt. eigenvalues --    0.74274   0.74887   0.75098   0.75415   0.75537
 Alpha virt. eigenvalues --    0.76259   0.76547   0.76910   0.77493   0.77910
 Alpha virt. eigenvalues --    0.78476   0.78920   0.79438   0.80100   0.80644
 Alpha virt. eigenvalues --    0.80816   0.81061   0.81588   0.82152   0.83382
 Alpha virt. eigenvalues --    0.83846   0.84185   0.84622   0.85333   0.86111
 Alpha virt. eigenvalues --    0.86494   0.86968   0.87550   0.88178   0.90376
 Alpha virt. eigenvalues --    0.91121   0.91347   0.92878   0.94300   0.95331
 Alpha virt. eigenvalues --    0.96028   0.96780   0.97769   0.98757   0.99241
 Alpha virt. eigenvalues --    0.99479   1.00991   1.02518   1.02968   1.04241
 Alpha virt. eigenvalues --    1.04862   1.05669   1.06400   1.07599   1.07763
 Alpha virt. eigenvalues --    1.08426   1.08644   1.09166   1.09337   1.09761
 Alpha virt. eigenvalues --    1.10202   1.10241   1.10478   1.10962   1.11122
 Alpha virt. eigenvalues --    1.11587   1.12427   1.13239   1.13622   1.13815
 Alpha virt. eigenvalues --    1.14290   1.14554   1.15254   1.16033   1.16355
 Alpha virt. eigenvalues --    1.16904   1.18400   1.19424   1.21561   1.21875
 Alpha virt. eigenvalues --    1.22900   1.23861   1.24454   1.25327   1.25595
 Alpha virt. eigenvalues --    1.26204   1.26936   1.27997   1.28202   1.28787
 Alpha virt. eigenvalues --    1.29625   1.30282   1.31066   1.31502   1.31756
 Alpha virt. eigenvalues --    1.32386   1.32906   1.33651   1.34229   1.34572
 Alpha virt. eigenvalues --    1.34737   1.35035   1.35213   1.35631   1.36284
 Alpha virt. eigenvalues --    1.36791   1.37613   1.38140   1.39234   1.40573
 Alpha virt. eigenvalues --    1.41294   1.42236   1.42582   1.43242   1.43448
 Alpha virt. eigenvalues --    1.43642   1.43851   1.44307   1.44461   1.44713
 Alpha virt. eigenvalues --    1.45368   1.45578   1.46012   1.46213   1.46703
 Alpha virt. eigenvalues --    1.46991   1.47129   1.47539   1.47772   1.48100
 Alpha virt. eigenvalues --    1.48392   1.48580   1.48853   1.49184   1.49253
 Alpha virt. eigenvalues --    1.50053   1.50148   1.50716   1.51425   1.52171
 Alpha virt. eigenvalues --    1.55227   1.56564   1.57901   1.59462   1.60525
 Alpha virt. eigenvalues --    1.62751   1.63636   1.63870   1.64666   1.65440
 Alpha virt. eigenvalues --    1.65850   1.67835   1.68407   1.69060   1.69375
 Alpha virt. eigenvalues --    1.70411   1.70859   1.71327   1.71584   1.72070
 Alpha virt. eigenvalues --    1.72454   1.72921   1.73424   1.73438   1.73844
 Alpha virt. eigenvalues --    1.74027   1.74452   1.74954   1.75448   1.76971
 Alpha virt. eigenvalues --    1.77637   1.78083   1.78897   1.79862   1.80104
 Alpha virt. eigenvalues --    1.81382   1.81626   1.82013   1.83493   1.84095
 Alpha virt. eigenvalues --    1.84298   1.84760   1.85185   1.86408   1.87288
 Alpha virt. eigenvalues --    1.87658   1.87774   1.88576   1.88729   1.89468
 Alpha virt. eigenvalues --    1.90109   1.91623   1.92261   1.92524   1.93272
 Alpha virt. eigenvalues --    1.94120   1.95540   1.95730   1.96155   1.96457
 Alpha virt. eigenvalues --    1.97172   1.97328   1.97574   1.98356   1.98481
 Alpha virt. eigenvalues --    1.98822   1.99627   2.00954   2.01865   2.02322
 Alpha virt. eigenvalues --    2.02815   2.02899   2.04801   2.05566   2.06827
 Alpha virt. eigenvalues --    2.07141   2.07485   2.08095   2.08386   2.08913
 Alpha virt. eigenvalues --    2.09361   2.09966   2.10551   2.12192   2.12676
 Alpha virt. eigenvalues --    2.13149   2.13947   2.14280   2.16235   2.16554
 Alpha virt. eigenvalues --    2.17637   2.18670   2.19672   2.20563   2.20812
 Alpha virt. eigenvalues --    2.21914   2.22177   2.22669   2.23155   2.23277
 Alpha virt. eigenvalues --    2.23691   2.24359   2.25554   2.26201   2.26489
 Alpha virt. eigenvalues --    2.26737   2.27846   2.28439   2.28585   2.29228
 Alpha virt. eigenvalues --    2.29726   2.30760   2.31625   2.32578   2.32805
 Alpha virt. eigenvalues --    2.34756   2.35521   2.38022   2.38748   2.40488
 Alpha virt. eigenvalues --    2.43331   2.44714   2.47610   2.48602   2.48756
 Alpha virt. eigenvalues --    2.50414   2.51028   2.51189   2.52036   2.52294
 Alpha virt. eigenvalues --    2.54086   2.55215   2.55918   2.57449   2.58467
 Alpha virt. eigenvalues --    2.58958   2.60543   2.61514   2.62632   2.63328
 Alpha virt. eigenvalues --    2.63934   2.64617   2.64757   2.66267   2.67041
 Alpha virt. eigenvalues --    2.67966   2.68588   2.69150   2.70334   2.70780
 Alpha virt. eigenvalues --    2.70939   2.71555   2.71953   2.72598   2.75804
 Alpha virt. eigenvalues --    2.76772   2.77299   2.79616   2.81825   2.83483
 Alpha virt. eigenvalues --    2.85882   2.86914   2.89992   2.91828   2.92272
 Alpha virt. eigenvalues --    2.93175   2.96096   2.97545   2.99069   2.99152
 Alpha virt. eigenvalues --    2.99494   2.99898   3.00178   3.01166   3.02420
 Alpha virt. eigenvalues --    3.02511   3.03086   3.03180   3.03278   3.03405
 Alpha virt. eigenvalues --    3.03755   3.03951   3.04023   3.04062   3.04085
 Alpha virt. eigenvalues --    3.04585   3.04764   3.04838   3.05034   3.05567
 Alpha virt. eigenvalues --    3.05604   3.06139   3.06589   3.06971   3.08076
 Alpha virt. eigenvalues --    3.09039   3.09879   3.10375   3.13281   3.14187
 Alpha virt. eigenvalues --    3.15485   3.15649   3.16245   3.16722   3.19312
 Alpha virt. eigenvalues --    3.20648   3.21079   3.21483   3.24824   3.25725
 Alpha virt. eigenvalues --    3.28791   3.31324   3.34815   3.36663   3.42127
[...]
 0,-0.00000205,0.00000069,-0.00000264,0.00000047,0.00000192,-0.00000223
 ,0.00000117,0.00000141,0.00000094,0.00000086,-0.00000011,-0.00000117,-
 0.00000234,-0.00001052,0.00001035,0.00000765,-0.00000357,-0.00004838,-
 0.00008770,0.00001494,-0.00000847,0.00000481,0.00004108,-0.00000083,-0
 .00000013,0.00000408,-0.00000893,0.00000212,-0.00001387,0.00013028,-0.
 00147359,-0.00313974,0.10040077,0.17589071,0.00002290,0.00000023,-0.00
 003399,0.00000790,0.00002540,0.00003248,-0.00000855,-0.00000122,0.0000
 0086,0.00000664,-0.00000549,-0.00000813,-0.00001592,-0.00000146,-0.000
 00214,0.00000642,-0.00000014,-0.00000038,0.00000099,0.00000067,0.00000
 156,-0.00001555,-0.00001203,0.00000245,0.00000399,0.00000212,-0.000000
 96,0.00000372,0.00000516,-0.00000354,0.00000794,0.00000301,0.00000183,
 0.00000468,0.00000037,0.00000010,0.00000209,-0.00000303,-0.00000093,-0
 .00001443,0.00002692,0.00000489,0.00000731,-0.00000559,0.,0.00000373,-
 0.00000875,-0.00000597,0.00000198,-0.00000983,0.00000113,0.00000665,0.
 00000266,0.00000087,0.00001186,-0.00000132,0.00000287,-0.00000131,-0.0
 0000257,-0.00000411,0.00000793,-0.00000076,-0.00000181,-0.00000582,0.0
 0000119,0.00000936,-0.00000023,-0.00001063,-0.00001828,0.00000650,0.00
 001445,0.00003893,-0.00001983,-0.00001630,-0.00002318,-0.00000330,-0.0
 0053889,-0.00021355,-0.00032616,0.00006969,0.00002755,0.00009198,0.000
 07969,-0.00001775,-0.00002848,-0.00005102,-0.00058118,0.00075522,0.000
 31206,0.00024723,0.00015844,0.00012049,0.00015535,0.00003389,-0.000097
 98,-0.00000729,-0.00007781,-0.00001878,-0.00000809,0.00004280,0.000080
 91,-0.00004011,-0.00000729,-0.00005110,0.00002752,-0.00001943,-0.00002
 453,-0.00000715,-0.00002052,-0.00000833,0.00000967,-0.00000939,0.00001
 496,0.00005588,0.00003135,-0.00003136,-0.00003857,0.00004068,0.0000706
 0,0.00004134,-0.00001128,-0.00000867,-0.00000994,-0.00001553,-0.000049
 15,-0.00002035,-0.00001373,-0.00001453,-0.00000427,-0.00004970,0.00001
 885,-0.00001785,-0.00268477,0.00545375,0.00348824,0.01044001,0.0112219
 6,-0.00559170,0.07689459,0.11329804,-0.13182100,-0.00163892,-0.0007091
 9,0.00354703,-0.00037465,0.00190802,0.00369326,-0.00043639,-0.00026197
 ,-0.00032284,-0.00000311,-0.00000702,0.00000293,0.00000097,0.00000080,
 0.00000070,-0.00000176,-0.00000198,-0.00000009,-0.00000035,0.00000028,
 0.00000019,-0.00000177,0.00000228,0.00000017,0.00000209,0.00000053,-0.
 00000173,0.00000247,0.00000053,-0.00000258,-0.00000045,-0.00000007,-0.
 00000504,-0.00000105,0.00001116,0.00000857,-0.00001652,0.00000442,0.00
 000345,0.00005003,-0.00000538,-0.00010633,0.00004499,0.00000355,-0.000
 00085,-0.00000141,0.00000814,-0.00000094,0.00001103,0.00001624,0.00000
 181,0.00005236,-0.00303839,-0.00243220,-0.08318369,-0.12603271,0.13124
 388,0.00000100,0.00001016,-0.00001452,-0.00000020,-0.00000026,0.000008
 05,-0.00000340,0.00000682,-0.00001135,-0.00000886,0.00000054,0.0000031
 9,-0.00000674,0.00000121,0.00000050,0.00000133,-0.00000169,-0.00000099
 ,0.00000318,0.00000273,0.00000200,-0.00001613,-0.00002310,-0.00000195,
 0.00000232,0.00000700,0.00000189,0.00000424,0.00000828,-0.00000346,0.0
 0000850,0.00000512,0.00000263,0.00000273,0.00000054,0.00000030,0.00000
 047,0.00000185,-0.00000126,-0.00002658,0.00000575,0.00001105,0.0000128
 0,-0.00000174,0.00000052,0.00000512,-0.00000446,-0.00000630,0.00000811
 ,0.00000144,-0.00000480,0.00000121,-0.00000491,-0.00000199,-0.00000202
 ,0.00000142,-0.00000161,-0.00000405,0.00000214,0.00000193,-0.00000065,
 0.00000065,-0.00000101,0.00000276,0.00000190,0.00000264,0.00000272,-0.
 00000239,-0.00000243,-0.00000823,-0.00000634,0.00000825,0.00002192,0.0
 0003032,-0.00001749,0.00058134,-0.00010565,0.00009909,0.00005012,-0.00
 024414,0.00022775,0.00006198,-0.00000189,0.00000552,-0.00019370,-0.000
 04018,0.00004332,0.00007508,0.00020896,-0.00017350,-0.00000604,0.00000
 292,-0.00001119,-0.00002333,0.00004076,0.00000221,0.00004822,0.0000200
 5,0.00001353,0.00006963,-0.00003399,-0.00010003,-0.00001971,-0.0000024
 2,0.00003518,-0.00000553,0.00001885,0.00003615,-0.00003408,0.00000995,
 0.00001914,-0.00000878,-0.00001280,-0.00003774,-0.00005233,0.00001043,
 -0.00000267,0.00005581,0.00001274,0.00009370,-0.00002848,0.00000430,-0
 .00001954,-0.00001735,-0.00002111,-0.00002852,-0.00000420,0.00000197,-
 0.00003108,0.00005084,0.00000811,0.00005037,-0.00032754,-0.00076253,0.
 00063529,-0.00556069,-0.00124355,0.00082873,-0.00980705,0.02170084,-0.
 01893735,-0.12799783,0.09021288,-0.07935671,0.01167207,-0.01156260,0.0
 1005774,-0.00134600,-0.00235168,0.00207256,0.00000426,-0.00001604,-0.0
 0000192,-0.00000218,-0.00000466,0.00000121,-0.00000116,-0.00000112,0.0
 0000014,-0.00000028,0.00000018,0.00000014,-0.00000363,0.00000150,0.000
 00370,0.00000099,-0.00000012,0.00000006,0.00000125,-0.00000056,-0.0000
 0114,-0.00000088,-0.00000072,-0.00000101,-0.00000226,0.00000440,0.0000
 0284,0.00000024,0.00000307,-0.00000229,0.00000579,0.00000612,-0.000008
 02,-0.00000140,-0.00003632,-0.00002785,-0.00000014,-0.00000160,-0.0000
 0284,0.00000085,-0.00000438,0.00000041,-0.00055422,0.00094372,-0.00084
 569,0.00138234,-0.00031424,0.00037654,0.13100670,0.00008156,-0.0000005
 6,-0.00020968,-0.00011211,0.00002790,0.00019858,0.00008272,0.00001069,
 -0.00003310,-0.00003453,0.00003136,0.00005413,0.00003069,0.00000111,0.
 00000043,-0.00001216,-0.00000051,-0.00000181,-0.00000085,-0.00000123,-
 0.00000523,0.00000718,0.00001096,0.00002041,0.00000063,-0.00000551,-0.
 00000733,-0.00000155,-0.00000066,-0.00000613,-0.00000725,-0.00000285,-
 0.00000596,-0.00000864,-0.00000116,-0.00000050,-0.00000208,0.00000592,
 -0.00000113,0.00000155,-0.00003170,0.00003026,-0.00000411,0.00000613,-
 0.00000502,-0.00000193,0.00000380,-0.00000982,0.00000496,0.00001795,-0
 .00001437,-0.00001302,-0.00000507,-0.00000426,-0.00003196,-0.00000918,
 -0.00002803,-0.00001308,0.00000925,0.00001965,-0.00001861,-0.00000838,
 -0.00001456,0.00002261,-0.00000452,-0.00001303,0.00002167,0.00001741,0
 .00002733,-0.00003708,-0.00003656,-0.00007877,0.00005738,0.00016555,0.
 00011928,0.00089301,-0.00031481,0.00034172,-0.00017051,-0.00035811,-0.
 00028828,-0.00006841,-0.00020274,0.00018302,-0.00009586,0.00005557,0.0
 0007175,0.00004410,-0.00020962,-0.00045616,-0.00004016,-0.00004269,0.0
 0001790,0.00000002,0.00000141,0.00003046,0.00000694,0.00000414,-0.0000
 0499,-0.00002386,0.00002204,0.00008514,0.00000744,0.00000478,-0.000028
 49,-0.00000113,-0.00001688,-0.00003128,0.00001615,-0.00000641,-0.00001
 801,0.00001570,-0.00000323,-0.00000860,-0.00000636,0.00000270,0.000010
 28,-0.00003731,0.00000134,-0.00004072,0.00002196,-0.00000672,0.0000109
 1,0.00000992,0.00000607,0.00001166,0.00000689,-0.00000165,0.00001267,0
 .00003845,-0.00000464,-0.00001593,-0.00053528,-0.00013783,-0.00038255,
 -0.00030221,0.00315841,0.00196986,-0.00208756,0.00366256,-0.00015201,0
 .08994061,-0.16790024,0.11359453,0.01191478,-0.00881641,0.01151619,-0.
 00286183,0.00244954,0.00551495,-0.00002543,-0.00004522,0.00006405,-0.0
 0001269,-0.00001722,-0.00000378,0.00000250,0.00000215,0.00000338,-0.00
 000006,-0.00000023,0.00000141,0.00000138,-0.00000252,0.00000635,-0.000
 00357,-0.00000133,0.00000501,-0.00000289,-0.00000043,0.00000225,0.0000
 0113,0.00000058,-0.00000104,0.00000044,-0.00000691,-0.00001929,0.00005
 436,0.00000803,0.00000088,0.00000554,0.00002108,0.00003844,-0.00001567
 ,0.00001416,0.00000272,-0.00000079,-0.00000022,0.00000061,-0.00000755,
 -0.00000405,-0.00000318,-0.00013269,0.00006918,0.00004469,0.00040106,-
 0.00093178,-0.00182591,-0.09685069,0.17088861,0.00004186,0.00001268,-0
 .00000960,-0.00003189,-0.00005668,0.00001833,0.00002793,0.00000262,0.0
 0000724,0.00000789,0.00000762,0.00000617,-0.00001739,-0.00000492,-0.00
 000333,0.00000846,0.00000143,0.00000018,-0.00000207,-0.00000357,-0.000
 00002,-0.00000552,0.00001412,0.00000172,0.00000378,-0.00000653,-0.0000
 0317,0.00000041,-0.00000439,0.00000136,0.00000321,-0.00000249,0.000000
 90,0.00000438,0.00000026,0.,0.00000297,-0.00000913,0.00000099,0.000012
 80,0.00005284,-0.00001137,-0.00000538,-0.00000991,-0.00000014,-0.00000
 063,-0.00001230,-0.00000096,-0.00000927,-0.00002644,0.00001167,0.00000
 978,0.00001283,0.00000448,0.00000786,-0.00002022,-0.00000230,0.0000035
 0,-0.00000307,0.00000486,0.00000564,-0.00000930,-0.00000830,0.00000191
 ,-0.00000778,0.00000372,-0.00001179,-0.00002358,-0.00000589,-0.0000051
 7,0.00006232,0.00003980,-0.00008551,0.00012678,0.00014751,-0.00073121,
 0.00022368,-0.00009430,-0.00002373,-0.00028049,-0.00047167,0.00008179,
 0.00015513,-0.00017936,0.00022013,0.00013570,0.00001390,-0.00003428,-0
 .00053114,-0.00024980,0.00005438,-0.00002852,0.00000345,-0.00004144,0.
 00001867,0.00002091,0.00000549,0.00000281,0.00000934,0.00005099,-0.000
 00657,-0.00003361,-0.00001205,-0.00000312,0.00001102,-0.00000984,0.000
 00361,0.00000931,-0.00002689,0.00000608,0.00000705,-0.00001571,-0.0000
 0282,-0.00001332,-0.00001981,0.00000873,-0.00000689,0.00004087,0.00002
 794,0.00007053,-0.00001890,-0.00000045,-0.00001604,-0.00001364,-0.0000
 2601,-0.00002319,-0.00000578,-0.00000246,-0.00002182,-0.00000750,-0.00
 000346,-0.00000247,0.00035772,-0.00036983,-0.00026654,0.00004057,0.001
 96335,0.00375203,0.00153373,0.00011853,0.00347403,-0.07894616,0.113421
 18,-0.13808612,-0.01038460,0.01145407,-0.00576305,0.00272094,0.0055516
 6,0.00382652,-0.00000168,0.00000828,-0.00000227,0.00000895,0.00000431,
 0.00000049,-0.00000172,-0.00000243,-0.00000083,-0.00000016,0.00000059,
 -0.00000024,0.00000162,0.00000381,-0.00000442,0.00000290,0.00000064,-0
 .00000272,0.00000258,0.00000226,-0.00000395,-0.00000122,0.00000452,-0.
 00000893,0.00000057,0.00001827,0.00000531,-0.00005005,0.00000734,0.000
 01429,0.00000228,0.00003896,0.00002487,-0.00000303,-0.00000382,-0.0000
 1428,0.00000002,-0.00000007,-0.00000037,0.00000236,-0.00000124,0.00000
 583,0.00011604,0.00003792,0.00009834,-0.00025148,-0.00180217,-0.001509
 20,0.08532245,-0.12713063,0.13756835,-0.00024597,0.00016242,0.00056693
 ,-0.00001100,-0.00172292,0.00019770,0.00026375,0.00010822,-0.00008266,
 -0.00011829,0.00011596,0.00010084,0.00005147,-0.00000304,0.00001525,-0
 .00001403,-0.00000002,-0.00000305,-0.00000298,-0.00000292,-0.00000527,
 0.00002308,0.00003630,-0.00000244,-0.00000413,-0.00001027,-0.00000151,
 -0.00000624,-0.00001348,0.00000759,-0.00001238,-0.00000842,-0.00000311
 ,-0.00000947,-0.00000366,0.00000041,0.00000009,0.00000626,0.00000277,0
 .00002608,-0.00002237,-0.00000225,-0.00001435,0.00000509,-0.00000161,-
 0.00000628,0.00000690,0.00000425,-0.00000463,0.00000687,-0.00000094,-0
 .00002050,-0.00000396,-0.00000047,-0.00001851,0.00002552,-0.00010858,0
 .00001381,-0.00000026,0.00002074,-0.00001995,-0.00000503,-0.00001914,0
 .00005007,0.00000191,-0.00000591,-0.00002626,0.00005379,-0.00006250,0.
 00028537,-0.00047132,0.00001290,-0.00014150,-0.00075781,0.00077845,-0.
 00058710,-0.00111255,0.00087610,-0.00027680,0.00000210,0.00001782,0.00
 024288,0.00010609,-0.00009874,0.00015565,0.00004749,-0.00006729,-0.000
 60850,-0.00035895,0.00039564,0.00005648,0.00011712,-0.00016158,-0.0000
 1187,-0.00000739,-0.00001288,-0.00001401,0.00000181,0.00001003,0.00006
 146,-0.00004151,-0.00009224,-0.00001621,0.00000147,0.00002742,-0.00000
 573,0.00002200,0.00003361,-0.00003775,0.00001334,0.00001951,-0.0000202
 6,0.00000210,0.00000165,-0.00001635,-0.00001008,-0.00002863,0.00006027
 ,0.00001382,0.00010957,-0.00003563,0.00000750,-0.00002581,-0.00001901,
 -0.00002436,-0.00003214,-0.00000712,0.00000273,-0.00003672,-0.00006807
 ,0.00001474,0.00003297,0.00060991,0.00203836,-0.00172109,0.00085028,0.
 00013725,-0.00007479,0.00075344,-0.00228307,0.00208533,-0.01128802,0.0
 0199129,-0.00167703,-0.33795476,0.00389691,-0.00062227,-0.01187007,-0.
 00068871,0.00067543,-0.00000031,0.00008825,-0.00001743,0.00001635,0.00
 001939,-0.00000805,0.00000278,0.00000328,0.00000025,0.00000074,0.00000
 041,-0.00000051,0.00000169,-0.00000067,0.00000222,-0.00000158,-0.00000
 239,-0.00000017,-0.00000170,0.00000216,0.00000139,-0.00000204,0.000001
 12,0.00000416,-0.00002081,0.00003242,-0.00000324,-0.00009400,0.0000468
 2,-0.00004470,0.00000582,0.00001727,-0.00001644,0.00001256,-0.00000373
 ,-0.00001145,0.00000059,0.00000089,-0.00000023,0.00000914,0.00000644,0
 .00000644,-0.00010142,-0.00001569,-0.00000502,-0.00055066,0.00012330,-
 0.00013359,0.00092974,-0.00011186,0.00006670,0.35980275,0.00005816,0.0
 0006685,-0.00023168,-0.00079872,-0.00121275,0.00081104,-0.00021322,0.0
 0001866,-0.00007882,0.00004944,-0.00006426,-0.00015784,-0.00012429,-0.
 00000757,-0.00002124,0.00005110,-0.00000454,-0.00000037,-0.00000040,0.
 00000524,0.00001194,-0.00005929,-0.00006854,-0.00000733,0.00001238,0.0
 0001825,0.00000450,0.00001462,0.00002429,-0.00001044,0.00003453,0.0000
 1673,0.00001164,0.00003047,0.00000025,0.00000134,0.00001332,-0.0000242
 2,-0.00000349,-0.00003648,0.00015331,-0.00002382,0.00002427,-0.0000306
 5,0.00000528,0.00001282,-0.00003892,-0.00000907,-0.00000622,-0.0000671
 6,0.00002659,0.00005015,0.00003487,0.00001428,0.00021984,0.00001943,0.
 00013525,-0.00006477,-0.00004547,-0.00006108,0.00010933,-0.00000195,-0
 .00001558,-0.00013760,-0.00000575,0.00003312,0.00009296,-0.00009836,-0
 .00023759,-0.00034775,0.00026094,0.00040036,-0.00015827,-0.00081792,0.
 00055521,0.00030395,-0.00101054,-0.00154851,-0.00009357,0.00011969,-0.
 00046661,-0.00015780,0.00004009,0.00017920,0.00016044,-0.00000840,-0.0
 0011257,0.00104011,0.00012199,-0.00020690,-0.00001097,-0.00007534,0.00
 034464,-0.00004686,0.00000310,-0.00003769,0.00003581,0.00000218,0.0000
 0327,-0.00002531,0.00001033,0.00006824,0.00000606,0.00000866,-0.000023
 34,0.00000129,-0.00001148,-0.00002246,0.00001453,-0.00000434,-0.000013
 50,0.00000485,-0.00000006,-0.00001675,0.00000756,0.00001839,0.00004083
 ,-0.00002554,-0.00000448,-0.00005550,0.00002212,-0.00000630,0.00001453
 ,0.00000827,0.00000819,0.00001362,0.00000232,-0.00000329,0.00001919,0.
 00010566,0.00000017,-0.00003228,0.00049573,-0.00037434,0.00482299,0.00
 001755,-0.00064460,0.00004676,-0.00120795,0.00107708,0.00607615,-0.021
 64985,0.00415234,0.00042441,0.00335812,-0.04811904,0.00981232,0.020878
 40,0.00374894,-0.00018046,0.00001783,-0.00006152,-0.00005949,-0.000011
 38,0.00000541,0.00001935,-0.00000986,-0.00001354,-0.00000197,-0.000001
 34,0.00000050,-0.00000092,-0.00000295,0.00001332,-0.00000956,0.0000102
 7,0.00000192,-0.00000673,0.00000102,-0.00000088,-0.00001050,-0.0000033
 6,-0.00000585,-0.00001658,-0.00001904,-0.00000417,-0.00004154,0.000083
 99,-0.00005538,0.00005253,-0.00002043,0.00000290,0.00003048,0.00000004
 ,-0.00002397,0.00002023,0.00000040,-0.00000310,0.00000058,-0.00000509,
 -0.00000335,-0.00000415,0.00002885,-0.00039917,-0.00058521,-0.00089782
 ,0.00011769,0.00007696,0.00035824,-0.00154057,-0.00311600,-0.00160068,
 0.04479001,0.00036952,-0.00028581,-0.00097982,-0.00000016,0.00095146,0
 .00103248,0.00012126,-0.00005540,-0.00001223,-0.00003835,0.00011737,0.
 00009083,0.00007629,-0.00001035,0.00000300,-0.00003462,0.00000783,0.00
 000055,-0.00001060,-0.00000882,-0.00001548,0.00003907,0.00007404,0.000
 03113,-0.00000192,-0.00002594,-0.00001567,-0.00001068,-0.00002148,0.00
 000081,-0.00002686,-0.00001707,-0.00001326,-0.00002360,-0.00000469,-0.
 00000132,-0.00000548,0.00000832,0.00000088,0.00004479,-0.00007834,0.00
 004145,-0.00002852,0.00001620,-0.00001005,-0.00001274,0.00001601,-0.00
 000816,-0.00000180,0.00003593,-0.00002208,-0.00002990,-0.00000331,-0.0
 0001184,0.00000416,-0.00008969,-0.00011868,0.00000235,0.00003913,0.000
 04891,-0.00005900,-0.00002177,-0.00004549,0.00011682,-0.00004993,-0.00
 003938,-0.00004854,-0.00004063,0.00012222,0.00030854,0.00006165,-0.000
 51413,-0.00004075,0.00037506,-0.00025949,-0.00038337,-0.00160483,-0.00
 113855,-0.00011467,-0.00036642,-0.00007146,0.00014512,0.00016560,0.000
 08103,-0.00004615,-0.00009199,-0.00005695,-0.00092943,-0.00014919,0.00
 019620,0.00003649,0.00031501,-0.00001757,-0.00006775,-0.00003049,-0.00
 004585,0.00001352,-0.00001095,0.00001304,0.00002764,0.00001016,-0.0000
 4570,-0.00000628,-0.00001332,0.00001811,-0.00000670,0.00000118,0.00001
 063,-0.00001741,0.00000267,0.00001088,-0.00003036,0.00000980,-0.000009
 58,-0.00000580,-0.00002350,-0.00000370,0.00002369,0.00001183,0.0000697
 2,-0.00001270,0.00000138,-0.00001529,-0.00000948,-0.00001896,-0.000020
 87,-0.00000127,0.00000129,-0.00002451,-0.00004173,0.00000824,0.0000059
 7,-0.00099185,0.00458738,0.00089579,-0.00006144,0.00037132,-0.00088490
 ,0.00120747,0.00604863,0.00265570,0.01877927,-0.00006011,0.00448417,0.
 00005190,0.01053100,-0.04651538,-0.01788392,-0.00036745,0.00397887,0.0
 0001434,-0.00016044,0.00013516,-0.00003482,-0.00003453,-0.00001819,0.0
 0000615,0.00000750,0.00000659,0.00000032,-0.00000077,0.00000210,0.0000
 1181,-0.00000826,0.00001010,-0.00001022,0.00000007,0.00000880,-0.00000
 671,0.00000518,0.00000607,-0.00000102,0.00001333,0.00000310,-0.0000240
 4,0.00004406,-0.00001956,-0.00005798,0.00003081,-0.00003933,0.00001799
 ,0.00002874,0.00001341,0.00001933,-0.00001015,0.00001013,0.00000127,-0
 .00000071,0.00000030,0.00000569,0.00001396,-0.00000123,0.00000586,-0.0
 0055159,-0.00056875,0.00086308,0.00011533,0.00021195,-0.00031251,-0.00
 316135,-0.00234407,-0.00088264,-0.01664925,0.03970846\\0.00000044,0.00
 000059,-0.00000369,0.00000071,0.00000082,0.00000412,-0.00000160,0.0000
 0046,-0.00000072,0.00000026,-0.00000087,-0.00000124,-0.00000091,0.0000
 0117,0.00000065,-0.00000031,-0.00000237,0.00000004,0.00000019,0.000000
 96,-0.00000079,0.00000270,-0.00000264,0.00000341,0.00000132,0.00000025
 ,0.00000023,0.00000021,0.00000071,-0.00000017,-0.00000306,0.00000105,-
 0.00000080,-0.00000182,0.00000112,0.00000033,-0.00000042,-0.00000208,-
 0.00000081,0.00000343,0.00000118,0.00000041,-0.00000386,-0.00000026,-0
 .00000184,0.00000055,0.00000039,-0.00000133,-0.00000028,-0.00000131,0.
 00000126,0.00000154,0.00000073,-0.00000033,0.00000126,0.00000041,0.000
 00050,-0.00000139,0.00000012,-0.00000037,0.00000094,0.00000074,0.00000
 016,-0.00000124,0.00000093,0.00000089,0.00000059,-0.00000103,-0.000002
 66,-0.00000019,0.00000097,0.00000202,-0.00000100,-0.00000161,-0.000002
 52,0.00000048,-0.00000110,0.00000262,-0.00000020,0.00000060,-0.0000009
 2,-0.00000248,0.00000092,0.00000024,0.00000026,0.00000005,-0.00000012,
 -0.00000127,0.,0.00000038,0.00000184,-0.00000024,-0.00000118,-0.000001
 59,0.00000014,-0.00000066,0.00000065,0.00000006,0.00000261,-0.00000370
 ,0.00000145,-0.00000013,-0.00000002,-0.00000230,-0.00000004,0.00000102
 ,0.00000051,0.00000043,0.00000299,-0.00000118,-0.00000051,0.00000146,-
 0.00000026,-0.00000063,-0.00000134,-0.00000056,-0.00000103,-0.00000282
 ,0.00000393,-0.00000083,0.00000257,-0.00000015,0.00000104,0.00000027,-
 0.00000222,0.00000046,0.00000025,0.00000107,0.00000117,-0.00000011,0.0
 0000101,0.00000181,0.00000042,0.00000015,-0.00000037,0.00000098,-0.000
 00040,-0.00000035,-0.00000036,-0.00000004,-0.00000030,0.00000035,-0.00
 000014,-0.00000075,-0.00000045,-0.00000058,0.00000017,-0.00000036,0.00
 000027,-0.00000068,0.00000056,-0.00000150,0.00000188,0.00000038,-0.000
 00030,0.00000044,-0.00000008,0.00000021,0.00000002,0.00000079,-0.00000
 028,-0.00000014,-0.00000043,-0.00000024,-0.00000073,0.00000048,0.00000
 013,-0.00000010,0.00000015,0.00000061,-0.00000038,-0.00000020,0.000000
 65,-0.00000060,0.00000006,0.00000022,0.00000014,0.00000192,0.00000007,
 0.00000066,-0.00000014,0.00000063,0.00000055,0.00000012,-0.00000023,0.
 00000033,-0.00000087,0.00000022,0.00000027,0.00000010,-0.00000015,-0.0
 0000033,-0.00000016,-0.00000035,-0.00000008,-0.00000016,-0.00000073,-0
 .00000058,0.00000019,-0.00000057,-0.00000030,0.00000037,0.00000020,-0.
 00000022\\\@
 The archive entry for this job was punched.


 THE THINKER DIES, BUT HIS THOUGHTS ARE BEYOND THE 
 REACH OF DESTRUCTION.  MEN ARE MORTAL; BUT IDEAS 
 ARE IMMORTAL.
                              -- WALTER LIPPMANN
 Job cpu time:       0 days  7 hours 43 minutes 44.5 seconds.
 Elapsed time:       0 days  0 hours 14 minutes 33.6 seconds.
 File lengths (MBytes):  RWF=   4212 Int=      0 D2E=      0 Chk=     46 Scr=      1
 Normal termination of Gaussian 16 at Mon Mar 24 05:05:59 2025.
