 Entering Gaussian System, Link 0=g16
 Initial command:
 /public/software/apps/Gaussian/g16/l1.exe "/tmp/Gau-25588.inp" -scrdir="/tmp/"
 Entering Link 1 = /public/software/apps/Gaussian/g16/l1.exe PID=     25589.
  
 Copyright (c) 1988-2019, Gaussian, Inc.  All Rights Reserved.
  
 This is part of the Gaussian(R) 16 program.  It is based on
 the Gaussian(R) 09 system (copyright 2009, Gaussian, Inc.),
 the Gaussian(R) 03 system (copyright 2003, Gaussian, Inc.),
 the Gaussian(R) 98 system (copyright 1998, Gaussian, Inc.),
 the Gaussian(R) 94 system (copyright 1995, Gaussian, Inc.),
 the Gaussian 92(TM) system (copyright 1992, Gaussian, Inc.),
 the Gaussian 90(TM) system (copyright 1990, Gaussian, Inc.),
 the Gaussian 88(TM) system (copyright 1988, Gaussian, Inc.),
 the Gaussian 86(TM) system (copyright 1986, Carnegie Mellon
 University), and the Gaussian 82(TM) system (copyright 1983,
 Carnegie Mellon University). Gaussian is a federally registered
 trademark of Gaussian, Inc.
  
 This software contains proprietary and confidential information,
 including trade secrets, belonging to Gaussian, Inc.
  
 This software is provided under written license and may be
 used, copied, transmitted, or stored only in accord with that
 written license.
  
 The following legend is applicable only to US Government
 contracts under FAR:
  
                    RESTRICTED RIGHTS LEGEND
  
 Use, reproduction and disclosure by the US Government is
 subject to restrictions as set forth in subparagraphs (a)
 and (c) of the Commercial Computer Software - Restricted
 Rights clause in FAR 52.227-19.
  
 Gaussian, Inc.
 340 Quinnipiac St., Bldg. 40, Wallingford CT 06492
  
  
 ---------------------------------------------------------------
 Warning -- This program may not be used in any manner that
 competes with the business of Gaussian, Inc. or will provide
 assistance to any competitor of Gaussian, Inc.  The licensee
 of this program is prohibited from giving any competitor of
 Gaussian, Inc. access to this program.  By using this program,
 the user acknowledges that Gaussian, Inc. is engaged in the
 business of creating and licensing software in the field of
 computational chemistry and represents and warrants to the
 licensee that it is not a competitor of Gaussian, Inc. and that
 it will not use this program in any manner prohibited above.
 ---------------------------------------------------------------
  

 Cite this work as:
 Gaussian 16, Revision C.01,
 M. J. Frisch, G. W. Trucks, H. B. Schlegel, G. E. Scuseria, 
 M. A. Robb, J. R. Cheeseman, G. Scalmani, V. Barone, 
 G. A. Petersson, H. Nakatsuji, X. Li, M. Caricato, A. V. Marenich, 
 J. Bloino, B. G. Janesko, R. Gomperts, B. Mennucci, H. P. Hratchian, 
 J. V. Ortiz, A. F. Izmaylov, J. L. Sonnenberg, D. Williams-Young, 
 F. Ding, F. Lipparini, F. Egidi, J. Goings, B. Peng, A. Petrone, 
 T. Henderson, D. Ranasinghe, V. G. Zakrzewski, J. Gao, N. Rega, 
 G. Zheng, W. Liang, M. Hada, M. Ehara, K. Toyota, R. Fukuda, 
 J. Hasegawa, M. Ishida, T. Nakajima, Y. Honda, O. Kitao, H. Nakai, 
 T. Vreven, K. Throssell, J. A. Montgomery, Jr., J. E. Peralta, 
 F. Ogliaro, M. J. Bearpark, J. J. Heyd, E. N. Brothers, K. N. Kudin, 
 V. N. Staroverov, T. A. Keith, R. Kobayashi, J. Normand, 
 K. Raghavachari, A. P. Rendell, J. C. Burant, S. S. Iyengar, 
 J. Tomasi, M. Cossi, J. M. Millam, M. Klene, C. Adamo, R. Cammi, 
 J. W. Ochterski, R. L. Martin, K. Morokuma, O. Farkas, 
 J. B. Foresman, and D. J. Fox, Gaussian, Inc., Wallingford CT, 2019.
 
 ******************************************
 Gaussian 16:  ES64L-G16RevC.01  3-Jul-2019
                24-Mar-2025 
 ******************************************
 %nprocshared=32
 Will use up to   32 processors via shared memory.
 %mem=100GB
 ------------------------------------------
 #p opt freq b3lyp/def2svpp em=gd3bj nosymm
 ------------------------------------------
 1/18=20,19=15,26=3,38=1/1,3;
 2/9=110,12=2,15=1,17=6,18=5,40=1/2;
 3/5=43,7=202,11=2,25=1,30=1,71=1,74=-5,124=41/1,2,3;
 4//1;
 5/5=2,38=5/2;
 6/7=2,8=2,9=2,10=2,28=1/1;
 7/30=1/1,2,3,16;
 1/18=20,19=15,26=3/3(2);
 2/9=110,15=1/2;
 99//99;
 2/9=110,15=1/2;
 3/5=43,7=202,11=2,25=1,30=1,71=1,74=-5,124=41/1,2,3;
 4/5=5,16=3,69=1/1;
 5/5=2,38=5/2;
 7/30=1/1,2,3,16;
 1/18=20,19=15,26=3/3(-5);
 2/9=110,15=1/2;
 6/7=2,8=2,9=2,10=2,19=2,28=1/1;
 99/9=1/99;
 Leave Link    1 at Mon Mar 24 03:28:27 2025, MaxMem= 13421772800 cpu:               2.0 elap:               0.1
 (Enter /public/software/apps/Gaussian/g16/l101.exe)
 ----------------------
 $$$$Singlemol####0????
 ----------------------
 Symbolic Z-matrix:
 Charge =  0 Multiplicity = 1
 C                    -8.3459    1.37704   1.74818 
 C                    -8.25774  -0.07115   1.25657 
 C                    -8.05613  -1.02647   2.43672 
 C                    -9.47857  -0.45114   0.44871 
 C                    -10.79783  -0.49427   0.84428 
 C                    -11.76179  -0.87743  -0.07904 
 C                    -11.40824  -1.21183  -1.37697 
 C                    -10.08435  -1.1712   -1.78316 
 C                    -9.12064  -0.78914  -0.86475 
 C                    -7.67988  -0.65255  -0.99892 
 C                    -6.84065  -0.8681   -2.07955 
 C                    -5.48319  -0.65126  -1.92187 
 C                    -4.95761  -0.21534  -0.70754 
 C                    -3.50674  -0.00399  -0.56813 
 C                    -2.6527   -1.03214  -0.87617 
 C                    -1.263    -0.9007   -0.72345 
 O                    -0.49909  -1.9718   -1.06184 
 C                    -0.71903   0.27875  -0.25021 
 C                     0.75616   0.40283  -0.12626 
 C                     1.45404   1.18154  -1.03046 
 O                     0.83946   1.88383  -2.01728 
 C                     2.85609   1.2471   -0.97834 
 C                     3.57079   0.55067  -0.03738 
 C                     5.042     0.60312  -0.07324 
 C                     5.69666   1.8327   -0.05826 
 C                     7.07749   1.9108   -0.10179 
 C                     7.80977   0.73711  -0.17117 
 C                     7.1579   -0.50446  -0.20395 
 C                     5.78524  -0.57664  -0.15571 
 C                     8.1591   -1.63439  -0.28818 
 C                     8.05532  -2.55316   0.93326 
 C                     7.97762  -2.43725  -1.57986 
 C                     9.46828  -0.87719  -0.29424 
 C                     10.75277  -1.37231  -0.35483 
 C                     11.81601  -0.47902  -0.34704 
 C                     11.59432   0.88763  -0.2795 
 C                     10.30623   1.39405  -0.2185 
 C                     9.24364   0.50576  -0.22619 
 C                     2.88269  -0.21536   0.94428 
 C                     3.55262  -0.86889   1.99912 
 C                     2.86437  -1.59321   2.93258 
 C                     1.46781  -1.68691   2.86401 
 C                     0.78392  -1.04391   1.87146 
 C                     1.46489  -0.29186   0.88871 
 C                    -1.57642   1.36363   0.06924 
 C                    -1.06237   2.57949   0.5728 
 C                    -1.88791   3.63384   0.8426 
 C                    -3.26571   3.52803   0.60812 
 C                    -3.7974    2.35616   0.1461 
 C                    -2.9805    1.2349   -0.10819 
 C                    -5.80707  -0.01239   0.38246 
 C                    -7.15686  -0.23037   0.23225 
 H                    -9.18046   1.49275   2.43571 
 H                    -8.49383   2.05112   0.9068 
 H                    -7.42948   1.65768   2.26254 
 H                    -7.99291  -2.05316   2.08217 
 H                    -8.88932  -0.94961   3.13139 
 H                    -7.13741  -0.78432   2.96599 
 H                    -11.08537  -0.23582   1.85327 
 H                    -12.79984  -0.91534   0.21779 
 H                    -12.17474  -1.50721  -2.07877 
 H                    -9.81098  -1.43192  -2.79491 
 H                    -7.23506  -1.19781  -3.02919 
 H                    -4.81308  -0.80422  -2.75553 
 H                    -3.03218  -1.97982  -1.22545 
 H                     0.43016  -1.77613  -0.87673 
 H                    -0.11942   1.783    -1.93773 
 H                     3.35858   1.83973  -1.72691 
 H                     5.10788   2.73629   0.00607 
 H                     7.57176   2.87067  -0.08063 
 H                     5.274    -1.52799  -0.19745 
 H                     7.07847  -3.03059   0.96491 
 H                     8.81927  -3.32593   0.89099 
 H                     8.19265  -1.97945   1.84768 
 H                     8.04936  -1.77988  -2.44386 
 H                     7.00329  -2.92035  -1.59069 
 H                     8.74665  -3.20192  -1.66043 
 H                     10.93775  -2.43557  -0.40759 
 H                     12.82816  -0.85373  -0.39411 
 H                     12.43647   1.56443  -0.27452 
 H                     10.13573   2.45917  -0.16584 
 H                     4.62565  -0.7746    2.07167 
 H                     3.39281  -2.08647   3.73499 
 H                     0.93353  -2.25681   3.60973 
 H                    -0.29501  -1.09038   1.83615 
 H                     0.00097   2.6631    0.74543 
 H                    -1.48103   4.55699   1.22797 
 H                    -3.90513   4.37779   0.79636 
 H                    -4.85788   2.2805   -0.04156 
 H                    -5.39251   0.2959    1.33172 
 
 ITRead=  0  0  0  0  0  0  0  0  0  0  0  0  0  0  0  0  0  0  0  0
 ITRead=  0  0  0  0  0  0  0  0  0  0  0  0  0  0  0  0  0  0  0  0
 ITRead=  0  0  0  0  0  0  0  0  0  0  0  0  0  0  0  0  0  0  0  0
 ITRead=  0  0  0  0  0  0  0  0  0  0  0  0  0  0  0  0  0  0  0  0
 ITRead=  0  0  0  0  0  0  0  0  0  0
 MicOpt= -1 -1 -1 -1 -1 -1 -1 -1 -1 -1 -1 -1 -1 -1 -1 -1 -1 -1 -1 -1
 MicOpt= -1 -1 -1 -1 -1 -1 -1 -1 -1 -1 -1 -1 -1 -1 -1 -1 -1 -1 -1 -1
 MicOpt= -1 -1 -1 -1 -1 -1 -1 -1 -1 -1 -1 -1 -1 -1 -1 -1 -1 -1 -1 -1
 MicOpt= -1 -1 -1 -1 -1 -1 -1 -1 -1 -1 -1 -1 -1 -1 -1 -1 -1 -1 -1 -1
 MicOpt= -1 -1 -1 -1 -1 -1 -1 -1 -1 -1
 NAtoms=     90 NQM=       90 NQMF=       0 NMMI=      0 NMMIF=      0
                NMic=       0 NMicF=      0.
                    Isotopes and Nuclear Properties:
 (Nuclear quadrupole moments (NQMom) in fm**2, nuclear magnetic moments (NMagM)
  in nuclear magnetons)

  Atom         1           2           3           4           5           6           7           8           9          10
 IAtWgt=          12          12          12          12          12          12          12          12          12          12
 AtmWgt=  12.0000000  12.0000000  12.0000000  12.0000000  12.0000000  12.0000000  12.0000000  12.0000000  12.0000000  12.0000000
 NucSpn=           0           0           0           0           0           0           0           0           0           0
 AtZEff=  -0.0000000  -0.0000000  -0.0000000  -0.0000000  -0.0000000  -0.0000000  -0.0000000  -0.0000000  -0.0000000  -0.0000000
 NQMom=    0.0000000   0.0000000   0.0000000   0.0000000   0.0000000   0.0000000   0.0000000   0.0000000   0.0000000   0.0000000
 NMagM=    0.0000000   0.0000000   0.0000000   0.0000000   0.0000000   0.0000000   0.0000000   0.0000000   0.0000000   0.0000000
 AtZNuc=   6.0000000   6.0000000   6.0000000   6.0000000   6.0000000   6.0000000   6.0000000   6.0000000   6.0000000   6.0000000

  Atom        11          12          13          14          15          16          17          18          19          20
 IAtWgt=          12          12          12          12          12          12          16          12          12          12
 AtmWgt=  12.0000000  12.0000000  12.0000000  12.0000000  12.0000000  12.0000000  15.9949146  12.0000000  12.0000000  12.0000000
 NucSpn=           0           0           0           0           0           0           0           0           0           0
 AtZEff=  -0.0000000  -0.0000000  -0.0000000  -0.0000000  -0.0000000  -0.0000000  -0.0000000  -0.0000000  -0.0000000  -0.0000000
 NQMom=    0.0000000   0.0000000   0.0000000   0.0000000   0.0000000   0.0000000   0.0000000   0.0000000   0.0000000   0.0000000
 NMagM=    0.0000000   0.0000000   0.0000000   0.0000000   0.0000000   0.0000000   0.0000000   0.0000000   0.0000000   0.0000000
 AtZNuc=   6.0000000   6.0000000   6.0000000   6.0000000   6.0000000   6.0000000   8.0000000   6.0000000   6.0000000   6.0000000

  Atom        21          22          23          24          25          26          27          28          29          30
 IAtWgt=          16          12          12          12          12          12          12          12          12          12
 AtmWgt=  15.9949146  12.0000000  12.0000000  12.0000000  12.0000000  12.0000000  12.0000000  12.0000000  12.0000000  12.0000000
 NucSpn=           0           0           0           0           0           0           0           0           0           0
 AtZEff=  -0.0000000  -0.0000000  -0.0000000  -0.0000000  -0.0000000  -0.0000000  -0.0000000  -0.0000000  -0.0000000  -0.0000000
 NQMom=    0.0000000   0.0000000   0.0000000   0.0000000   0.0000000   0.0000000   0.0000000   0.0000000   0.0000000   0.0000000
 NMagM=    0.0000000   0.0000000   0.0000000   0.0000000   0.0000000   0.0000000   0.0000000   0.0000000   0.0000000   0.0000000
 AtZNuc=   8.0000000   6.0000000   6.0000000   6.0000000   6.0000000   6.0000000   6.0000000   6.0000000   6.0000000   6.0000000

  Atom        31          32          33          34          35          36          37          38          39          40
 IAtWgt=          12          12          12          12          12          12          12          12          12          12
 AtmWgt=  12.0000000  12.0000000  12.0000000  12.0000000  12.0000000  12.0000000  12.0000000  12.0000000  12.0000000  12.0000000
 NucSpn=           0           0           0           0           0           0           0           0           0           0
 AtZEff=  -0.0000000  -0.0000000  -0.0000000  -0.0000000  -0.0000000  -0.0000000  -0.0000000  -0.0000000  -0.0000000  -0.0000000
 NQMom=    0.0000000   0.0000000   0.0000000   0.0000000   0.0000000   0.0000000   0.0000000   0.0000000   0.0000000   0.0000000
 NMagM=    0.0000000   0.0000000   0.0000000   0.0000000   0.0000000   0.0000000   0.0000000   0.0000000   0.0000000   0.0000000
 AtZNuc=   6.0000000   6.0000000   6.0000000   6.0000000   6.0000000   6.0000000   6.0000000   6.0000000   6.0000000   6.0000000

  Atom        41          42          43          44          45          46          47          48          49          50
 IAtWgt=          12          12          12          12          12          12          12          12          12          12
 AtmWgt=  12.0000000  12.0000000  12.0000000  12.0000000  12.0000000  12.0000000  12.0000000  12.0000000  12.0000000  12.0000000
 NucSpn=           0           0           0           0           0           0           0           0           0           0
 AtZEff=  -0.0000000  -0.0000000  -0.0000000  -0.0000000  -0.0000000  -0.0000000  -0.0000000  -0.0000000  -0.0000000  -0.0000000
 NQMom=    0.0000000   0.0000000   0.0000000   0.0000000   0.0000000   0.0000000   0.0000000   0.0000000   0.0000000   0.0000000
 NMagM=    0.0000000   0.0000000   0.0000000   0.0000000   0.0000000   0.0000000   0.0000000   0.0000000   0.0000000   0.0000000
 AtZNuc=   6.0000000   6.0000000   6.0000000   6.0000000   6.0000000   6.0000000   6.0000000   6.0000000   6.0000000   6.0000000

  Atom        51          52          53          54          55          56          57          58          59          60
 IAtWgt=          12          12           1           1           1           1           1           1           1           1
 AtmWgt=  12.0000000  12.0000000   1.0078250   1.0078250   1.0078250   1.0078250   1.0078250   1.0078250   1.0078250   1.0078250
 NucSpn=           0           0           1           1           1           1           1           1           1           1
 AtZEff=  -0.0000000  -0.0000000  -0.0000000  -0.0000000  -0.0000000  -0.0000000  -0.0000000  -0.0000000  -0.0000000  -0.0000000
 NQMom=    0.0000000   0.0000000   0.0000000   0.0000000   0.0000000   0.0000000   0.0000000   0.0000000   0.0000000   0.0000000
 NMagM=    0.0000000   0.0000000   2.7928460   2.7928460   2.7928460   2.7928460   2.7928460   2.7928460   2.7928460   2.7928460
 AtZNuc=   6.0000000   6.0000000   1.0000000   1.0000000   1.0000000   1.0000000   1.0000000   1.0000000   1.0000000   1.0000000

  Atom        61          62          63          64          65          66          67          68          69          70
 IAtWgt=           1           1           1           1           1           1           1           1           1           1
 AtmWgt=   1.0078250   1.0078250   1.0078250   1.0078250   1.0078250   1.0078250   1.0078250   1.0078250   1.0078250   1.0078250
 NucSpn=           1           1           1           1           1           1           1           1           1           1
 AtZEff=  -0.0000000  -0.0000000  -0.0000000  -0.0000000  -0.0000000  -0.0000000  -0.0000000  -0.0000000  -0.0000000  -0.0000000
 NQMom=    0.0000000   0.0000000   0.0000000   0.0000000   0.0000000   0.0000000   0.0000000   0.0000000   0.0000000   0.0000000
 NMagM=    2.7928460   2.7928460   2.7928460   2.7928460   2.7928460   2.7928460   2.7928460   2.7928460   2.7928460   2.7928460
 AtZNuc=   1.0000000   1.0000000   1.0000000   1.0000000   1.0000000   1.0000000   1.0000000   1.0000000   1.0000000   1.0000000

  Atom        71          72          73          74          75          76          77          78          79          80
 IAtWgt=           1           1           1           1           1           1           1           1           1           1
 AtmWgt=   1.0078250   1.0078250   1.0078250   1.0078250   1.0078250   1.0078250   1.0078250   1.0078250   1.0078250   1.0078250
 NucSpn=           1           1           1           1           1           1           1           1           1           1
 AtZEff=  -0.0000000  -0.0000000  -0.0000000  -0.0000000  -0.0000000  -0.0000000  -0.0000000  -0.0000000  -0.0000000  -0.0000000
 NQMom=    0.0000000   0.0000000   0.0000000   0.0000000   0.0000000   0.0000000   0.0000000   0.0000000   0.0000000   0.0000000
 NMagM=    2.7928460   2.7928460   2.7928460   2.7928460   2.7928460   2.7928460   2.7928460   2.7928460   2.7928460   2.7928460
 AtZNuc=   1.0000000   1.0000000   1.0000000   1.0000000   1.0000000   1.0000000   1.0000000   1.0000000   1.0000000   1.0000000

  Atom        81          82          83          84          85          86          87          88          89          90
 IAtWgt=           1           1           1           1           1           1           1           1           1           1
 AtmWgt=   1.0078250   1.0078250   1.0078250   1.0078250   1.0078250   1.0078250   1.0078250   1.0078250   1.0078250   1.0078250
 NucSpn=           1           1           1           1           1           1           1           1           1           1
 AtZEff=  -0.0000000  -0.0000000  -0.0000000  -0.0000000  -0.0000000  -0.0000000  -0.0000000  -0.0000000  -0.0000000  -0.0000000
 NQMom=    0.0000000   0.0000000   0.0000000   0.0000000   0.0000000   0.0000000   0.0000000   0.0000000   0.0000000   0.0000000
 NMagM=    2.7928460   2.7928460   2.7928460   2.7928460   2.7928460   2.7928460   2.7928460   2.7928460   2.7928460   2.7928460
 AtZNuc=   1.0000000   1.0000000   1.0000000   1.0000000   1.0000000   1.0000000   1.0000000   1.0000000   1.0000000   1.0000000
 Leave Link  101 at Mon Mar 24 03:28:27 2025, MaxMem= 13421772800 cpu:               4.2 elap:               0.1
 (Enter /public/software/apps/Gaussian/g16/l103.exe)

 GradGradGradGradGradGradGradGradGradGradGradGradGradGradGradGradGradGrad
 Berny optimization.
 Initialization pass.
                           ----------------------------
                           !    Initial Parameters    !
                           ! (Angstroms and Degrees)  !
 --------------------------                            --------------------------
 ! Name  Definition              Value          Derivative Info.                !
 --------------------------------------------------------------------------------
 ! R1    R(1,2)                  1.5319         estimate D2E/DX2                !
 ! R2    R(1,53)                 1.0875         estimate D2E/DX2                !
 ! R3    R(1,54)                 1.0882         estimate D2E/DX2                !
 ! R4    R(1,55)                 1.0877         estimate D2E/DX2                !
 ! R5    R(2,3)                  1.5317         estimate D2E/DX2                !
 ! R6    R(2,4)                  1.5124         estimate D2E/DX2                !
 ! R7    R(2,52)                 1.5121         estimate D2E/DX2                !
 ! R8    R(3,56)                 1.088          estimate D2E/DX2                !
 ! R9    R(3,57)                 1.0875         estimate D2E/DX2                !
 ! R10   R(3,58)                 1.0876         estimate D2E/DX2                !
 ! R11   R(4,5)                  1.378          estimate D2E/DX2                !
 ! R12   R(4,9)                  1.4027         estimate D2E/DX2                !
 ! R13   R(5,6)                  1.3887         estimate D2E/DX2                !
 ! R14   R(5,59)                 1.0805         estimate D2E/DX2                !
 ! R15   R(6,7)                  1.3862         estimate D2E/DX2                !
 ! R16   R(6,60)                 1.0803         estimate D2E/DX2                !
 ! R17   R(7,8)                  1.3854         estimate D2E/DX2                !
 ! R18   R(7,61)                 1.0804         estimate D2E/DX2                !
 ! R19   R(8,9)                  1.385          estimate D2E/DX2                !
 ! R20   R(8,62)                 1.08           estimate D2E/DX2                !
 ! R21   R(9,10)                 1.4534         estimate D2E/DX2                !
 ! R22   R(10,11)                1.3851         estimate D2E/DX2                !
 ! R23   R(10,52)                1.4027         estimate D2E/DX2                !
 ! R24   R(11,12)                1.3837         estimate D2E/DX2                !
 ! R25   R(11,63)                1.0798         estimate D2E/DX2                !
 ! R26   R(12,13)                1.3931         estimate D2E/DX2                !
 ! R27   R(12,64)                1.0805         estimate D2E/DX2                !
 ! R28   R(13,14)                1.4728         estimate D2E/DX2                !
 ! R29   R(13,51)                1.3967         estimate D2E/DX2                !
 ! R30   R(14,15)                1.3716         estimate D2E/DX2                !
 ! R31   R(14,50)                1.4224         estimate D2E/DX2                !
 ! R32   R(15,16)                1.4042         estimate D2E/DX2                !
 ! R33   R(15,65)                1.0789         estimate D2E/DX2                !
 ! R34   R(16,17)                1.3584         estimate D2E/DX2                !
 ! R35   R(16,18)                1.3824         estimate D2E/DX2                !
 ! R36   R(17,66)                0.9675         estimate D2E/DX2                !
 ! R37   R(18,19)                1.4856         estimate D2E/DX2                !
 ! R38   R(18,45)                1.4192         estimate D2E/DX2                !
 ! R39   R(19,20)                1.3824         estimate D2E/DX2                !
 ! R40   R(19,44)                1.4195         estimate D2E/DX2                !
 ! R41   R(20,21)                1.3582         estimate D2E/DX2                !
 ! R42   R(20,22)                1.4045         estimate D2E/DX2                !
 ! R43   R(21,67)                0.9674         estimate D2E/DX2                !
 ! R44   R(22,23)                1.3716         estimate D2E/DX2                !
 ! R45   R(22,68)                1.0789         estimate D2E/DX2                !
 ! R46   R(23,24)                1.4726         estimate D2E/DX2                !
 ! R47   R(23,39)                1.4227         estimate D2E/DX2                !
 ! R48   R(24,25)                1.3931         estimate D2E/DX2                !
 ! R49   R(24,29)                1.3968         estimate D2E/DX2                !
 ! R50   R(25,26)                1.3837         estimate D2E/DX2                !
 ! R51   R(25,69)                1.0804         estimate D2E/DX2                !
 ! R52   R(26,27)                1.3851         estimate D2E/DX2                !
 ! R53   R(26,70)                1.0799         estimate D2E/DX2                !
 ! R54   R(27,28)                1.4027         estimate D2E/DX2                !
 ! R55   R(27,38)                1.4535         estimate D2E/DX2                !
 ! R56   R(28,29)                1.3754         estimate D2E/DX2                !
 ! R57   R(28,30)                1.512          estimate D2E/DX2                !
 ! R58   R(29,71)                1.0808         estimate D2E/DX2                !
 ! R59   R(30,31)                1.5319         estimate D2E/DX2                !
 ! R60   R(30,32)                1.5317         estimate D2E/DX2                !
 ! R61   R(30,33)                1.5124         estimate D2E/DX2                !
 ! R62   R(31,72)                1.0877         estimate D2E/DX2                !
 ! R63   R(31,73)                1.0875         estimate D2E/DX2                !
 ! R64   R(31,74)                1.0882         estimate D2E/DX2                !
 ! R65   R(32,75)                1.088          estimate D2E/DX2                !
 ! R66   R(32,76)                1.0876         estimate D2E/DX2                !
 ! R67   R(32,77)                1.0875         estimate D2E/DX2                !
 ! R68   R(33,34)                1.3779         estimate D2E/DX2                !
 ! R69   R(33,38)                1.4027         estimate D2E/DX2                !
 ! R70   R(34,35)                1.3887         estimate D2E/DX2                !
 ! R71   R(34,78)                1.0805         estimate D2E/DX2                !
 ! R72   R(35,36)                1.3862         estimate D2E/DX2                !
 ! R73   R(35,79)                1.0803         estimate D2E/DX2                !
 ! R74   R(36,37)                1.3854         estimate D2E/DX2                !
 ! R75   R(36,80)                1.0804         estimate D2E/DX2                !
 ! R76   R(37,38)                1.385          estimate D2E/DX2                !
 ! R77   R(37,81)                1.08           estimate D2E/DX2                !
 ! R78   R(39,40)                1.4102         estimate D2E/DX2                !
 ! R79   R(39,44)                1.4209         estimate D2E/DX2                !
 ! R80   R(40,41)                1.3674         estimate D2E/DX2                !
 ! R81   R(40,82)                1.0796         estimate D2E/DX2                !
 ! R82   R(41,42)                1.4014         estimate D2E/DX2                !
 ! R83   R(41,83)                1.08           estimate D2E/DX2                !
 ! R84   R(42,43)                1.3661         estimate D2E/DX2                !
 ! R85   R(42,84)                1.08           estimate D2E/DX2                !
 ! R86   R(43,44)                1.4125         estimate D2E/DX2                !
 ! R87   R(43,85)                1.0805         estimate D2E/DX2                !
 ! R88   R(45,46)                1.4128         estimate D2E/DX2                !
 ! R89   R(45,50)                1.4211         estimate D2E/DX2                !
 ! R90   R(46,47)                1.366          estimate D2E/DX2                !
 ! R91   R(46,86)                1.0805         estimate D2E/DX2                !
 ! R92   R(47,48)                1.4016         estimate D2E/DX2                !
 ! R93   R(47,87)                1.0799         estimate D2E/DX2                !
 ! R94   R(48,49)                1.3673         estimate D2E/DX2                !
 ! R95   R(48,88)                1.08           estimate D2E/DX2                !
 ! R96   R(49,50)                1.4104         estimate D2E/DX2                !
 ! R97   R(49,89)                1.0796         estimate D2E/DX2                !
 ! R98   R(51,52)                1.3755         estimate D2E/DX2                !
 ! R99   R(51,90)                1.0807         estimate D2E/DX2                !
 ! A1    A(2,1,53)             110.3436         estimate D2E/DX2                !
 ! A2    A(2,1,54)             110.1996         estimate D2E/DX2                !
 ! A3    A(2,1,55)             110.3145         estimate D2E/DX2                !
 ! A4    A(53,1,54)            108.5781         estimate D2E/DX2                !
 ! A5    A(53,1,55)            108.6724         estimate D2E/DX2                !
 ! A6    A(54,1,55)            108.6826         estimate D2E/DX2                !
 ! A7    A(1,2,3)              110.4835         estimate D2E/DX2                !
 ! A8    A(1,2,4)              111.2524         estimate D2E/DX2                !
 ! A9    A(1,2,52)             111.0284         estimate D2E/DX2                !
 ! A10   A(3,2,4)              111.1679         estimate D2E/DX2                !
 ! A11   A(3,2,52)             111.1269         estimate D2E/DX2                !
 ! A12   A(4,2,52)             101.5007         estimate D2E/DX2                !
 ! A13   A(2,3,56)             110.1896         estimate D2E/DX2                !
 ! A14   A(2,3,57)             110.3186         estimate D2E/DX2                !
 ! A15   A(2,3,58)             110.3213         estimate D2E/DX2                !
 ! A16   A(56,3,57)            108.624          estimate D2E/DX2                !
 ! A17   A(56,3,58)            108.639          estimate D2E/DX2                !
 ! A18   A(57,3,58)            108.6992         estimate D2E/DX2                !
 ! A19   A(2,4,5)              128.8542         estimate D2E/DX2                !
 ! A20   A(2,4,9)              110.7768         estimate D2E/DX2                !
 ! A21   A(5,4,9)              120.369          estimate D2E/DX2                !
 ! A22   A(4,5,6)              118.8383         estimate D2E/DX2                !
 ! A23   A(4,5,59)             121.0203         estimate D2E/DX2                !
 ! A24   A(6,5,59)             120.1414         estimate D2E/DX2                !
 ! A25   A(5,6,7)              120.8016         estimate D2E/DX2                !
 ! A26   A(5,6,60)             119.6025         estimate D2E/DX2                !
 ! A27   A(7,6,60)             119.5959         estimate D2E/DX2                !
 ! A28   A(6,7,8)              120.7432         estimate D2E/DX2                !
 ! A29   A(6,7,61)             119.5528         estimate D2E/DX2                !
 ! A30   A(8,7,61)             119.704          estimate D2E/DX2                !
 ! A31   A(7,8,9)              118.5941         estimate D2E/DX2                !
 ! A32   A(7,8,62)             120.629          estimate D2E/DX2                !
 ! A33   A(9,8,62)             120.7768         estimate D2E/DX2                !
 ! A34   A(4,9,8)              120.6537         estimate D2E/DX2                !
 ! A35   A(4,9,10)             108.4661         estimate D2E/DX2                !
 ! A36   A(8,9,10)             130.8801         estimate D2E/DX2                !
 ! A37   A(9,10,11)            131.1476         estimate D2E/DX2                !
 ! A38   A(9,10,52)            108.4744         estimate D2E/DX2                !
 ! A39   A(11,10,52)           120.3778         estimate D2E/DX2                !
 ! A40   A(10,11,12)           118.7581         estimate D2E/DX2                !
 ! A41   A(10,11,63)           120.8189         estimate D2E/DX2                !
 ! A42   A(12,11,63)           120.423          estimate D2E/DX2                !
 ! A43   A(11,12,13)           121.2303         estimate D2E/DX2                !
 ! A44   A(11,12,64)           119.8901         estimate D2E/DX2                !
 ! A45   A(13,12,64)           118.8714         estimate D2E/DX2                !
 ! A46   A(12,13,14)           119.9378         estimate D2E/DX2                !
 ! A47   A(12,13,51)           119.7521         estimate D2E/DX2                !
 ! A48   A(14,13,51)           120.2912         estimate D2E/DX2                !
 ! A49   A(13,14,15)           118.9832         estimate D2E/DX2                !
 ! A50   A(13,14,50)           121.3352         estimate D2E/DX2                !
 ! A51   A(15,14,50)           119.6777         estimate D2E/DX2                !
 ! A52   A(14,15,16)           121.4408         estimate D2E/DX2                !
 ! A53   A(14,15,65)           120.8037         estimate D2E/DX2                !
 ! A54   A(16,15,65)           117.7428         estimate D2E/DX2                !
 ! A55   A(15,16,17)           117.1057         estimate D2E/DX2                !
 ! A56   A(15,16,18)           120.4328         estimate D2E/DX2                !
 ! A57   A(17,16,18)           122.4613         estimate D2E/DX2                !
 ! A58   A(16,17,66)           109.4502         estimate D2E/DX2                !
 ! A59   A(16,18,19)           119.379          estimate D2E/DX2                !
 ! A60   A(16,18,45)           119.4421         estimate D2E/DX2                !
 ! A61   A(19,18,45)           121.1497         estimate D2E/DX2                !
 ! A62   A(18,19,20)           119.5895         estimate D2E/DX2                !
 ! A63   A(18,19,44)           120.9683         estimate D2E/DX2                !
 ! A64   A(20,19,44)           119.4256         estimate D2E/DX2                !
 ! A65   A(19,20,21)           122.5522         estimate D2E/DX2                !
 ! A66   A(19,20,22)           120.3951         estimate D2E/DX2                !
 ! A67   A(21,20,22)           117.0334         estimate D2E/DX2                !
 ! A68   A(20,21,67)           109.5632         estimate D2E/DX2                !
 ! A69   A(20,22,23)           121.4606         estimate D2E/DX2                !
 ! A70   A(20,22,68)           117.6974         estimate D2E/DX2                !
 ! A71   A(23,22,68)           120.8105         estimate D2E/DX2                !
 ! A72   A(22,23,24)           119.0652         estimate D2E/DX2                !
 ! A73   A(22,23,39)           119.6533         estimate D2E/DX2                !
 ! A74   A(24,23,39)           121.2792         estimate D2E/DX2                !
 ! A75   A(23,24,25)           120.045          estimate D2E/DX2                !
 ! A76   A(23,24,29)           120.1963         estimate D2E/DX2                !
 ! A77   A(25,24,29)           119.7398         estimate D2E/DX2                !
 ! A78   A(24,25,26)           121.2278         estimate D2E/DX2                !
 ! A79   A(24,25,69)           118.8634         estimate D2E/DX2                !
 ! A80   A(26,25,69)           119.9            estimate D2E/DX2                !
 ! A81   A(25,26,27)           118.771          estimate D2E/DX2                !
 ! A82   A(25,26,70)           120.4186         estimate D2E/DX2                !
 ! A83   A(27,26,70)           120.8104         estimate D2E/DX2                !
 ! A84   A(26,27,28)           120.3648         estimate D2E/DX2                !
 ! A85   A(26,27,38)           131.1716         estimate D2E/DX2                !
 ! A86   A(28,27,38)           108.4632         estimate D2E/DX2                !
 ! A87   A(27,28,29)           120.6264         estimate D2E/DX2                !
 ! A88   A(27,28,30)           110.7955         estimate D2E/DX2                !
 ! A89   A(29,28,30)           128.5777         estimate D2E/DX2                !
 ! A90   A(24,29,28)           119.2612         estimate D2E/DX2                !
 ! A91   A(24,29,71)           119.6059         estimate D2E/DX2                !
 ! A92   A(28,29,71)           121.1246         estimate D2E/DX2                !
 ! A93   A(28,30,31)           111.0334         estimate D2E/DX2                !
 ! A94   A(28,30,32)           111.1148         estimate D2E/DX2                !
 ! A95   A(28,30,33)           101.494          estimate D2E/DX2                !
 ! A96   A(31,30,32)           110.487          estimate D2E/DX2                !
 ! A97   A(31,30,33)           111.2302         estimate D2E/DX2                !
 ! A98   A(32,30,33)           111.1996         estimate D2E/DX2                !
 ! A99   A(30,31,72)           110.321          estimate D2E/DX2                !
 ! A100  A(30,31,73)           110.3409         estimate D2E/DX2                !
 ! A101  A(30,31,74)           110.197          estimate D2E/DX2                !
 ! A102  A(72,31,73)           108.6701         estimate D2E/DX2                !
 ! A103  A(72,31,74)           108.6805         estimate D2E/DX2                !
 ! A104  A(73,31,74)           108.5812         estimate D2E/DX2                !
 ! A105  A(30,32,75)           110.1923         estimate D2E/DX2                !
 ! A106  A(30,32,76)           110.3275         estimate D2E/DX2                !
 ! A107  A(30,32,77)           110.3205         estimate D2E/DX2                !
 ! A108  A(75,32,76)           108.635          estimate D2E/DX2                !
 ! A109  A(75,32,77)           108.6258         estimate D2E/DX2                !
 ! A110  A(76,32,77)           108.6903         estimate D2E/DX2                !
 ! A111  A(30,33,34)           128.8439         estimate D2E/DX2                !
 ! A112  A(30,33,38)           110.7804         estimate D2E/DX2                !
 ! A113  A(34,33,38)           120.3756         estimate D2E/DX2                !
 ! A114  A(33,34,35)           118.8375         estimate D2E/DX2                !
 ! A115  A(33,34,78)           121.0185         estimate D2E/DX2                !
 ! A116  A(35,34,78)           120.144          estimate D2E/DX2                !
 ! A117  A(34,35,36)           120.7989         estimate D2E/DX2                !
 ! A118  A(34,35,79)           119.6015         estimate D2E/DX2                !
 ! A119  A(36,35,79)           119.5995         estimate D2E/DX2                !
 ! A120  A(35,36,37)           120.7457         estimate D2E/DX2                !
 ! A121  A(35,36,80)           119.5495         estimate D2E/DX2                !
 ! A122  A(37,36,80)           119.7048         estimate D2E/DX2                !
 ! A123  A(36,37,38)           118.5963         estimate D2E/DX2                !
 ! A124  A(36,37,81)           120.6265         estimate D2E/DX2                !
 ! A125  A(38,37,81)           120.7772         estimate D2E/DX2                !
 ! A126  A(27,38,33)           108.4665         estimate D2E/DX2                !
 ! A127  A(27,38,37)           130.8875         estimate D2E/DX2                !
 ! A128  A(33,38,37)           120.6459         estimate D2E/DX2                !
 ! A129  A(23,39,40)           122.4056         estimate D2E/DX2                !
 ! A130  A(23,39,44)           118.9867         estimate D2E/DX2                !
 ! A131  A(40,39,44)           118.5757         estimate D2E/DX2                !
 ! A132  A(39,40,41)           121.133          estimate D2E/DX2                !
 ! A133  A(39,40,82)           118.8135         estimate D2E/DX2                !
 ! A134  A(41,40,82)           120.0443         estimate D2E/DX2                !
 ! A135  A(40,41,42)           120.2398         estimate D2E/DX2                !
 ! A136  A(40,41,83)           120.189          estimate D2E/DX2                !
 ! A137  A(42,41,83)           119.5666         estimate D2E/DX2                !
 ! A138  A(41,42,43)           120.1967         estimate D2E/DX2                !
 ! A139  A(41,42,84)           119.6372         estimate D2E/DX2                !
 ! A140  A(43,42,84)           120.1584         estimate D2E/DX2                !
 ! A141  A(42,43,44)           120.9812         estimate D2E/DX2                !
 ! A142  A(42,43,85)           120.2235         estimate D2E/DX2                !
 ! A143  A(44,43,85)           118.7878         estimate D2E/DX2                !
 ! A144  A(19,44,39)           119.9858         estimate D2E/DX2                !
 ! A145  A(19,44,43)           121.1535         estimate D2E/DX2                !
 ! A146  A(39,44,43)           118.8483         estimate D2E/DX2                !
 ! A147  A(18,45,46)           121.2159         estimate D2E/DX2                !
 ! A148  A(18,45,50)           119.9703         estimate D2E/DX2                !
 ! A149  A(46,45,50)           118.8126         estimate D2E/DX2                !
 ! A150  A(45,46,47)           120.9802         estimate D2E/DX2                !
 ! A151  A(45,46,86)           118.7902         estimate D2E/DX2                !
 ! A152  A(47,46,86)           120.2294         estimate D2E/DX2                !
 ! A153  A(46,47,48)           120.1833         estimate D2E/DX2                !
 ! A154  A(46,47,87)           120.1703         estimate D2E/DX2                !
 ! A155  A(48,47,87)           119.6433         estimate D2E/DX2                !
 ! A156  A(47,48,49)           120.2317         estimate D2E/DX2                !
 ! A157  A(47,48,88)           119.5673         estimate D2E/DX2                !
 ! A158  A(49,48,88)           120.201          estimate D2E/DX2                !
 ! A159  A(48,49,50)           121.1361         estimate D2E/DX2                !
 ! A160  A(48,49,89)           120.0514         estimate D2E/DX2                !
 ! A161  A(50,49,89)           118.8087         estimate D2E/DX2                !
 ! A162  A(14,50,45)           118.9995         estimate D2E/DX2                !
 ! A163  A(14,50,49)           122.441          estimate D2E/DX2                !
 ! A164  A(45,50,49)           118.5379         estimate D2E/DX2                !
 ! A165  A(13,51,52)           119.2456         estimate D2E/DX2                !
 ! A166  A(13,51,90)           119.5784         estimate D2E/DX2                !
 ! A167  A(52,51,90)           121.1675         estimate D2E/DX2                !
 ! A168  A(2,52,10)            110.7814         estimate D2E/DX2                !
 ! A169  A(2,52,51)            128.5913         estimate D2E/DX2                !
 ! A170  A(10,52,51)           120.6267         estimate D2E/DX2                !
 ! D1    D(53,1,2,3)           -59.8315         estimate D2E/DX2                !
 ! D2    D(53,1,2,4)            64.1475         estimate D2E/DX2                !
 ! D3    D(53,1,2,52)          176.4012         estimate D2E/DX2                !
 ! D4    D(54,1,2,3)          -179.7307         estimate D2E/DX2                !
 ! D5    D(54,1,2,4)           -55.7517         estimate D2E/DX2                !
 ! D6    D(54,1,2,52)           56.502          estimate D2E/DX2                !
 ! D7    D(55,1,2,3)            60.2587         estimate D2E/DX2                !
 ! D8    D(55,1,2,4)          -175.7623         estimate D2E/DX2                !
 ! D9    D(55,1,2,52)          -63.5086         estimate D2E/DX2                !
 ! D10   D(1,2,3,56)          -179.9285         estimate D2E/DX2                !
 ! D11   D(1,2,3,57)            60.1376         estimate D2E/DX2                !
 ! D12   D(1,2,3,58)           -59.9742         estimate D2E/DX2                !
 ! D13   D(4,2,3,56)            56.0439         estimate D2E/DX2                !
 ! D14   D(4,2,3,57)           -63.89           estimate D2E/DX2                !
 ! D15   D(4,2,3,58)           175.9982         estimate D2E/DX2                !
 ! D16   D(52,2,3,56)          -56.218          estimate D2E/DX2                !
 ! D17   D(52,2,3,57)         -176.1519         estimate D2E/DX2                !
 ! D18   D(52,2,3,58)           63.7363         estimate D2E/DX2                !
 ! D19   D(1,2,4,5)            -61.6158         estimate D2E/DX2                !
 ! D20   D(1,2,4,9)            118.3969         estimate D2E/DX2                !
 ! D21   D(3,2,4,5)             61.9741         estimate D2E/DX2                !
 ! D22   D(3,2,4,9)           -118.0132         estimate D2E/DX2                !
 ! D23   D(52,2,4,5)          -179.7823         estimate D2E/DX2                !
 ! D24   D(52,2,4,9)             0.2303         estimate D2E/DX2                !
 ! D25   D(1,2,52,10)         -118.577          estimate D2E/DX2                !
 ! D26   D(1,2,52,51)           61.1336         estimate D2E/DX2                !
 ! D27   D(3,2,52,10)          118.0238         estimate D2E/DX2                !
 ! D28   D(3,2,52,51)          -62.2656         estimate D2E/DX2                !
 ! D29   D(4,2,52,10)           -0.2492         estimate D2E/DX2                !
 ! D30   D(4,2,52,51)          179.4614         estimate D2E/DX2                !
 ! D31   D(2,4,5,6)           -179.9803         estimate D2E/DX2                !
 ! D32   D(2,4,5,59)             0.0317         estimate D2E/DX2                !
 ! D33   D(9,4,5,6)              0.0059         estimate D2E/DX2                !
 ! D34   D(9,4,5,59)          -179.9821         estimate D2E/DX2                !
 ! D35   D(2,4,9,8)            179.9668         estimate D2E/DX2                !
 ! D36   D(2,4,9,10)            -0.1357         estimate D2E/DX2                !
 ! D37   D(5,4,9,8)             -0.0217         estimate D2E/DX2                !
 ! D38   D(5,4,9,10)           179.8758         estimate D2E/DX2                !
 ! D39   D(4,5,6,7)              0.0109         estimate D2E/DX2                !
 ! D40   D(4,5,6,60)          -179.9872         estimate D2E/DX2                !
 ! D41   D(59,5,6,7)           179.999          estimate D2E/DX2                !
 ! D42   D(59,5,6,60)            0.0009         estimate D2E/DX2                !
 ! D43   D(5,6,7,8)             -0.0123         estimate D2E/DX2                !
 ! D44   D(5,6,7,61)           179.994          estimate D2E/DX2                !
 ! D45   D(60,6,7,8)           179.9858         estimate D2E/DX2                !
 ! D46   D(60,6,7,61)           -0.0079         estimate D2E/DX2                !
 ! D47   D(6,7,8,9)             -0.0034         estimate D2E/DX2                !
 ! D48   D(6,7,8,62)          -179.9877         estimate D2E/DX2                !
 ! D49   D(61,7,8,9)           179.9903         estimate D2E/DX2                !
 ! D50   D(61,7,8,62)            0.0059         estimate D2E/DX2                !
 ! D51   D(7,8,9,4)              0.0202         estimate D2E/DX2                !
 ! D52   D(7,8,9,10)          -179.8513         estimate D2E/DX2                !
 ! D53   D(62,8,9,4)          -179.9955         estimate D2E/DX2                !
 ! D54   D(62,8,9,10)            0.1331         estimate D2E/DX2                !
 ! D55   D(4,9,10,11)          179.7983         estimate D2E/DX2                !
 ! D56   D(4,9,10,52)           -0.03           estimate D2E/DX2                !
 ! D57   D(8,9,10,11)           -0.3183         estimate D2E/DX2                !
 ! D58   D(8,9,10,52)          179.8534         estimate D2E/DX2                !
 ! D59   D(9,10,11,12)         179.7971         estimate D2E/DX2                !
 ! D60   D(9,10,11,63)          -0.1139         estimate D2E/DX2                !
 ! D61   D(52,10,11,12)         -0.3917         estimate D2E/DX2                !
 ! D62   D(52,10,11,63)        179.6973         estimate D2E/DX2                !
 ! D63   D(9,10,52,2)            0.1842         estimate D2E/DX2                !
 ! D64   D(9,10,52,51)        -179.5529         estimate D2E/DX2                !
 ! D65   D(11,10,52,2)        -179.6659         estimate D2E/DX2                !
 ! D66   D(11,10,52,51)          0.597          estimate D2E/DX2                !
 ! D67   D(10,11,12,13)         -0.4451         estimate D2E/DX2                !
 ! D68   D(10,11,12,64)       -179.389          estimate D2E/DX2                !
 ! D69   D(63,11,12,13)        179.4661         estimate D2E/DX2                !
 ! D70   D(63,11,12,64)          0.5223         estimate D2E/DX2                !
 ! D71   D(11,12,13,14)        179.5085         estimate D2E/DX2                !
 ! D72   D(11,12,13,51)          1.0826         estimate D2E/DX2                !
 ! D73   D(64,12,13,14)         -1.5372         estimate D2E/DX2                !
 ! D74   D(64,12,13,51)       -179.963          estimate D2E/DX2                !
 ! D75   D(12,13,14,15)        -54.7756         estimate D2E/DX2                !
 ! D76   D(12,13,14,50)        125.9378         estimate D2E/DX2                !
 ! D77   D(51,13,14,15)        123.6417         estimate D2E/DX2                !
 ! D78   D(51,13,14,50)        -55.6449         estimate D2E/DX2                !
 ! D79   D(12,13,51,52)         -0.8654         estimate D2E/DX2                !
 ! D80   D(12,13,51,90)        178.0881         estimate D2E/DX2                !
 ! D81   D(14,13,51,52)       -179.2856         estimate D2E/DX2                !
 ! D82   D(14,13,51,90)         -0.3321         estimate D2E/DX2                !
 ! D83   D(13,14,15,16)       -178.0442         estimate D2E/DX2                !
 ! D84   D(13,14,15,65)          0.6293         estimate D2E/DX2                !
 ! D85   D(50,14,15,16)          1.2545         estimate D2E/DX2                !
 ! D86   D(50,14,15,65)        179.928          estimate D2E/DX2                !
 ! D87   D(13,14,50,45)        176.9922         estimate D2E/DX2                !
 ! D88   D(13,14,50,49)         -4.7261         estimate D2E/DX2                !
 ! D89   D(15,14,50,45)         -2.2896         estimate D2E/DX2                !
 ! D90   D(15,14,50,49)        175.9921         estimate D2E/DX2                !
 ! D91   D(14,15,16,17)       -179.6465         estimate D2E/DX2                !
 ! D92   D(14,15,16,18)          0.2099         estimate D2E/DX2                !
 ! D93   D(65,15,16,17)          1.6409         estimate D2E/DX2                !
 ! D94   D(65,15,16,18)       -178.5027         estimate D2E/DX2                !
 ! D95   D(15,16,17,66)       -177.4621         estimate D2E/DX2                !
 ! D96   D(18,16,17,66)          2.6847         estimate D2E/DX2                !
 ! D97   D(15,16,18,19)       -178.6526         estimate D2E/DX2                !
 ! D98   D(15,16,18,45)         -0.5955         estimate D2E/DX2                !
 ! D99   D(17,16,18,19)          1.1959         estimate D2E/DX2                !
 ! D100  D(17,16,18,45)        179.253          estimate D2E/DX2                !
 ! D101  D(16,18,19,20)        106.334          estimate D2E/DX2                !
 ! D102  D(16,18,19,44)        -72.1735         estimate D2E/DX2                !
 ! D103  D(45,18,19,20)        -71.6889         estimate D2E/DX2                !
 ! D104  D(45,18,19,44)        109.8035         estimate D2E/DX2                !
 ! D105  D(16,18,45,46)        179.1247         estimate D2E/DX2                !
 ! D106  D(16,18,45,50)         -0.4816         estimate D2E/DX2                !
 ! D107  D(19,18,45,46)         -2.8535         estimate D2E/DX2                !
 ! D108  D(19,18,45,50)        177.5402         estimate D2E/DX2                !
 ! D109  D(18,19,20,21)          2.1765         estimate D2E/DX2                !
 ! D110  D(18,19,20,22)       -176.1796         estimate D2E/DX2                !
 ! D111  D(44,19,20,21)       -179.2927         estimate D2E/DX2                !
 ! D112  D(44,19,20,22)          2.3511         estimate D2E/DX2                !
 ! D113  D(18,19,44,39)        176.6257         estimate D2E/DX2                !
 ! D114  D(18,19,44,43)         -4.6712         estimate D2E/DX2                !
 ! D115  D(20,19,44,39)         -1.8843         estimate D2E/DX2                !
 ! D116  D(20,19,44,43)        176.8188         estimate D2E/DX2                !
 ! D117  D(19,20,21,67)          3.1605         estimate D2E/DX2                !
 ! D118  D(22,20,21,67)       -178.4314         estimate D2E/DX2                !
 ! D119  D(19,20,22,23)         -0.1367         estimate D2E/DX2                !
 ! D120  D(19,20,22,68)        177.8377         estimate D2E/DX2                !
 ! D121  D(21,20,22,23)       -178.5811         estimate D2E/DX2                !
 ! D122  D(21,20,22,68)         -0.6067         estimate D2E/DX2                !
 ! D123  D(20,22,23,24)        176.9207         estimate D2E/DX2                !
 ! D124  D(20,22,23,39)         -2.5355         estimate D2E/DX2                !
 ! D125  D(68,22,23,24)         -0.9911         estimate D2E/DX2                !
 ! D126  D(68,22,23,39)        179.5527         estimate D2E/DX2                !
 ! D127  D(22,23,24,25)         54.5214         estimate D2E/DX2                !
 ! D128  D(22,23,24,29)       -123.8935         estimate D2E/DX2                !
 ! D129  D(39,23,24,25)       -126.0315         estimate D2E/DX2                !
 ! D130  D(39,23,24,29)         55.5535         estimate D2E/DX2                !
 ! D131  D(22,23,39,40)       -174.986          estimate D2E/DX2                !
 ! D132  D(22,23,39,44)          2.926          estimate D2E/DX2                !
 ! D133  D(24,23,39,40)          5.5702         estimate D2E/DX2                !
 ! D134  D(24,23,39,44)       -176.5179         estimate D2E/DX2                !
 ! D135  D(23,24,25,26)       -179.4862         estimate D2E/DX2                !
 ! D136  D(23,24,25,69)          1.5895         estimate D2E/DX2                !
 ! D137  D(29,24,25,26)         -1.064          estimate D2E/DX2                !
 ! D138  D(29,24,25,69)       -179.9883         estimate D2E/DX2                !
 ! D139  D(23,24,29,28)        179.2362         estimate D2E/DX2                !
 ! D140  D(23,24,29,71)          0.2695         estimate D2E/DX2                !
 ! D141  D(25,24,29,28)          0.8164         estimate D2E/DX2                !
 ! D142  D(25,24,29,71)       -178.1503         estimate D2E/DX2                !
 ! D143  D(24,25,26,27)          0.471          estimate D2E/DX2                !
 ! D144  D(24,25,26,70)       -179.4522         estimate D2E/DX2                !
 ! D145  D(69,25,26,27)        179.3843         estimate D2E/DX2                !
 ! D146  D(69,25,26,70)         -0.5389         estimate D2E/DX2                !
 ! D147  D(25,26,27,28)          0.3521         estimate D2E/DX2                !
 ! D148  D(25,26,27,38)       -179.8912         estimate D2E/DX2                !
 ! D149  D(70,26,27,28)       -179.725          estimate D2E/DX2                !
 ! D150  D(70,26,27,38)          0.0317         estimate D2E/DX2                !
 ! D151  D(26,27,28,29)         -0.5878         estimate D2E/DX2                !
 ! D152  D(26,27,28,30)        179.6351         estimate D2E/DX2                !
 ! D153  D(38,27,28,29)        179.6053         estimate D2E/DX2                !
 ! D154  D(38,27,28,30)         -0.1718         estimate D2E/DX2                !
 ! D155  D(26,27,38,33)       -179.7085         estimate D2E/DX2                !
 ! D156  D(26,27,38,37)          0.385          estimate D2E/DX2                !
 ! D157  D(28,27,38,33)          0.0702         estimate D2E/DX2                !
 ! D158  D(28,27,38,37)       -179.8364         estimate D2E/DX2                !
 ! D159  D(27,28,29,24)         -0.0057         estimate D2E/DX2                !
 ! D160  D(27,28,29,71)        178.9448         estimate D2E/DX2                !
 ! D161  D(30,28,29,24)        179.7277         estimate D2E/DX2                !
 ! D162  D(30,28,29,71)         -1.3218         estimate D2E/DX2                !
 ! D163  D(27,28,30,31)        118.495          estimate D2E/DX2                !
 ! D164  D(27,28,30,32)       -118.1064         estimate D2E/DX2                !
 ! D165  D(27,28,30,33)          0.1945         estimate D2E/DX2                !
 ! D166  D(29,28,30,31)        -61.2596         estimate D2E/DX2                !
 ! D167  D(29,28,30,32)         62.139          estimate D2E/DX2                !
 ! D168  D(29,28,30,33)       -179.5601         estimate D2E/DX2                !
 ! D169  D(28,30,31,72)         63.3264         estimate D2E/DX2                !
 ! D170  D(28,30,31,73)       -176.5838         estimate D2E/DX2                !
 ! D171  D(28,30,31,74)        -56.684          estimate D2E/DX2                !
 ! D172  D(32,30,31,72)        -60.4314         estimate D2E/DX2                !
 ! D173  D(32,30,31,73)         59.6584         estimate D2E/DX2                !
 ! D174  D(32,30,31,74)        179.5582         estimate D2E/DX2                !
 ! D175  D(33,30,31,72)        175.5621         estimate D2E/DX2                !
 ! D176  D(33,30,31,73)        -64.3481         estimate D2E/DX2                !
 ! D177  D(33,30,31,74)         55.5517         estimate D2E/DX2                !
 ! D178  D(28,30,32,75)         56.1284         estimate D2E/DX2                !
 ! D179  D(28,30,32,76)        -63.8266         estimate D2E/DX2                !
 ! D180  D(28,30,32,77)        176.0675         estimate D2E/DX2                !
 ! D181  D(31,30,32,75)        179.8393         estimate D2E/DX2                !
 ! D182  D(31,30,32,76)         59.8843         estimate D2E/DX2                !
 ! D183  D(31,30,32,77)        -60.2217         estimate D2E/DX2                !
 ! D184  D(33,30,32,75)        -56.1366         estimate D2E/DX2                !
 ! D185  D(33,30,32,76)       -176.0916         estimate D2E/DX2                !
 ! D186  D(33,30,32,77)         63.8024         estimate D2E/DX2                !
 ! D187  D(28,30,33,34)        179.8388         estimate D2E/DX2                !
 ! D188  D(28,30,33,38)         -0.1503         estimate D2E/DX2                !
 ! D189  D(31,30,33,34)         61.68           estimate D2E/DX2                !
 ! D190  D(31,30,33,38)       -118.3092         estimate D2E/DX2                !
 ! D191  D(32,30,33,34)        -61.9214         estimate D2E/DX2                !
 ! D192  D(32,30,33,38)        118.0895         estimate D2E/DX2                !
 ! D193  D(30,33,34,35)       -179.9795         estimate D2E/DX2                !
 ! D194  D(30,33,34,78)          0.0159         estimate D2E/DX2                !
 ! D195  D(38,33,34,35)          0.0087         estimate D2E/DX2                !
 ! D196  D(38,33,34,78)       -179.9959         estimate D2E/DX2                !
 ! D197  D(30,33,38,27)          0.0582         estimate D2E/DX2                !
 ! D198  D(30,33,38,37)        179.9761         estimate D2E/DX2                !
 ! D199  D(34,33,38,27)       -179.932          estimate D2E/DX2                !
 ! D200  D(34,33,38,37)         -0.0141         estimate D2E/DX2                !
 ! D201  D(33,34,35,36)          0.0055         estimate D2E/DX2                !
 ! D202  D(33,34,35,79)       -179.9991         estimate D2E/DX2                !
 ! D203  D(78,34,35,36)       -179.9899         estimate D2E/DX2                !
 ! D204  D(78,34,35,79)          0.0055         estimate D2E/DX2                !
 ! D205  D(34,35,36,37)         -0.0148         estimate D2E/DX2                !
 ! D206  D(34,35,36,80)        179.9891         estimate D2E/DX2                !
 ! D207  D(79,35,36,37)        179.9898         estimate D2E/DX2                !
 ! D208  D(79,35,36,80)         -0.0063         estimate D2E/DX2                !
 ! D209  D(35,36,37,38)          0.0093         estimate D2E/DX2                !
 ! D210  D(35,36,37,81)        179.9943         estimate D2E/DX2                !
 ! D211  D(80,36,37,38)       -179.9946         estimate D2E/DX2                !
 ! D212  D(80,36,37,81)         -0.0096         estimate D2E/DX2                !
 ! D213  D(36,37,38,27)        179.9019         estimate D2E/DX2                !
 ! D214  D(36,37,38,33)          0.0049         estimate D2E/DX2                !
 ! D215  D(81,37,38,27)         -0.083          estimate D2E/DX2                !
 ! D216  D(81,37,38,33)       -179.98           estimate D2E/DX2                !
 ! D217  D(23,39,40,41)        179.6727         estimate D2E/DX2                !
 ! D218  D(23,39,40,82)          0.7744         estimate D2E/DX2                !
 ! D219  D(44,39,40,41)          1.7526         estimate D2E/DX2                !
 ! D220  D(44,39,40,82)       -177.1457         estimate D2E/DX2                !
 ! D221  D(23,39,44,19)         -0.7359         estimate D2E/DX2                !
 ! D222  D(23,39,44,43)       -179.4688         estimate D2E/DX2                !
 ! D223  D(40,39,44,19)        177.2567         estimate D2E/DX2                !
 ! D224  D(40,39,44,43)         -1.4762         estimate D2E/DX2                !
 ! D225  D(39,40,41,42)         -0.6976         estimate D2E/DX2                !
 ! D226  D(39,40,41,83)       -179.9126         estimate D2E/DX2                !
 ! D227  D(82,40,41,42)        178.1873         estimate D2E/DX2                !
 ! D228  D(82,40,41,83)         -1.0278         estimate D2E/DX2                !
 ! D229  D(40,41,42,43)         -0.6551         estimate D2E/DX2                !
 ! D230  D(40,41,42,84)       -179.6436         estimate D2E/DX2                !
 ! D231  D(83,41,42,43)        178.5649         estimate D2E/DX2                !
 ! D232  D(83,41,42,84)         -0.4236         estimate D2E/DX2                !
 ! D233  D(41,42,43,44)          0.9045         estimate D2E/DX2                !
 ! D234  D(41,42,43,85)       -178.0821         estimate D2E/DX2                !
 ! D235  D(84,42,43,44)        179.8877         estimate D2E/DX2                !
 ! D236  D(84,42,43,85)          0.9011         estimate D2E/DX2                !
 ! D237  D(42,43,44,19)       -178.5406         estimate D2E/DX2                !
 ! D238  D(42,43,44,39)          0.1769         estimate D2E/DX2                !
 ! D239  D(85,43,44,19)          0.4602         estimate D2E/DX2                !
 ! D240  D(85,43,44,39)        179.1778         estimate D2E/DX2                !
 ! D241  D(18,45,46,47)        178.109          estimate D2E/DX2                !
 ! D242  D(18,45,46,86)         -2.0654         estimate D2E/DX2                !
 ! D243  D(50,45,46,47)         -2.2802         estimate D2E/DX2                !
 ! D244  D(50,45,46,86)        177.5454         estimate D2E/DX2                !
 ! D245  D(18,45,50,14)          1.9097         estimate D2E/DX2                !
 ! D246  D(18,45,50,49)       -176.4396         estimate D2E/DX2                !
 ! D247  D(46,45,50,14)       -177.706          estimate D2E/DX2                !
 ! D248  D(46,45,50,49)          3.9447         estimate D2E/DX2                !
 ! D249  D(45,46,47,48)         -0.6936         estimate D2E/DX2                !
 ! D250  D(45,46,47,87)        179.9506         estimate D2E/DX2                !
 ! D251  D(86,46,47,48)        179.4833         estimate D2E/DX2                !
 ! D252  D(86,46,47,87)          0.1274         estimate D2E/DX2                !
 ! D253  D(46,47,48,49)          1.9706         estimate D2E/DX2                !
 ! D254  D(46,47,48,88)       -178.133          estimate D2E/DX2                !
 ! D255  D(87,47,48,49)       -178.6702         estimate D2E/DX2                !
 ! D256  D(87,47,48,88)          1.2263         estimate D2E/DX2                !
 ! D257  D(47,48,49,50)         -0.196          estimate D2E/DX2                !
 ! D258  D(47,48,49,89)       -179.4766         estimate D2E/DX2                !
 ! D259  D(88,48,49,50)        179.9081         estimate D2E/DX2                !
 ! D260  D(88,48,49,89)          0.6276         estimate D2E/DX2                !
 ! D261  D(48,49,50,14)        178.9477         estimate D2E/DX2                !
 ! D262  D(48,49,50,45)         -2.7631         estimate D2E/DX2                !
 ! D263  D(89,49,50,14)         -1.763          estimate D2E/DX2                !
 ! D264  D(89,49,50,45)        176.5262         estimate D2E/DX2                !
 ! D265  D(13,51,52,2)        -179.6444         estimate D2E/DX2                !
 ! D266  D(13,51,52,10)          0.0412         estimate D2E/DX2                !
 ! D267  D(90,51,52,2)           1.4193         estimate D2E/DX2                !
 ! D268  D(90,51,52,10)       -178.8952         estimate D2E/DX2                !
 --------------------------------------------------------------------------------
 Trust Radius=3.00D-01 FncErr=1.00D-07 GrdErr=1.00D-06 EigMax=2.50D+02 EigMin=1.00D-04
 Number of steps in this run=    540 maximum allowed number of steps=    540.
 GradGradGradGradGradGradGradGradGradGradGradGradGradGradGradGradGradGrad

 Leave Link  103 at Mon Mar 24 03:28:27 2025, MaxMem= 13421772800 cpu:               0.8 elap:               0.0
 (Enter /public/software/apps/Gaussian/g16/l202.exe)
 Symmetry turned off by external request.
 Stoichiometry    C50H38O2
 Framework group  C1[X(C50H38O2)]
 Deg. of freedom   264
 Full point group                 C1      NOp   1
                          Input orientation:                          
 ---------------------------------------------------------------------
 Center     Atomic      Atomic             Coordinates (Angstroms)
 Number     Number       Type             X           Y           Z
 ---------------------------------------------------------------------
      1          6           0       -8.345899    1.377041    1.748178
      2          6           0       -8.257739   -0.071147    1.256566
      3          6           0       -8.056126   -1.026471    2.436717
      4          6           0       -9.478570   -0.451136    0.448709
      5          6           0      -10.797834   -0.494273    0.844276
      6          6           0      -11.761787   -0.877434   -0.079036
      7          6           0      -11.408238   -1.211830   -1.376967
      8          6           0      -10.084347   -1.171196   -1.783161
      9          6           0       -9.120635   -0.789143   -0.864751
     10          6           0       -7.679877   -0.652547   -0.998915
     11          6           0       -6.840655   -0.868104   -2.079546
     12          6           0       -5.483193   -0.651263   -1.921867
     13          6           0       -4.957611   -0.215340   -0.707543
     14          6           0       -3.506739   -0.003991   -0.568127
     15          6           0       -2.652698   -1.032137   -0.876170
     16          6           0       -1.262999   -0.900697   -0.723453
     17          8           0       -0.499089   -1.971801   -1.061836
     18          6           0       -0.719029    0.278746   -0.250212
     19          6           0        0.756158    0.402834   -0.126260
     20          6           0        1.454038    1.181539   -1.030460
     21          8           0        0.839463    1.883829   -2.017282
     22          6           0        2.856085    1.247103   -0.978338
     23          6           0        3.570791    0.550673   -0.037376
     24          6           0        5.041997    0.603124   -0.073237
     25          6           0        5.696661    1.832696   -0.058259
     26          6           0        7.077494    1.910802   -0.101794
     27          6           0        7.809770    0.737110   -0.171165
     28          6           0        7.157896   -0.504459   -0.203947
     29          6           0        5.785240   -0.576635   -0.155705
     30          6           0        8.159100   -1.634389   -0.288176
     31          6           0        8.055317   -2.553160    0.933257
     32          6           0        7.977622   -2.437252   -1.579862
     33          6           0        9.468278   -0.877185   -0.294244
     34          6           0       10.752769   -1.372307   -0.354830
     35          6           0       11.816009   -0.479016   -0.347040
     36          6           0       11.594323    0.887632   -0.279504
     37          6           0       10.306231    1.394046   -0.218498
     38          6           0        9.243644    0.505757   -0.226194
     39          6           0        2.882687   -0.215358    0.944280
     40          6           0        3.552617   -0.868894    1.999122
     41          6           0        2.864368   -1.593214    2.932583
     42          6           0        1.467807   -1.686907    2.864007
     43          6           0        0.783919   -1.043913    1.871463
     44          6           0        1.464891   -0.291857    0.888705
     45          6           0       -1.576419    1.363632    0.069239
     46          6           0       -1.062365    2.579486    0.572796
     47          6           0       -1.887912    3.633843    0.842604
     48          6           0       -3.265707    3.528034    0.608116
     49          6           0       -3.797398    2.356161    0.146096
     50          6           0       -2.980496    1.234898   -0.108190
     51          6           0       -5.807070   -0.012385    0.382459
     52          6           0       -7.156864   -0.230365    0.232246
     53          1           0       -9.180463    1.492751    2.435712
     54          1           0       -8.493826    2.051121    0.906802
     55          1           0       -7.429476    1.657680    2.262535
     56          1           0       -7.992912   -2.053164    2.082175
     57          1           0       -8.889316   -0.949608    3.131388
     58          1           0       -7.137407   -0.784319    2.965986
     59          1           0      -11.085368   -0.235818    1.853268
     60          1           0      -12.799839   -0.915340    0.217789
     61          1           0      -12.174736   -1.507211   -2.078768
     62          1           0       -9.810983   -1.431919   -2.794909
     63          1           0       -7.235058   -1.197809   -3.029186
     64          1           0       -4.813076   -0.804219   -2.755529
     65          1           0       -3.032181   -1.979818   -1.225445
     66          1           0        0.430161   -1.776125   -0.876734
     67          1           0       -0.119422    1.782999   -1.937726
     68          1           0        3.358581    1.839731   -1.726914
     69          1           0        5.107878    2.736291    0.006068
     70          1           0        7.571760    2.870673   -0.080631
     71          1           0        5.274002   -1.527985   -0.197452
     72          1           0        7.078466   -3.030588    0.964908
     73          1           0        8.819267   -3.325930    0.890986
     74          1           0        8.192653   -1.979450    1.847681
     75          1           0        8.049355   -1.779880   -2.443862
     76          1           0        7.003290   -2.920353   -1.590693
     77          1           0        8.746650   -3.201919   -1.660430
     78          1           0       10.937754   -2.435566   -0.407585
     79          1           0       12.828164   -0.853730   -0.394110
     80          1           0       12.436473    1.564434   -0.274524
     81          1           0       10.135734    2.459172   -0.165837
     82          1           0        4.625648   -0.774599    2.071668
     83          1           0        3.392809   -2.086469    3.734993
     84          1           0        0.933527   -2.256814    3.609726
     85          1           0       -0.295008   -1.090384    1.836154
     86          1           0        0.000971    2.663096    0.745434
     87          1           0       -1.481025    4.556992    1.227974
     88          1           0       -3.905125    4.377786    0.796358
     89          1           0       -4.857876    2.280503   -0.041558
     90          1           0       -5.392511    0.295895    1.331721
 ---------------------------------------------------------------------
 Rotational constants (GHZ):           0.2126844           0.0161229           0.0158950
 Leave Link  202 at Mon Mar 24 03:28:27 2025, MaxMem= 13421772800 cpu:               0.4 elap:               0.0
 (Enter /public/software/apps/Gaussian/g16/l301.exe)
 Standard basis: def2SVPP (5D, 7F)
 Ernie: Thresh=  0.10000D-02 Tol=  0.10000D-05 Strict=F.
   804 basis functions,  1452 primitive gaussians,   856 cartesian basis functions
   177 alpha electrons      177 beta electrons
       nuclear repulsion energy      5915.8679561162 Hartrees.
 IExCor=  402 DFT=T Ex+Corr=B3LYP ExCW=0 ScaHFX=  0.200000
 ScaDFX=  0.800000  0.720000  1.000000  0.810000 ScalE2=  1.000000  1.000000
 IRadAn=      5 IRanWt=     -1 IRanGd=            0 ICorTp=0 IEmpDi=141
 NAtoms=   90 NActive=   90 NUniq=   90 SFac= 1.00D+00 NAtFMM=   60 NAOKFM=T Big=T
 Integral buffers will be    131072 words long.
 Raffenetti 2 integral format.
 Two-electron integral symmetry is turned off.
 R6Disp:  Grimme-D3(BJ) Dispersion energy=       -0.2454941868 Hartrees.
 Nuclear repulsion after empirical dispersion term =     5915.6224619293 Hartrees.
 Leave Link  301 at Mon Mar 24 03:28:27 2025, MaxMem= 13421772800 cpu:               1.5 elap:               0.1
 (Enter /public/software/apps/Gaussian/g16/l302.exe)
 NPDir=0 NMtPBC=     1 NCelOv=     1 NCel=       1 NClECP=     1 NCelD=      1
         NCelK=      1 NCelE2=     1 NClLst=     1 CellRange=     0.0.
 One-electron integrals computed using PRISM.
   1 Symmetry operations used in ECPInt.
 ECPInt:  NShTT=   75466 NPrTT=  302266 LenC2=   47678 LenP2D=  117101.
 LDataN:  DoStor=T MaxTD1= 4 Len=   56
 NBasis=   804 RedAO= T EigKep=  1.59D-04  NBF=   804
 NBsUse=   804 1.00D-06 EigRej= -1.00D+00 NBFU=   804
 Precomputing XC quadrature grid using
 IXCGrd= 4 IRadAn=           5 IRanWt=          -1 IRanGd=           0 AccXCQ= 0.00D+00.
 Generated NRdTot=       0 NPtTot=           0 NUsed=           0 NTot=          32
 NSgBfM=   723   715   722   723   723 MxSgAt=    90 MxSgA2=    90.
 Leave Link  302 at Mon Mar 24 03:28:29 2025, MaxMem= 13421772800 cpu:              42.6 elap:               1.4
 (Enter /public/software/apps/Gaussian/g16/l303.exe)
 DipDrv:  MaxL=1.
 Leave Link  303 at Mon Mar 24 03:28:29 2025, MaxMem= 13421772800 cpu:               3.9 elap:               0.1
 (Enter /public/software/apps/Gaussian/g16/l401.exe)
 ExpMin= 1.22D-01 ExpMax= 2.27D+03 ExpMxC= 3.41D+02 IAcc=3 IRadAn=         5 AccDes= 0.00D+00
 Harris functional with IExCor=  402 and IRadAn=       5 diagonalized for initial guess.
 HarFok:  IExCor=  402 AccDes= 0.00D+00 IRadAn=         5 IDoV= 1 UseB2=F ITyADJ=14
 ICtDFT=  3500011 ScaDFX=  1.000000  1.000000  1.000000  1.000000
 FoFCou: FMM=F IPFlag=           0 FMFlag=      100000 FMFlg1=        2001
         NFxFlg=           0 DoJE=T BraDBF=F KetDBF=T FulRan=T
         wScrn=  0.000000 ICntrl=       500 IOpCl=  0 I1Cent=   200000004 NGrid=           0
         NMat0=    1 NMatS0=      1 NMatT0=    0 NMatD0=    1 NMtDS0=    0 NMtDT0=    0
 Symmetry not used in FoFCou.
 Harris En= -2077.37065518631    
 JPrj=0 DoOrth=F DoCkMO=F.
 Leave Link  401 at Mon Mar 24 03:28:31 2025, MaxMem= 13421772800 cpu:              76.1 elap:               2.4
 (Enter /public/software/apps/Gaussian/g16/l502.exe)
 Two-electron integral symmetry not used.
 Closed shell SCF:
 Using DIIS extrapolation, IDIIS=  1040.
 NGot= 13421772800 LenX= 13420270630 LenY= 13419537038
 Requested convergence on RMS density matrix=1.00D-08 within 128 cycles.
 Requested convergence on MAX density matrix=1.00D-06.
 Requested convergence on             energy=1.00D-06.
 No special actions if energy rises.
 Fock matrices will be formed incrementally for  20 cycles.
 Integral accuracy reduced to 1.0D-05 until final iterations.

 Cycle   1  Pass 0  IDiag  1:
 FoFJK:  IHMeth= 1 ICntrl=       0 DoSepK=F KAlg= 0 I1Cent=           0 FoldK=F
 IRaf= 710000000 NMat=       1 IRICut=       1 DoRegI=T DoRafI=F ISym2E= 0 IDoP0=0 IntGTp=1.
 FoFCou: FMM=T IPFlag=           0 FMFlag=      100000 FMFlg1=        2001
         NFxFlg=           0 DoJE=F BraDBF=F KetDBF=F FulRan=T
         wScrn=  0.000000 ICntrl=         0 IOpCl=  0 I1Cent=           0 NGrid=           0
         NMat0=    1 NMatS0=      1 NMatT0=    0 NMatD0=    1 NMtDS0=    0 NMtDT0=    0
 Symmetry not used in FoFCou.
 FMM levels:  10  Number of levels for PrismC:   9
 E= -2076.33106718804    
 DIIS: error= 2.57D-02 at cycle   1 NSaved=   1.
 NSaved= 1 IEnMin= 1 EnMin= -2076.33106718804     IErMin= 1 ErrMin= 2.57D-02
 ErrMax= 2.57D-02  0.00D+00 EMaxC= 1.00D-01 BMatC= 9.02D-01 BMatP= 9.02D-01
 IDIUse=3 WtCom= 7.43D-01 WtEn= 2.57D-01
 Coeff-Com:  0.100D+01
 Coeff-En:   0.100D+01
 Coeff:      0.100D+01
 Gap=     0.165 Goal=   None    Shift=    0.000
 GapD=    0.165 DampG=1.000 DampE=0.500 DampFc=0.5000 IDamp=-1.
 Damping current iteration by 5.00D-01
 RMSDP=4.48D-03 MaxDP=1.75D-01              OVMax= 1.57D-01

 Cycle   2  Pass 0  IDiag  1:
 RMSU=  1.96D-03    CP:  9.30D-01
 E= -2076.83848993403     Delta-E=       -0.507422745987 Rises=F Damp=T
 DIIS: error= 3.32D-03 at cycle   2 NSaved=   2.
 NSaved= 2 IEnMin= 2 EnMin= -2076.83848993403     IErMin= 2 ErrMin= 3.32D-03
 ErrMax= 3.32D-03  0.00D+00 EMaxC= 1.00D-01 BMatC= 4.10D-02 BMatP= 9.02D-01
 IDIUse=3 WtCom= 9.67D-01 WtEn= 3.32D-02
 Coeff-Com:  0.124D-02 0.999D+00
 Coeff-En:   0.000D+00 0.100D+01
 Coeff:      0.120D-02 0.999D+00
 Gap=     0.171 Goal=   None    Shift=    0.000
 RMSDP=1.65D-03 MaxDP=1.22D-01 DE=-5.07D-01 OVMax= 1.40D-01

 Cycle   3  Pass 0  IDiag  1:
 RMSU=  1.43D-03    CP:  8.81D-01  1.16D+00
 E= -2077.34065408135     Delta-E=       -0.502164147323 Rises=F Damp=F
 DIIS: error= 6.30D-03 at cycle   3 NSaved=   3.
 NSaved= 3 IEnMin= 3 EnMin= -2077.34065408135     IErMin= 2 ErrMin= 3.32D-03
 ErrMax= 6.30D-03  0.00D+00 EMaxC= 1.00D-01 BMatC= 4.04D-02 BMatP= 4.10D-02
 IDIUse=3 WtCom= 9.37D-01 WtEn= 6.30D-02
 Coeff-Com: -0.383D-01 0.516D+00 0.522D+00
 Coeff-En:   0.000D+00 0.000D+00 0.100D+01
 Coeff:     -0.359D-01 0.484D+00 0.552D+00
 Gap=     0.159 Goal=   None    Shift=    0.000
 RMSDP=6.56D-04 MaxDP=5.17D-02 DE=-5.02D-01 OVMax= 9.02D-02

 Cycle   4  Pass 0  IDiag  1:
 RMSU=  5.33D-04    CP:  8.82D-01  1.24D+00  7.55D-01
 E= -2077.36817299707     Delta-E=       -0.027518915717 Rises=F Damp=F
 DIIS: error= 4.06D-03 at cycle   4 NSaved=   4.
 NSaved= 4 IEnMin= 4 EnMin= -2077.36817299707     IErMin= 2 ErrMin= 3.32D-03
 ErrMax= 4.06D-03  0.00D+00 EMaxC= 1.00D-01 BMatC= 1.54D-02 BMatP= 4.04D-02
 IDIUse=3 WtCom= 9.59D-01 WtEn= 4.06D-02
 Coeff-Com: -0.231D-01 0.159D+00 0.386D+00 0.478D+00
 Coeff-En:   0.000D+00 0.000D+00 0.322D+00 0.678D+00
 Coeff:     -0.222D-01 0.153D+00 0.383D+00 0.486D+00
 Gap=     0.147 Goal=   None    Shift=    0.000
 RMSDP=3.05D-04 MaxDP=2.93D-02 DE=-2.75D-02 OVMax= 4.75D-02

 Cycle   5  Pass 0  IDiag  1:
 RMSU=  1.64D-04    CP:  8.80D-01  1.22D+00  8.22D-01  5.60D-01
 E= -2077.38531248244     Delta-E=       -0.017139485371 Rises=F Damp=F
 DIIS: error= 8.92D-04 at cycle   5 NSaved=   5.
 NSaved= 5 IEnMin= 5 EnMin= -2077.38531248244     IErMin= 5 ErrMin= 8.92D-04
 ErrMax= 8.92D-04  0.00D+00 EMaxC= 1.00D-01 BMatC= 1.15D-03 BMatP= 1.54D-02
 IDIUse=3 WtCom= 9.91D-01 WtEn= 8.92D-03
 Coeff-Com: -0.102D-01 0.466D-01 0.184D+00 0.297D+00 0.482D+00
 Coeff-En:   0.000D+00 0.000D+00 0.000D+00 0.000D+00 0.100D+01
 Coeff:     -0.101D-01 0.462D-01 0.182D+00 0.295D+00 0.487D+00
 Gap=     0.146 Goal=   None    Shift=    0.000
 RMSDP=8.69D-05 MaxDP=4.33D-03 DE=-1.71D-02 OVMax= 1.43D-02

 Cycle   6  Pass 0  IDiag  1:
 RMSU=  7.01D-05    CP:  8.80D-01  1.22D+00  8.19D-01  5.85D-01  7.04D-01
 E= -2077.38641934297     Delta-E=       -0.001106860527 Rises=F Damp=F
 DIIS: error= 3.63D-04 at cycle   6 NSaved=   6.
 NSaved= 6 IEnMin= 6 EnMin= -2077.38641934297     IErMin= 6 ErrMin= 3.63D-04
 ErrMax= 3.63D-04  0.00D+00 EMaxC= 1.00D-01 BMatC= 1.83D-04 BMatP= 1.15D-03
 IDIUse=3 WtCom= 9.96D-01 WtEn= 3.63D-03
 Coeff-Com: -0.313D-02 0.679D-02 0.581D-01 0.115D+00 0.320D+00 0.504D+00
 Coeff-En:   0.000D+00 0.000D+00 0.000D+00 0.000D+00 0.142D+00 0.858D+00
 Coeff:     -0.311D-02 0.676D-02 0.579D-01 0.114D+00 0.319D+00 0.505D+00
 Gap=     0.146 Goal=   None    Shift=    0.000
 RMSDP=3.64D-05 MaxDP=1.50D-03 DE=-1.11D-03 OVMax= 5.39D-03

 Cycle   7  Pass 0  IDiag  1:
[...]
 0000180,-0.00000022,0.00000111,-0.00000048,0.00000061,0.00000057,-0.00
 000082,-0.00000029,0.00000036,-0.00000149,-0.00000032,-0.00000159,0.00
 000186,0.00000074,0.00000022,0.00000113,-0.00000006,-0.00000138,0.0000
 0031,-0.00000005,-0.00000147,-0.00000073,-0.00000004,0.00000120,-0.000
 00013,-0.00000017,-0.00000354,0.00000093,-0.00000417,-0.00000320,0.000
 00180,-0.00000296,0.00000088,0.00000244,-0.00000362,-0.00000115,-0.000
 00814,0.00001200,-0.00010811,-0.00008275,0.00011079,-0.00037046,0.0001
 4332,-0.00001581,0.00080554,-0.00034065,0.00071638,0.35146118,0.000036
 92,0.00005757,-0.00006105,-0.00009259,0.00003664,0.00006491,0.00005574
 ,-0.00006264,-0.00000939,0.00010211,-0.00001760,-0.00005627,-0.0000304
 7,-0.00000576,0.00003309,0.00006020,0.00001272,0.00002067,0.00001953,-
 0.00001404,-0.00003525,0.00001874,-0.00000729,-0.00003623,-0.00008777,
 0.00001535,0.00004373,-0.00009578,0.00007146,0.00008514,0.00013201,-0.
 00005904,0.00005403,-0.00020876,0.00019020,-0.00011671,0.00040010,-0.0
 0199461,-0.00076235,-0.00012251,0.00014243,0.00113630,-0.00025737,0.00
 019947,-0.00000190,0.00018878,0.00034898,0.00027340,0.00001921,-0.0002
 0654,-0.00007424,0.00111733,0.00045755,0.00009736,0.00010641,-0.000312
 76,-0.00011827,0.00004135,-0.00002560,0.00007284,-0.00001249,0.0000132
 8,-0.00004652,-0.00001411,0.00001572,0.00001674,0.00000384,-0.00001560
 ,0.00001570,-0.00001410,-0.00000611,-0.00000183,0.00001015,-0.00000341
 ,0.00000251,0.00000158,-0.00000145,-0.00000221,-0.00000092,-0.00000038
 ,0.,0.00000109,0.00000455,0.00000191,0.00000804,0.00000515,-0.00000240
 ,-0.00000212,0.00000290,0.00000068,0.00000100,-0.00000079,-0.00000201,
 0.00000157,-0.00000069,0.00000176,0.00000615,-0.00000413,-0.00000063,-
 0.00000254,0.00000253,-0.00000008,0.00000418,0.00000182,-0.00000012,0.
 00000110,-0.00000354,-0.00000016,0.00000031,-0.00000216,-0.00000005,-0
 .00000488,0.00000258,0.00000064,0.00003192,0.00002002,0.00000679,0.000
 00028,-0.00000157,0.00000531,0.00001173,-0.00000073,-0.00000115,-0.000
 01552,0.00000371,-0.00000836,-0.00000259,-0.00002275,0.00002025,0.0000
 3722,0.00004435,-0.00008024,0.00204446,-0.00345407,-0.00243315,0.00020
 986,-0.00097838,-0.00009726,-0.00095145,-0.00347143,-0.00374420,-0.027
 67119,0.00256169,-0.00504123,-0.01349488,-0.05657665,-0.00842338,0.024
 04524,0.00648367,0.00444966,-0.00119310,-0.00175355,0.00052085,-0.0004
 3021,-0.00007320,0.00010504,0.00002170,-0.00004931,-0.00001442,0.00004
 406,0.00001128,0.00004171,-0.00002740,0.00003961,-0.00001410,-0.000001
 93,-0.00001442,0.00001663,0.00001880,0.00001660,-0.00003660,-0.0000142
 2,0.00000475,0.00001718,0.00000601,-0.00000037,-0.00001519,0.00001221,
 0.00000489,-0.00000187,0.00001525,0.00000522,0.00000479,-0.00001334,0.
 00000073,-0.00000095,0.00001393,-0.00000936,0.00002539,0.00001534,0.00
 003868,0.00008003,-0.00000713,0.00002791,-0.00005824,-0.00002923,0.000
 02622,0.00000572,-0.00003307,-0.00000230,0.00003421,0.00000625,0.00000
 226,-0.00000319,-0.00000172,-0.00000252,-0.00000023,0.00000194,0.00000
 126,-0.00000047,-0.00000270,0.00000231,0.00000053,-0.00000061,0.000001
 59,0.00000037,0.00000172,-0.00000154,0.00000028,-0.00000086,0.00000043
 ,-0.00000051,-0.00000052,0.00000057,0.00000044,-0.00000068,0.00000122,
 0.00000023,0.00000151,-0.00000157,-0.00000070,-0.00000007,-0.00000105,
 -0.00000003,0.00000112,-0.00000020,-0.00000002,0.00000107,0.00000056,-
 0.00000006,-0.00000092,-0.00000002,-0.00000004,0.00000342,-0.00000015,
 0.00000431,0.00000271,-0.00000159,0.00000280,-0.00000024,-0.00000217,0
 .00000552,0.00000035,0.00000917,-0.00000902,-0.00004159,-0.00002153,0.
 00029409,-0.00121102,-0.00001372,-0.00022126,0.00015160,0.00067223,0.0
 0177117,0.01740181,0.05850211,0.00009693,0.00003188,0.00013088,-0.0000
 1520,0.00004402,0.00000773,0.00001277,-0.00001211,0.,0.00008497,-0.000
 01369,0.00003621,-0.00003373,-0.00001036,-0.00000881,0.00002496,0.0000
 0995,0.00001741,0.00000624,-0.00000862,-0.00003206,-0.00002120,-0.0000
 0045,-0.00001151,-0.00001204,-0.00000310,-0.00003240,-0.00003116,-0.00
 001146,-0.00003901,-0.00009297,-0.00006032,-0.00010619,0.00001107,-0.0
 0002284,-0.00015356,-0.00007744,-0.00014683,0.00007800,0.00036071,0.00
 121467,-0.00231544,0.00033892,-0.00012539,-0.00011831,-0.00017142,0.00
 002176,-0.00037620,0.00001539,-0.00000630,0.00002308,0.00022580,0.0001
 2824,0.00030057,0.00002113,-0.00011782,0.00017639,-0.00006535,-0.00000
 004,0.00002662,0.00001384,0.00001064,-0.00007480,0.00001258,-0.0000160
 3,-0.00000895,-0.00000231,0.00000582,-0.00000573,0.00000258,0.00000263
 ,-0.00000019,-0.00000091,-0.00000059,-0.00000076,-0.00000043,0.0000007
 1,0.00000022,0.00000057,-0.00000005,-0.00000002,-0.00000027,-0.0000005
 5,-0.00000086,-0.00000195,-0.00000098,0.00000009,0.00000057,-0.0000005
 5,0.00000033,-0.00000035,0.00000004,0.00000058,-0.00000034,0.00000014,
 -0.00000024,-0.00000140,0.00000092,-0.00000024,0.00000056,-0.00000054,
 -0.00000012,-0.00000090,-0.00000042,-0.00000014,-0.00000019,0.00000088
 ,-0.00000015,-0.00000008,0.00000030,-0.00000016,0.00000114,-0.00000045
 ,-0.00000012,-0.00000630,-0.00001144,0.00002136,0.00000861,0.00000354,
 -0.00000620,-0.00000573,0.00000058,0.00000073,0.00000590,-0.00000281,0
 .00000574,-0.00000064,0.00000806,-0.00001494,0.00005529,0.00000696,0.0
 0000044,-0.00018221,-0.00256974,0.00412428,0.00024910,0.00035113,-0.00
 046504,-0.00102112,-0.00404636,0.00660424,-0.01106664,-0.00060528,0.00
 317183,-0.05208135,-0.00791896,-0.04898941,0.00615046,-0.00069228,0.00
 414657,-0.00026838,0.00002749,0.00056011,0.00024635,-0.00002765,0.0000
 4015,-0.00005544,-0.00004114,-0.00002657,0.00003101,0.00000971,0.00002
 079,-0.00004637,0.00000314,-0.00013817,-0.00000428,-0.00001830,0.00000
 060,-0.00000189,0.00000389,0.00000104,-0.00001478,0.00001510,-0.000017
 65,0.00001010,0.00000156,-0.00000519,-0.00000298,-0.00000099,-0.000001
 21,-0.00000121,-0.00000177,-0.00000139,-0.00000242,-0.00000437,-0.0000
 0683,0.00000600,0.00000554,-0.00000691,0.00000194,-0.00000363,-0.00004
 581,-0.00000477,-0.00007529,0.00026740,-0.00000247,-0.00000317,0.00000
 977,0.00001106,-0.00000546,0.00004215,-0.00000034,0.00000100,0.0000021
 4,0.00000025,0.00000047,0.00000042,0.,-0.00000024,0.00000042,0.0000004
 1,-0.00000008,0.00000045,0.00000022,-0.00000018,0.00000011,-0.00000035
 ,0.00000044,-0.00000007,0.00000004,-0.00000030,-0.00000010,0.00000030,
 0.00000010,-0.00000032,0.00000009,-0.00000040,0.00000017,-0.00000039,0
 .00000035,0.00000015,0.00000004,0.00000026,0.00000016,-0.00000028,0.00
 000007,0.00000014,-0.00000022,-0.00000017,0.00000017,0.00000026,0.0000
 0007,0.00000023,0.00000082,-0.00000149,0.00000095,-0.00000081,0.000000
 79,-0.00000016,-0.00000005,0.00000072,-0.00000215,-0.00000220,-0.00000
 138,0.00000291,0.00010696,0.00035691,-0.00091559,-0.00043044,-0.000021
 28,0.00003367,0.00092926,0.00181830,-0.00438011,0.05654392,0.01176662,
 0.03896195,-0.00045044,-0.00020164,-0.00018015,0.00117472,0.00059800,-
 0.00041240,-0.00035028,-0.00007756,-0.00023138,-0.00006978,-0.00003878
 ,-0.00019212,0.00010814,0.00003501,0.00009083,-0.00005969,-0.00001034,
 -0.00001311,-0.00003279,-0.00003381,-0.00008460,-0.00040690,0.00006109
 ,0.00028802,-0.00002798,-0.00046677,-0.00143148,-0.00465505,-0.0013892
 4,0.00126663,-0.00080106,0.00014638,0.00051071,-0.00213649,-0.00025281
 ,0.00310119,0.00987809,0.00581525,0.01727430,0.00104698,0.00075956,0.0
 0031956,-0.00018020,0.00016063,-0.00007187,0.00007681,0.00017277,0.000
 15011,0.00007205,-0.00009773,-0.00004400,0.00003501,-0.00017284,-0.000
 05382,-0.00002275,-0.00001776,0.00001008,0.00000531,-0.00001155,0.0000
 1380,0.00002172,0.00000784,-0.00002145,-0.00000106,0.00000177,-0.00000
 058,-0.00000818,-0.00000662,0.00001253,-0.00001148,-0.00000311,-0.0000
 0167,0.00000885,-0.00000136,0.00000197,0.00000135,-0.00000234,-0.00000
 183,-0.00000149,-0.00000049,0.00000018,0.00000108,0.00000588,0.0000012
 2,0.00000553,0.00000326,-0.00000317,-0.00000259,0.00000291,0.00000074,
 0.00000074,-0.00000118,-0.00000183,0.00000131,-0.00000099,0.00000177,0
 .00000596,-0.00000496,-0.00000073,-0.00000250,0.00000289,-0.00000003,0
 .00000449,0.00000206,-0.00000014,0.00000115,-0.00000390,-0.00000022,0.
 00000059,-0.00000249,-0.00000013,-0.00000574,0.00000318,0.00000066,0.0
 0001731,0.00000261,-0.00000374,0.00000448,-0.00000511,0.00000467,0.000
 00833,0.00000206,-0.00000244,-0.00000112,0.00000604,-0.00001170,-0.000
 01808,-0.00001322,0.00001371,0.00001726,0.00002564,-0.00002380,-0.0001
 3839,0.00019121,-0.00017039,-0.00001411,-0.00009468,0.00001013,-0.0000
 6964,0.00004501,-0.00004827,-0.00000525,0.00005230,0.00001092,0.000023
 57,-0.00093485,0.00043113,-0.00004310,0.00001429,0.00021796,-0.0953316
 8,-0.03343552,-0.08977012,-0.00521713,-0.00974136,-0.02814691,0.000240
 32,0.00013965,0.00015454,0.00007494,-0.00005092,0.00004182,-0.00018696
 ,0.00056210,0.00046552,0.00007678,0.00007476,0.00000434,0.00019150,0.0
 0003659,0.00012791,-0.00006174,-0.00022665,0.00059629,-0.00005645,0.00
 000104,0.00002611,0.00000291,0.00000439,0.00000897,-0.00004884,-0.0000
 0451,0.00001643,0.00002486,0.00000522,0.00000599,0.00002262,0.00014048
 ,-0.00014950,0.00043268,0.00033149,0.00092078,0.00001189,-0.00002310,0
 .00000345,-0.00002213,0.00000842,-0.00000461,-0.00002062,-0.00001686,0
 .00003740,0.00000392,0.00000197,-0.00000179,-0.00000210,-0.00000295,0.
 00000015,0.00000183,0.00000155,-0.00000025,-0.00000288,0.00000294,0.00
 000125,-0.00000016,0.00000208,0.00000042,0.00000188,-0.00000178,0.0000
 0010,-0.00000114,0.00000049,-0.00000051,-0.00000066,0.00000068,0.00000
 034,-0.00000025,0.00000155,0.00000025,0.00000158,-0.00000182,-0.000000
 67,-0.00000028,-0.00000110,0.,0.00000139,-0.00000031,-0.00000003,0.000
 00141,0.00000075,-0.00000004,-0.00000119,0.00000008,0.00000006,0.00000
 311,-0.00000113,0.00000265,0.00000461,-0.00000156,0.00000301,-0.000002
 88,0.00000043,0.00000160,0.00000237,0.00000959,-0.00000786,0.00000790,
 0.00001044,0.00001624,0.00000082,0.00001354,-0.00000847,0.00000656,0.0
 0003206,0.00003556,-0.00028165,-0.00034638,0.00014456,0.09711818,0.000
 36176,0.00014489,-0.00004498,0.00074780,-0.00349027,0.00084966,-0.0005
 0356,0.00005186,-0.00012549,-0.00005746,-0.00019046,0.00008447,0.00002
 013,0.00005409,-0.00001404,-0.00002801,-0.00001918,-0.00000649,-0.0000
 1650,0.00002638,-0.00000874,-0.00003271,-0.00015791,0.00011434,0.00002
 222,-0.00005377,-0.00024438,-0.00164777,0.00716986,-0.00162484,0.00003
 218,-0.00047820,0.00039018,0.00018330,0.00588374,-0.00193295,-0.001380
 36,0.00159954,-0.00395052,-0.00079811,-0.00331734,0.00105051,0.0008312
 9,-0.00014888,0.00002736,-0.00018466,-0.00012429,-0.00021448,0.0001106
 6,-0.00006462,0.00001423,-0.00004082,0.00008484,0.00004258,-0.00000786
 ,-0.00002246,0.00002456,-0.00002440,0.00002804,-0.00003024,0.00002446,
 -0.00003393,0.00002379,0.00000195,-0.00000758,0.00000679,0.00000066,0.
 00000308,-0.00000333,-0.00000016,-0.00000136,0.00000141,-0.00000032,0.
 00000139,0.00000046,-0.00000013,-0.00000040,-0.00000009,-0.00000049,-0
 .00000047,-0.00000006,0.00000038,0.00000013,0.00000053,0.00000074,0.00
 000081,0.00000043,-0.00000037,0.00000026,-0.00000035,0.00000058,0.0000
 0023,-0.00000044,0.00000040,0.00000002,0.00000028,0.00000106,-0.000000
 14,0.00000028,-0.00000041,0.00000013,0.00000012,0.00000038,0.00000014,
 0.00000009,0.00000005,-0.00000042,0.00000009,-0.00000011,0.00000020,0.
 00000010,-0.00000033,-0.00000021,0.,0.00000075,-0.00000276,0.00000463,
 -0.00000636,0.00000131,-0.00000228,0.00000247,-0.00000497,0.00000629,-
 0.00000292,0.00000411,-0.00000697,0.00001663,-0.00000607,0.00001029,-0
 .00001192,0.00001435,-0.00002534,0.00025076,0.00004124,-0.00027988,0.0
 0003792,0.00002114,0.00003765,0.00000082,-0.00006174,-0.00002788,-0.00
 002415,-0.00013599,-0.00003629,-0.00021090,-0.00030523,0.00046899,-0.0
 0070009,0.00025120,0.00036215,-0.03295216,-0.06551099,-0.08020221,-0.0
 0189431,0.00240942,-0.00480419,-0.00021883,-0.00013876,-0.00013702,0.0
 0010134,0.00001650,0.00001141,0.00021261,-0.00014653,-0.00029119,-0.00
 009998,-0.00000654,-0.00001133,0.00029764,-0.00003671,0.00026208,-0.00
 002911,0.00004619,0.00054699,-0.00001167,0.00000094,0.00000907,-0.0000
 0110,-0.00000775,0.00000324,-0.00001305,0.00002126,-0.00000444,0.00000
 657,-0.00000166,0.00000053,0.00013506,-0.00110197,0.00030549,-0.000124
 65,0.00021073,-0.00024297,0.00000783,-0.00001800,0.00000767,-0.0000029
 6,-0.00000926,-0.00000543,-0.00001081,0.00002212,0.00000756,-0.0000015
 8,0.00000053,0.00000041,0.00000003,-0.00000033,-0.00000014,-0.00000043
 ,-0.00000007,-0.00000015,-0.00000010,-0.00000046,-0.00000067,-0.000000
 53,-0.00000013,-0.00000018,0.00000025,-0.00000024,0.00000012,0.0000001
 1,0.00000022,0.00000004,-0.00000017,-0.00000016,0.00000032,-0.00000036
 ,0.00000015,-0.00000021,0.00000031,-0.00000014,-0.00000017,0.00000011,
 -0.00000020,-0.00000013,0.00000007,0.00000001,-0.00000009,-0.00000008,
 0.00000001,-0.00000009,-0.00000007,-0.00000020,-0.00000012,-0.00000022
 ,-0.00000018,0.00000044,-0.00000007,0.00000009,0.00000030,0.00000357,-
 0.00000371,0.00000615,0.00000311,0.00000732,-0.00000972,-0.00000582,-0
 .00002016,0.00002496,0.00002247,0.00001207,-0.00000182,-0.00000679,-0.
 00000517,-0.00000195,-0.00058688,-0.00086565,0.00075823,0.03820214,0.0
 5837307,-0.00016630,-0.00013782,-0.00005380,0.00039456,0.00090585,-0.0
 0098199,0.00010379,0.00000621,-0.00008674,-0.00022880,0.00009052,0.000
 18405,0.00003635,-0.00001961,-0.00003810,-0.00007104,-0.00001237,-0.00
 002106,-0.00001757,-0.00000055,0.00003214,-0.00002617,0.00006362,0.000
 05027,0.00018098,-0.00004207,-0.00016471,0.00039091,-0.00160170,0.0021
 5140,0.00043100,0.00035511,0.00031737,0.00418488,-0.00160916,-0.001095
 63,-0.01052088,-0.00776905,-0.01647943,-0.00151621,0.00094391,0.000238
 93,0.00018983,-0.00013734,0.00013912,-0.00007967,-0.00020863,-0.000096
 86,-0.00010780,0.00018507,0.00005854,0.00004034,0.00018200,0.00005390,
 0.00000293,0.00003186,0.00000213,0.00001504,-0.00000523,-0.00000074,-0
 .00002743,0.00002417,0.00001964,0.00000060,0.00000380,-0.00000346,0.00
 000849,0.00000488,-0.00000930,0.00000995,0.00000365,0.00000131,-0.0000
 0719,-0.00000021,-0.00000171,-0.00000124,0.00000252,0.00000182,0.00000
 185,0.00000074,-0.00000020,-0.00000115,-0.00000554,-0.00000092,-0.0000
 0520,-0.00000328,0.00000300,0.00000264,-0.00000280,-0.00000096,-0.0000
 0094,0.00000106,0.00000191,-0.00000159,0.00000085,-0.00000192,-0.00000
 612,0.00000463,0.00000093,0.00000255,-0.00000272,0.00000009,-0.0000043
 4,-0.00000199,0.00000023,-0.00000107,0.00000386,0.00000031,-0.00000046
 ,0.00000206,0.00000018,0.00000546,-0.00000274,-0.00000062,-0.00001555,
 -0.00000465,0.00000278,-0.00000085,0.00000419,-0.00000316,-0.00000774,
 -0.00000062,0.00000117,0.00000345,-0.00000552,0.00001001,0.00001181,0.
 00001153,-0.00001426,-0.00000260,-0.00002241,0.00003063,0.00029881,0.0
 0005554,0.00008130,-0.00006689,-0.00009716,-0.00004576,-0.00009423,0.0
 0005800,-0.00006717,-0.00006086,0.00021431,0.00012639,0.00015761,-0.00
 032989,0.00058850,0.00043928,-0.00014847,-0.00004724,-0.08668017,-0.07
 925803,-0.26950286,-0.00153373,-0.00114597,0.00111376,0.00004567,0.000
 19188,0.00007293,-0.00003745,-0.00000450,-0.00000236,0.00029336,0.0000
 3768,0.00023563,0.00001728,-0.00000266,0.00000349,-0.00007212,-0.00009
 777,0.00003488,0.00032345,0.00017338,-0.00001994,-0.00001229,0.0000045
 2,0.00001972,-0.00001228,-0.00000018,-0.00000172,-0.00001356,-0.000008
 18,0.00000154,0.00001337,0.00000293,-0.00000090,-0.00009883,0.00030808
 ,-0.00017465,-0.00054276,-0.00045415,-0.00085346,-0.00004514,0.0000717
 8,-0.00003583,0.00003132,-0.00000495,-0.00000695,0.00002047,-0.0000158
 6,-0.00004503,-0.00000187,-0.00000303,0.00000067,0.00000188,0.00000295
 ,-0.00000040,-0.00000126,-0.00000136,0.00000007,0.00000264,-0.00000236
 ,-0.00000130,0.00000036,-0.00000194,-0.00000051,-0.00000190,0.00000175
 ,-0.00000021,0.00000113,-0.00000039,0.00000068,0.00000053,-0.00000081,
 -0.00000030,0.00000054,-0.00000134,-0.00000037,-0.00000161,0.00000184,
 0.00000071,0.00000018,0.00000116,-0.00000008,-0.00000135,0.00000030,-0
 .00000005,-0.00000124,-0.00000071,-0.00000005,0.00000114,0.00000009,-0
 .00000015,-0.00000252,0.00000046,-0.00000255,-0.00000350,0.00000117,-0
 .00000279,0.00000206,0.00000064,-0.00000205,0.00000080,-0.00000769,0.0
 0000922,-0.00000498,-0.00000301,0.00000678,-0.00003542,-0.00001142,-0.
 00001988,0.00000837,-0.00002191,0.00001448,-0.00028302,0.00043220,-0.0
 0050958,0.09474925,0.08882700,0.28478714\\0.00000017,-0.00000187,-0.00
 000093,0.00000043,0.00000254,0.00000554,-0.00000022,0.00000112,-0.0000
 0217,-0.00000001,-0.00000127,-0.00000457,-0.00000149,-0.00000021,0.,0.
 00000220,0.00000066,0.00000103,0.00000234,0.00000036,-0.00000001,-0.00
 000189,-0.00000037,-0.00000062,0.00000259,0.00000086,0.00000334,-0.000
 00285,0.00000136,0.00000229,0.00000256,-0.00000037,0.00000038,-0.00000
 271,-0.00000025,0.00000002,0.00000173,0.00000038,0.00000200,-0.0000035
 4,-0.00000209,-0.00000228,0.00000083,0.00000537,0.00000008,0.00000001,
 0.00000055,0.00000216,0.00000238,-0.00000033,0.00000237,0.00000165,-0.
 00000551,0.00000083,-0.00000048,0.00000418,0.00000069,0.00000117,-0.00
 000069,-0.00000143,-0.00000218,0.00000087,0.00000301,-0.00000187,-0.00
 000118,0.00000452,0.00000337,0.00000359,-0.00000359,-0.00000055,-0.000
 00428,0.00000117,0.00000207,0.00000054,-0.00000176,-0.00000228,-0.0000
 0033,-0.00000015,0.00000216,-0.00000277,0.00000040,0.00000010,0.000004
 93,-0.00000038,0.00000057,-0.00000005,-0.00000029,-0.00000096,-0.00000
 618,-0.00000101,-0.00000005,0.00000170,-0.00000124,0.00000028,0.000001
 53,0.00000211,0.00000050,0.00000456,0.00000075,0.00000141,-0.00000022,
 -0.00000016,-0.00000228,-0.00000103,0.00000021,-0.00000231,-0.00000006
 ,0.00000019,0.00000197,0.00000038,-0.00000026,-0.00000265,-0.00000350,
 0.00000006,-0.00000014,-0.00000441,0.00000217,-0.00000005,0.00000206,-
 0.00000115,-0.00000558,-0.00000054,0.00000086,0.00000484,-0.00000099,0
 .00000076,-0.00000008,0.00000284,-0.00000246,0.00000041,-0.00000231,-0
 .00000098,-0.00000146,0.00000412,-0.00000284,0.00000017,-0.00000423,0.
 00000124,-0.00000477,0.00000163,-0.00000138,0.00000545,0.00000132,0.00
 000038,0.00000039,-0.00000683,-0.00000041,0.00000064,0.00000340,0.0000
 0277,0.00000062,0.00000336,-0.00000032,0.00000083,-0.00000239,-0.00000
 456,-0.00000102,0.00000034,0.00000044,-0.00000012,0.00000044,-0.000001
 23,0.00000086,0.00000043,0.00000019,0.00000006,-0.00000088,-0.00000082
 ,-0.00000098,0.00000022,0.00000015,0.00000093,0.00000036,0.00000015,0.
 00000037,0.00000050,0.00000051,-0.00000111,-0.00000002,-0.00000017,-0.
 00000072,-0.00000017,-0.00000049,0.00000050,0.00000006,-0.00000066,-0.
 00000012,-0.00000025,-0.00000068,0.00000038,-0.00000034,-0.00000078,0.
 00000062,-0.00000173,-0.00000087,-0.00000264,-0.00000158,-0.00000258,0
 .00000304,-0.00000030,-0.00000258,-0.00000026,0.00000054,-0.00000187,-
 0.00000034,0.00000056,-0.00000047,0.00000030,0.00000061,0.00000020,0.0
 0000153,-0.00000010,-0.00000234,-0.00000103,-0.00000043,0.00000030,0.0
 0000088,-0.00000082,0.00000024,0.00000016,0.00000090,0.00000086,0.0000
 0004,0.00000097,-0.00000055,-0.00000106,-0.00000032,0.00000025,0.00000
 091,-0.00000044,0.00000023,-0.00000048,-0.00000078,0.00000024,0.000001
 10,-0.00000015,0.00000007,0.00000077,0.00000024,0.00000005,-0.00000047
 ,0.00000051,0.00000026,-0.00000192,0.00000047,0.00000291,0.00000117,-0
 .00000034,0.00000026,-0.00000127,0.00000027,0.00000046,-0.00000045,-0.
 00000007,0.00000113,-0.00000045,0.00000112,0.00000019,0.00000101,0.000
 00006,0.00000065,-0.00000144,0.00000009,-0.00000028,-0.00000187,0.0000
 0003,-0.00000048,-0.00000035,0.00000004,0.00000075\\\@
 The archive entry for this job was punched.


 IF THE FACTS DO NOT CONFORM TO THE THEORY, THEY MUST BE DISPOSED OF.
 Job cpu time:       0 days 13 hours 38 minutes 40.0 seconds.
 Elapsed time:       0 days  0 hours 25 minutes 41.8 seconds.
 File lengths (MBytes):  RWF=   6149 Int=      0 D2E=      0 Chk=     57 Scr=      1
 Normal termination of Gaussian 16 at Mon Mar 24 04:05:48 2025.
