 Entering Gaussian System, Link 0=g16
 Initial command:
 /public/software/apps/Gaussian/g16/l1.exe "/tmp/Gau-118740.inp" -scrdir="/tmp/"
 Entering Link 1 = /public/software/apps/Gaussian/g16/l1.exe PID=    118741.
  
 Copyright (c) 1988-2019, Gaussian, Inc.  All Rights Reserved.
  
 This is part of the Gaussian(R) 16 program.  It is based on
 the Gaussian(R) 09 system (copyright 2009, Gaussian, Inc.),
 the Gaussian(R) 03 system (copyright 2003, Gaussian, Inc.),
 the Gaussian(R) 98 system (copyright 1998, Gaussian, Inc.),
 the Gaussian(R) 94 system (copyright 1995, Gaussian, Inc.),
 the Gaussian 92(TM) system (copyright 1992, Gaussian, Inc.),
 the Gaussian 90(TM) system (copyright 1990, Gaussian, Inc.),
 the Gaussian 88(TM) system (copyright 1988, Gaussian, Inc.),
 the Gaussian 86(TM) system (copyright 1986, Carnegie Mellon
 University), and the Gaussian 82(TM) system (copyright 1983,
 Carnegie Mellon University). Gaussian is a federally registered
 trademark of Gaussian, Inc.
  
 This software contains proprietary and confidential information,
 including trade secrets, belonging to Gaussian, Inc.
  
 This software is provided under written license and may be
 used, copied, transmitted, or stored only in accord with that
 written license.
  
 The following legend is applicable only to US Government
 contracts under FAR:
  
                    RESTRICTED RIGHTS LEGEND
  
 Use, reproduction and disclosure by the US Government is
 subject to restrictions as set forth in subparagraphs (a)
 and (c) of the Commercial Computer Software - Restricted
 Rights clause in FAR 52.227-19.
  
 Gaussian, Inc.
 340 Quinnipiac St., Bldg. 40, Wallingford CT 06492
  
  
 ---------------------------------------------------------------
 Warning -- This program may not be used in any manner that
 competes with the business of Gaussian, Inc. or will provide
 assistance to any competitor of Gaussian, Inc.  The licensee
 of this program is prohibited from giving any competitor of
 Gaussian, Inc. access to this program.  By using this program,
 the user acknowledges that Gaussian, Inc. is engaged in the
 business of creating and licensing software in the field of
 computational chemistry and represents and warrants to the
 licensee that it is not a competitor of Gaussian, Inc. and that
 it will not use this program in any manner prohibited above.
 ---------------------------------------------------------------
  

 Cite this work as:
 Gaussian 16, Revision C.01,
 M. J. Frisch, G. W. Trucks, H. B. Schlegel, G. E. Scuseria, 
 M. A. Robb, J. R. Cheeseman, G. Scalmani, V. Barone, 
 G. A. Petersson, H. Nakatsuji, X. Li, M. Caricato, A. V. Marenich, 
 J. Bloino, B. G. Janesko, R. Gomperts, B. Mennucci, H. P. Hratchian, 
 J. V. Ortiz, A. F. Izmaylov, J. L. Sonnenberg, D. Williams-Young, 
 F. Ding, F. Lipparini, F. Egidi, J. Goings, B. Peng, A. Petrone, 
 T. Henderson, D. Ranasinghe, V. G. Zakrzewski, J. Gao, N. Rega, 
 G. Zheng, W. Liang, M. Hada, M. Ehara, K. Toyota, R. Fukuda, 
 J. Hasegawa, M. Ishida, T. Nakajima, Y. Honda, O. Kitao, H. Nakai, 
 T. Vreven, K. Throssell, J. A. Montgomery, Jr., J. E. Peralta, 
 F. Ogliaro, M. J. Bearpark, J. J. Heyd, E. N. Brothers, K. N. Kudin, 
 V. N. Staroverov, T. A. Keith, R. Kobayashi, J. Normand, 
 K. Raghavachari, A. P. Rendell, J. C. Burant, S. S. Iyengar, 
 J. Tomasi, M. Cossi, J. M. Millam, M. Klene, C. Adamo, R. Cammi, 
 J. W. Ochterski, R. L. Martin, K. Morokuma, O. Farkas, 
 J. B. Foresman, and D. J. Fox, Gaussian, Inc., Wallingford CT, 2019.
 
 ******************************************
 Gaussian 16:  ES64L-G16RevC.01  3-Jul-2019
                24-Mar-2025 
 ******************************************
 %nprocshared=32
 Will use up to   32 processors via shared memory.
 %mem=100GB
 ------------------------------------------
 #p opt freq b3lyp/def2svpp em=gd3bj nosymm
 ------------------------------------------
 1/18=20,19=15,26=3,38=1/1,3;
 2/9=110,12=2,15=1,17=6,18=5,40=1/2;
 3/5=43,7=202,11=2,25=1,30=1,71=1,74=-5,124=41/1,2,3;
 4//1;
 5/5=2,38=5/2;
 6/7=2,8=2,9=2,10=2,28=1/1;
 7/30=1/1,2,3,16;
 1/18=20,19=15,26=3/3(2);
 2/9=110,15=1/2;
 99//99;
 2/9=110,15=1/2;
 3/5=43,7=202,11=2,25=1,30=1,71=1,74=-5,124=41/1,2,3;
 4/5=5,16=3,69=1/1;
 5/5=2,38=5/2;
 7/30=1/1,2,3,16;
 1/18=20,19=15,26=3/3(-5);
 2/9=110,15=1/2;
 6/7=2,8=2,9=2,10=2,19=2,28=1/1;
 99/9=1/99;
 Leave Link    1 at Mon Mar 24 00:24:50 2025, MaxMem= 13421772800 cpu:               1.4 elap:               0.0
 (Enter /public/software/apps/Gaussian/g16/l101.exe)
 ----------------------
 $$$$Singlemol####0????
 ----------------------
 Symbolic Z-matrix:
 Charge =  0 Multiplicity = 1
 C                    -10.65742  -2.3199   -3.00329 
 C                    -11.2035  -1.57195  -1.78306 
 C                    -12.04089  -2.51108  -0.90962 
 C                    -12.00142  -0.35691  -2.20088 
 C                    -13.15437  -0.29641  -2.95309 
 C                    -13.71845   0.94512  -3.21584 
 C                    -13.13584   2.10617  -2.73212 
 C                    -11.97651   2.0546   -1.97549 
 C                    -11.41135   0.81788  -1.71188 
 C                    -10.22098   0.45667  -0.96101 
 C                    -9.29471   1.238    -0.29012 
 C                    -8.23706   0.61662   0.34866 
 C                    -8.09469  -0.77077   0.3343 
 C                    -6.9691   -1.407     1.03331 
 C                    -7.1582   -2.5698    1.77758 
 C                    -6.09522  -3.16015   2.43542 
 C                    -4.83164  -2.60234   2.36418 
 C                    -4.62329  -1.4356    1.63486 
 C                    -3.2746   -0.84945   1.54319 
 C                    -2.23886  -1.6337    1.10429 
 C                    -0.94359  -1.1149    0.94424 
 O                     0.0083   -1.9642    0.47867 
 C                    -0.6823    0.21309   1.22611 
 C                     0.67583   0.75848   0.97284 
 C                     0.87896   1.61463  -0.09326 
 O                    -0.13039   2.0247   -0.90402 
 C                     2.1707    2.07395  -0.39937 
 C                     3.25973   1.69185   0.341 
 C                     4.5976    2.15479  -0.06917 
 C                     4.85306   3.51448  -0.21809 
 C                     6.10556   3.9459   -0.61574 
 C                     7.10991   3.03194  -0.87502 
 C                     6.86919   1.6653   -0.74937 
 C                     7.92824   0.68682  -1.03661 
 C                     7.63985  -0.47264  -1.75563 
 C                     8.62197  -1.40293  -2.04382 
 C                     9.91236  -1.17141  -1.59664 
 C                     10.21182  -0.01137  -0.86725 
 C                     9.23263   0.91421  -0.59119 
 C                     11.67416   0.01628  -0.48209 
 C                     11.84179   0.00216   1.04063 
 C                     12.38435   1.2304   -1.08801 
 C                     12.17259  -1.27306  -1.0959 
 C                     13.4453  -1.80105  -1.0836 
 C                     13.67327  -3.01462  -1.71912 
 C                     12.64185  -3.68715  -2.35575 
 C                     11.35929  -3.16367  -2.37284 
 C                     11.12877  -1.95326  -1.74027 
 C                     5.60749   1.24091  -0.34576 
 C                     3.08134   0.85727   1.47844 
 C                     4.14565   0.51116   2.33636 
 C                     3.94132  -0.28225   3.43103 
 C                     2.65691  -0.75723   3.72874 
 C                     1.59886  -0.42426   2.93127 
 C                     1.77664   0.38737   1.78888 
 C                    -1.7238    1.03779   1.72603 
 C                    -1.48128   2.38083   2.09077 
 C                    -2.47992   3.16349   2.59705 
 C                    -3.76477   2.63509   2.78145 
 C                    -4.02976   1.33641   2.44584 
 C                    -3.03124   0.50696   1.8948 
 C                    -5.69505  -0.85215   0.96945 
 C                    -9.03418  -1.55163  -0.34344 
 C                    -10.0838  -0.93902  -0.98728 
 H                    -10.02737  -3.14845  -2.68807 
 H                    -10.06474  -1.64847  -3.62112 
 H                    -11.47541  -2.7125   -3.60284 
 H                    -12.88136  -2.90504  -1.47628 
 H                    -11.43459  -3.34445  -0.56213 
 H                    -12.42588  -1.97577  -0.04406 
 H                    -13.61767  -1.19453  -3.33559 
 H                    -14.62232   1.00687  -3.80436 
 H                    -13.59202   3.06141  -2.94845 
 H                    -11.52404   2.9603   -1.59947 
 H                    -9.39456   2.31301  -0.26265 
 H                    -7.51649   1.21429   0.88826 
 H                    -8.14637  -2.99893   1.85524 
 H                    -6.25315  -4.0598    3.0125 
 H                    -4.00313  -3.05807   2.88603 
 H                    -2.40133  -2.667     0.83962 
 H                     0.85808  -1.50395   0.43304 
 H                    -0.9694    1.66506  -0.58359 
 H                     2.28444   2.71436  -1.26029 
 H                     4.07073   4.22842  -0.00662 
 H                     6.29923   5.00304  -0.72653 
 H                     8.08055   3.37469  -1.20223 
 H                     6.63253  -0.63248  -2.11221 
 H                     8.38391  -2.29178  -2.60919 
 H                     9.4545    1.80284  -0.01771 
 H                     11.4147   0.90253   1.47633 
 H                     12.89575  -0.04654   1.30427 
 H                     11.3369  -0.86279   1.46583 
 H                     13.44711   1.19955  -0.85938 
 H                     11.9686   2.15118  -0.68522 
 H                     12.26161   1.23659  -2.16911 
 H                     14.25722  -1.28616  -0.59037 
 H                     14.66646  -3.43973  -1.71729 
 H                     12.84184  -4.6301   -2.84383 
 H                     10.5571  -3.68908  -2.86965 
 H                     5.40854   0.18371  -0.24143 
 H                     5.13134   0.89757   2.12525 
 H                     4.76707  -0.53656   4.07886 
 H                     2.50524  -1.37589   4.60084 
 H                     0.60372  -0.76596   3.17712 
 H                    -0.48274   2.77817   1.97885 
 H                    -2.27929   4.1881    2.87303 
 H                    -4.54078   3.25658   3.20331 
 H                    -5.01187   0.92271   2.61886 
 H                    -5.52681   0.02747   0.36443 
 H                    -8.91528  -2.62515  -0.37328 
 
 ITRead=  0  0  0  0  0  0  0  0  0  0  0  0  0  0  0  0  0  0  0  0
 ITRead=  0  0  0  0  0  0  0  0  0  0  0  0  0  0  0  0  0  0  0  0
 ITRead=  0  0  0  0  0  0  0  0  0  0  0  0  0  0  0  0  0  0  0  0
 ITRead=  0  0  0  0  0  0  0  0  0  0  0  0  0  0  0  0  0  0  0  0
 ITRead=  0  0  0  0  0  0  0  0  0  0  0  0  0  0  0  0  0  0  0  0
 ITRead=  0  0  0  0  0  0  0  0  0  0
 MicOpt= -1 -1 -1 -1 -1 -1 -1 -1 -1 -1 -1 -1 -1 -1 -1 -1 -1 -1 -1 -1
 MicOpt= -1 -1 -1 -1 -1 -1 -1 -1 -1 -1 -1 -1 -1 -1 -1 -1 -1 -1 -1 -1
 MicOpt= -1 -1 -1 -1 -1 -1 -1 -1 -1 -1 -1 -1 -1 -1 -1 -1 -1 -1 -1 -1
 MicOpt= -1 -1 -1 -1 -1 -1 -1 -1 -1 -1 -1 -1 -1 -1 -1 -1 -1 -1 -1 -1
 MicOpt= -1 -1 -1 -1 -1 -1 -1 -1 -1 -1 -1 -1 -1 -1 -1 -1 -1 -1 -1 -1
 MicOpt= -1 -1 -1 -1 -1 -1 -1 -1 -1 -1
 NAtoms=    110 NQM=      110 NQMF=       0 NMMI=      0 NMMIF=      0
                NMic=       0 NMicF=      0.
                    Isotopes and Nuclear Properties:
 (Nuclear quadrupole moments (NQMom) in fm**2, nuclear magnetic moments (NMagM)
  in nuclear magnetons)

  Atom         1           2           3           4           5           6           7           8           9          10
 IAtWgt=          12          12          12          12          12          12          12          12          12          12
 AtmWgt=  12.0000000  12.0000000  12.0000000  12.0000000  12.0000000  12.0000000  12.0000000  12.0000000  12.0000000  12.0000000
 NucSpn=           0           0           0           0           0           0           0           0           0           0
 AtZEff=  -0.0000000  -0.0000000  -0.0000000  -0.0000000  -0.0000000  -0.0000000  -0.0000000  -0.0000000  -0.0000000  -0.0000000
 NQMom=    0.0000000   0.0000000   0.0000000   0.0000000   0.0000000   0.0000000   0.0000000   0.0000000   0.0000000   0.0000000
 NMagM=    0.0000000   0.0000000   0.0000000   0.0000000   0.0000000   0.0000000   0.0000000   0.0000000   0.0000000   0.0000000
 AtZNuc=   6.0000000   6.0000000   6.0000000   6.0000000   6.0000000   6.0000000   6.0000000   6.0000000   6.0000000   6.0000000

  Atom        11          12          13          14          15          16          17          18          19          20
 IAtWgt=          12          12          12          12          12          12          12          12          12          12
 AtmWgt=  12.0000000  12.0000000  12.0000000  12.0000000  12.0000000  12.0000000  12.0000000  12.0000000  12.0000000  12.0000000
 NucSpn=           0           0           0           0           0           0           0           0           0           0
 AtZEff=  -0.0000000  -0.0000000  -0.0000000  -0.0000000  -0.0000000  -0.0000000  -0.0000000  -0.0000000  -0.0000000  -0.0000000
 NQMom=    0.0000000   0.0000000   0.0000000   0.0000000   0.0000000   0.0000000   0.0000000   0.0000000   0.0000000   0.0000000
 NMagM=    0.0000000   0.0000000   0.0000000   0.0000000   0.0000000   0.0000000   0.0000000   0.0000000   0.0000000   0.0000000
 AtZNuc=   6.0000000   6.0000000   6.0000000   6.0000000   6.0000000   6.0000000   6.0000000   6.0000000   6.0000000   6.0000000

  Atom        21          22          23          24          25          26          27          28          29          30
 IAtWgt=          12          16          12          12          12          16          12          12          12          12
 AtmWgt=  12.0000000  15.9949146  12.0000000  12.0000000  12.0000000  15.9949146  12.0000000  12.0000000  12.0000000  12.0000000
 NucSpn=           0           0           0           0           0           0           0           0           0           0
 AtZEff=  -0.0000000  -0.0000000  -0.0000000  -0.0000000  -0.0000000  -0.0000000  -0.0000000  -0.0000000  -0.0000000  -0.0000000
 NQMom=    0.0000000   0.0000000   0.0000000   0.0000000   0.0000000   0.0000000   0.0000000   0.0000000   0.0000000   0.0000000
 NMagM=    0.0000000   0.0000000   0.0000000   0.0000000   0.0000000   0.0000000   0.0000000   0.0000000   0.0000000   0.0000000
 AtZNuc=   6.0000000   8.0000000   6.0000000   6.0000000   6.0000000   8.0000000   6.0000000   6.0000000   6.0000000   6.0000000

  Atom        31          32          33          34          35          36          37          38          39          40
 IAtWgt=          12          12          12          12          12          12          12          12          12          12
 AtmWgt=  12.0000000  12.0000000  12.0000000  12.0000000  12.0000000  12.0000000  12.0000000  12.0000000  12.0000000  12.0000000
 NucSpn=           0           0           0           0           0           0           0           0           0           0
 AtZEff=  -0.0000000  -0.0000000  -0.0000000  -0.0000000  -0.0000000  -0.0000000  -0.0000000  -0.0000000  -0.0000000  -0.0000000
 NQMom=    0.0000000   0.0000000   0.0000000   0.0000000   0.0000000   0.0000000   0.0000000   0.0000000   0.0000000   0.0000000
 NMagM=    0.0000000   0.0000000   0.0000000   0.0000000   0.0000000   0.0000000   0.0000000   0.0000000   0.0000000   0.0000000
 AtZNuc=   6.0000000   6.0000000   6.0000000   6.0000000   6.0000000   6.0000000   6.0000000   6.0000000   6.0000000   6.0000000

  Atom        41          42          43          44          45          46          47          48          49          50
 IAtWgt=          12          12          12          12          12          12          12          12          12          12
 AtmWgt=  12.0000000  12.0000000  12.0000000  12.0000000  12.0000000  12.0000000  12.0000000  12.0000000  12.0000000  12.0000000
 NucSpn=           0           0           0           0           0           0           0           0           0           0
 AtZEff=  -0.0000000  -0.0000000  -0.0000000  -0.0000000  -0.0000000  -0.0000000  -0.0000000  -0.0000000  -0.0000000  -0.0000000
 NQMom=    0.0000000   0.0000000   0.0000000   0.0000000   0.0000000   0.0000000   0.0000000   0.0000000   0.0000000   0.0000000
 NMagM=    0.0000000   0.0000000   0.0000000   0.0000000   0.0000000   0.0000000   0.0000000   0.0000000   0.0000000   0.0000000
 AtZNuc=   6.0000000   6.0000000   6.0000000   6.0000000   6.0000000   6.0000000   6.0000000   6.0000000   6.0000000   6.0000000

  Atom        51          52          53          54          55          56          57          58          59          60
 IAtWgt=          12          12          12          12          12          12          12          12          12          12
 AtmWgt=  12.0000000  12.0000000  12.0000000  12.0000000  12.0000000  12.0000000  12.0000000  12.0000000  12.0000000  12.0000000
 NucSpn=           0           0           0           0           0           0           0           0           0           0
 AtZEff=  -0.0000000  -0.0000000  -0.0000000  -0.0000000  -0.0000000  -0.0000000  -0.0000000  -0.0000000  -0.0000000  -0.0000000
 NQMom=    0.0000000   0.0000000   0.0000000   0.0000000   0.0000000   0.0000000   0.0000000   0.0000000   0.0000000   0.0000000
 NMagM=    0.0000000   0.0000000   0.0000000   0.0000000   0.0000000   0.0000000   0.0000000   0.0000000   0.0000000   0.0000000
 AtZNuc=   6.0000000   6.0000000   6.0000000   6.0000000   6.0000000   6.0000000   6.0000000   6.0000000   6.0000000   6.0000000

  Atom        61          62          63          64          65          66          67          68          69          70
 IAtWgt=          12          12          12          12           1           1           1           1           1           1
 AtmWgt=  12.0000000  12.0000000  12.0000000  12.0000000   1.0078250   1.0078250   1.0078250   1.0078250   1.0078250   1.0078250
 NucSpn=           0           0           0           0           1           1           1           1           1           1
 AtZEff=  -0.0000000  -0.0000000  -0.0000000  -0.0000000  -0.0000000  -0.0000000  -0.0000000  -0.0000000  -0.0000000  -0.0000000
 NQMom=    0.0000000   0.0000000   0.0000000   0.0000000   0.0000000   0.0000000   0.0000000   0.0000000   0.0000000   0.0000000
 NMagM=    0.0000000   0.0000000   0.0000000   0.0000000   2.7928460   2.7928460   2.7928460   2.7928460   2.7928460   2.7928460
 AtZNuc=   6.0000000   6.0000000   6.0000000   6.0000000   1.0000000   1.0000000   1.0000000   1.0000000   1.0000000   1.0000000

  Atom        71          72          73          74          75          76          77          78          79          80
 IAtWgt=           1           1           1           1           1           1           1           1           1           1
 AtmWgt=   1.0078250   1.0078250   1.0078250   1.0078250   1.0078250   1.0078250   1.0078250   1.0078250   1.0078250   1.0078250
 NucSpn=           1           1           1           1           1           1           1           1           1           1
 AtZEff=  -0.0000000  -0.0000000  -0.0000000  -0.0000000  -0.0000000  -0.0000000  -0.0000000  -0.0000000  -0.0000000  -0.0000000
 NQMom=    0.0000000   0.0000000   0.0000000   0.0000000   0.0000000   0.0000000   0.0000000   0.0000000   0.0000000   0.0000000
 NMagM=    2.7928460   2.7928460   2.7928460   2.7928460   2.7928460   2.7928460   2.7928460   2.7928460   2.7928460   2.7928460
 AtZNuc=   1.0000000   1.0000000   1.0000000   1.0000000   1.0000000   1.0000000   1.0000000   1.0000000   1.0000000   1.0000000

  Atom        81          82          83          84          85          86          87          88          89          90
 IAtWgt=           1           1           1           1           1           1           1           1           1           1
 AtmWgt=   1.0078250   1.0078250   1.0078250   1.0078250   1.0078250   1.0078250   1.0078250   1.0078250   1.0078250   1.0078250
 NucSpn=           1           1           1           1           1           1           1           1           1           1
 AtZEff=  -0.0000000  -0.0000000  -0.0000000  -0.0000000  -0.0000000  -0.0000000  -0.0000000  -0.0000000  -0.0000000  -0.0000000
 NQMom=    0.0000000   0.0000000   0.0000000   0.0000000   0.0000000   0.0000000   0.0000000   0.0000000   0.0000000   0.0000000
 NMagM=    2.7928460   2.7928460   2.7928460   2.7928460   2.7928460   2.7928460   2.7928460   2.7928460   2.7928460   2.7928460
 AtZNuc=   1.0000000   1.0000000   1.0000000   1.0000000   1.0000000   1.0000000   1.0000000   1.0000000   1.0000000   1.0000000

  Atom        91          92          93          94          95          96          97          98          99         100
 IAtWgt=           1           1           1           1           1           1           1           1           1           1
 AtmWgt=   1.0078250   1.0078250   1.0078250   1.0078250   1.0078250   1.0078250   1.0078250   1.0078250   1.0078250   1.0078250
 NucSpn=           1           1           1           1           1           1           1           1           1           1
 AtZEff=  -0.0000000  -0.0000000  -0.0000000  -0.0000000  -0.0000000  -0.0000000  -0.0000000  -0.0000000  -0.0000000  -0.0000000
 NQMom=    0.0000000   0.0000000   0.0000000   0.0000000   0.0000000   0.0000000   0.0000000   0.0000000   0.0000000   0.0000000
 NMagM=    2.7928460   2.7928460   2.7928460   2.7928460   2.7928460   2.7928460   2.7928460   2.7928460   2.7928460   2.7928460
 AtZNuc=   1.0000000   1.0000000   1.0000000   1.0000000   1.0000000   1.0000000   1.0000000   1.0000000   1.0000000   1.0000000

  Atom       101         102         103         104         105         106         107         108         109         110
 IAtWgt=           1           1           1           1           1           1           1           1           1           1
 AtmWgt=   1.0078250   1.0078250   1.0078250   1.0078250   1.0078250   1.0078250   1.0078250   1.0078250   1.0078250   1.0078250
 NucSpn=           1           1           1           1           1           1           1           1           1           1
 AtZEff=  -0.0000000  -0.0000000  -0.0000000  -0.0000000  -0.0000000  -0.0000000  -0.0000000  -0.0000000  -0.0000000  -0.0000000
 NQMom=    0.0000000   0.0000000   0.0000000   0.0000000   0.0000000   0.0000000   0.0000000   0.0000000   0.0000000   0.0000000
 NMagM=    2.7928460   2.7928460   2.7928460   2.7928460   2.7928460   2.7928460   2.7928460   2.7928460   2.7928460   2.7928460
 AtZNuc=   1.0000000   1.0000000   1.0000000   1.0000000   1.0000000   1.0000000   1.0000000   1.0000000   1.0000000   1.0000000
 Leave Link  101 at Mon Mar 24 00:24:50 2025, MaxMem= 13421772800 cpu:               5.9 elap:               0.2
 (Enter /public/software/apps/Gaussian/g16/l103.exe)

 GradGradGradGradGradGradGradGradGradGradGradGradGradGradGradGradGradGrad
 Berny optimization.
 Initialization pass.
                           ----------------------------
                           !    Initial Parameters    !
                           ! (Angstroms and Degrees)  !
 --------------------------                            --------------------------
 ! Name  Definition              Value          Derivative Info.                !
 --------------------------------------------------------------------------------
 ! R1    R(1,2)                  1.5319         estimate D2E/DX2                !
 ! R2    R(1,65)                 1.0876         estimate D2E/DX2                !
 ! R3    R(1,66)                 1.088          estimate D2E/DX2                !
 ! R4    R(1,67)                 1.0875         estimate D2E/DX2                !
 ! R5    R(2,3)                  1.5317         estimate D2E/DX2                !
 ! R6    R(2,4)                  1.5125         estimate D2E/DX2                !
 ! R7    R(2,64)                 1.5125         estimate D2E/DX2                !
 ! R8    R(3,68)                 1.0875         estimate D2E/DX2                !
 ! R9    R(3,69)                 1.0876         estimate D2E/DX2                !
 ! R10   R(3,70)                 1.0881         estimate D2E/DX2                !
 ! R11   R(4,5)                  1.378          estimate D2E/DX2                !
 ! R12   R(4,9)                  1.4027         estimate D2E/DX2                !
 ! R13   R(5,6)                  1.3888         estimate D2E/DX2                !
 ! R14   R(5,71)                 1.0805         estimate D2E/DX2                !
 ! R15   R(6,7)                  1.3862         estimate D2E/DX2                !
 ! R16   R(6,72)                 1.0803         estimate D2E/DX2                !
 ! R17   R(7,8)                  1.3854         estimate D2E/DX2                !
 ! R18   R(7,73)                 1.0804         estimate D2E/DX2                !
 ! R19   R(8,9)                  1.3851         estimate D2E/DX2                !
 ! R20   R(8,74)                 1.08           estimate D2E/DX2                !
 ! R21   R(9,10)                 1.453          estimate D2E/DX2                !
 ! R22   R(10,11)                1.3851         estimate D2E/DX2                !
 ! R23   R(10,64)                1.4027         estimate D2E/DX2                !
 ! R24   R(11,12)                1.383          estimate D2E/DX2                !
 ! R25   R(11,75)                1.08           estimate D2E/DX2                !
 ! R26   R(12,13)                1.3948         estimate D2E/DX2                !
 ! R27   R(12,76)                1.0806         estimate D2E/DX2                !
 ! R28   R(13,14)                1.4698         estimate D2E/DX2                !
 ! R29   R(13,63)                1.397          estimate D2E/DX2                !
 ! R30   R(14,15)                1.3935         estimate D2E/DX2                !
 ! R31   R(14,62)                1.3911         estimate D2E/DX2                !
 ! R32   R(15,16)                1.3825         estimate D2E/DX2                !
 ! R33   R(15,77)                1.0801         estimate D2E/DX2                !
 ! R34   R(16,17)                1.3831         estimate D2E/DX2                !
 ! R35   R(16,78)                1.0804         estimate D2E/DX2                !
 ! R36   R(17,18)                1.3916         estimate D2E/DX2                !
 ! R37   R(17,79)                1.08           estimate D2E/DX2                !
 ! R38   R(18,19)                1.4734         estimate D2E/DX2                !
 ! R39   R(18,62)                1.3899         estimate D2E/DX2                !
 ! R40   R(19,20)                1.3713         estimate D2E/DX2                !
 ! R41   R(19,61)                1.4222         estimate D2E/DX2                !
 ! R42   R(20,21)                1.4044         estimate D2E/DX2                !
 ! R43   R(20,80)                1.079          estimate D2E/DX2                !
 ! R44   R(21,22)                1.358          estimate D2E/DX2                !
 ! R45   R(21,23)                1.3825         estimate D2E/DX2                !
 ! R46   R(22,81)                0.9675         estimate D2E/DX2                !
 ! R47   R(23,24)                1.4853         estimate D2E/DX2                !
 ! R48   R(23,56)                1.4194         estimate D2E/DX2                !
 ! R49   R(24,25)                1.3823         estimate D2E/DX2                !
 ! R50   R(24,55)                1.4197         estimate D2E/DX2                !
 ! R51   R(25,26)                1.358          estimate D2E/DX2                !
 ! R52   R(25,27)                1.4047         estimate D2E/DX2                !
 ! R53   R(26,82)                0.9674         estimate D2E/DX2                !
 ! R54   R(27,28)                1.3712         estimate D2E/DX2                !
 ! R55   R(27,83)                1.079          estimate D2E/DX2                !
 ! R56   R(28,29)                1.4739         estimate D2E/DX2                !
 ! R57   R(28,50)                1.422          estimate D2E/DX2                !
 ! R58   R(29,30)                1.3915         estimate D2E/DX2                !
 ! R59   R(29,49)                1.3898         estimate D2E/DX2                !
 ! R60   R(30,31)                1.3831         estimate D2E/DX2                !
 ! R61   R(30,84)                1.08           estimate D2E/DX2                !
 ! R62   R(31,32)                1.3825         estimate D2E/DX2                !
 ! R63   R(31,85)                1.0804         estimate D2E/DX2                !
 ! R64   R(32,33)                1.3934         estimate D2E/DX2                !
 ! R65   R(32,86)                1.0801         estimate D2E/DX2                !
 ! R66   R(33,34)                1.4702         estimate D2E/DX2                !
 ! R67   R(33,49)                1.391          estimate D2E/DX2                !
 ! R68   R(34,35)                1.3945         estimate D2E/DX2                !
 ! R69   R(34,39)                1.397          estimate D2E/DX2                !
 ! R70   R(35,36)                1.3831         estimate D2E/DX2                !
 ! R71   R(35,87)                1.0805         estimate D2E/DX2                !
 ! R72   R(36,37)                1.3852         estimate D2E/DX2                !
 ! R73   R(36,88)                1.08           estimate D2E/DX2                !
 ! R74   R(37,38)                1.4026         estimate D2E/DX2                !
 ! R75   R(37,48)                1.4531         estimate D2E/DX2                !
 ! R76   R(38,39)                1.3754         estimate D2E/DX2                !
 ! R77   R(38,40)                1.5125         estimate D2E/DX2                !
 ! R78   R(39,89)                1.0806         estimate D2E/DX2                !
 ! R79   R(40,41)                1.532          estimate D2E/DX2                !
 ! R80   R(40,42)                1.5315         estimate D2E/DX2                !
 ! R81   R(40,43)                1.5125         estimate D2E/DX2                !
 ! R82   R(41,90)                1.0876         estimate D2E/DX2                !
 ! R83   R(41,91)                1.0875         estimate D2E/DX2                !
 ! R84   R(41,92)                1.0881         estimate D2E/DX2                !
 ! R85   R(42,93)                1.0875         estimate D2E/DX2                !
 ! R86   R(42,94)                1.0876         estimate D2E/DX2                !
 ! R87   R(42,95)                1.0881         estimate D2E/DX2                !
 ! R88   R(43,44)                1.3779         estimate D2E/DX2                !
 ! R89   R(43,48)                1.4027         estimate D2E/DX2                !
 ! R90   R(44,45)                1.3887         estimate D2E/DX2                !
 ! R91   R(44,96)                1.0806         estimate D2E/DX2                !
 ! R92   R(45,46)                1.3862         estimate D2E/DX2                !
 ! R93   R(45,97)                1.0803         estimate D2E/DX2                !
 ! R94   R(46,47)                1.3854         estimate D2E/DX2                !
 ! R95   R(46,98)                1.0804         estimate D2E/DX2                !
 ! R96   R(47,48)                1.3851         estimate D2E/DX2                !
 ! R97   R(47,99)                1.08           estimate D2E/DX2                !
 ! R98   R(49,100)               1.0808         estimate D2E/DX2                !
 ! R99   R(50,51)                1.4102         estimate D2E/DX2                !
 ! R100  R(50,55)                1.4211         estimate D2E/DX2                !
 ! R101  R(51,52)                1.3673         estimate D2E/DX2                !
 ! R102  R(51,101)               1.0796         estimate D2E/DX2                !
 ! R103  R(52,53)                1.4014         estimate D2E/DX2                !
 ! R104  R(52,102)               1.0799         estimate D2E/DX2                !
 ! R105  R(53,54)                1.3661         estimate D2E/DX2                !
 ! R106  R(53,103)               1.0799         estimate D2E/DX2                !
 ! R107  R(54,55)                1.4126         estimate D2E/DX2                !
 ! R108  R(54,104)               1.0805         estimate D2E/DX2                !
 ! R109  R(56,57)                1.4127         estimate D2E/DX2                !
 ! R110  R(56,61)                1.4211         estimate D2E/DX2                !
 ! R111  R(57,58)                1.3661         estimate D2E/DX2                !
 ! R112  R(57,105)               1.0805         estimate D2E/DX2                !
 ! R113  R(58,59)                1.4015         estimate D2E/DX2                !
 ! R114  R(58,106)               1.0799         estimate D2E/DX2                !
 ! R115  R(59,60)                1.3673         estimate D2E/DX2                !
 ! R116  R(59,107)               1.08           estimate D2E/DX2                !
 ! R117  R(60,61)                1.4102         estimate D2E/DX2                !
 ! R118  R(60,108)               1.0796         estimate D2E/DX2                !
 ! R119  R(62,109)               1.0808         estimate D2E/DX2                !
 ! R120  R(63,64)                1.3753         estimate D2E/DX2                !
 ! R121  R(63,110)               1.0805         estimate D2E/DX2                !
 ! A1    A(2,1,65)             110.3417         estimate D2E/DX2                !
 ! A2    A(2,1,66)             110.1938         estimate D2E/DX2                !
 ! A3    A(2,1,67)             110.3218         estimate D2E/DX2                !
 ! A4    A(65,1,66)            108.6108         estimate D2E/DX2                !
 ! A5    A(65,1,67)            108.6932         estimate D2E/DX2                !
 ! A6    A(66,1,67)            108.6295         estimate D2E/DX2                !
 ! A7    A(1,2,3)              110.4725         estimate D2E/DX2                !
 ! A8    A(1,2,4)              111.116          estimate D2E/DX2                !
 ! A9    A(1,2,64)             111.0714         estimate D2E/DX2                !
 ! A10   A(3,2,4)              111.2021         estimate D2E/DX2                !
 ! A11   A(3,2,64)             111.179          estimate D2E/DX2                !
 ! A12   A(4,2,64)             101.5214         estimate D2E/DX2                !
 ! A13   A(2,3,68)             110.3341         estimate D2E/DX2                !
 ! A14   A(2,3,69)             110.3179         estimate D2E/DX2                !
 ! A15   A(2,3,70)             110.2071         estimate D2E/DX2                !
 ! A16   A(68,3,69)            108.6468         estimate D2E/DX2                !
 ! A17   A(68,3,70)            108.6187         estimate D2E/DX2                !
 ! A18   A(69,3,70)            108.6662         estimate D2E/DX2                !
 ! A19   A(2,4,5)              128.8655         estimate D2E/DX2                !
 ! A20   A(2,4,9)              110.7685         estimate D2E/DX2                !
 ! A21   A(5,4,9)              120.366          estimate D2E/DX2                !
 ! A22   A(4,5,6)              118.842          estimate D2E/DX2                !
 ! A23   A(4,5,71)             121.0305         estimate D2E/DX2                !
 ! A24   A(6,5,71)             120.1275         estimate D2E/DX2                !
 ! A25   A(5,6,7)              120.801          estimate D2E/DX2                !
 ! A26   A(5,6,72)             119.6038         estimate D2E/DX2                !
 ! A27   A(7,6,72)             119.5951         estimate D2E/DX2                !
 ! A28   A(6,7,8)              120.7401         estimate D2E/DX2                !
 ! A29   A(6,7,73)             119.5517         estimate D2E/DX2                !
 ! A30   A(8,7,73)             119.7082         estimate D2E/DX2                !
 ! A31   A(7,8,9)              118.5974         estimate D2E/DX2                !
 ! A32   A(7,8,74)             120.633          estimate D2E/DX2                !
 ! A33   A(9,8,74)             120.7696         estimate D2E/DX2                !
 ! A34   A(4,9,8)              120.6535         estimate D2E/DX2                !
 ! A35   A(4,9,10)             108.4568         estimate D2E/DX2                !
 ! A36   A(8,9,10)             130.8897         estimate D2E/DX2                !
 ! A37   A(9,10,11)            131.1414         estimate D2E/DX2                !
 ! A38   A(9,10,64)            108.5298         estimate D2E/DX2                !
 ! A39   A(11,10,64)           120.3288         estimate D2E/DX2                !
 ! A40   A(10,11,12)           118.7946         estimate D2E/DX2                !
 ! A41   A(10,11,75)           120.7961         estimate D2E/DX2                !
 ! A42   A(12,11,75)           120.4092         estimate D2E/DX2                !
 ! A43   A(11,12,13)           121.3468         estimate D2E/DX2                !
 ! A44   A(11,12,76)           119.4787         estimate D2E/DX2                !
 ! A45   A(13,12,76)           119.1616         estimate D2E/DX2                !
 ! A46   A(12,13,14)           120.2549         estimate D2E/DX2                !
 ! A47   A(12,13,63)           119.4948         estimate D2E/DX2                !
 ! A48   A(14,13,63)           120.2494         estimate D2E/DX2                !
 ! A49   A(13,14,15)           120.7499         estimate D2E/DX2                !
 ! A50   A(13,14,62)           120.4568         estimate D2E/DX2                !
 ! A51   A(15,14,62)           118.7921         estimate D2E/DX2                !
 ! A52   A(14,15,16)           120.4074         estimate D2E/DX2                !
 ! A53   A(14,15,77)           119.6087         estimate D2E/DX2                !
 ! A54   A(16,15,77)           119.9725         estimate D2E/DX2                !
 ! A55   A(15,16,17)           120.3809         estimate D2E/DX2                !
 ! A56   A(15,16,78)           119.8239         estimate D2E/DX2                !
 ! A57   A(17,16,78)           119.7945         estimate D2E/DX2                !
 ! A58   A(16,17,18)           120.1268         estimate D2E/DX2                !
 ! A59   A(16,17,79)           120.3832         estimate D2E/DX2                !
 ! A60   A(18,17,79)           119.4824         estimate D2E/DX2                !
 ! A61   A(17,18,19)           120.2106         estimate D2E/DX2                !
 ! A62   A(17,18,62)           119.1699         estimate D2E/DX2                !
 ! A63   A(19,18,62)           120.6002         estimate D2E/DX2                !
 ! A64   A(18,19,20)           118.9316         estimate D2E/DX2                !
 ! A65   A(18,19,61)           121.3761         estimate D2E/DX2                !
 ! A66   A(20,19,61)           119.6919         estimate D2E/DX2                !
 ! A67   A(19,20,21)           121.4528         estimate D2E/DX2                !
 ! A68   A(19,20,80)           120.8295         estimate D2E/DX2                !
 ! A69   A(21,20,80)           117.6897         estimate D2E/DX2                !
 ! A70   A(20,21,22)           117.0331         estimate D2E/DX2                !
 ! A71   A(20,21,23)           120.3917         estimate D2E/DX2                !
 ! A72   A(22,21,23)           122.559          estimate D2E/DX2                !
 ! A73   A(21,22,81)           109.5311         estimate D2E/DX2                !
 ! A74   A(21,23,24)           119.3915         estimate D2E/DX2                !
 ! A75   A(21,23,56)           119.4215         estimate D2E/DX2                !
 ! A76   A(24,23,56)           121.1738         estimate D2E/DX2                !
 ! A77   A(23,24,25)           119.558          estimate D2E/DX2                !
 ! A78   A(23,24,55)           120.9982         estimate D2E/DX2                !
 ! A79   A(25,24,55)           119.4243         estimate D2E/DX2                !
 ! A80   A(24,25,26)           122.5633         estimate D2E/DX2                !
 ! A81   A(24,25,27)           120.3785         estimate D2E/DX2                !
 ! A82   A(26,25,27)           117.041          estimate D2E/DX2                !
 ! A83   A(25,26,82)           109.547          estimate D2E/DX2                !
 ! A84   A(25,27,28)           121.4373         estimate D2E/DX2                !
 ! A85   A(25,27,83)           117.702          estimate D2E/DX2                !
 ! A86   A(28,27,83)           120.8298         estimate D2E/DX2                !
 ! A87   A(27,28,29)           118.8902         estimate D2E/DX2                !
 ! A88   A(27,28,50)           119.7231         estimate D2E/DX2                !
 ! A89   A(29,28,50)           121.386          estimate D2E/DX2                !
 ! A90   A(28,29,30)           120.2213         estimate D2E/DX2                !
 ! A91   A(28,29,49)           120.5587         estimate D2E/DX2                !
 ! A92   A(30,29,49)           119.1983         estimate D2E/DX2                !
 ! A93   A(29,30,31)           120.1204         estimate D2E/DX2                !
 ! A94   A(29,30,84)           119.4718         estimate D2E/DX2                !
 ! A95   A(31,30,84)           120.4016         estimate D2E/DX2                !
 ! A96   A(30,31,32)           120.3701         estimate D2E/DX2                !
 ! A97   A(30,31,85)           119.8018         estimate D2E/DX2                !
 ! A98   A(32,31,85)           119.8279         estimate D2E/DX2                !
 ! A99   A(31,32,33)           120.398          estimate D2E/DX2                !
 ! A100  A(31,32,86)           119.9913         estimate D2E/DX2                !
 ! A101  A(33,32,86)           119.5912         estimate D2E/DX2                !
 ! A102  A(32,33,34)           120.7111         estimate D2E/DX2                !
 ! A103  A(32,33,49)           118.8237         estimate D2E/DX2                !
 ! A104  A(34,33,49)           120.4652         estimate D2E/DX2                !
 ! A105  A(33,34,35)           120.3409         estimate D2E/DX2                !
 ! A106  A(33,34,39)           120.1308         estimate D2E/DX2                !
 ! A107  A(35,34,39)           119.5283         estimate D2E/DX2                !
 ! A108  A(34,35,36)           121.3212         estimate D2E/DX2                !
 ! A109  A(34,35,87)           119.0777         estimate D2E/DX2                !
 ! A110  A(36,35,87)           119.5861         estimate D2E/DX2                !
 ! A111  A(35,36,37)           118.803          estimate D2E/DX2                !
 ! A112  A(35,36,88)           120.4052         estimate D2E/DX2                !
 ! A113  A(37,36,88)           120.7917         estimate D2E/DX2                !
 ! A114  A(36,37,38)           120.3317         estimate D2E/DX2                !
 ! A115  A(36,37,48)           131.1462         estimate D2E/DX2                !
 ! A116  A(38,37,48)           108.5221         estimate D2E/DX2                !
 ! A117  A(37,38,39)           120.5936         estimate D2E/DX2                !
 ! A118  A(37,38,40)           110.7297         estimate D2E/DX2                !
 ! A119  A(39,38,40)           128.6767         estimate D2E/DX2                !
 ! A120  A(34,39,38)           119.4202         estimate D2E/DX2                !
 ! A121  A(34,39,89)           119.6543         estimate D2E/DX2                !
 ! A122  A(38,39,89)           120.913          estimate D2E/DX2                !
 ! A123  A(38,40,41)           111.0224         estimate D2E/DX2                !
 ! A124  A(38,40,42)           111.2281         estimate D2E/DX2                !
 ! A125  A(38,40,43)           101.5193         estimate D2E/DX2                !
 ! A126  A(41,40,42)           110.475          estimate D2E/DX2                !
 ! A127  A(41,40,43)           111.0673         estimate D2E/DX2                !
 ! A128  A(42,40,43)           111.2495         estimate D2E/DX2                !
 ! A129  A(40,41,90)           110.3395         estimate D2E/DX2                !
 ! A130  A(40,41,91)           110.3284         estimate D2E/DX2                !
 ! A131  A(40,41,92)           110.1804         estimate D2E/DX2                !
 ! A132  A(90,41,91)           108.6948         estimate D2E/DX2                !
 ! A133  A(90,41,92)           108.6223         estimate D2E/DX2                !
 ! A134  A(91,41,92)           108.6256         estimate D2E/DX2                !
 ! A135  A(40,42,93)           110.3341         estimate D2E/DX2                !
 ! A136  A(40,42,94)           110.3267         estimate D2E/DX2                !
 ! A137  A(40,42,95)           110.1998         estimate D2E/DX2                !
 ! A138  A(93,42,94)           108.6455         estimate D2E/DX2                !
 ! A139  A(93,42,95)           108.6194         estimate D2E/DX2                !
 ! A140  A(94,42,95)           108.6653         estimate D2E/DX2                !
 ! A141  A(40,43,44)           128.8584         estimate D2E/DX2                !
 ! A142  A(40,43,48)           110.7684         estimate D2E/DX2                !
 ! A143  A(44,43,48)           120.3732         estimate D2E/DX2                !
 ! A144  A(43,44,45)           118.8406         estimate D2E/DX2                !
 ! A145  A(43,44,96)           121.0311         estimate D2E/DX2                !
 ! A146  A(45,44,96)           120.1282         estimate D2E/DX2                !
 ! A147  A(44,45,46)           120.7977         estimate D2E/DX2                !
 ! A148  A(44,45,97)           119.6041         estimate D2E/DX2                !
 ! A149  A(46,45,97)           119.5982         estimate D2E/DX2                !
 ! A150  A(45,46,47)           120.7435         estimate D2E/DX2                !
 ! A151  A(45,46,98)           119.5497         estimate D2E/DX2                !
 ! A152  A(47,46,98)           119.7067         estimate D2E/DX2                !
 ! A153  A(46,47,48)           118.5984         estimate D2E/DX2                !
 ! A154  A(46,47,99)           120.6304         estimate D2E/DX2                !
 ! A155  A(48,47,99)           120.7712         estimate D2E/DX2                !
 ! A156  A(37,48,43)           108.4587         estimate D2E/DX2                !
 ! A157  A(37,48,47)           130.8947         estimate D2E/DX2                !
 ! A158  A(43,48,47)           120.6465         estimate D2E/DX2                !
 ! A159  A(29,49,33)           121.0793         estimate D2E/DX2                !
 ! A160  A(29,49,100)          119.3552         estimate D2E/DX2                !
 ! A161  A(33,49,100)          119.5651         estimate D2E/DX2                !
 ! A162  A(28,50,51)           122.4117         estimate D2E/DX2                !
 ! A163  A(28,50,55)           118.9461         estimate D2E/DX2                !
 ! A164  A(51,50,55)           118.6118         estimate D2E/DX2                !
 ! A165  A(50,51,52)           121.1113         estimate D2E/DX2                !
 ! A166  A(50,51,101)          118.835          estimate D2E/DX2                !
 ! A167  A(52,51,101)          120.0461         estimate D2E/DX2                !
 ! A168  A(51,52,53)           120.2457         estimate D2E/DX2                !
 ! A169  A(51,52,102)          120.1757         estimate D2E/DX2                !
 ! A170  A(53,52,102)          119.5741         estimate D2E/DX2                !
 ! A171  A(52,53,54)           120.2128         estimate D2E/DX2                !
 ! A172  A(52,53,103)          119.6319         estimate D2E/DX2                !
 ! A173  A(54,53,103)          120.1488         estimate D2E/DX2                !
 ! A174  A(53,54,55)           120.9743         estimate D2E/DX2                !
 ! A175  A(53,54,104)          120.2252         estimate D2E/DX2                !
 ! A176  A(55,54,104)          118.7915         estimate D2E/DX2                !
 ! A177  A(24,55,50)           119.9934         estimate D2E/DX2                !
 ! A178  A(24,55,54)           121.1627         estimate D2E/DX2                !
 ! A179  A(50,55,54)           118.8303         estimate D2E/DX2                !
 ! A180  A(23,56,57)           121.1543         estimate D2E/DX2                !
 ! A181  A(23,56,61)           119.9899         estimate D2E/DX2                !
 ! A182  A(57,56,61)           118.8415         estimate D2E/DX2                !
 ! A183  A(56,57,58)           120.9896         estimate D2E/DX2                !
 ! A184  A(56,57,105)          118.7846         estimate D2E/DX2                !
 ! A185  A(58,57,105)          120.2172         estimate D2E/DX2                !
 ! A186  A(57,58,59)           120.1958         estimate D2E/DX2                !
 ! A187  A(57,58,106)          120.1641         estimate D2E/DX2                !
 ! A188  A(59,58,106)          119.632          estimate D2E/DX2                !
 ! A189  A(58,59,60)           120.2325         estimate D2E/DX2                !
 ! A190  A(58,59,107)          119.5489         estimate D2E/DX2                !
 ! A191  A(60,59,107)          120.2132         estimate D2E/DX2                !
 ! A192  A(59,60,61)           121.1551         estimate D2E/DX2                !
 ! A193  A(59,60,108)          120.0609         estimate D2E/DX2                !
 ! A194  A(61,60,108)          118.7735         estimate D2E/DX2                !
 ! A195  A(19,61,56)           118.9664         estimate D2E/DX2                !
 ! A196  A(19,61,60)           122.4394         estimate D2E/DX2                !
 ! A197  A(56,61,60)           118.563          estimate D2E/DX2                !
 ! A198  A(14,62,18)           121.1185         estimate D2E/DX2                !
 ! A199  A(14,62,109)          119.5305         estimate D2E/DX2                !
 ! A200  A(18,62,109)          119.3153         estimate D2E/DX2                !
 ! A201  A(13,63,64)           119.4305         estimate D2E/DX2                !
 ! A202  A(13,63,110)          119.6517         estimate D2E/DX2                !
 ! A203  A(64,63,110)          120.9043         estimate D2E/DX2                !
 ! A204  A(2,64,10)            110.7226         estimate D2E/DX2                !
 ! A205  A(2,64,63)            128.6747         estimate D2E/DX2                !
 ! A206  A(10,64,63)           120.6027         estimate D2E/DX2                !
 ! D1    D(65,1,2,3)           -60.1484         estimate D2E/DX2                !
 ! D2    D(65,1,2,4)           175.9336         estimate D2E/DX2                !
 ! D3    D(65,1,2,64)           63.7083         estimate D2E/DX2                !
 ! D4    D(66,1,2,3)           179.9167         estimate D2E/DX2                !
 ! D5    D(66,1,2,4)            55.9987         estimate D2E/DX2                !
 ! D6    D(66,1,2,64)          -56.2266         estimate D2E/DX2                !
 ! D7    D(67,1,2,3)            59.9712         estimate D2E/DX2                !
 ! D8    D(67,1,2,4)           -63.9468         estimate D2E/DX2                !
 ! D9    D(67,1,2,64)         -176.1721         estimate D2E/DX2                !
 ! D10   D(1,2,3,68)           -60.0939         estimate D2E/DX2                !
 ! D11   D(1,2,3,69)            59.9606         estimate D2E/DX2                !
 ! D12   D(1,2,3,70)           179.9577         estimate D2E/DX2                !
 ! D13   D(4,2,3,68)            63.7745         estimate D2E/DX2                !
 ! D14   D(4,2,3,69)          -176.171          estimate D2E/DX2                !
 ! D15   D(4,2,3,70)           -56.1739         estimate D2E/DX2                !
 ! D16   D(64,2,3,68)          176.1114         estimate D2E/DX2                !
 ! D17   D(64,2,3,69)          -63.8341         estimate D2E/DX2                !
 ! D18   D(64,2,3,70)           56.163          estimate D2E/DX2                !
 ! D19   D(1,2,4,5)             61.9826         estimate D2E/DX2                !
 ! D20   D(1,2,4,9)           -117.9591         estimate D2E/DX2                !
 ! D21   D(3,2,4,5)            -61.5191         estimate D2E/DX2                !
 ! D22   D(3,2,4,9)            118.5392         estimate D2E/DX2                !
 ! D23   D(64,2,4,5)          -179.8495         estimate D2E/DX2                !
 ! D24   D(64,2,4,9)             0.2088         estimate D2E/DX2                !
 ! D25   D(1,2,64,10)          117.9009         estimate D2E/DX2                !
 ! D26   D(1,2,64,63)          -62.0627         estimate D2E/DX2                !
 ! D27   D(3,2,64,10)         -118.6461         estimate D2E/DX2                !
 ! D28   D(3,2,64,63)           61.3903         estimate D2E/DX2                !
 ! D29   D(4,2,64,10)           -0.2991         estimate D2E/DX2                !
 ! D30   D(4,2,64,63)          179.7373         estimate D2E/DX2                !
 ! D31   D(2,4,5,6)           -179.9649         estimate D2E/DX2                !
 ! D32   D(2,4,5,71)             0.0292         estimate D2E/DX2                !
 ! D33   D(9,4,5,6)             -0.028          estimate D2E/DX2                !
 ! D34   D(9,4,5,71)           179.966          estimate D2E/DX2                !
 ! D35   D(2,4,9,8)            179.9867         estimate D2E/DX2                !
 ! D36   D(2,4,9,10)            -0.0532         estimate D2E/DX2                !
 ! D37   D(5,4,9,8)              0.0393         estimate D2E/DX2                !
 ! D38   D(5,4,9,10)           179.9994         estimate D2E/DX2                !
 ! D39   D(4,5,6,7)             -0.0043         estimate D2E/DX2                !
 ! D40   D(4,5,6,72)           179.9972         estimate D2E/DX2                !
 ! D41   D(71,5,6,7)          -179.9983         estimate D2E/DX2                !
 ! D42   D(71,5,6,72)            0.0032         estimate D2E/DX2                !
 ! D43   D(5,6,7,8)              0.0263         estimate D2E/DX2                !
 ! D44   D(5,6,7,73)          -179.9794         estimate D2E/DX2                !
 ! D45   D(72,6,7,8)          -179.9752         estimate D2E/DX2                !
 ! D46   D(72,6,7,73)            0.0191         estimate D2E/DX2                !
 ! D47   D(6,7,8,9)             -0.0152         estimate D2E/DX2                !
 ! D48   D(6,7,8,74)          -179.9998         estimate D2E/DX2                !
 ! D49   D(73,7,8,9)           179.9905         estimate D2E/DX2                !
 ! D50   D(73,7,8,74)            0.0059         estimate D2E/DX2                !
 ! D51   D(7,8,9,4)             -0.0171         estimate D2E/DX2                !
 ! D52   D(7,8,9,10)          -179.9672         estimate D2E/DX2                !
 ! D53   D(74,8,9,4)           179.9674         estimate D2E/DX2                !
 ! D54   D(74,8,9,10)            0.0174         estimate D2E/DX2                !
 ! D55   D(4,9,10,11)          179.7691         estimate D2E/DX2                !
 ! D56   D(4,9,10,64)           -0.1438         estimate D2E/DX2                !
 ! D57   D(8,9,10,11)           -0.2762         estimate D2E/DX2                !
 ! D58   D(8,9,10,64)          179.8108         estimate D2E/DX2                !
 ! D59   D(9,10,11,12)        -179.8471         estimate D2E/DX2                !
 ! D60   D(9,10,11,75)           0.2728         estimate D2E/DX2                !
 ! D61   D(64,10,11,12)          0.0572         estimate D2E/DX2                !
 ! D62   D(64,10,11,75)       -179.8228         estimate D2E/DX2                !
 ! D63   D(9,10,64,2)            0.2857         estimate D2E/DX2                !
 ! D64   D(9,10,64,63)        -179.7474         estimate D2E/DX2                !
 ! D65   D(11,10,64,2)        -179.6384         estimate D2E/DX2                !
 ! D66   D(11,10,64,63)          0.3286         estimate D2E/DX2                !
 ! D67   D(10,11,12,13)         -0.3725         estimate D2E/DX2                !
 ! D68   D(10,11,12,76)       -179.0564         estimate D2E/DX2                !
 ! D69   D(75,11,12,13)        179.508          estimate D2E/DX2                !
 ! D70   D(75,11,12,76)          0.8241         estimate D2E/DX2                !
 ! D71   D(11,12,13,14)       -179.3478         estimate D2E/DX2                !
 ! D72   D(11,12,13,63)          0.3051         estimate D2E/DX2                !
 ! D73   D(76,12,13,14)         -0.6598         estimate D2E/DX2                !
 ! D74   D(76,12,13,63)        178.9931         estimate D2E/DX2                !
 ! D75   D(12,13,14,15)        138.1634         estimate D2E/DX2                !
 ! D76   D(12,13,14,62)        -41.4397         estimate D2E/DX2                !
 ! D77   D(63,13,14,15)        -41.4869         estimate D2E/DX2                !
 ! D78   D(63,13,14,62)        138.91           estimate D2E/DX2                !
 ! D79   D(12,13,63,64)          0.0842         estimate D2E/DX2                !
 ! D80   D(12,13,63,110)       178.7546         estimate D2E/DX2                !
 ! D81   D(14,13,63,64)        179.7372         estimate D2E/DX2                !
 ! D82   D(14,13,63,110)        -1.5925         estimate D2E/DX2                !
 ! D83   D(13,14,15,16)       -179.8121         estimate D2E/DX2                !
 ! D84   D(13,14,15,77)         -1.0409         estimate D2E/DX2                !
 ! D85   D(62,14,15,16)         -0.2025         estimate D2E/DX2                !
 ! D86   D(62,14,15,77)        178.5687         estimate D2E/DX2                !
 ! D87   D(13,14,62,18)        179.4188         estimate D2E/DX2                !
 ! D88   D(13,14,62,109)        -2.7698         estimate D2E/DX2                !
 ! D89   D(15,14,62,18)         -0.192          estimate D2E/DX2                !
 ! D90   D(15,14,62,109)       177.6194         estimate D2E/DX2                !
 ! D91   D(14,15,16,17)          0.0968         estimate D2E/DX2                !
 ! D92   D(14,15,16,78)        179.7987         estimate D2E/DX2                !
 ! D93   D(77,15,16,17)       -178.6699         estimate D2E/DX2                !
 ! D94   D(77,15,16,78)          1.032          estimate D2E/DX2                !
 ! D95   D(15,16,17,18)          0.4038         estimate D2E/DX2                !
 ! D96   D(15,16,17,79)        179.3956         estimate D2E/DX2                !
 ! D97   D(78,16,17,18)       -179.2982         estimate D2E/DX2                !
 ! D98   D(78,16,17,79)         -0.3064         estimate D2E/DX2                !
 ! D99   D(16,17,18,19)       -179.1994         estimate D2E/DX2                !
 ! D100  D(16,17,18,62)         -0.7859         estimate D2E/DX2                !
 ! D101  D(79,17,18,19)          1.7997         estimate D2E/DX2                !
 ! D102  D(79,17,18,62)       -179.7868         estimate D2E/DX2                !
 ! D103  D(17,18,19,20)         54.2303         estimate D2E/DX2                !
 ! D104  D(17,18,19,61)       -126.0007         estimate D2E/DX2                !
 ! D105  D(62,18,19,20)       -124.1602         estimate D2E/DX2                !
 ! D106  D(62,18,19,61)         55.6088         estimate D2E/DX2                !
 ! D107  D(17,18,62,14)          0.6838         estimate D2E/DX2                !
 ! D108  D(17,18,62,109)      -177.1322         estimate D2E/DX2                !
 ! D109  D(19,18,62,14)        179.0909         estimate D2E/DX2                !
 ! D110  D(19,18,62,109)         1.2749         estimate D2E/DX2                !
 ! D111  D(18,19,20,21)        177.3504         estimate D2E/DX2                !
 ! D112  D(18,19,20,80)         -0.68           estimate D2E/DX2                !
 ! D113  D(61,19,20,21)         -2.4226         estimate D2E/DX2                !
 ! D114  D(61,19,20,80)        179.5471         estimate D2E/DX2                !
 ! D115  D(18,19,61,56)       -177.0056         estimate D2E/DX2                !
 ! D116  D(18,19,61,60)          5.056          estimate D2E/DX2                !
 ! D117  D(20,19,61,56)          2.7617         estimate D2E/DX2                !
 ! D118  D(20,19,61,60)       -175.1767         estimate D2E/DX2                !
 ! D119  D(19,20,21,22)       -178.7069         estimate D2E/DX2                !
 ! D120  D(19,20,21,23)         -0.1387         estimate D2E/DX2                !
 ! D121  D(80,20,21,22)         -0.617          estimate D2E/DX2                !
 ! D122  D(80,20,21,23)        177.9513         estimate D2E/DX2                !
 ! D123  D(20,21,22,81)       -178.498          estimate D2E/DX2                !
 ! D124  D(23,21,22,81)          2.9673         estimate D2E/DX2                !
 ! D125  D(20,21,23,24)       -176.4027         estimate D2E/DX2                !
 ! D126  D(20,21,23,56)          2.2944         estimate D2E/DX2                !
 ! D127  D(22,21,23,24)          2.0842         estimate D2E/DX2                !
 ! D128  D(22,21,23,56)       -179.2187         estimate D2E/DX2                !
 ! D129  D(21,23,24,25)        107.1408         estimate D2E/DX2                !
 ! D130  D(21,23,24,55)        -71.2468         estimate D2E/DX2                !
 ! D131  D(56,23,24,25)        -71.5328         estimate D2E/DX2                !
 ! D132  D(56,23,24,55)        110.0796         estimate D2E/DX2                !
 ! D133  D(21,23,56,57)        176.7266         estimate D2E/DX2                !
 ! D134  D(21,23,56,61)         -1.8822         estimate D2E/DX2                !
 ! D135  D(24,23,56,57)         -4.6001         estimate D2E/DX2                !
 ! D136  D(24,23,56,61)        176.791          estimate D2E/DX2                !
 ! D137  D(23,24,25,26)          2.4605         estimate D2E/DX2                !
 ! D138  D(23,24,25,27)       -175.9836         estimate D2E/DX2                !
 ! D139  D(55,24,25,26)       -179.1263         estimate D2E/DX2                !
 ! D140  D(55,24,25,27)          2.4295         estimate D2E/DX2                !
 ! D141  D(23,24,55,50)        176.1564         estimate D2E/DX2                !
 ! D142  D(23,24,55,54)         -5.2065         estimate D2E/DX2                !
 ! D143  D(25,24,55,50)         -2.2333         estimate D2E/DX2                !
 ! D144  D(25,24,55,54)        176.4038         estimate D2E/DX2                !
 ! D145  D(24,25,26,82)          2.8996         estimate D2E/DX2                !
 ! D146  D(27,25,26,82)       -178.6074         estimate D2E/DX2                !
 ! D147  D(24,25,27,28)          0.0171         estimate D2E/DX2                !
 ! D148  D(24,25,27,83)        178.01           estimate D2E/DX2                !
 ! D149  D(26,25,27,28)       -178.5107         estimate D2E/DX2                !
 ! D150  D(26,25,27,83)         -0.5178         estimate D2E/DX2                !
 ! D151  D(25,27,28,29)        177.0534         estimate D2E/DX2                !
 ! D152  D(25,27,28,50)         -2.6484         estimate D2E/DX2                !
 ! D153  D(83,27,28,29)         -0.8772         estimate D2E/DX2                !
 ! D154  D(83,27,28,50)        179.4211         estimate D2E/DX2                !
 ! D155  D(27,28,29,30)         55.5975         estimate D2E/DX2                !
 ! D156  D(27,28,29,49)       -122.6962         estimate D2E/DX2                !
 ! D157  D(50,28,29,30)       -124.7058         estimate D2E/DX2                !
 ! D158  D(50,28,29,49)         57.0005         estimate D2E/DX2                !
 ! D159  D(27,28,50,51)       -175.1988         estimate D2E/DX2                !
 ! D160  D(27,28,50,55)          2.7674         estimate D2E/DX2                !
 ! D161  D(29,28,50,51)          5.1071         estimate D2E/DX2                !
 ! D162  D(29,28,50,55)       -176.9267         estimate D2E/DX2                !
 ! D163  D(28,29,30,31)       -179.3671         estimate D2E/DX2                !
 ! D164  D(28,29,30,84)          1.5382         estimate D2E/DX2                !
 ! D165  D(49,29,30,31)         -1.0503         estimate D2E/DX2                !
 ! D166  D(49,29,30,84)        179.855          estimate D2E/DX2                !
 ! D167  D(28,29,49,33)        179.2113         estimate D2E/DX2                !
 ! D168  D(28,29,49,100)        -1.0198         estimate D2E/DX2                !
 ! D169  D(30,29,49,33)          0.9003         estimate D2E/DX2                !
 ! D170  D(30,29,49,100)      -179.3308         estimate D2E/DX2                !
 ! D171  D(29,30,31,32)          0.3488         estimate D2E/DX2                !
 ! D172  D(29,30,31,85)       -179.7948         estimate D2E/DX2                !
 ! D173  D(84,30,31,32)        179.4351         estimate D2E/DX2                !
 ! D174  D(84,30,31,85)         -0.7086         estimate D2E/DX2                !
 ! D175  D(30,31,32,33)          0.5244         estimate D2E/DX2                !
 ! D176  D(30,31,32,86)        178.9076         estimate D2E/DX2                !
 ! D177  D(85,31,32,33)       -179.3319         estimate D2E/DX2                !
 ! D178  D(85,31,32,86)         -0.9487         estimate D2E/DX2                !
 ! D179  D(31,32,33,34)        179.3731         estimate D2E/DX2                !
 ! D180  D(31,32,33,49)         -0.6725         estimate D2E/DX2                !
 ! D181  D(86,32,33,34)          0.9834         estimate D2E/DX2                !
 ! D182  D(86,32,33,49)       -179.0622         estimate D2E/DX2                !
 ! D183  D(32,33,34,35)       -137.4691         estimate D2E/DX2                !
 ! D184  D(32,33,34,39)         42.4602         estimate D2E/DX2                !
 ! D185  D(49,33,34,35)         42.5772         estimate D2E/DX2                !
 ! D186  D(49,33,34,39)       -137.4934         estimate D2E/DX2                !
 ! D187  D(32,33,49,29)         -0.0441         estimate D2E/DX2                !
 ! D188  D(32,33,49,100)      -179.8124         estimate D2E/DX2                !
 ! D189  D(34,33,49,29)        179.9105         estimate D2E/DX2                !
 ! D190  D(34,33,49,100)         0.1421         estimate D2E/DX2                !
 ! D191  D(33,34,35,36)        179.6266         estimate D2E/DX2                !
 ! D192  D(33,34,35,87)          1.0389         estimate D2E/DX2                !
 ! D193  D(39,34,35,36)         -0.3032         estimate D2E/DX2                !
 ! D194  D(39,34,35,87)       -178.8908         estimate D2E/DX2                !
 ! D195  D(33,34,39,38)        179.9521         estimate D2E/DX2                !
 ! D196  D(33,34,39,89)          1.2266         estimate D2E/DX2                !
 ! D197  D(35,34,39,38)         -0.118          estimate D2E/DX2                !
 ! D198  D(35,34,39,89)       -178.8435         estimate D2E/DX2                !
 ! D199  D(34,35,36,37)          0.4157         estimate D2E/DX2                !
 ! D200  D(34,35,36,88)       -179.4682         estimate D2E/DX2                !
 ! D201  D(87,35,36,37)        178.9963         estimate D2E/DX2                !
 ! D202  D(87,35,36,88)         -0.8876         estimate D2E/DX2                !
 ! D203  D(35,36,37,38)         -0.114          estimate D2E/DX2                !
 ! D204  D(35,36,37,48)        179.8697         estimate D2E/DX2                !
 ! D205  D(88,36,37,38)        179.7695         estimate D2E/DX2                !
 ! D206  D(88,36,37,48)         -0.2469         estimate D2E/DX2                !
 ! D207  D(36,37,38,39)         -0.3031         estimate D2E/DX2                !
 ! D208  D(36,37,38,40)        179.6169         estimate D2E/DX2                !
 ! D209  D(48,37,38,39)        179.7099         estimate D2E/DX2                !
 ! D210  D(48,37,38,40)         -0.3702         estimate D2E/DX2                !
 ! D211  D(36,37,48,43)       -179.8508         estimate D2E/DX2                !
 ! D212  D(36,37,48,47)          0.2357         estimate D2E/DX2                !
 ! D213  D(38,37,48,43)          0.1344         estimate D2E/DX2                !
 ! D214  D(38,37,48,47)       -179.7792         estimate D2E/DX2                !
 ! D215  D(37,38,39,34)          0.4162         estimate D2E/DX2                !
 ! D216  D(37,38,39,89)        179.1252         estimate D2E/DX2                !
 ! D217  D(40,38,39,34)       -179.488          estimate D2E/DX2                !
 ! D218  D(40,38,39,89)         -0.7789         estimate D2E/DX2                !
 ! D219  D(37,38,40,41)       -117.6868         estimate D2E/DX2                !
 ! D220  D(37,38,40,42)        118.8567         estimate D2E/DX2                !
 ! D221  D(37,38,40,43)          0.4343         estimate D2E/DX2                !
 ! D222  D(39,38,40,41)         62.2249         estimate D2E/DX2                !
 ! D223  D(39,38,40,42)        -61.2315         estimate D2E/DX2                !
 ! D224  D(39,38,40,43)       -179.654          estimate D2E/DX2                !
 ! D225  D(38,40,41,90)        -63.7419         estimate D2E/DX2                !
 ! D226  D(38,40,41,91)        176.1337         estimate D2E/DX2                !
 ! D227  D(38,40,41,92)         56.1974         estimate D2E/DX2                !
 ! D228  D(42,40,41,90)         60.145          estimate D2E/DX2                !
 ! D229  D(42,40,41,91)        -59.9794         estimate D2E/DX2                !
 ! D230  D(42,40,41,92)       -179.9157         estimate D2E/DX2                !
 ! D231  D(43,40,41,90)       -175.9087         estimate D2E/DX2                !
 ! D232  D(43,40,41,91)         63.9669         estimate D2E/DX2                !
 ! D233  D(43,40,41,92)        -55.9694         estimate D2E/DX2                !
 ! D234  D(38,40,42,93)       -176.1169         estimate D2E/DX2                !
 ! D235  D(38,40,42,94)         63.8247         estimate D2E/DX2                !
 ! D236  D(38,40,42,95)        -56.1722         estimate D2E/DX2                !
 ! D237  D(41,40,42,93)         60.1147         estimate D2E/DX2                !
 ! D238  D(41,40,42,94)        -59.9437         estimate D2E/DX2                !
 ! D239  D(41,40,42,95)       -179.9407         estimate D2E/DX2                !
 ! D240  D(43,40,42,93)        -63.7266         estimate D2E/DX2                !
 ! D241  D(43,40,42,94)        176.215          estimate D2E/DX2                !
 ! D242  D(43,40,42,95)         56.218          estimate D2E/DX2                !
 ! D243  D(38,40,43,44)        179.7191         estimate D2E/DX2                !
 ! D244  D(38,40,43,48)         -0.3499         estimate D2E/DX2                !
 ! D245  D(41,40,43,44)        -62.1921         estimate D2E/DX2                !
 ! D246  D(41,40,43,48)        117.7388         estimate D2E/DX2                !
 ! D247  D(42,40,43,44)         61.312          estimate D2E/DX2                !
 ! D248  D(42,40,43,48)       -118.757          estimate D2E/DX2                !
 ! D249  D(40,43,44,45)        179.9313         estimate D2E/DX2                !
 ! D250  D(40,43,44,96)         -0.0691         estimate D2E/DX2                !
 ! D251  D(48,43,44,45)          0.0061         estimate D2E/DX2                !
 ! D252  D(48,43,44,96)       -179.9944         estimate D2E/DX2                !
 ! D253  D(40,43,48,37)          0.153          estimate D2E/DX2                !
 ! D254  D(40,43,48,47)       -179.923          estimate D2E/DX2                !
 ! D255  D(44,43,48,37)       -179.9093         estimate D2E/DX2                !
 ! D256  D(44,43,48,47)          0.0147         estimate D2E/DX2                !
 ! D257  D(43,44,45,46)         -0.019          estimate D2E/DX2                !
 ! D258  D(43,44,45,97)        179.9838         estimate D2E/DX2                !
 ! D259  D(96,44,45,46)        179.9814         estimate D2E/DX2                !
 ! D260  D(96,44,45,97)         -0.0158         estimate D2E/DX2                !
 ! D261  D(44,45,46,47)          0.0114         estimate D2E/DX2                !
 ! D262  D(44,45,46,98)       -179.9942         estimate D2E/DX2                !
 ! D263  D(97,45,46,47)       -179.9914         estimate D2E/DX2                !
 ! D264  D(97,45,46,98)          0.003          estimate D2E/DX2                !
 ! D265  D(45,46,47,48)          0.0094         estimate D2E/DX2                !
 ! D266  D(45,46,47,99)        179.9832         estimate D2E/DX2                !
 ! D267  D(98,46,47,48)       -179.985          estimate D2E/DX2                !
 ! D268  D(98,46,47,99)         -0.0111         estimate D2E/DX2                !
 ! D269  D(46,47,48,37)        179.8824         estimate D2E/DX2                !
 ! D270  D(46,47,48,43)         -0.0222         estimate D2E/DX2                !
 ! D271  D(99,47,48,37)         -0.0914         estimate D2E/DX2                !
 ! D272  D(99,47,48,43)       -179.9961         estimate D2E/DX2                !
 ! D273  D(28,50,51,52)        179.3094         estimate D2E/DX2                !
 ! D274  D(28,50,51,101)         0.3095         estimate D2E/DX2                !
 ! D275  D(55,50,51,52)          1.3367         estimate D2E/DX2                !
 ! D276  D(55,50,51,101)      -177.6632         estimate D2E/DX2                !
 ! D277  D(28,50,55,24)         -0.3468         estimate D2E/DX2                !
 ! D278  D(28,50,55,54)       -179.0155         estimate D2E/DX2                !
 ! D279  D(51,50,55,24)        177.6975         estimate D2E/DX2                !
 ! D280  D(51,50,55,54)         -0.9712         estimate D2E/DX2                !
 ! D281  D(50,51,52,53)         -0.6722         estimate D2E/DX2                !
 ! D282  D(50,51,52,102)      -179.8967         estimate D2E/DX2                !
 ! D283  D(101,51,52,53)       178.3157         estimate D2E/DX2                !
 ! D284  D(101,51,52,102)       -0.9088         estimate D2E/DX2                !
 ! D285  D(51,52,53,54)         -0.3764         estimate D2E/DX2                !
 ! D286  D(51,52,53,103)      -179.4505         estimate D2E/DX2                !
 ! D287  D(102,52,53,54)       178.8527         estimate D2E/DX2                !
 ! D288  D(102,52,53,103)       -0.2214         estimate D2E/DX2                !
 ! D289  D(52,53,54,55)          0.7261         estimate D2E/DX2                !
 ! D290  D(52,53,54,104)      -178.1691         estimate D2E/DX2                !
 ! D291  D(103,53,54,55)       179.7954         estimate D2E/DX2                !
 ! D292  D(103,53,54,104)        0.9001         estimate D2E/DX2                !
 ! D293  D(53,54,55,24)       -178.6921         estimate D2E/DX2                !
 ! D294  D(53,54,55,50)         -0.0395         estimate D2E/DX2                !
 ! D295  D(104,54,55,24)         0.2187         estimate D2E/DX2                !
 ! D296  D(104,54,55,50)       178.8713         estimate D2E/DX2                !
 ! D297  D(23,56,57,58)       -178.6562         estimate D2E/DX2                !
 ! D298  D(23,56,57,105)         0.2815         estimate D2E/DX2                !
 ! D299  D(61,56,57,58)         -0.0317         estimate D2E/DX2                !
 ! D300  D(61,56,57,105)       178.906          estimate D2E/DX2                !
 ! D301  D(23,56,61,19)         -0.6278         estimate D2E/DX2                !
 ! D302  D(23,56,61,60)        177.3913         estimate D2E/DX2                !
 ! D303  D(57,56,61,19)       -179.2687         estimate D2E/DX2                !
 ! D304  D(57,56,61,60)         -1.2496         estimate D2E/DX2                !
 ! D305  D(56,57,58,59)          0.9375         estimate D2E/DX2                !
 ! D306  D(56,57,58,106)       179.9014         estimate D2E/DX2                !
 ! D307  D(105,57,58,59)      -177.9851         estimate D2E/DX2                !
 ! D308  D(105,57,58,106)        0.9788         estimate D2E/DX2                !
 ! D309  D(57,58,59,60)         -0.5296         estimate D2E/DX2                !
 ! D310  D(57,58,59,107)       178.621          estimate D2E/DX2                !
 ! D311  D(106,58,59,60)      -179.499          estimate D2E/DX2                !
 ! D312  D(106,58,59,107)       -0.3484         estimate D2E/DX2                !
 ! D313  D(58,59,60,61)         -0.8009         estimate D2E/DX2                !
 ! D314  D(58,59,60,108)       178.009          estimate D2E/DX2                !
 ! D315  D(107,59,60,61)      -179.9458         estimate D2E/DX2                !
 ! D316  D(107,59,60,108)       -1.1359         estimate D2E/DX2                !
 ! D317  D(59,60,61,19)        179.6249         estimate D2E/DX2                !
 ! D318  D(59,60,61,56)          1.6785         estimate D2E/DX2                !
 ! D319  D(108,60,61,19)         0.8001         estimate D2E/DX2                !
 ! D320  D(108,60,61,56)      -177.1463         estimate D2E/DX2                !
 ! D321  D(13,63,64,2)         179.5646         estimate D2E/DX2                !
 ! D322  D(13,63,64,10)         -0.3959         estimate D2E/DX2                !
 ! D323  D(110,63,64,2)          0.9113         estimate D2E/DX2                !
 ! D324  D(110,63,64,10)      -179.0492         estimate D2E/DX2                !
 --------------------------------------------------------------------------------
 Trust Radius=3.00D-01 FncErr=1.00D-07 GrdErr=1.00D-06 EigMax=2.50D+02 EigMin=1.00D-04
 Number of steps in this run=    660 maximum allowed number of steps=    660.
 GradGradGradGradGradGradGradGradGradGradGradGradGradGradGradGradGradGrad

 Leave Link  103 at Mon Mar 24 00:24:50 2025, MaxMem= 13421772800 cpu:               0.9 elap:               0.0
 (Enter /public/software/apps/Gaussian/g16/l202.exe)
 Symmetry turned off by external request.
 Stoichiometry    C62H46O2
 Framework group  C1[X(C62H46O2)]
 Deg. of freedom   324
 Full point group                 C1      NOp   1
                          Input orientation:                          
 ---------------------------------------------------------------------
 Center     Atomic      Atomic             Coordinates (Angstroms)
 Number     Number       Type             X           Y           Z
 ---------------------------------------------------------------------
      1          6           0      -10.657425   -2.319898   -3.003287
      2          6           0      -11.203497   -1.571945   -1.783057
      3          6           0      -12.040894   -2.511076   -0.909617
      4          6           0      -12.001424   -0.356913   -2.200878
      5          6           0      -13.154367   -0.296407   -2.953086
      6          6           0      -13.718454    0.945121   -3.215843
      7          6           0      -13.135844    2.106170   -2.732124
      8          6           0      -11.976509    2.054603   -1.975488
      9          6           0      -11.411351    0.817876   -1.711879
     10          6           0      -10.220980    0.456666   -0.961008
     11          6           0       -9.294710    1.237999   -0.290124
     12          6           0       -8.237058    0.616621    0.348662
     13          6           0       -8.094693   -0.770770    0.334301
     14          6           0       -6.969103   -1.406997    1.033313
     15          6           0       -7.158203   -2.569799    1.777584
     16          6           0       -6.095217   -3.160152    2.435415
     17          6           0       -4.831636   -2.602339    2.364181
     18          6           0       -4.623293   -1.435596    1.634863
     19          6           0       -3.274595   -0.849446    1.543190
     20          6           0       -2.238857   -1.633700    1.104288
     21          6           0       -0.943594   -1.114904    0.944244
     22          8           0        0.008298   -1.964204    0.478668
     23          6           0       -0.682299    0.213087    1.226114
     24          6           0        0.675826    0.758483    0.972843
     25          6           0        0.878961    1.614633   -0.093256
     26          8           0       -0.130392    2.024700   -0.904020
     27          6           0        2.170697    2.073945   -0.399368
     28          6           0        3.259726    1.691847    0.340998
     29          6           0        4.597597    2.154790   -0.069171
     30          6           0        4.853059    3.514478   -0.218088
[...]
 9,-0.00000319,0.00000463,-0.00000561,0.00000335,-0.00002958,0.00000003
 ,-0.00000486,0.00001443,0.00000058,-0.00000223,-0.00002058,-0.00059089
 ,-0.00033386,-0.00053447,0.04393297,0.25413925,-0.00002039,0.00000003,
 -0.00000250,0.00000270,-0.00002422,-0.00001937,-0.00000063,0.00000310,
 -0.00000464,0.00001877,0.00000529,0.00001006,-0.00001349,-0.00000152,-
 0.00002058,0.00001122,-0.00001951,0.00000674,0.00001464,0.00001379,0.0
 0000230,0.00000166,0.00001269,-0.00000160,-0.00004614,-0.00003169,0.00
 001116,0.00012840,0.00029095,0.00000085,-0.00037947,-0.00026847,-0.000
 37008,0.00033925,0.00062435,0.00060151,0.00086469,-0.00218384,-0.00188
 211,-0.00198544,0.00112763,0.00285670,-0.00088602,0.00191133,0.0047674
 0,-0.00042213,-0.00062420,-0.00049162,-0.00340660,0.00311002,0.0035225
 5,0.00415583,0.01242827,-0.00352735,0.00098548,-0.00181903,-0.00221185
 ,0.00038595,0.00001642,0.00006242,-0.00005372,0.00000929,0.00009911,0.
 00017423,-0.00012396,-0.00009617,-0.00003338,-0.00008459,-0.00002460,0
 .00000173,-0.00002356,-0.00000768,-0.00000149,-0.00000166,0.00001602,0
 .00000659,-0.00001873,-0.00003991,-0.00000517,-0.00000478,0.00000315,0
 .00000014,-0.00000544,0.00000861,-0.00000993,-0.00000452,0.00000286,0.
 00000609,0.00000021,-0.00000111,-0.00000043,-0.00000116,-0.00000192,0.
 00000473,-0.00000047,-0.00000097,-0.00000446,0.00000377,0.00000204,-0.
 00000185,0.00000446,0.00000113,0.00000208,-0.00000198,-0.00000210,0.00
 000078,0.00000137,0.00000078,0.00000020,0.00000037,0.00000024,-0.00000
 092,-0.00000207,-0.00000164,0.00000102,-0.00000165,-0.00000018,-0.0000
 0145,-0.00000010,-0.00000010,0.00000057,0.00000020,-0.00000028,0.00000
 043,-0.00000029,0.00000064,0.00000290,0.00000003,0.00000025,-0.0000013
 9,-0.00000012,-0.00000028,0.00000085,-0.00000164,-0.00000071,0.0000012
 4,0.00000081,0.00000048,0.00000103,0.00000061,0.00000034,-0.00000278,0
 .00000068,-0.00000012,0.00000598,0.00000327,-0.00000477,0.00000732,0.0
 0000752,-0.00000508,0.00000123,-0.00000327,0.00000270,0.00000562,0.000
 00181,-0.00000312,-0.00000775,0.00000110,-0.00000742,0.00000310,-0.000
 00901,0.00001123,-0.00001355,0.00001245,-0.00002764,-0.00004282,-0.000
 19907,0.00015864,0.00003747,0.00013580,-0.00000939,0.00008451,-0.00001
 773,-0.00008412,0.00009269,-0.00022612,-0.00005605,-0.00020224,-0.0000
 7219,0.00026330,-0.00085153,0.00014801,0.00003203,0.02229473,0.1342805
 9,-0.12737676,-0.00054543,-0.00000695,-0.00015247,0.00003891,-0.000323
 94,0.00016175,-0.00000255,-0.00000395,0.00000148,-0.00000119,0.0000024
 7,-0.00000524,0.00000590,-0.00000340,-0.00000531,-0.00000070,-0.000001
 59,0.00000112,0.00000045,-0.00000023,0.00000089,0.00000202,-0.00000108
 ,-0.00000112,-0.00000095,0.00000186,0.00000035,-0.00000027,-0.00000031
 ,0.00000298,0.00000139,-0.00000216,0.00000180,-0.00000382,-0.00000290,
 0.00000409,0.00000342,-0.00001078,0.00005852,-0.00016093,-0.00048909,0
 .00011491,-0.00015994,0.00004024,0.00018498,0.00018342,-0.00038145,-0.
 00065394,0.00019305,0.00068140,-0.00013105,0.00004243,-0.00001452,-0.0
 0007189,-0.00002377,-0.00000563,-0.00000083,-0.00000422,0.00002006,0.0
 0006354,0.00000108,0.00000323,-0.00000040,-0.00000063,-0.00000249,0.00
 000120,0.00000071,0.00000101,0.,0.00000145,0.00000071,-0.00000031,0.00
 000003,0.00000119,0.00000154,0.00000006,-0.00000098,-0.00000011,-0.000
 00151,-0.00000019,-0.00000014,-0.00000038,-0.00000062,-0.00000023,0.00
 000080,0.00000005,0.00000025,-0.00000038,0.00000033,-0.00000015,0.0000
 0081,0.00000020,0.00000006,-0.00000034,-0.00000046,-0.00000016,-0.0000
 0036,-0.00000003,-0.00000010,0.00000009,0.00000028,0.00000022,0.000000
 49,-0.00000023,0.00000001,0.00000032,-0.00000065,-0.00000019,-0.000000
 52,0.00000020,0.00000015,-0.00000220,0.00000095,0.00000178,0.00000200,
 0.00000055,0.00000178,0.00000248,0.00000045,0.00000161,0.00000007,0.00
 000023,0.00000298,-0.00000187,0.00000736,-0.00000715,0.00000336,-0.000
 00414,-0.00000835,0.00003430,0.00002856,-0.00000246,-0.00000776,-0.000
 00166,0.00001612,-0.00008219,-0.00018225,-0.00114197,-0.02075727,-0.14
 770960,0.12546590,-0.00001903,0.00018016,-0.00004937,-0.00044251,-0.00
 024871,0.00223994,-0.00034322,0.00034842,-0.00035494,0.00000066,0.0001
 9044,0.00013172,0.00005713,-0.00010898,-0.00000434,-0.00002918,0.00001
 308,-0.00000898,0.00001703,0.00008312,-0.00001025,-0.00037687,-0.00010
 256,-0.00011022,0.00028504,0.00110797,0.00014659,-0.00078797,0.0010897
 9,-0.00557897,-0.00096117,-0.00002787,-0.00023008,-0.00125192,-0.00177
 208,-0.00478476,0.00446841,-0.02149472,0.00057008,0.00036622,-0.000848
 01,0.00232510,0.00013197,0.00008990,-0.00021658,-0.00058412,0.00024641
 ,-0.00002772,0.00031170,0.00033056,-0.00011352,0.00018069,-0.00038418,
 0.00017928,-0.00007326,-0.00004028,-0.00000587,0.00003803,0.00001446,-
 0.00000282,-0.00004003,0.00000453,0.00002113,0.00003181,-0.00000311,-0
 .00000688,0.00001383,0.00000722,-0.00000611,-0.00000779,-0.00000197,0.
 00000863,0.00000106,-0.00000235,0.00000018,0.00000999,0.00000863,-0.00
 000380,0.00000028,0.00000076,0.00000029,-0.00000135,-0.00000289,0.0000
 0545,-0.00000689,-0.00000263,0.00000197,0.00000531,-0.00000069,-0.0000
 0058,-0.00000033,-0.00000073,-0.00000089,0.00000303,0.00000006,-0.0000
 0046,-0.00000302,0.00000257,0.00000137,-0.00000050,0.00000247,0.000000
 63,0.00000033,-0.00000121,-0.00000152,0.00000063,0.00000049,0.00000019
 ,-0.00000041,0.00000098,0.00000039,-0.00000079,-0.00000146,-0.00000116
 ,0.00000074,-0.00000093,-0.00000009,-0.00000118,0.00000007,0.00000001,
 0.00000049,0.00000001,-0.00000043,0.00000034,-0.00000046,0.00000059,0.
 00000241,-0.00000021,0.00000011,-0.00000115,-0.00000001,-0.00000022,0.
 00000053,-0.00000121,-0.00000058,0.00000108,0.00000081,0.00000042,0.00
 000029,0.00000015,-0.00000002,-0.00000178,0.00000061,0.,0.00000389,0.0
 0000159,-0.00000273,0.00000654,0.00000204,-0.00000280,0.00000162,-0.00
 000131,0.00000137,0.00000244,0.00000206,-0.00000202,-0.00000367,0.0000
 0113,-0.00000202,-0.00000101,-0.00000385,0.00000717,-0.00000173,0.0000
 1214,-0.00001255,-0.00000259,0.00000952,-0.00000078,-0.00000332,-0.000
 00016,0.00000064,-0.00000251,0.00000803,0.00000189,0.00000588,0.000007
 82,-0.00000377,0.00000617,0.00000471,-0.00000579,0.00003914,-0.0000070
 7,-0.00000976,-0.00061013,0.00001370,-0.00012638,-0.05361850,0.0177570
 6,-0.00921293,0.00443242,0.02398324,0.00028667,0.00004052,-0.00017388,
 -0.00035106,0.00006396,-0.00006263,0.00009867,0.00000058,-0.00001592,0
 .00006884,0.00015952,-0.00032027,0.00017898,-0.00055862,-0.00052348,0.
 00010971,0.00003365,-0.00001189,-0.00004949,-0.00003855,-0.00000205,-0
 .00002402,-0.00000124,-0.00000961,0.00000577,-0.00002497,0.00000031,-0
 .00003199,0.00001242,-0.00001290,0.00000854,-0.00028807,0.00004755,0.0
 0057577,0.00021752,-0.00118524,-0.00006774,-0.00010574,-0.00001610,-0.
 00085036,0.00002562,-0.00004035,-0.00002274,0.00003008,-0.00001497,-0.
 00002899,-0.00001400,0.00001259,0.00000066,-0.00000931,-0.00000349,-0.
 00000083,-0.00000433,-0.00001402,0.00001119,0.00000091,0.00000070,-0.0
 0000143,-0.00000067,-0.00000154,0.00000028,0.00000065,0.00000096,-0.00
 000036,0.00000095,0.00000040,-0.00000038,0.00000037,0.00000036,0.00000
 096,-0.00000037,-0.00000024,0.00000018,-0.00000086,0.00000008,0.000000
 03,-0.00000045,-0.00000028,-0.00000011,0.00000082,-0.00000002,0.000000
 26,-0.00000030,0.00000027,-0.00000022,0.00000085,0.00000014,0.00000002
 ,-0.00000041,-0.00000016,-0.00000011,-0.00000033,-0.00000007,0.,0.0000
 0020,0.00000032,0.00000025,0.00000046,-0.00000025,0.00000002,0.0000000
 4,-0.00000044,-0.00000010,-0.00000022,0.00000028,0.00000028,-0.0000017
 7,0.00000092,0.00000079,0.00000167,-0.00000009,0.00000077,0.00000176,-
 0.00000043,0.00000073,-0.00000076,-0.00000060,0.00000034,-0.00000039,0
 .00000151,-0.00000459,0.00000184,0.00000408,0.00000060,0.00000171,0.00
 000397,0.00000129,-0.00000055,0.00000746,0.00000758,0.00000580,-0.0000
 2721,0.00000002,0.00005136,0.00003210,-0.00001055,0.04914942,0.0001316
 8,-0.00022583,-0.00001364,-0.00101489,-0.00039593,-0.00061186,0.000083
 92,-0.00023484,0.00014833,0.00024729,0.00004761,0.00015285,-0.00006564
 ,0.00001827,-0.00003685,0.00006919,-0.00005946,0.00004414,0.00002239,-
 0.00000966,0.00002124,0.00017757,0.00011472,0.00011523,-0.00029978,-0.
 00063036,-0.00023465,0.00184667,0.00133171,0.00108596,0.00002766,0.000
 57591,-0.00006725,-0.00268350,0.00042405,-0.00179812,0.00226769,-0.013
 91060,0.00167315,0.00141002,-0.00015075,0.00088402,-0.00004526,0.00003
 696,0.00108241,0.00002368,0.00034168,-0.00013533,0.00016601,0.00009082
 ,-0.00010824,0.00014325,-0.00017832,0.00014943,-0.00004279,-0.00003599
 ,-0.00004959,0.00002457,0.00001258,-0.00000100,-0.00000678,-0.00001319
 ,0.00001058,0.00000273,0.00000982,0.00000282,0.00000761,0.00001008,-0.
 00000244,-0.00000427,0.00000289,0.00000124,0.00000834,-0.00000435,0.00
 000544,-0.00000531,0.00000848,-0.00000544,-0.00000199,0.00000079,-0.00
 000039,0.00000041,-0.00000114,0.00000220,-0.00000200,-0.00000062,0.000
 00040,0.00000167,-0.00000032,-0.00000031,-0.00000018,-0.00000029,-0.00
 000022,0.00000066,0.00000031,-0.00000018,-0.00000044,0.00000037,0.0000
 0027,0.00000012,0.00000032,0.00000003,-0.00000018,-0.00000006,-0.00000
 032,0.00000010,-0.00000006,-0.00000016,-0.00000017,0.00000033,0.000000
 12,-0.00000019,-0.00000017,-0.00000022,0.00000017,-0.00000012,-0.00000
 008,-0.00000023,0.,0.00000008,0.00000010,-0.00000004,-0.00000012,0.000
 00006,-0.00000018,0.00000017,0.00000048,-0.00000011,-0.00000007,-0.000
 00023,0.00000004,-0.00000006,0.00000007,-0.00000017,-0.00000013,0.0000
 0023,0.00000018,0.00000003,-0.00000010,-0.00000004,-0.00000012,-0.0000
 0017,0.00000012,0.00000003,0.00000081,0.00000035,-0.00000057,0.0000013
 5,0.00000069,-0.00000127,0.00000102,-0.00000030,0.00000063,0.00000045,
 0.00000111,-0.00000101,-0.00000113,0.00000025,-0.00000003,-0.00000106,
 -0.00000056,0.00000169,0.00000098,0.00000333,-0.00000252,0.00000043,0.
 00000021,-0.00000012,-0.00000462,0.00000146,0.00000163,0.00000073,0.00
 000860,0.00000050,0.00000064,0.00000647,-0.00000645,0.00000838,0.00001
 109,-0.00001187,0.00001542,-0.00000582,-0.00000385,-0.00055652,0.00014
 201,-0.00005023,0.01498792,-0.33157512,0.00442714,0.00044068,-0.010733
 97,0.00031342,-0.00015357,0.00043802,-0.00003577,0.00000536,0.00001031
 ,-0.00002180,-0.00010631,0.00014648,0.00010348,0.00005746,0.00013709,-
 0.00013494,-0.00010947,0.00040607,-0.00011572,-0.00002487,0.00001483,0
 .00000922,0.00003537,0.00001823,0.00002263,0.00001006,-0.00000153,0.00
 000482,0.00002740,-0.00000589,0.00001749,-0.00001648,0.00000981,-0.000
 01412,0.00001371,-0.00012435,0.00000593,0.00012540,-0.00073260,0.00015
 932,0.00080341,0.00037561,0.00015746,-0.00003638,0.00003039,0.00003255
 ,0.00004025,0.00000540,-0.00002071,-0.00000773,0.00000846,-0.00000215,
 -0.00000171,-0.00000244,-0.00000119,0.00000272,-0.00000907,0.00000436,
 0.00000084,-0.00000002,-0.00000065,-0.00000030,-0.00000037,0.00000021,
 0.00000035,0.00000041,-0.00000009,0.00000025,0.00000001,-0.00000006,0.
 00000014,-0.00000013,0.00000023,-0.00000016,0.00000006,0.00000017,-0.0
 0000010,0.00000005,0.00000010,-0.00000015,0.,0.00000002,0.00000020,-0.
 00000004,0.00000006,-0.00000004,0.00000010,-0.00000009,0.00000022,0.00
 000002,0.,-0.00000013,0.00000006,0.00000003,-0.00000007,-0.00000005,-0
 .00000003,0.00000008,0.00000007,0.00000010,0.00000008,-0.00000008,0.00
 000003,-0.00000006,-0.00000006,0.00000004,0.00000003,0.00000006,0.0000
 0014,-0.00000044,0.00000034,0.00000015,0.00000049,-0.00000016,0.000000
 17,0.00000036,-0.00000025,0.00000005,-0.00000031,-0.00000020,-0.000000
 35,0.00000015,-0.00000010,-0.00000118,0.00000047,0.00000154,0.00000044
 ,0.00000107,0.00000119,0.00000174,0.00000073,0.00000628,0.00000924,0.0
 0000644,-0.00002153,0.00001098,0.00008240,0.00002646,-0.00001970,-0.01
 814291,0.35422626,-0.00050730,0.00032045,-0.00017353,0.00217265,-0.000
 16093,-0.00249911,0.00013101,-0.00002413,0.00021074,0.00012543,0.00014
 153,-0.00013652,0.00001016,-0.00007213,0.00005465,-0.00001027,0.000020
 42,-0.00001938,-0.00001925,0.00004515,0.00001298,-0.00010442,-0.000080
 39,-0.00025577,0.00009414,0.00072278,0.00011812,-0.00571687,0.00049848
 ,0.00418838,-0.00002466,-0.00008227,-0.00057613,-0.00478484,-0.0008518
 4,0.00308794,0.00202275,-0.01351828,0.00487718,0.00148471,0.00031892,-
 0.00265196,-0.00129948,-0.00047898,-0.00063642,0.00034188,0.00025164,-
 0.00003221,-0.00009131,-0.00013832,0.00004270,-0.00001146,0.00031919,-
 0.00006406,-0.00003739,-0.00005216,-0.00000918,0.00003854,0.00003402,-
 0.00000514,-0.00003732,0.00000569,0.00002001,0.00003463,-0.00001180,-0
 .00001710,0.00000978,0.00000234,-0.00000772,-0.00000644,-0.00000200,0.
 00000347,0.00001219,-0.00000577,0.00000960,-0.00000373,0.00000742,-0.0
 0001553,-0.00000339,0.00000017,-0.00000088,0.00000063,-0.00000288,0.00
 000517,-0.00000489,-0.00000172,0.00000114,0.00000334,-0.00000039,-0.00
 000071,-0.00000022,-0.00000038,-0.00000089,0.00000201,0.00000009,-0.00
 000053,-0.00000193,0.00000149,0.00000086,-0.00000063,0.00000176,0.0000
 0039,0.00000083,-0.00000067,-0.00000101,0.00000032,0.00000064,0.000000
 14,0.00000005,0.00000017,0.00000010,-0.00000034,-0.00000076,-0.0000007
 3,0.00000040,-0.00000062,-0.00000019,-0.00000059,-0.00000008,0.0000001
 1,0.00000020,0.,-0.00000004,0.00000017,-0.00000017,0.00000029,0.000001
 15,0.00000005,-0.00000002,-0.00000054,-0.00000002,-0.00000018,0.000000
 33,-0.00000060,-0.00000037,0.00000049,0.00000040,0.00000009,0.00000043
 ,0.00000029,0.00000003,-0.00000109,0.00000027,-0.00000004,0.00000254,0
 .00000130,-0.00000220,0.00000414,0.00000207,-0.00000290,0.00000230,-0.
 00000123,0.00000127,0.00000184,0.00000178,-0.00000247,-0.00000287,0.00
 000005,-0.00000124,-0.00000159,-0.00000324,0.00000443,0.00000058,0.000
 00844,-0.00000831,-0.00000119,0.00000995,-0.00000012,0.00000158,0.0000
 0040,-0.00000201,-0.00000292,0.00000446,-0.00000044,0.00000537,0.00000
 647,-0.00000495,-0.00000373,0.00000292,-0.00000133,0.00003124,-0.00000
 551,-0.00000284,0.00053556,-0.00004630,0.00035791,-0.00960808,0.005096
 28,-0.04336231,-0.00022810,0.01566600,0.00411657,-0.00016959,-0.000547
 28,-0.00045692,-0.00006273,0.00002051,-0.00000216,0.00026140,-0.000338
 53,0.00005868,-0.00001089,0.00015712,-0.00012889,-0.00005187,0.0001310
 4,0.00012554,0.00011315,-0.00006265,0.00003637,-0.00002383,-0.00000122
 ,-0.00001531,0.00000489,-0.00000631,-0.00000359,-0.00003115,0.00000026
 ,0.00000438,0.00000721,-0.00000405,0.00000460,0.00056463,0.00003312,-0
 .00082916,0.00001184,-0.00071935,0.00029710,-0.00064911,0.00055662,-0.
 00142070,-0.00000672,-0.00001488,-0.00002528,0.00003801,0.00002000,0.0
 0002035,-0.00000595,0.00000085,0.00000554,-0.00000571,-0.00000175,0.00
 000323,0.00000044,-0.00000859,0.00001715,0.00000134,0.00000122,-0.0000
 0076,-0.00000032,-0.00000101,0.00000055,0.00000052,0.00000059,0.,0.000
 00066,0.00000029,-0.00000005,0.,0.00000035,0.00000084,0.,-0.00000044,0
 .00000015,-0.00000059,-0.00000011,0.00000004,-0.00000018,-0.00000028,-
 0.00000007,0.00000031,0.,0.00000010,-0.00000011,0.00000024,-0.00000009
 ,0.00000033,0.00000009,0.00000004,-0.00000014,-0.00000015,-0.00000001,
 -0.00000015,-0.00000003,-0.00000013,0.00000003,0.00000008,0.00000015,0
 .00000018,-0.00000013,0.00000008,0.00000011,-0.00000030,0.00000003,-0.
 00000022,0.00000003,0.00000020,-0.00000101,0.00000058,0.00000094,0.000
 00112,0.00000002,0.00000078,0.00000094,-0.00000004,0.00000056,-0.00000
 072,0.00000019,0.00000012,-0.00000025,0.00000143,-0.00000263,0.0000016
 7,0.00000321,0.00000098,0.00000186,0.00000280,0.00000167,-0.00000042,0
 .00000275,0.00000622,0.00000988,-0.00001781,0.00000147,0.00010129,-0.0
 0000528,-0.00006790,0.01534339,-0.00715308,0.03574796\\0.00000051,-0.0
 0000404,-0.00000272,0.00000242,0.00000601,0.00000098,-0.00000283,-0.00
 000423,0.00000260,-0.00000209,-0.00000270,-0.00000106,0.00000236,0.000
 00023,0.00000157,0.00000178,-0.00000008,0.00000101,0.00000111,-0.00000
 268,0.00000042,-0.00000149,-0.00000139,-0.00000151,0.00000353,-0.00000
 191,0.00000295,-0.00000472,0.00000440,-0.00000455,-0.00000028,-0.00000
 282,0.00000055,-0.00000138,-0.00000322,0.00000011,0.00000063,-0.000001
 05,0.00000107,-0.00000028,0.00000202,-0.00000079,0.00000096,0.00000264
 ,-0.00000067,0.00000263,0.00000179,-0.00000007,0.00000003,-0.00000071,
 -0.00000181,-0.00000011,0.00000206,0.00000158,-0.00000234,-0.00000154,
 -0.00000195,0.00000576,0.00000134,0.00000282,-0.00000563,0.00000639,0.
 00000614,0.00000323,-0.00000350,-0.00000386,-0.00000329,-0.00000743,0.
 00000108,0.00000227,0.00000850,-0.00000685,0.00000586,-0.00000297,0.00
 000911,-0.00000437,0.00000032,-0.00000537,-0.00000265,-0.00000097,0.00
 000004,-0.00000329,-0.00000286,0.00000137,0.00000569,0.00000345,-0.000
 00192,-0.00000004,-0.00000036,0.00000118,-0.00000218,-0.00000160,0.000
 00018,-0.00000249,-0.00000348,-0.00000041,0.00000279,-0.00000155,-0.00
 000051,-0.00000228,0.00000122,-0.00000064,0.00000326,0.00000173,0.0000
 0134,-0.00000058,0.00000293,0.00000099,0.00000538,-0.00000636,-0.00000
 093,-0.00000205,0.00000185,0.00000144,0.00000020,-0.00000217,-0.000001
 73,-0.00000361,-0.00000439,-0.00000291,0.00000156,0.00000161,0.0000043
 0,0.00000258,0.00000419,-0.00000124,0.00000269,0.00000102,0.00000107,-
 0.00000279,0.00000016,-0.00000025,-0.00000205,0.00000013,0.00000023,-0
 .00000078,0.00000202,0.00000150,0.00000212,-0.00000007,0.00000099,-0.0
 0000398,0.00000284,0.00000062,-0.00000154,0.00000085,0.00000061,-0.000
 00028,0.00000183,-0.00000262,0.00000076,-0.00000041,0.00000163,-0.0000
 0118,0.00000304,-0.00000376,-0.00000176,0.00000163,-0.00000247,0.00000
 208,0.00000105,0.00000193,-0.00000122,-0.00000350,0.00000172,0.0000013
 2,0.00000300,-0.00000090,-0.00000164,0.00000044,0.00000105,0.00000093,
 -0.00000136,-0.00000187,0.00000159,-0.00000268,-0.00000218,0.00000073,
 0.00000405,0.00000285,-0.00000099,-0.00000098,-0.00000282,-0.00000301,
 -0.00000253,0.00000090,-0.00000132,0.00000245,-0.00000016,0.00000242,-
 0.00000232,0.00000082,0.00000091,-0.00000098,0.00000205,0.00000093,0.0
 0000143,-0.00000011,-0.00000170,-0.00000026,0.00000039,-0.00000078,0.0
 0000007,-0.00000105,0.00000163,-0.00000067,0.00000067,0.00000014,0.000
 00202,0.00000126,-0.00000069,-0.00000152,-0.00000027,-0.00000117,-0.00
 000051,-0.00000094,-0.00000083,0.00000037,-0.00000097,0.00000101,0.000
 00024,0.00000015,0.00000065,0.00000138,-0.00000027,0.00000178,0.000001
 38,-0.00000010,-0.00000153,-0.00000099,0.00000084,-0.00000155,-0.00000
 087,0.00000094,0.00000033,0.00000020,0.00000119,-0.00000063,-0.0000010
 1,-0.00000072,-0.00000064,-0.00000156,0.00000069,0.00000109,0.00000160
 ,-0.00000127,0.00000087,0.00000062,-0.00000121,-0.00000095,0.00000018,
 -0.00000090,0.00000171,0.00000104,-0.00000159,0.00000136,0.00000158,-0
 .00000037,-0.00000157,-0.00000122,-0.00000020,-0.00000097,-0.00000135,
 -0.00000006,0.00000118,0.00000122,0.00000069,-0.00000130,0.00000159,-0
 .00000072,0.00000160,-0.00000012,-0.00000101,-0.00000127,-0.00000162,-
 0.00000011,0.00000124,-0.00000119,0.00000038,-0.00000134,0.00000052,0.
 00000052,-0.00000107,-0.00000151,-0.00000189,0.00000102,0.00000055,0.0
 0000063,0.00000130,-0.00000079,0.00000039,0.00000063,-0.00000143,0.000
 00021,-0.00000128,-0.00000054,0.00000034,-0.00000158,-0.00000147,0.000
 00109,0.00000161,0.00000063,-0.00000227,0.00000064,0.00000005,0.000001
 75,0.00000069,0.00000017,0.00000174,-0.00000029,0.00000017,0.00000031,
 0.00000029,0.00000073,0.00000005,-0.00000064,0.00000170,-0.00000003,-0
 .00000066,0.00000192,0.00000052,0.00000088,0.00000151,0.00000156,0.000
 00014,-0.00000051,-0.00000266,0.00000011,-0.00000209,0.00000013\\\@
 The archive entry for this job was punched.


 IF AT FIRST YOU DON'T SUCCEED, TRY, TRY AGAIN.
 THEN GIVE UP;
 THERE'S NO USE BEING A DAMN FOOL ABOUT IT.

                                 -- W. C. FIELDS
 Job cpu time:       0 days 20 hours 28 minutes 58.0 seconds.
 Elapsed time:       0 days  0 hours 38 minutes 35.7 seconds.
 File lengths (MBytes):  RWF=  11519 Int=      0 D2E=      0 Chk=     86 Scr=      1
 Normal termination of Gaussian 16 at Mon Mar 24 01:19:59 2025.
