 Entering Gaussian System, Link 0=g16
 Initial command:
 /public/software/apps/Gaussian/g16/l1.exe "/tmp/Gau-129590.inp" -scrdir="/tmp/"
 Entering Link 1 = /public/software/apps/Gaussian/g16/l1.exe PID=    129591.
  
 Copyright (c) 1988-2019, Gaussian, Inc.  All Rights Reserved.
  
 This is part of the Gaussian(R) 16 program.  It is based on
 the Gaussian(R) 09 system (copyright 2009, Gaussian, Inc.),
 the Gaussian(R) 03 system (copyright 2003, Gaussian, Inc.),
 the Gaussian(R) 98 system (copyright 1998, Gaussian, Inc.),
 the Gaussian(R) 94 system (copyright 1995, Gaussian, Inc.),
 the Gaussian 92(TM) system (copyright 1992, Gaussian, Inc.),
 the Gaussian 90(TM) system (copyright 1990, Gaussian, Inc.),
 the Gaussian 88(TM) system (copyright 1988, Gaussian, Inc.),
 the Gaussian 86(TM) system (copyright 1986, Carnegie Mellon
 University), and the Gaussian 82(TM) system (copyright 1983,
 Carnegie Mellon University). Gaussian is a federally registered
 trademark of Gaussian, Inc.
  
 This software contains proprietary and confidential information,
 including trade secrets, belonging to Gaussian, Inc.
  
 This software is provided under written license and may be
 used, copied, transmitted, or stored only in accord with that
 written license.
  
 The following legend is applicable only to US Government
 contracts under FAR:
  
                    RESTRICTED RIGHTS LEGEND
  
 Use, reproduction and disclosure by the US Government is
 subject to restrictions as set forth in subparagraphs (a)
 and (c) of the Commercial Computer Software - Restricted
 Rights clause in FAR 52.227-19.
  
 Gaussian, Inc.
 340 Quinnipiac St., Bldg. 40, Wallingford CT 06492
  
  
 ---------------------------------------------------------------
 Warning -- This program may not be used in any manner that
 competes with the business of Gaussian, Inc. or will provide
 assistance to any competitor of Gaussian, Inc.  The licensee
 of this program is prohibited from giving any competitor of
 Gaussian, Inc. access to this program.  By using this program,
 the user acknowledges that Gaussian, Inc. is engaged in the
 business of creating and licensing software in the field of
 computational chemistry and represents and warrants to the
 licensee that it is not a competitor of Gaussian, Inc. and that
 it will not use this program in any manner prohibited above.
 ---------------------------------------------------------------
  

 Cite this work as:
 Gaussian 16, Revision C.01,
 M. J. Frisch, G. W. Trucks, H. B. Schlegel, G. E. Scuseria, 
 M. A. Robb, J. R. Cheeseman, G. Scalmani, V. Barone, 
 G. A. Petersson, H. Nakatsuji, X. Li, M. Caricato, A. V. Marenich, 
 J. Bloino, B. G. Janesko, R. Gomperts, B. Mennucci, H. P. Hratchian, 
 J. V. Ortiz, A. F. Izmaylov, J. L. Sonnenberg, D. Williams-Young, 
 F. Ding, F. Lipparini, F. Egidi, J. Goings, B. Peng, A. Petrone, 
 T. Henderson, D. Ranasinghe, V. G. Zakrzewski, J. Gao, N. Rega, 
 G. Zheng, W. Liang, M. Hada, M. Ehara, K. Toyota, R. Fukuda, 
 J. Hasegawa, M. Ishida, T. Nakajima, Y. Honda, O. Kitao, H. Nakai, 
 T. Vreven, K. Throssell, J. A. Montgomery, Jr., J. E. Peralta, 
 F. Ogliaro, M. J. Bearpark, J. J. Heyd, E. N. Brothers, K. N. Kudin, 
 V. N. Staroverov, T. A. Keith, R. Kobayashi, J. Normand, 
 K. Raghavachari, A. P. Rendell, J. C. Burant, S. S. Iyengar, 
 J. Tomasi, M. Cossi, J. M. Millam, M. Klene, C. Adamo, R. Cammi, 
 J. W. Ochterski, R. L. Martin, K. Morokuma, O. Farkas, 
 J. B. Foresman, and D. J. Fox, Gaussian, Inc., Wallingford CT, 2019.
 
 ******************************************
 Gaussian 16:  ES64L-G16RevC.01  3-Jul-2019
                24-Mar-2025 
 ******************************************
 %nprocshared=32
 Will use up to   32 processors via shared memory.
 %mem=100GB
 ------------------------------------------
 #p opt freq b3lyp/def2svpp em=gd3bj nosymm
 ------------------------------------------
 1/18=20,19=15,26=3,38=1/1,3;
 2/9=110,12=2,15=1,17=6,18=5,40=1/2;
 3/5=43,7=202,11=2,25=1,30=1,71=1,74=-5,124=41/1,2,3;
 4//1;
 5/5=2,38=5/2;
 6/7=2,8=2,9=2,10=2,28=1/1;
 7/30=1/1,2,3,16;
 1/18=20,19=15,26=3/3(2);
 2/9=110,15=1/2;
 99//99;
 2/9=110,15=1/2;
 3/5=43,7=202,11=2,25=1,30=1,71=1,74=-5,124=41/1,2,3;
 4/5=5,16=3,69=1/1;
 5/5=2,38=5/2;
 7/30=1/1,2,3,16;
 1/18=20,19=15,26=3/3(-5);
 2/9=110,15=1/2;
 6/7=2,8=2,9=2,10=2,19=2,28=1/1;
 99/9=1/99;
 Leave Link    1 at Mon Mar 24 00:08:17 2025, MaxMem= 13421772800 cpu:               2.1 elap:               0.1
 (Enter /public/software/apps/Gaussian/g16/l101.exe)
 ----------------------
 $$$$Singlemol####0????
 ----------------------
 Symbolic Z-matrix:
 Charge =  0 Multiplicity = 1
 C                    -6.52474   4.34983   2.17983 
 C                    -5.55788   4.49079   1.00995 
 C                    -5.91403   3.596    -0.17767 
 C                    -5.73667   2.10752   0.1129 
 C                    -5.99593   1.25651  -1.1273 
 C                    -5.8072   -0.2416   -0.85329 
 C                    -4.3832   -0.55608  -0.49916 
 C                    -3.40308  -0.56977  -1.51034 
 C                    -2.09191  -0.81921  -1.22379 
 C                    -1.67623  -1.0733    0.10188 
 C                    -0.32046  -1.3334    0.43115 
 C                     0.71507  -1.43181  -0.62957 
 C                     0.7222   -2.5241   -1.4776 
 O                    -0.2091   -3.51087  -1.40494 
 C                     1.72701  -2.6635   -2.45422 
 C                     2.70975  -1.72582  -2.57465 
 C                     2.73755  -0.59323  -1.73439 
 C                     3.75384   0.37815  -1.82663 
 C                     3.78866   1.46555  -0.99308 
 C                     4.9047    2.46916  -1.03795 
 C                     5.71093   2.53848   0.26865 
 C                     6.76956   1.44475   0.42699 
 C                     6.24896   0.00738   0.46737 
 C                     5.29042  -0.27936   1.61999 
 C                     4.82534  -1.73081   1.60047 
 C                     2.73972   1.63848  -0.06818 
 C                     1.73745   0.71945   0.04964 
 C                     1.72101  -0.4397   -0.75645 
 C                     0.03662  -1.52982   1.75284 
 O                     1.31569  -1.77689   2.13643 
 C                    -0.93894  -1.49785   2.7681 
 C                    -2.24797  -1.26947   2.46313 
 C                    -2.65344  -1.0462    1.13058 
 C                    -3.99732  -0.79013   0.79478 
 H                    -6.47745   3.35204   2.60778 
 H                    -6.27756   5.06454   2.96167 
 H                    -7.54563   4.53819   1.85424 
 H                    -5.56116   5.5309    0.67481 
 H                    -4.54523   4.25532   1.3454 
 H                    -5.27311   3.86516  -1.02126 
 H                    -6.94791   3.78752  -0.47551 
 H                    -4.71822   1.92884   0.46558 
 H                    -6.4241    1.80061   0.90302 
 H                    -5.31529   1.56423  -1.92444 
 H                    -7.01712   1.42758  -1.47619 
 H                    -6.4678   -0.5438   -0.03821 
 H                    -6.09096  -0.80177  -1.74778 
 H                    -3.70322  -0.37871  -2.53072 
 H                    -1.35361  -0.81528  -2.01286 
 H                    -0.86071  -3.29128  -0.72448 
 H                     1.69132  -3.53471  -3.08883 
 H                     3.48412  -1.84163  -3.3187 
 H                     4.52323   0.24089  -2.57492 
 H                     4.47036   3.45648  -1.22207 
 H                     5.57798   2.2413   -1.86659 
 H                     5.02964   2.51525   1.11962 
 H                     6.23085   3.49984   0.29645 
 H                     7.3199    1.64342   1.35104 
 H                     7.4808    1.52767  -0.39948 
 H                     7.11054  -0.66026   0.55652 
 H                     5.7502   -0.22845  -0.47229 
 H                     5.78615  -0.06588   2.56976 
 H                     4.4165    0.36855   1.54394 
 H                     4.12393  -1.92077   2.40949 
 H                     4.33753  -1.95604   0.65285 
 H                     5.6707   -2.4063    1.7136 
 H                     2.73178   2.52167   0.55486 
 H                     0.93974   0.87349   0.76216 
 H                     1.90338  -1.7295    1.36883 
 H                    -0.61155  -1.66423   3.78213 
 H                    -2.99379  -1.25097   3.24408 
 H                    -4.72953  -0.77699   1.59029 
 
 ITRead=  0  0  0  0  0  0  0  0  0  0  0  0  0  0  0  0  0  0  0  0
 ITRead=  0  0  0  0  0  0  0  0  0  0  0  0  0  0  0  0  0  0  0  0
 ITRead=  0  0  0  0  0  0  0  0  0  0  0  0  0  0  0  0  0  0  0  0
 ITRead=  0  0  0  0  0  0  0  0  0  0  0  0
 MicOpt= -1 -1 -1 -1 -1 -1 -1 -1 -1 -1 -1 -1 -1 -1 -1 -1 -1 -1 -1 -1
 MicOpt= -1 -1 -1 -1 -1 -1 -1 -1 -1 -1 -1 -1 -1 -1 -1 -1 -1 -1 -1 -1
 MicOpt= -1 -1 -1 -1 -1 -1 -1 -1 -1 -1 -1 -1 -1 -1 -1 -1 -1 -1 -1 -1
 MicOpt= -1 -1 -1 -1 -1 -1 -1 -1 -1 -1 -1 -1
 NAtoms=     72 NQM=       72 NQMF=       0 NMMI=      0 NMMIF=      0
                NMic=       0 NMicF=      0.
                    Isotopes and Nuclear Properties:
 (Nuclear quadrupole moments (NQMom) in fm**2, nuclear magnetic moments (NMagM)
  in nuclear magnetons)

  Atom         1           2           3           4           5           6           7           8           9          10
 IAtWgt=          12          12          12          12          12          12          12          12          12          12
 AtmWgt=  12.0000000  12.0000000  12.0000000  12.0000000  12.0000000  12.0000000  12.0000000  12.0000000  12.0000000  12.0000000
 NucSpn=           0           0           0           0           0           0           0           0           0           0
 AtZEff=  -0.0000000  -0.0000000  -0.0000000  -0.0000000  -0.0000000  -0.0000000  -0.0000000  -0.0000000  -0.0000000  -0.0000000
 NQMom=    0.0000000   0.0000000   0.0000000   0.0000000   0.0000000   0.0000000   0.0000000   0.0000000   0.0000000   0.0000000
 NMagM=    0.0000000   0.0000000   0.0000000   0.0000000   0.0000000   0.0000000   0.0000000   0.0000000   0.0000000   0.0000000
 AtZNuc=   6.0000000   6.0000000   6.0000000   6.0000000   6.0000000   6.0000000   6.0000000   6.0000000   6.0000000   6.0000000

  Atom        11          12          13          14          15          16          17          18          19          20
 IAtWgt=          12          12          12          16          12          12          12          12          12          12
 AtmWgt=  12.0000000  12.0000000  12.0000000  15.9949146  12.0000000  12.0000000  12.0000000  12.0000000  12.0000000  12.0000000
 NucSpn=           0           0           0           0           0           0           0           0           0           0
 AtZEff=  -0.0000000  -0.0000000  -0.0000000  -0.0000000  -0.0000000  -0.0000000  -0.0000000  -0.0000000  -0.0000000  -0.0000000
 NQMom=    0.0000000   0.0000000   0.0000000   0.0000000   0.0000000   0.0000000   0.0000000   0.0000000   0.0000000   0.0000000
 NMagM=    0.0000000   0.0000000   0.0000000   0.0000000   0.0000000   0.0000000   0.0000000   0.0000000   0.0000000   0.0000000
 AtZNuc=   6.0000000   6.0000000   6.0000000   8.0000000   6.0000000   6.0000000   6.0000000   6.0000000   6.0000000   6.0000000

  Atom        21          22          23          24          25          26          27          28          29          30
 IAtWgt=          12          12          12          12          12          12          12          12          12          16
 AtmWgt=  12.0000000  12.0000000  12.0000000  12.0000000  12.0000000  12.0000000  12.0000000  12.0000000  12.0000000  15.9949146
 NucSpn=           0           0           0           0           0           0           0           0           0           0
 AtZEff=  -0.0000000  -0.0000000  -0.0000000  -0.0000000  -0.0000000  -0.0000000  -0.0000000  -0.0000000  -0.0000000  -0.0000000
 NQMom=    0.0000000   0.0000000   0.0000000   0.0000000   0.0000000   0.0000000   0.0000000   0.0000000   0.0000000   0.0000000
 NMagM=    0.0000000   0.0000000   0.0000000   0.0000000   0.0000000   0.0000000   0.0000000   0.0000000   0.0000000   0.0000000
 AtZNuc=   6.0000000   6.0000000   6.0000000   6.0000000   6.0000000   6.0000000   6.0000000   6.0000000   6.0000000   8.0000000

  Atom        31          32          33          34          35          36          37          38          39          40
 IAtWgt=          12          12          12          12           1           1           1           1           1           1
 AtmWgt=  12.0000000  12.0000000  12.0000000  12.0000000   1.0078250   1.0078250   1.0078250   1.0078250   1.0078250   1.0078250
 NucSpn=           0           0           0           0           1           1           1           1           1           1
 AtZEff=  -0.0000000  -0.0000000  -0.0000000  -0.0000000  -0.0000000  -0.0000000  -0.0000000  -0.0000000  -0.0000000  -0.0000000
 NQMom=    0.0000000   0.0000000   0.0000000   0.0000000   0.0000000   0.0000000   0.0000000   0.0000000   0.0000000   0.0000000
 NMagM=    0.0000000   0.0000000   0.0000000   0.0000000   2.7928460   2.7928460   2.7928460   2.7928460   2.7928460   2.7928460
 AtZNuc=   6.0000000   6.0000000   6.0000000   6.0000000   1.0000000   1.0000000   1.0000000   1.0000000   1.0000000   1.0000000

  Atom        41          42          43          44          45          46          47          48          49          50
 IAtWgt=           1           1           1           1           1           1           1           1           1           1
 AtmWgt=   1.0078250   1.0078250   1.0078250   1.0078250   1.0078250   1.0078250   1.0078250   1.0078250   1.0078250   1.0078250
 NucSpn=           1           1           1           1           1           1           1           1           1           1
 AtZEff=  -0.0000000  -0.0000000  -0.0000000  -0.0000000  -0.0000000  -0.0000000  -0.0000000  -0.0000000  -0.0000000  -0.0000000
 NQMom=    0.0000000   0.0000000   0.0000000   0.0000000   0.0000000   0.0000000   0.0000000   0.0000000   0.0000000   0.0000000
 NMagM=    2.7928460   2.7928460   2.7928460   2.7928460   2.7928460   2.7928460   2.7928460   2.7928460   2.7928460   2.7928460
 AtZNuc=   1.0000000   1.0000000   1.0000000   1.0000000   1.0000000   1.0000000   1.0000000   1.0000000   1.0000000   1.0000000

  Atom        51          52          53          54          55          56          57          58          59          60
 IAtWgt=           1           1           1           1           1           1           1           1           1           1
 AtmWgt=   1.0078250   1.0078250   1.0078250   1.0078250   1.0078250   1.0078250   1.0078250   1.0078250   1.0078250   1.0078250
 NucSpn=           1           1           1           1           1           1           1           1           1           1
 AtZEff=  -0.0000000  -0.0000000  -0.0000000  -0.0000000  -0.0000000  -0.0000000  -0.0000000  -0.0000000  -0.0000000  -0.0000000
 NQMom=    0.0000000   0.0000000   0.0000000   0.0000000   0.0000000   0.0000000   0.0000000   0.0000000   0.0000000   0.0000000
 NMagM=    2.7928460   2.7928460   2.7928460   2.7928460   2.7928460   2.7928460   2.7928460   2.7928460   2.7928460   2.7928460
 AtZNuc=   1.0000000   1.0000000   1.0000000   1.0000000   1.0000000   1.0000000   1.0000000   1.0000000   1.0000000   1.0000000

  Atom        61          62          63          64          65          66          67          68          69          70
 IAtWgt=           1           1           1           1           1           1           1           1           1           1
 AtmWgt=   1.0078250   1.0078250   1.0078250   1.0078250   1.0078250   1.0078250   1.0078250   1.0078250   1.0078250   1.0078250
 NucSpn=           1           1           1           1           1           1           1           1           1           1
 AtZEff=  -0.0000000  -0.0000000  -0.0000000  -0.0000000  -0.0000000  -0.0000000  -0.0000000  -0.0000000  -0.0000000  -0.0000000
 NQMom=    0.0000000   0.0000000   0.0000000   0.0000000   0.0000000   0.0000000   0.0000000   0.0000000   0.0000000   0.0000000
 NMagM=    2.7928460   2.7928460   2.7928460   2.7928460   2.7928460   2.7928460   2.7928460   2.7928460   2.7928460   2.7928460
 AtZNuc=   1.0000000   1.0000000   1.0000000   1.0000000   1.0000000   1.0000000   1.0000000   1.0000000   1.0000000   1.0000000

  Atom        71          72
 IAtWgt=           1           1
 AtmWgt=   1.0078250   1.0078250
 NucSpn=           1           1
 AtZEff=  -0.0000000  -0.0000000
 NQMom=    0.0000000   0.0000000
 NMagM=    2.7928460   2.7928460
 AtZNuc=   1.0000000   1.0000000
 Leave Link  101 at Mon Mar 24 00:08:17 2025, MaxMem= 13421772800 cpu:               3.4 elap:               0.1
 (Enter /public/software/apps/Gaussian/g16/l103.exe)

 GradGradGradGradGradGradGradGradGradGradGradGradGradGradGradGradGradGrad
 Berny optimization.
 Initialization pass.
                           ----------------------------
                           !    Initial Parameters    !
                           ! (Angstroms and Degrees)  !
 --------------------------                            --------------------------
 ! Name  Definition              Value          Derivative Info.                !
 --------------------------------------------------------------------------------
 ! R1    R(1,2)                  1.5242         estimate D2E/DX2                !
 ! R2    R(1,35)                 1.0867         estimate D2E/DX2                !
 ! R3    R(1,36)                 1.0877         estimate D2E/DX2                !
 ! R4    R(1,37)                 1.088          estimate D2E/DX2                !
 ! R5    R(2,3)                  1.529          estimate D2E/DX2                !
 ! R6    R(2,38)                 1.0928         estimate D2E/DX2                !
 ! R7    R(2,39)                 1.0924         estimate D2E/DX2                !
 ! R8    R(3,4)                  1.5269         estimate D2E/DX2                !
 ! R9    R(3,40)                 1.0931         estimate D2E/DX2                !
 ! R10   R(3,41)                 1.0928         estimate D2E/DX2                !
 ! R11   R(4,5)                  1.5263         estimate D2E/DX2                !
 ! R12   R(4,42)                 1.0925         estimate D2E/DX2                !
 ! R13   R(4,43)                 1.0913         estimate D2E/DX2                !
 ! R14   R(5,6)                  1.5346         estimate D2E/DX2                !
 ! R15   R(5,44)                 1.0924         estimate D2E/DX2                !
 ! R16   R(5,45)                 1.0926         estimate D2E/DX2                !
 ! R17   R(6,7)                  1.5007         estimate D2E/DX2                !
 ! R18   R(6,46)                 1.0918         estimate D2E/DX2                !
 ! R19   R(6,47)                 1.0929         estimate D2E/DX2                !
 ! R20   R(7,8)                  1.4083         estimate D2E/DX2                !
 ! R21   R(7,34)                 1.3704         estimate D2E/DX2                !
 ! R22   R(8,9)                  1.3651         estimate D2E/DX2                !
 ! R23   R(8,48)                 1.0806         estimate D2E/DX2                !
 ! R24   R(9,10)                 1.4124         estimate D2E/DX2                !
 ! R25   R(9,49)                 1.0806         estimate D2E/DX2                !
 ! R26   R(10,11)                1.4192         estimate D2E/DX2                !
 ! R27   R(10,33)                1.4191         estimate D2E/DX2                !
 ! R28   R(11,12)                1.4856         estimate D2E/DX2                !
 ! R29   R(11,29)                1.3831         estimate D2E/DX2                !
 ! R30   R(12,13)                1.3829         estimate D2E/DX2                !
 ! R31   R(12,28)                1.4186         estimate D2E/DX2                !
 ! R32   R(13,14)                1.3588         estimate D2E/DX2                !
 ! R33   R(13,15)                1.4081         estimate D2E/DX2                !
 ! R34   R(14,50)                0.9674         estimate D2E/DX2                !
 ! R35   R(15,16)                1.3636         estimate D2E/DX2                !
 ! R36   R(15,51)                1.0784         estimate D2E/DX2                !
 ! R37   R(16,17)                1.4105         estimate D2E/DX2                !
 ! R38   R(16,52)                1.0801         estimate D2E/DX2                !
 ! R39   R(17,18)                1.4089         estimate D2E/DX2                !
 ! R40   R(17,28)                1.4189         estimate D2E/DX2                !
 ! R41   R(18,19)                1.3706         estimate D2E/DX2                !
 ! R42   R(18,53)                1.082          estimate D2E/DX2                !
 ! R43   R(19,20)                1.5016         estimate D2E/DX2                !
 ! R44   R(19,26)                1.4091         estimate D2E/DX2                !
 ! R45   R(20,21)                1.5369         estimate D2E/DX2                !
 ! R46   R(20,54)                1.0942         estimate D2E/DX2                !
 ! R47   R(20,55)                1.0917         estimate D2E/DX2                !
 ! R48   R(21,22)                1.5304         estimate D2E/DX2                !
 ! R49   R(21,56)                1.0903         estimate D2E/DX2                !
 ! R50   R(21,57)                1.0933         estimate D2E/DX2                !
 ! R51   R(22,23)                1.5293         estimate D2E/DX2                !
 ! R52   R(22,58)                1.0937         estimate D2E/DX2                !
 ! R53   R(22,59)                1.0935         estimate D2E/DX2                !
 ! R54   R(23,24)                1.5263         estimate D2E/DX2                !
 ! R55   R(23,60)                1.0936         estimate D2E/DX2                !
 ! R56   R(23,61)                1.0897         estimate D2E/DX2                !
 ! R57   R(24,25)                1.5243         estimate D2E/DX2                !
 ! R58   R(24,62)                1.0924         estimate D2E/DX2                !
 ! R59   R(24,63)                1.0906         estimate D2E/DX2                !
 ! R60   R(25,64)                1.0875         estimate D2E/DX2                !
 ! R61   R(25,65)                1.0893         estimate D2E/DX2                !
 ! R62   R(25,66)                1.088          estimate D2E/DX2                !
 ! R63   R(26,27)                1.3649         estimate D2E/DX2                !
 ! R64   R(26,67)                1.0809         estimate D2E/DX2                !
 ! R65   R(27,28)                1.412          estimate D2E/DX2                !
 ! R66   R(27,68)                1.0806         estimate D2E/DX2                !
 ! R67   R(29,30)                1.358          estimate D2E/DX2                !
 ! R68   R(29,31)                1.4084         estimate D2E/DX2                !
 ! R69   R(30,69)                0.9679         estimate D2E/DX2                !
 ! R70   R(31,32)                1.3633         estimate D2E/DX2                !
 ! R71   R(31,70)                1.0785         estimate D2E/DX2                !
 ! R72   R(32,33)                1.4106         estimate D2E/DX2                !
 ! R73   R(32,71)                1.08           estimate D2E/DX2                !
 ! R74   R(33,34)                1.4087         estimate D2E/DX2                !
 ! R75   R(34,72)                1.0813         estimate D2E/DX2                !
 ! A1    A(2,1,35)             111.0732         estimate D2E/DX2                !
 ! A2    A(2,1,36)             110.2895         estimate D2E/DX2                !
 ! A3    A(2,1,37)             110.4567         estimate D2E/DX2                !
 ! A4    A(35,1,36)            108.0804         estimate D2E/DX2                !
 ! A5    A(35,1,37)            108.5205         estimate D2E/DX2                !
 ! A6    A(36,1,37)            108.3348         estimate D2E/DX2                !
 ! A7    A(1,2,3)              113.2204         estimate D2E/DX2                !
 ! A8    A(1,2,38)             108.7543         estimate D2E/DX2                !
 ! A9    A(1,2,39)             109.4128         estimate D2E/DX2                !
 ! A10   A(3,2,38)             108.5476         estimate D2E/DX2                !
 ! A11   A(3,2,39)             109.1646         estimate D2E/DX2                !
 ! A12   A(38,2,39)            107.5845         estimate D2E/DX2                !
 ! A13   A(2,3,4)              113.304          estimate D2E/DX2                !
 ! A14   A(2,3,40)             108.5868         estimate D2E/DX2                !
 ! A15   A(2,3,41)             109.2379         estimate D2E/DX2                !
 ! A16   A(4,3,40)             108.5903         estimate D2E/DX2                !
 ! A17   A(4,3,41)             109.4262         estimate D2E/DX2                !
 ! A18   A(40,3,41)            107.5307         estimate D2E/DX2                !
 ! A19   A(3,4,5)              111.6648         estimate D2E/DX2                !
 ! A20   A(3,4,42)             109.2176         estimate D2E/DX2                !
 ! A21   A(3,4,43)             109.801          estimate D2E/DX2                !
 ! A22   A(5,4,42)             109.2361         estimate D2E/DX2                !
 ! A23   A(5,4,43)             108.9345         estimate D2E/DX2                !
 ! A24   A(42,4,43)            107.9078         estimate D2E/DX2                !
 ! A25   A(4,5,6)              112.2309         estimate D2E/DX2                !
 ! A26   A(4,5,44)             109.2711         estimate D2E/DX2                !
 ! A27   A(4,5,45)             109.3253         estimate D2E/DX2                !
 ! A28   A(6,5,44)             109.1864         estimate D2E/DX2                !
 ! A29   A(6,5,45)             108.9535         estimate D2E/DX2                !
 ! A30   A(44,5,45)            107.7705         estimate D2E/DX2                !
 ! A31   A(5,6,7)              111.3094         estimate D2E/DX2                !
 ! A32   A(5,6,46)             109.2128         estimate D2E/DX2                !
 ! A33   A(5,6,47)             108.8022         estimate D2E/DX2                !
 ! A34   A(7,6,46)             109.874          estimate D2E/DX2                !
 ! A35   A(7,6,47)             109.3968         estimate D2E/DX2                !
 ! A36   A(46,6,47)            108.1822         estimate D2E/DX2                !
 ! A37   A(6,7,8)              119.537          estimate D2E/DX2                !
 ! A38   A(6,7,34)             121.7223         estimate D2E/DX2                !
 ! A39   A(8,7,34)             118.7071         estimate D2E/DX2                !
 ! A40   A(7,8,9)              121.2996         estimate D2E/DX2                !
 ! A41   A(7,8,48)             118.8799         estimate D2E/DX2                !
 ! A42   A(9,8,48)             119.8205         estimate D2E/DX2                !
 ! A43   A(8,9,10)             120.837          estimate D2E/DX2                !
 ! A44   A(8,9,49)             120.1511         estimate D2E/DX2                !
 ! A45   A(10,9,49)            119.0094         estimate D2E/DX2                !
 ! A46   A(9,10,11)            122.1339         estimate D2E/DX2                !
 ! A47   A(9,10,33)            118.313          estimate D2E/DX2                !
 ! A48   A(11,10,33)           119.5472         estimate D2E/DX2                !
 ! A49   A(10,11,12)           120.8206         estimate D2E/DX2                !
 ! A50   A(10,11,29)           119.6276         estimate D2E/DX2                !
 ! A51   A(12,11,29)           119.5333         estimate D2E/DX2                !
 ! A52   A(11,12,13)           119.5881         estimate D2E/DX2                !
 ! A53   A(11,12,28)           120.7847         estimate D2E/DX2                !
 ! A54   A(13,12,28)           119.5984         estimate D2E/DX2                !
 ! A55   A(12,13,14)           122.4996         estimate D2E/DX2                !
 ! A56   A(12,13,15)           120.4768         estimate D2E/DX2                !
 ! A57   A(14,13,15)           117.0178         estimate D2E/DX2                !
 ! A58   A(13,14,50)           109.5377         estimate D2E/DX2                !
 ! A59   A(13,15,16)           120.4928         estimate D2E/DX2                !
 ! A60   A(13,15,51)           117.677          estimate D2E/DX2                !
 ! A61   A(16,15,51)           121.8286         estimate D2E/DX2                !
 ! A62   A(15,16,17)           120.9125         estimate D2E/DX2                !
 ! A63   A(15,16,52)           120.2501         estimate D2E/DX2                !
 ! A64   A(17,16,52)           118.8373         estimate D2E/DX2                !
 ! A65   A(16,17,18)           121.9263         estimate D2E/DX2                !
 ! A66   A(16,17,28)           118.904          estimate D2E/DX2                !
 ! A67   A(18,17,28)           119.1641         estimate D2E/DX2                !
 ! A68   A(17,18,19)           121.7041         estimate D2E/DX2                !
 ! A69   A(17,18,53)           118.0832         estimate D2E/DX2                !
 ! A70   A(19,18,53)           120.2103         estimate D2E/DX2                !
 ! A71   A(18,19,20)           122.0722         estimate D2E/DX2                !
 ! A72   A(18,19,26)           118.5314         estimate D2E/DX2                !
 ! A73   A(20,19,26)           119.3964         estimate D2E/DX2                !
 ! A74   A(19,20,21)           113.2432         estimate D2E/DX2                !
 ! A75   A(19,20,54)           108.2442         estimate D2E/DX2                !
 ! A76   A(19,20,55)           109.9713         estimate D2E/DX2                !
 ! A77   A(21,20,54)           108.0938         estimate D2E/DX2                !
 ! A78   A(21,20,55)           109.3406         estimate D2E/DX2                !
 ! A79   A(54,20,55)           107.7824         estimate D2E/DX2                !
 ! A80   A(20,21,22)           114.7466         estimate D2E/DX2                !
 ! A81   A(20,21,56)           109.559          estimate D2E/DX2                !
 ! A82   A(20,21,57)           108.1044         estimate D2E/DX2                !
 ! A83   A(22,21,56)           109.6488         estimate D2E/DX2                !
 ! A84   A(22,21,57)           107.2681         estimate D2E/DX2                !
 ! A85   A(56,21,57)           107.2197         estimate D2E/DX2                !
 ! A86   A(21,22,23)           116.0386         estimate D2E/DX2                !
 ! A87   A(21,22,58)           107.7987         estimate D2E/DX2                !
 ! A88   A(21,22,59)           108.5137         estimate D2E/DX2                !
 ! A89   A(23,22,58)           108.6457         estimate D2E/DX2                !
 ! A90   A(23,22,59)           108.219          estimate D2E/DX2                !
 ! A91   A(58,22,59)           107.3069         estimate D2E/DX2                !
 ! A92   A(22,23,24)           114.2248         estimate D2E/DX2                !
 ! A93   A(22,23,60)           107.9238         estimate D2E/DX2                !
 ! A94   A(22,23,61)           109.662          estimate D2E/DX2                !
 ! A95   A(24,23,60)           108.5733         estimate D2E/DX2                !
 ! A96   A(24,23,61)           108.851          estimate D2E/DX2                !
 ! A97   A(60,23,61)           107.3838         estimate D2E/DX2                !
 ! A98   A(23,24,25)           111.1518         estimate D2E/DX2                !
 ! A99   A(23,24,62)           109.564          estimate D2E/DX2                !
 ! A100  A(23,24,63)           109.8149         estimate D2E/DX2                !
 ! A101  A(25,24,62)           109.6138         estimate D2E/DX2                !
 ! A102  A(25,24,63)           108.6833         estimate D2E/DX2                !
 ! A103  A(62,24,63)           107.9495         estimate D2E/DX2                !
 ! A104  A(24,25,64)           110.7079         estimate D2E/DX2                !
 ! A105  A(24,25,65)           110.1607         estimate D2E/DX2                !
 ! A106  A(24,25,66)           110.6586         estimate D2E/DX2                !
 ! A107  A(64,25,65)           108.7968         estimate D2E/DX2                !
 ! A108  A(64,25,66)           108.3817         estimate D2E/DX2                !
 ! A109  A(65,25,66)           108.0611         estimate D2E/DX2                !
 ! A110  A(19,26,27)           121.3745         estimate D2E/DX2                !
 ! A111  A(19,26,67)           118.9534         estimate D2E/DX2                !
 ! A112  A(27,26,67)           119.6715         estimate D2E/DX2                !
 ! A113  A(26,27,28)           120.7987         estimate D2E/DX2                !
 ! A114  A(26,27,68)           120.1978         estimate D2E/DX2                !
 ! A115  A(28,27,68)           119.0029         estimate D2E/DX2                !
 ! A116  A(12,28,17)           119.6043         estimate D2E/DX2                !
 ! A117  A(12,28,27)           122.0961         estimate D2E/DX2                !
 ! A118  A(17,28,27)           118.2921         estimate D2E/DX2                !
 ! A119  A(11,29,30)           122.6102         estimate D2E/DX2                !
 ! A120  A(11,29,31)           120.4521         estimate D2E/DX2                !
 ! A121  A(30,29,31)           116.932          estimate D2E/DX2                !
 ! A122  A(29,30,69)           109.8137         estimate D2E/DX2                !
 ! A123  A(29,31,32)           120.5065         estimate D2E/DX2                !
 ! A124  A(29,31,70)           117.6466         estimate D2E/DX2                !
 ! A125  A(32,31,70)           121.8463         estimate D2E/DX2                !
 ! A126  A(31,32,33)           120.918          estimate D2E/DX2                !
 ! A127  A(31,32,71)           120.2755         estimate D2E/DX2                !
 ! A128  A(33,32,71)           118.8055         estimate D2E/DX2                !
 ! A129  A(10,33,32)           118.9336         estimate D2E/DX2                !
 ! A130  A(10,33,34)           119.183          estimate D2E/DX2                !
 ! A131  A(32,33,34)           121.8824         estimate D2E/DX2                !
 ! A132  A(7,34,33)            121.6526         estimate D2E/DX2                !
 ! A133  A(7,34,72)            120.1274         estimate D2E/DX2                !
 ! A134  A(33,34,72)           118.2194         estimate D2E/DX2                !
 ! D1    D(35,1,2,3)            64.9509         estimate D2E/DX2                !
 ! D2    D(35,1,2,38)         -174.3048         estimate D2E/DX2                !
 ! D3    D(35,1,2,39)          -57.0506         estimate D2E/DX2                !
 ! D4    D(36,1,2,3)          -175.2438         estimate D2E/DX2                !
 ! D5    D(36,1,2,38)          -54.4995         estimate D2E/DX2                !
 ! D6    D(36,1,2,39)           62.7547         estimate D2E/DX2                !
 ! D7    D(37,1,2,3)           -55.5173         estimate D2E/DX2                !
 ! D8    D(37,1,2,38)           65.227          estimate D2E/DX2                !
 ! D9    D(37,1,2,39)         -177.5188         estimate D2E/DX2                !
 ! D10   D(1,2,3,4)            -67.8291         estimate D2E/DX2                !
 ! D11   D(1,2,3,40)           171.4357         estimate D2E/DX2                !
 ! D12   D(1,2,3,41)            54.4387         estimate D2E/DX2                !
 ! D13   D(38,2,3,4)           171.3096         estimate D2E/DX2                !
 ! D14   D(38,2,3,40)           50.5743         estimate D2E/DX2                !
 ! D15   D(38,2,3,41)          -66.4227         estimate D2E/DX2                !
 ! D16   D(39,2,3,4)            54.3111         estimate D2E/DX2                !
 ! D17   D(39,2,3,40)          -66.4242         estimate D2E/DX2                !
 ! D18   D(39,2,3,41)          176.5789         estimate D2E/DX2                !
 ! D19   D(2,3,4,5)           -175.5235         estimate D2E/DX2                !
 ! D20   D(2,3,4,42)           -54.5999         estimate D2E/DX2                !
 ! D21   D(2,3,4,43)            63.5382         estimate D2E/DX2                !
 ! D22   D(40,3,4,5)           -54.7902         estimate D2E/DX2                !
 ! D23   D(40,3,4,42)           66.1334         estimate D2E/DX2                !
 ! D24   D(40,3,4,43)         -175.7285         estimate D2E/DX2                !
 ! D25   D(41,3,4,5)            62.3136         estimate D2E/DX2                !
 ! D26   D(41,3,4,42)         -176.7629         estimate D2E/DX2                !
 ! D27   D(41,3,4,43)          -58.6247         estimate D2E/DX2                !
 ! D28   D(3,4,5,6)            179.4169         estimate D2E/DX2                !
 ! D29   D(3,4,5,44)            58.1512         estimate D2E/DX2                !
 ! D30   D(3,4,5,45)           -59.5744         estimate D2E/DX2                !
 ! D31   D(42,4,5,6)            58.5041         estimate D2E/DX2                !
 ! D32   D(42,4,5,44)          -62.7616         estimate D2E/DX2                !
 ! D33   D(42,4,5,45)          179.5128         estimate D2E/DX2                !
 ! D34   D(43,4,5,6)           -59.1417         estimate D2E/DX2                !
 ! D35   D(43,4,5,44)          179.5926         estimate D2E/DX2                !
 ! D36   D(43,4,5,45)           61.867          estimate D2E/DX2                !
 ! D37   D(4,5,6,7)            -64.3294         estimate D2E/DX2                !
 ! D38   D(4,5,6,46)            57.1613         estimate D2E/DX2                !
 ! D39   D(4,5,6,47)           175.0478         estimate D2E/DX2                !
 ! D40   D(44,5,6,7)            56.9849         estimate D2E/DX2                !
 ! D41   D(44,5,6,46)          178.4756         estimate D2E/DX2                !
 ! D42   D(44,5,6,47)          -63.6379         estimate D2E/DX2                !
 ! D43   D(45,5,6,7)           174.4482         estimate D2E/DX2                !
 ! D44   D(45,5,6,46)          -64.0612         estimate D2E/DX2                !
 ! D45   D(45,5,6,47)           53.8254         estimate D2E/DX2                !
 ! D46   D(5,6,7,8)            -74.8181         estimate D2E/DX2                !
 ! D47   D(5,6,7,34)           103.045          estimate D2E/DX2                !
 ! D48   D(46,6,7,8)           164.0773         estimate D2E/DX2                !
 ! D49   D(46,6,7,34)          -18.0596         estimate D2E/DX2                !
 ! D50   D(47,6,7,8)            45.4544         estimate D2E/DX2                !
 ! D51   D(47,6,7,34)         -136.6825         estimate D2E/DX2                !
 ! D52   D(6,7,8,9)            178.3891         estimate D2E/DX2                !
 ! D53   D(6,7,8,48)            -1.6493         estimate D2E/DX2                !
 ! D54   D(34,7,8,9)             0.4614         estimate D2E/DX2                !
 ! D55   D(34,7,8,48)         -179.5769         estimate D2E/DX2                !
 ! D56   D(6,7,34,33)         -178.0933         estimate D2E/DX2                !
 ! D57   D(6,7,34,72)            1.6195         estimate D2E/DX2                !
 ! D58   D(8,7,34,33)           -0.213          estimate D2E/DX2                !
 ! D59   D(8,7,34,72)          179.4997         estimate D2E/DX2                !
 ! D60   D(7,8,9,10)             0.0425         estimate D2E/DX2                !
 ! D61   D(7,8,9,49)          -179.3775         estimate D2E/DX2                !
 ! D62   D(48,8,9,10)         -179.9188         estimate D2E/DX2                !
 ! D63   D(48,8,9,49)            0.6612         estimate D2E/DX2                !
 ! D64   D(8,9,10,11)         -179.8837         estimate D2E/DX2                !
 ! D65   D(8,9,10,33)           -0.7744         estimate D2E/DX2                !
 ! D66   D(49,9,10,11)          -0.4571         estimate D2E/DX2                !
 ! D67   D(49,9,10,33)         178.6522         estimate D2E/DX2                !
 ! D68   D(9,10,11,12)          -3.8052         estimate D2E/DX2                !
 ! D69   D(9,10,11,29)         177.7668         estimate D2E/DX2                !
 ! D70   D(33,10,11,12)        177.0962         estimate D2E/DX2                !
 ! D71   D(33,10,11,29)         -1.3319         estimate D2E/DX2                !
 ! D72   D(9,10,33,32)        -178.6397         estimate D2E/DX2                !
 ! D73   D(9,10,33,34)           1.0012         estimate D2E/DX2                !
 ! D74   D(11,10,33,32)          0.4933         estimate D2E/DX2                !
 ! D75   D(11,10,33,34)       -179.8658         estimate D2E/DX2                !
 ! D76   D(10,11,12,13)        -70.8019         estimate D2E/DX2                !
 ! D77   D(10,11,12,28)        111.1563         estimate D2E/DX2                !
 ! D78   D(29,11,12,13)        107.6276         estimate D2E/DX2                !
 ! D79   D(29,11,12,28)        -70.4142         estimate D2E/DX2                !
 ! D80   D(10,11,29,30)       -179.7117         estimate D2E/DX2                !
 ! D81   D(10,11,29,31)          1.1803         estimate D2E/DX2                !
 ! D82   D(12,11,29,30)          1.8399         estimate D2E/DX2                !
 ! D83   D(12,11,29,31)       -177.2681         estimate D2E/DX2                !
 ! D84   D(11,12,13,14)          1.682          estimate D2E/DX2                !
 ! D85   D(11,12,13,15)       -177.4166         estimate D2E/DX2                !
 ! D86   D(28,12,13,14)        179.7472         estimate D2E/DX2                !
 ! D87   D(28,12,13,15)          0.6487         estimate D2E/DX2                !
 ! D88   D(11,12,28,17)        176.802          estimate D2E/DX2                !
 ! D89   D(11,12,28,27)         -4.2127         estimate D2E/DX2                !
 ! D90   D(13,12,28,17)         -1.2396         estimate D2E/DX2                !
 ! D91   D(13,12,28,27)        177.7457         estimate D2E/DX2                !
 ! D92   D(12,13,14,50)          2.9084         estimate D2E/DX2                !
 ! D93   D(15,13,14,50)       -177.9637         estimate D2E/DX2                !
 ! D94   D(12,13,15,16)          0.222          estimate D2E/DX2                !
 ! D95   D(12,13,15,51)        179.7656         estimate D2E/DX2                !
 ! D96   D(14,13,15,16)       -178.9246         estimate D2E/DX2                !
 ! D97   D(14,13,15,51)          0.619          estimate D2E/DX2                !
 ! D98   D(13,15,16,17)         -0.4937         estimate D2E/DX2                !
 ! D99   D(13,15,16,52)        179.3948         estimate D2E/DX2                !
 ! D100  D(51,15,16,17)        179.9821         estimate D2E/DX2                !
 ! D101  D(51,15,16,52)         -0.1295         estimate D2E/DX2                !
 ! D102  D(15,16,17,18)        179.0212         estimate D2E/DX2                !
 ! D103  D(15,16,17,28)         -0.1085         estimate D2E/DX2                !
 ! D104  D(52,16,17,18)         -0.8688         estimate D2E/DX2                !
 ! D105  D(52,16,17,28)       -179.9985         estimate D2E/DX2                !
 ! D106  D(16,17,18,19)       -178.9035         estimate D2E/DX2                !
 ! D107  D(16,17,18,53)          0.5403         estimate D2E/DX2                !
 ! D108  D(28,17,18,19)          0.224          estimate D2E/DX2                !
 ! D109  D(28,17,18,53)        179.6678         estimate D2E/DX2                !
 ! D110  D(16,17,28,12)          0.9708         estimate D2E/DX2                !
 ! D111  D(16,17,28,27)       -178.053          estimate D2E/DX2                !
 ! D112  D(18,17,28,12)       -178.1834         estimate D2E/DX2                !
 ! D113  D(18,17,28,27)          2.7928         estimate D2E/DX2                !
 ! D114  D(17,18,19,20)        176.8707         estimate D2E/DX2                !
 ! D115  D(17,18,19,26)         -3.1218         estimate D2E/DX2                !
 ! D116  D(53,18,19,20)         -2.5615         estimate D2E/DX2                !
 ! D117  D(53,18,19,26)        177.446          estimate D2E/DX2                !
 ! D118  D(18,19,20,21)       -117.26           estimate D2E/DX2                !
 ! D119  D(18,19,20,54)        122.9069         estimate D2E/DX2                !
 ! D120  D(18,19,20,55)          5.395          estimate D2E/DX2                !
 ! D121  D(26,19,20,21)         62.7324         estimate D2E/DX2                !
 ! D122  D(26,19,20,54)        -57.1006         estimate D2E/DX2                !
 ! D123  D(26,19,20,55)       -174.6126         estimate D2E/DX2                !
 ! D124  D(18,19,26,27)          3.0354         estimate D2E/DX2                !
 ! D125  D(18,19,26,67)       -176.6741         estimate D2E/DX2                !
 ! D126  D(20,19,26,27)       -176.9573         estimate D2E/DX2                !
 ! D127  D(20,19,26,67)          3.3332         estimate D2E/DX2                !
 ! D128  D(19,20,21,22)         80.9107         estimate D2E/DX2                !
 ! D129  D(19,20,21,56)        -42.9163         estimate D2E/DX2                !
 ! D130  D(19,20,21,57)       -159.4472         estimate D2E/DX2                !
 ! D131  D(54,20,21,22)       -159.1704         estimate D2E/DX2                !
 ! D132  D(54,20,21,56)         77.0027         estimate D2E/DX2                !
 ! D133  D(54,20,21,57)        -39.5283         estimate D2E/DX2                !
 ! D134  D(55,20,21,22)        -42.0934         estimate D2E/DX2                !
 ! D135  D(55,20,21,56)       -165.9204         estimate D2E/DX2                !
 ! D136  D(55,20,21,57)         77.5487         estimate D2E/DX2                !
 ! D137  D(20,21,22,23)        -62.0634         estimate D2E/DX2                !
 ! D138  D(20,21,22,58)        175.8927         estimate D2E/DX2                !
 ! D139  D(20,21,22,59)         59.9801         estimate D2E/DX2                !
 ! D140  D(56,21,22,23)         61.7159         estimate D2E/DX2                !
 ! D141  D(56,21,22,58)        -60.328          estimate D2E/DX2                !
 ! D142  D(56,21,22,59)       -176.2407         estimate D2E/DX2                !
 ! D143  D(57,21,22,23)        177.8303         estimate D2E/DX2                !
 ! D144  D(57,21,22,58)         55.7864         estimate D2E/DX2                !
 ! D145  D(57,21,22,59)        -60.1263         estimate D2E/DX2                !
 ! D146  D(21,22,23,24)        -60.607          estimate D2E/DX2                !
 ! D147  D(21,22,23,60)        178.5543         estimate D2E/DX2                !
 ! D148  D(21,22,23,61)         61.8733         estimate D2E/DX2                !
 ! D149  D(58,22,23,24)         60.9876         estimate D2E/DX2                !
 ! D150  D(58,22,23,60)        -59.8511         estimate D2E/DX2                !
 ! D151  D(58,22,23,61)       -176.5321         estimate D2E/DX2                !
 ! D152  D(59,22,23,24)        177.1937         estimate D2E/DX2                !
 ! D153  D(59,22,23,60)         56.355          estimate D2E/DX2                !
 ! D154  D(59,22,23,61)        -60.326          estimate D2E/DX2                !
 ! D155  D(22,23,24,25)       -179.5141         estimate D2E/DX2                !
 ! D156  D(22,23,24,62)        -58.2169         estimate D2E/DX2                !
 ! D157  D(22,23,24,63)         60.1875         estimate D2E/DX2                !
 ! D158  D(60,23,24,25)        -59.0367         estimate D2E/DX2                !
 ! D159  D(60,23,24,62)         62.2605         estimate D2E/DX2                !
 ! D160  D(60,23,24,63)       -179.3351         estimate D2E/DX2                !
 ! D161  D(61,23,24,25)         57.5643         estimate D2E/DX2                !
 ! D162  D(61,23,24,62)        178.8615         estimate D2E/DX2                !
 ! D163  D(61,23,24,63)        -62.7341         estimate D2E/DX2                !
 ! D164  D(23,24,25,64)       -178.5902         estimate D2E/DX2                !
 ! D165  D(23,24,25,65)        -58.2096         estimate D2E/DX2                !
 ! D166  D(23,24,25,66)         61.2227         estimate D2E/DX2                !
 ! D167  D(62,24,25,64)         60.1417         estimate D2E/DX2                !
 ! D168  D(62,24,25,65)       -179.4776         estimate D2E/DX2                !
 ! D169  D(62,24,25,66)        -60.0454         estimate D2E/DX2                !
 ! D170  D(63,24,25,64)        -57.6245         estimate D2E/DX2                !
 ! D171  D(63,24,25,65)         62.7561         estimate D2E/DX2                !
 ! D172  D(63,24,25,66)       -177.8116         estimate D2E/DX2                !
 ! D173  D(19,26,27,28)          0.005          estimate D2E/DX2                !
 ! D174  D(19,26,27,68)       -179.7123         estimate D2E/DX2                !
 ! D175  D(67,26,27,28)        179.7124         estimate D2E/DX2                !
 ! D176  D(67,26,27,68)         -0.0049         estimate D2E/DX2                !
 ! D177  D(26,27,28,12)        178.0884         estimate D2E/DX2                !
 ! D178  D(26,27,28,17)         -2.9135         estimate D2E/DX2                !
 ! D179  D(68,27,28,12)         -2.191          estimate D2E/DX2                !
 ! D180  D(68,27,28,17)        176.8071         estimate D2E/DX2                !
 ! D181  D(11,29,30,69)          3.8263         estimate D2E/DX2                !
 ! D182  D(31,29,30,69)       -177.0362         estimate D2E/DX2                !
 ! D183  D(11,29,31,32)         -0.1728         estimate D2E/DX2                !
 ! D184  D(11,29,31,70)        179.5358         estimate D2E/DX2                !
 ! D185  D(30,29,31,32)       -179.33           estimate D2E/DX2                !
 ! D186  D(30,29,31,70)          0.3786         estimate D2E/DX2                !
 ! D187  D(29,31,32,33)         -0.6886         estimate D2E/DX2                !
 ! D188  D(29,31,32,71)        179.673          estimate D2E/DX2                !
 ! D189  D(70,31,32,33)        179.6152         estimate D2E/DX2                !
 ! D190  D(70,31,32,71)         -0.0232         estimate D2E/DX2                !
 ! D191  D(31,32,33,10)          0.5161         estimate D2E/DX2                !
 ! D192  D(31,32,33,34)       -179.1147         estimate D2E/DX2                !
 ! D193  D(71,32,33,10)       -179.8403         estimate D2E/DX2                !
 ! D194  D(71,32,33,34)          0.5289         estimate D2E/DX2                !
 ! D195  D(10,33,34,7)          -0.5218         estimate D2E/DX2                !
 ! D196  D(10,33,34,72)        179.7601         estimate D2E/DX2                !
 ! D197  D(32,33,34,7)         179.1081         estimate D2E/DX2                !
 ! D198  D(32,33,34,72)         -0.61           estimate D2E/DX2                !
 --------------------------------------------------------------------------------
 Trust Radius=3.00D-01 FncErr=1.00D-07 GrdErr=1.00D-06 EigMax=2.50D+02 EigMin=1.00D-04
 Number of steps in this run=    417 maximum allowed number of steps=    432.
 GradGradGradGradGradGradGradGradGradGradGradGradGradGradGradGradGradGrad

 Leave Link  103 at Mon Mar 24 00:08:17 2025, MaxMem= 13421772800 cpu:               0.8 elap:               0.0
 (Enter /public/software/apps/Gaussian/g16/l202.exe)
 Symmetry turned off by external request.
 Stoichiometry    C32H38O2
 Framework group  C1[X(C32H38O2)]
 Deg. of freedom   210
 Full point group                 C1      NOp   1
                          Input orientation:                          
 ---------------------------------------------------------------------
 Center     Atomic      Atomic             Coordinates (Angstroms)
 Number     Number       Type             X           Y           Z
 ---------------------------------------------------------------------
      1          6           0       -6.524736    4.349827    2.179833
      2          6           0       -5.557878    4.490792    1.009947
      3          6           0       -5.914033    3.595997   -0.177669
      4          6           0       -5.736673    2.107524    0.112902
      5          6           0       -5.995932    1.256514   -1.127295
      6          6           0       -5.807198   -0.241602   -0.853294
      7          6           0       -4.383201   -0.556081   -0.499157
      8          6           0       -3.403085   -0.569772   -1.510344
      9          6           0       -2.091914   -0.819208   -1.223787
     10          6           0       -1.676229   -1.073302    0.101880
     11          6           0       -0.320456   -1.333401    0.431149
     12          6           0        0.715066   -1.431812   -0.629570
     13          6           0        0.722196   -2.524103   -1.477599
     14          8           0       -0.209100   -3.510869   -1.404943
     15          6           0        1.727005   -2.663501   -2.454220
     16          6           0        2.709748   -1.725821   -2.574649
     17          6           0        2.737546   -0.593231   -1.734387
     18          6           0        3.753836    0.378145   -1.826630
     19          6           0        3.788664    1.465545   -0.993080
     20          6           0        4.904704    2.469155   -1.037951
     21          6           0        5.710929    2.538481    0.268647
     22          6           0        6.769561    1.444750    0.426985
     23          6           0        6.248956    0.007384    0.467370
     24          6           0        5.290415   -0.279362    1.619994
     25          6           0        4.825341   -1.730809    1.600467
     26          6           0        2.739718    1.638480   -0.068177
     27          6           0        1.737449    0.719449    0.049637
     28          6           0        1.721012   -0.439695   -0.756454
     29          6           0        0.036617   -1.529820    1.752843
     30          8           0        1.315689   -1.776894    2.136432
     31          6           0       -0.938944   -1.497848    2.768101
     32          6           0       -2.247968   -1.269470    2.463125
     33          6           0       -2.653444   -1.046204    1.130584
     34          6           0       -3.997322   -0.790133    0.794777
     35          1           0       -6.477450    3.352037    2.607781
     36          1           0       -6.277559    5.064537    2.961671
     37          1           0       -7.545632    4.538195    1.854236
     38          1           0       -5.561157    5.530901    0.674805
     39          1           0       -4.545233    4.255324    1.345402
     40          1           0       -5.273110    3.865164   -1.021256
     41          1           0       -6.947910    3.787515   -0.475512
     42          1           0       -4.718215    1.928836    0.465577
     43          1           0       -6.424095    1.800614    0.903018
     44          1           0       -5.315295    1.564231   -1.924442
     45          1           0       -7.017122    1.427582   -1.476193
     46          1           0       -6.467799   -0.543797   -0.038212
     47          1           0       -6.090963   -0.801772   -1.747775
     48          1           0       -3.703215   -0.378710   -2.530723
     49          1           0       -1.353611   -0.815284   -2.012863
     50          1           0       -0.860710   -3.291279   -0.724479
     51          1           0        1.691315   -3.534707   -3.088832
     52          1           0        3.484118   -1.841634   -3.318701
     53          1           0        4.523225    0.240891   -2.574921
     54          1           0        4.470360    3.456476   -1.222066
     55          1           0        5.577981    2.241302   -1.866585
     56          1           0        5.029638    2.515246    1.119622
     57          1           0        6.230849    3.499841    0.296447
     58          1           0        7.319904    1.643418    1.351035
     59          1           0        7.480798    1.527672   -0.399479
     60          1           0        7.110537   -0.660257    0.556515
     61          1           0        5.750197   -0.228449   -0.472290
     62          1           0        5.786150   -0.065884    2.569762
     63          1           0        4.416498    0.368553    1.543942
     64          1           0        4.123934   -1.920768    2.409488
     65          1           0        4.337525   -1.956035    0.652853
     66          1           0        5.670703   -2.406301    1.713598
     67          1           0        2.731776    2.521670    0.554864
     68          1           0        0.939738    0.873490    0.762156
     69          1           0        1.903381   -1.729496    1.368827
     70          1           0       -0.611554   -1.664229    3.782129
     71          1           0       -2.993793   -1.250973    3.244076
     72          1           0       -4.729526   -0.776990    1.590293
 ---------------------------------------------------------------------
 Rotational constants (GHZ):           0.1880364           0.0597228           0.0542561
 Leave Link  202 at Mon Mar 24 00:08:17 2025, MaxMem= 13421772800 cpu:               0.1 elap:               0.0
 (Enter /public/software/apps/Gaussian/g16/l301.exe)
 Standard basis: def2SVPP (5D, 7F)
 Ernie: Thresh=  0.10000D-02 Tol=  0.10000D-05 Strict=F.
   552 basis functions,  1002 primitive gaussians,   586 cartesian basis functions
   123 alpha electrons      123 beta electrons
       nuclear repulsion energy      3470.9116273987 Hartrees.
 IExCor=  402 DFT=T Ex+Corr=B3LYP ExCW=0 ScaHFX=  0.200000
 ScaDFX=  0.800000  0.720000  1.000000  0.810000 ScalE2=  1.000000  1.000000
 IRadAn=      5 IRanWt=     -1 IRanGd=            0 ICorTp=0 IEmpDi=141
 NAtoms=   72 NActive=   72 NUniq=   72 SFac= 1.00D+00 NAtFMM=   60 NAOKFM=T Big=T
 Integral buffers will be    131072 words long.
 Raffenetti 2 integral format.
 Two-electron integral symmetry is turned off.
 R6Disp:  Grimme-D3(BJ) Dispersion energy=       -0.1675739269 Hartrees.
 Nuclear repulsion after empirical dispersion term =     3470.7440534717 Hartrees.
 Leave Link  301 at Mon Mar 24 00:08:17 2025, MaxMem= 13421772800 cpu:               1.4 elap:               0.1
 (Enter /public/software/apps/Gaussian/g16/l302.exe)
 NPDir=0 NMtPBC=     1 NCelOv=     1 NCel=       1 NClECP=     1 NCelD=      1
         NCelK=      1 NCelE2=     1 NClLst=     1 CellRange=     0.0.
 One-electron integrals computed using PRISM.
   1 Symmetry operations used in ECPInt.
 ECPInt:  NShTT=   39340 NPrTT=  157636 LenC2=   32194 LenP2D=   81158.
 LDataN:  DoStor=T MaxTD1= 4 Len=   56
 NBasis=   552 RedAO= T EigKep=  1.73D-04  NBF=   552
 NBsUse=   552 1.00D-06 EigRej= -1.00D+00 NBFU=   552
 Precomputing XC quadrature grid using
 IXCGrd= 4 IRadAn=           5 IRanWt=          -1 IRanGd=           0 AccXCQ= 0.00D+00.
 Generated NRdTot=       0 NPtTot=           0 NUsed=           0 NTot=          32
 NSgBfM=   572   572   572   572   572 MxSgAt=    72 MxSgA2=    72.
 Leave Link  302 at Mon Mar 24 00:08:18 2025, MaxMem= 13421772800 cpu:              23.4 elap:               0.7
 (Enter /public/software/apps/Gaussian/g16/l303.exe)
 DipDrv:  MaxL=1.
 Leave Link  303 at Mon Mar 24 00:08:18 2025, MaxMem= 13421772800 cpu:               2.1 elap:               0.1
 (Enter /public/software/apps/Gaussian/g16/l401.exe)
 ExpMin= 1.22D-01 ExpMax= 2.27D+03 ExpMxC= 3.41D+02 IAcc=3 IRadAn=         5 AccDes= 0.00D+00
 Harris functional with IExCor=  402 and IRadAn=       5 diagonalized for initial guess.
 HarFok:  IExCor=  402 AccDes= 0.00D+00 IRadAn=         5 IDoV= 1 UseB2=F ITyADJ=14
 ICtDFT=  3500011 ScaDFX=  1.000000  1.000000  1.000000  1.000000
 FoFCou: FMM=F IPFlag=           0 FMFlag=      100000 FMFlg1=        2001
         NFxFlg=           0 DoJE=T BraDBF=F KetDBF=T FulRan=T
         wScrn=  0.000000 ICntrl=       500 IOpCl=  0 I1Cent=   200000004 NGrid=           0
         NMat0=    1 NMatS0=      1 NMatT0=    0 NMatD0=    1 NMtDS0=    0 NMtDT0=    0
 Symmetry not used in FoFCou.
 Harris En= -1391.92177855345    
 JPrj=0 DoOrth=F DoCkMO=F.
 Leave Link  401 at Mon Mar 24 00:08:20 2025, MaxMem= 13421772800 cpu:              49.5 elap:               1.6
 (Enter /public/software/apps/Gaussian/g16/l502.exe)
 Two-electron integral symmetry not used.
 Closed shell SCF:
 Using DIIS extrapolation, IDIIS=  1040.
 NGot= 13421772800 LenX= 13421060272 LenY= 13420716290
 Requested convergence on RMS density matrix=1.00D-08 within 128 cycles.
 Requested convergence on MAX density matrix=1.00D-06.
 Requested convergence on             energy=1.00D-06.
 No special actions if energy rises.
 Fock matrices will be formed incrementally for  20 cycles.
 Integral accuracy reduced to 1.0D-05 until final iterations.

 Cycle   1  Pass 0  IDiag  1:
 FoFJK:  IHMeth= 1 ICntrl=       0 DoSepK=F KAlg= 0 I1Cent=           0 FoldK=F
 IRaf= 970000000 NMat=       1 IRICut=       1 DoRegI=T DoRafI=F ISym2E= 0 IDoP0=0 IntGTp=1.
 FoFCou: FMM=T IPFlag=           0 FMFlag=      100000 FMFlg1=        2001
         NFxFlg=           0 DoJE=F BraDBF=F KetDBF=F FulRan=T
         wScrn=  0.000000 ICntrl=         0 IOpCl=  0 I1Cent=           0 NGrid=           0
         NMat0=    1 NMatS0=      1 NMatT0=    0 NMatD0=    1 NMtDS0=    0 NMtDT0=    0
 Symmetry not used in FoFCou.
 FMM levels:  10  Number of levels for PrismC:   9
 E= -1390.97559788970    
 DIIS: error= 2.65D-02 at cycle   1 NSaved=   1.
 NSaved= 1 IEnMin= 1 EnMin= -1390.97559788970     IErMin= 1 ErrMin= 2.65D-02
 ErrMax= 2.65D-02  0.00D+00 EMaxC= 1.00D-01 BMatC= 7.65D-01 BMatP= 7.65D-01
 IDIUse=3 WtCom= 7.35D-01 WtEn= 2.65D-01
 Coeff-Com:  0.100D+01
 Coeff-En:   0.100D+01
 Coeff:      0.100D+01
 Gap=     0.175 Goal=   None    Shift=    0.000
 GapD=    0.175 DampG=1.000 DampE=0.500 DampFc=0.5000 IDamp=-1.
 Damping current iteration by 5.00D-01
 RMSDP=5.37D-03 MaxDP=1.72D-01              OVMax= 1.69D-01

 Cycle   2  Pass 0  IDiag  1:
 RMSU=  2.48D-03    CP:  9.41D-01
 E= -1391.36886981234     Delta-E=       -0.393271922634 Rises=F Damp=T
 DIIS: error= 3.77D-03 at cycle   2 NSaved=   2.
 NSaved= 2 IEnMin= 2 EnMin= -1391.36886981234     IErMin= 2 ErrMin= 3.77D-03
 ErrMax= 3.77D-03  0.00D+00 EMaxC= 1.00D-01 BMatC= 3.73D-02 BMatP= 7.65D-01
 IDIUse=3 WtCom= 9.62D-01 WtEn= 3.77D-02
 Coeff-Com:  0.592D-01 0.941D+00
 Coeff-En:   0.935D-01 0.906D+00
 Coeff:      0.605D-01 0.940D+00
 Gap=     0.181 Goal=   None    Shift=    0.000
 RMSDP=1.89D-03 MaxDP=1.06D-01 DE=-3.93D-01 OVMax= 1.47D-01

 Cycle   3  Pass 0  IDiag  1:
 RMSU=  1.75D-03    CP:  9.00D-01  1.02D+00
 E= -1391.81561839839     Delta-E=       -0.446748586054 Rises=F Damp=F
 DIIS: error= 6.06D-03 at cycle   3 NSaved=   3.
 NSaved= 3 IEnMin= 3 EnMin= -1391.81561839839     IErMin= 2 ErrMin= 3.77D-03
 ErrMax= 6.06D-03  0.00D+00 EMaxC= 1.00D-01 BMatC= 3.55D-02 BMatP= 3.73D-02
 IDIUse=3 WtCom= 9.39D-01 WtEn= 6.06D-02
 Coeff-Com: -0.530D-02 0.494D+00 0.512D+00
 Coeff-En:   0.000D+00 0.000D+00 0.100D+01
 Coeff:     -0.498D-02 0.464D+00 0.541D+00
 Gap=     0.166 Goal=   None    Shift=    0.000
 RMSDP=8.62D-04 MaxDP=3.89D-02 DE=-4.47D-01 OVMax= 9.76D-02

 Cycle   4  Pass 0  IDiag  1:
 RMSU=  6.97D-04    CP:  9.01D-01  1.09D+00  7.30D-01
 E= -1391.84069350895     Delta-E=       -0.025075110560 Rises=F Damp=F
 DIIS: error= 4.00D-03 at cycle   4 NSaved=   4.
 NSaved= 4 IEnMin= 4 EnMin= -1391.84069350895     IErMin= 2 ErrMin= 3.77D-03
 ErrMax= 4.00D-03  0.00D+00 EMaxC= 1.00D-01 BMatC= 1.34D-02 BMatP= 3.55D-02
 IDIUse=3 WtCom= 9.60D-01 WtEn= 4.00D-02
 Coeff-Com: -0.114D-01 0.163D+00 0.380D+00 0.468D+00
 Coeff-En:   0.000D+00 0.000D+00 0.315D+00 0.685D+00
 Coeff:     -0.109D-01 0.157D+00 0.378D+00 0.477D+00
 Gap=     0.157 Goal=   None    Shift=    0.000
 RMSDP=4.06D-04 MaxDP=2.58D-02 DE=-2.51D-02 OVMax= 4.66D-02

 Cycle   5  Pass 0  IDiag  1:
 RMSU=  2.17D-04    CP:  9.00D-01  1.07D+00  8.10D-01  5.60D-01
 E= -1391.85548455872     Delta-E=       -0.014791049769 Rises=F Damp=F
 DIIS: error= 1.05D-03 at cycle   5 NSaved=   5.
 NSaved= 5 IEnMin= 5 EnMin= -1391.85548455872     IErMin= 5 ErrMin= 1.05D-03
 ErrMax= 1.05D-03  0.00D+00 EMaxC= 1.00D-01 BMatC= 1.02D-03 BMatP= 1.34D-02
 IDIUse=3 WtCom= 9.90D-01 WtEn= 1.05D-02
 Coeff-Com: -0.602D-02 0.405D-01 0.167D+00 0.287D+00 0.511D+00
 Coeff-En:   0.000D+00 0.000D+00 0.000D+00 0.179D-01 0.982D+00
 Coeff:     -0.596D-02 0.401D-01 0.165D+00 0.285D+00 0.516D+00
 Gap=     0.156 Goal=   None    Shift=    0.000
 RMSDP=1.08D-04 MaxDP=4.39D-03 DE=-1.48D-02 OVMax= 1.44D-02

 Cycle   6  Pass 0  IDiag  1:
 RMSU=  7.16D-05    CP:  8.99D-01  1.08D+00  8.14D-01  6.04D-01  6.60D-01
 E= -1391.85647186252     Delta-E=       -0.000987303803 Rises=F Damp=F
 DIIS: error= 4.53D-04 at cycle   6 NSaved=   6.
 NSaved= 6 IEnMin= 6 EnMin= -1391.85647186252     IErMin= 6 ErrMin= 4.53D-04
 ErrMax= 4.53D-04  0.00D+00 EMaxC= 1.00D-01 BMatC= 1.41D-04 BMatP= 1.02D-03
 IDIUse=3 WtCom= 9.95D-01 WtEn= 4.53D-03
 Coeff-Com: -0.225D-02 0.507D-02 0.560D-01 0.119D+00 0.323D+00 0.499D+00
 Coeff-En:   0.000D+00 0.000D+00 0.000D+00 0.000D+00 0.101D+00 0.899D+00
 Coeff:     -0.224D-02 0.504D-02 0.557D-01 0.118D+00 0.322D+00 0.501D+00
 Gap=     0.156 Goal=   None    Shift=    0.000
 RMSDP=4.00D-05 MaxDP=1.48D-03 DE=-9.87D-04 OVMax= 5.57D-03

 Cycle   7  Pass 0  IDiag  1:
 RMSU=  2.82D-05    CP:  8.99D-01  1.08D+00  8.14D-01  6.05D-01  7.28D-01
                    CP:  6.67D-01
 E= -1391.85663184426     Delta-E=       -0.000159981733 Rises=F Damp=F
 DIIS: error= 1.09D-04 at cycle   7 NSaved=   7.
 NSaved= 7 IEnMin= 7 EnMin= -1391.85663184426     IErMin= 7 ErrMin= 1.09D-04
 ErrMax= 1.09D-04  0.00D+00 EMaxC= 1.00D-01 BMatC= 1.37D-05 BMatP= 1.41D-04
 IDIUse=3 WtCom= 9.99D-01 WtEn= 1.09D-03
 Coeff-Com: -0.699D-03-0.866D-03 0.153D-01 0.384D-01 0.134D+00 0.303D+00
 Coeff-Com:  0.511D+00
 Coeff-En:   0.000D+00 0.000D+00 0.000D+00 0.000D+00 0.000D+00 0.150D-01
 Coeff-En:   0.985D+00
 Coeff:     -0.698D-03-0.865D-03 0.153D-01 0.384D-01 0.134D+00 0.303D+00
 Coeff:      0.511D+00
 Gap=     0.156 Goal=   None    Shift=    0.000
 RMSDP=1.55D-05 MaxDP=7.70D-04 DE=-1.60D-04 OVMax= 1.18D-03

 Cycle   8  Pass 0  IDiag  1:
 RMSU=  1.19D-05    CP:  8.99D-01  1.08D+00  8.15D-01  6.06D-01  7.02D-01
                    CP:  6.92D-01  7.33D-01
 E= -1391.85665525311     Delta-E=       -0.000023408854 Rises=F Damp=F
 DIIS: error= 3.03D-05 at cycle   8 NSaved=   8.
 NSaved= 8 IEnMin= 8 EnMin= -1391.85665525311     IErMin= 8 ErrMin= 3.03D-05
 ErrMax= 3.03D-05  0.00D+00 EMaxC= 1.00D-01 BMatC= 4.83D-07 BMatP= 1.37D-05
 IDIUse=1 WtCom= 1.00D+00 WtEn= 0.00D+00
 Coeff-Com: -0.198D-03-0.739D-03 0.448D-02 0.123D-01 0.488D-01 0.123D+00
 Coeff-Com:  0.249D+00 0.564D+00
 Coeff:     -0.198D-03-0.739D-03 0.448D-02 0.123D-01 0.488D-01 0.123D+00
 Coeff:      0.249D+00 0.564D+00
 Gap=     0.156 Goal=   None    Shift=    0.000
 RMSDP=9.28D-06 MaxDP=3.13D-04 DE=-2.34D-05 OVMax= 1.78D-04

 Initial convergence to 1.0D-05 achieved.  Increase integral accuracy.
 Cycle   9  Pass 1  IDiag  1:
 E= -1391.85647802713     Delta-E=        0.000177225984 Rises=F Damp=F
 DIIS: error= 3.79D-04 at cycle   1 NSaved=   1.
 NSaved= 1 IEnMin= 1 EnMin= -1391.85647802713     IErMin= 1 ErrMin= 3.79D-04
 ErrMax= 3.79D-04  0.00D+00 EMaxC= 1.00D-01 BMatC= 5.13D-05 BMatP= 5.13D-05
 IDIUse=3 WtCom= 9.96D-01 WtEn= 3.79D-03
 Coeff-Com:  0.100D+01
 Coeff-En:   0.100D+01
 Coeff:      0.100D+01
 Gap=     0.156 Goal=   None    Shift=    0.000
 RMSDP=9.28D-06 MaxDP=3.13D-04 DE= 1.77D-04 OVMax= 9.22D-04

 Cycle  10  Pass 1  IDiag  1:
 RMSU=  4.33D-04    CP:  9.99D-01
 E= -1391.85653306568     Delta-E=       -0.000055038551 Rises=F Damp=F
 DIIS: error= 1.66D-05 at cycle   2 NSaved=   2.
 NSaved= 2 IEnMin= 2 EnMin= -1391.85653306568     IErMin= 2 ErrMin= 1.66D-05
 ErrMax= 1.66D-05  0.00D+00 EMaxC= 1.00D-01 BMatC= 1.89D-07 BMatP= 5.13D-05
 IDIUse=1 WtCom= 1.00D+00 WtEn= 0.00D+00
 Coeff-Com: -0.439D-02 0.100D+01
 Coeff:     -0.439D-02 0.100D+01
 Gap=     0.156 Goal=   None    Shift=    0.000
 RMSDP=6.98D-06 MaxDP=2.41D-04 DE=-5.50D-05 OVMax= 3.20D-04

 Cycle  11  Pass 1  IDiag  1:
 RMSU=  3.65D-06    CP:  9.99D-01  1.01D+00
 E= -1391.85653260376     Delta-E=        0.000000461923 Rises=F Damp=F
 DIIS: error= 2.82D-05 at cycle   3 NSaved=   3.
 NSaved= 3 IEnMin= 2 EnMin= -1391.85653306568     IErMin= 2 ErrMin= 1.66D-05
 ErrMax= 2.82D-05  0.00D+00 EMaxC= 1.00D-01 BMatC= 6.22D-07 BMatP= 1.89D-07
 IDIUse=1 WtCom= 1.00D+00 WtEn= 0.00D+00
 Coeff-Com: -0.645D-02 0.652D+00 0.354D+00
 Coeff:     -0.645D-02 0.652D+00 0.354D+00
 Gap=     0.156 Goal=   None    Shift=    0.000
 RMSDP=2.13D-06 MaxDP=1.04D-04 DE= 4.62D-07 OVMax= 2.30D-04

 Cycle  12  Pass 1  IDiag  1:
 RMSU=  1.09D-06    CP:  9.99D-01  1.01D+00  5.00D-01
 E= -1391.85653326107     Delta-E=       -0.000000657310 Rises=F Damp=F
 DIIS: error= 2.28D-06 at cycle   4 NSaved=   4.
 NSaved= 4 IEnMin= 4 EnMin= -1391.85653326107     IErMin= 4 ErrMin= 2.28D-06
 ErrMax= 2.28D-06  0.00D+00 EMaxC= 1.00D-01 BMatC= 6.38D-09 BMatP= 1.89D-07
 IDIUse=1 WtCom= 1.00D+00 WtEn= 0.00D+00
 Coeff-Com: -0.380D-02 0.377D+00 0.212D+00 0.415D+00
 Coeff:     -0.380D-02 0.377D+00 0.212D+00 0.415D+00
 Gap=     0.156 Goal=   None    Shift=    0.000
 RMSDP=2.64D-07 MaxDP=1.79D-05 DE=-6.57D-07 OVMax= 3.27D-05

 Cycle  13  Pass 1  IDiag  1:
 RMSU=  2.39D-07    CP:  9.99D-01  1.01D+00  5.21D-01  9.24D-01
 E= -1391.85653326763     Delta-E=       -0.000000006568 Rises=F Damp=F
 DIIS: error= 8.70D-07 at cycle   5 NSaved=   5.
 NSaved= 5 IEnMin= 5 EnMin= -1391.85653326763     IErMin= 5 ErrMin= 8.70D-07
 ErrMax= 8.70D-07  0.00D+00 EMaxC= 1.00D-01 BMatC= 4.52D-10 BMatP= 6.38D-09
 IDIUse=1 WtCom= 1.00D+00 WtEn= 0.00D+00
 Coeff-Com: -0.967D-03 0.935D-01 0.550D-01 0.226D+00 0.627D+00
 Coeff:     -0.967D-03 0.935D-01 0.550D-01 0.226D+00 0.627D+00
 Gap=     0.156 Goal=   None    Shift=    0.000
 RMSDP=9.35D-08 MaxDP=7.84D-06 DE=-6.57D-09 OVMax= 9.72D-06

 Cycle  14  Pass 1  IDiag  1:
 RMSU=  7.09D-08    CP:  9.99D-01  1.01D+00  5.18D-01  9.44D-01  7.71D-01
 E= -1391.85653326790     Delta-E=       -0.000000000271 Rises=F Damp=F
 DIIS: error= 3.87D-07 at cycle   6 NSaved=   6.
 NSaved= 6 IEnMin= 6 EnMin= -1391.85653326790     IErMin= 6 ErrMin= 3.87D-07
 ErrMax= 3.87D-07  0.00D+00 EMaxC= 1.00D-01 BMatC= 1.42D-10 BMatP= 4.52D-10
 IDIUse=1 WtCom= 1.00D+00 WtEn= 0.00D+00
 Coeff-Com: -0.869D-04 0.707D-02 0.549D-02 0.898D-01 0.426D+00 0.472D+00
 Coeff:     -0.869D-04 0.707D-02 0.549D-02 0.898D-01 0.426D+00 0.472D+00
 Gap=     0.156 Goal=   None    Shift=    0.000
 RMSDP=3.94D-08 MaxDP=2.28D-06 DE=-2.71D-10 OVMax= 5.12D-06

 Cycle  15  Pass 1  IDiag  1:
 RMSU=  1.86D-08    CP:  9.99D-01  1.01D+00  5.19D-01  9.51D-01  8.19D-01
                    CP:  5.67D-01
 E= -1391.85653326806     Delta-E=       -0.000000000151 Rises=F Damp=F
 DIIS: error= 9.76D-08 at cycle   7 NSaved=   7.
 NSaved= 7 IEnMin= 7 EnMin= -1391.85653326806     IErMin= 7 ErrMin= 9.76D-08
 ErrMax= 9.76D-08  0.00D+00 EMaxC= 1.00D-01 BMatC= 1.05D-11 BMatP= 1.42D-10
 IDIUse=1 WtCom= 1.00D+00 WtEn= 0.00D+00
 Coeff-Com:  0.130D-04-0.210D-02-0.349D-03 0.406D-01 0.224D+00 0.297D+00
 Coeff-Com:  0.441D+00
 Coeff:      0.130D-04-0.210D-02-0.349D-03 0.406D-01 0.224D+00 0.297D+00
 Coeff:      0.441D+00
 Gap=     0.156 Goal=   None    Shift=    0.000
 RMSDP=1.06D-08 MaxDP=3.70D-07 DE=-1.51D-10 OVMax= 1.41D-06

 Cycle  16  Pass 1  IDiag  1:
 RMSU=  6.38D-09    CP:  9.99D-01  1.01D+00  5.20D-01  9.51D-01  8.18D-01
                    CP:  5.96D-01  5.85D-01
 E= -1391.85653326810     Delta-E=       -0.000000000047 Rises=F Damp=F
 DIIS: error= 2.32D-08 at cycle   8 NSaved=   8.
 NSaved= 8 IEnMin= 8 EnMin= -1391.85653326810     IErMin= 8 ErrMin= 2.32D-08
 ErrMax= 2.32D-08  0.00D+00 EMaxC= 1.00D-01 BMatC= 6.15D-13 BMatP= 1.05D-11
 IDIUse=1 WtCom= 1.00D+00 WtEn= 0.00D+00
 Coeff-Com:  0.153D-04-0.181D-02-0.699D-03 0.134D-01 0.808D-01 0.116D+00
 Coeff-Com:  0.250D+00 0.542D+00
 Coeff:      0.153D-04-0.181D-02-0.699D-03 0.134D-01 0.808D-01 0.116D+00
 Coeff:      0.250D+00 0.542D+00
 Gap=     0.156 Goal=   None    Shift=    0.000
 RMSDP=2.74D-09 MaxDP=9.17D-08 DE=-4.73D-11 OVMax= 2.87D-07

 SCF Done:  E(RB3LYP) =  -1391.85653327     A.U. after   16 cycles
            NFock= 16  Conv=0.27D-08     -V/T= 2.0097
 KE= 1.378429535519D+03 PE=-1.016618141888D+04 EE= 3.925151296623D+03
 Leave Link  502 at Mon Mar 24 00:09:03 2025, MaxMem= 13421772800 cpu:            1379.1 elap:              43.8
 (Enter /public/software/apps/Gaussian/g16/l601.exe)
 Copying SCF densities to generalized density rwf, IOpCl= 0 IROHF=0.

 **********************************************************************

            Population analysis using the SCF Density.

 **********************************************************************

 Alpha  occ. eigenvalues --  -19.16162 -19.16106 -10.25311 -10.25291 -10.19935
 Alpha  occ. eigenvalues --  -10.19908 -10.19529 -10.19507 -10.19353 -10.19306
 Alpha  occ. eigenvalues --  -10.19292 -10.19251 -10.19058 -10.18912 -10.18817
 Alpha  occ. eigenvalues --  -10.18767 -10.18555 -10.18465 -10.18464 -10.18395
 Alpha  occ. eigenvalues --  -10.18391 -10.18281 -10.18111 -10.17963 -10.17562
 Alpha  occ. eigenvalues --  -10.17544 -10.17041 -10.17025 -10.16903 -10.16861
 Alpha  occ. eigenvalues --  -10.16516 -10.16398 -10.16331 -10.16035  -1.05567
 Alpha  occ. eigenvalues --   -1.05295  -0.88415  -0.87511  -0.83603  -0.82965
 Alpha  occ. eigenvalues --   -0.80306  -0.80100  -0.79608  -0.77657  -0.77124
 Alpha  occ. eigenvalues --   -0.75744  -0.74022  -0.73900  -0.73120  -0.71210
 Alpha  occ. eigenvalues --   -0.69601  -0.69424  -0.65446  -0.64846  -0.64047
 Alpha  occ. eigenvalues --   -0.63377  -0.61647  -0.60930  -0.60562  -0.59000
 Alpha  occ. eigenvalues --   -0.58522  -0.58057  -0.56288  -0.55293  -0.54919
 Alpha  occ. eigenvalues --   -0.54539  -0.52616  -0.51948  -0.51369  -0.49566
 Alpha  occ. eigenvalues --   -0.48278  -0.47905  -0.47367  -0.46681  -0.46067
 Alpha  occ. eigenvalues --   -0.45714  -0.45201  -0.44749  -0.43998  -0.43812
 Alpha  occ. eigenvalues --   -0.43581  -0.43341  -0.43005  -0.42822  -0.42692
 Alpha  occ. eigenvalues --   -0.42033  -0.41651  -0.41233  -0.40893  -0.40069
 Alpha  occ. eigenvalues --   -0.39848  -0.39497  -0.39280  -0.39046  -0.38246
 Alpha  occ. eigenvalues --   -0.38093  -0.37692  -0.37357  -0.37202  -0.36667
 Alpha  occ. eigenvalues --   -0.36542  -0.35529  -0.35392  -0.34779  -0.34554
 Alpha  occ. eigenvalues --   -0.34159  -0.34043  -0.33451  -0.32803  -0.32546
 Alpha  occ. eigenvalues --   -0.32519  -0.32062  -0.31891  -0.31459  -0.31102
 Alpha  occ. eigenvalues --   -0.30928  -0.30706  -0.29065  -0.27683  -0.24204
 Alpha  occ. eigenvalues --   -0.24069  -0.21810  -0.20775
 Alpha virt. eigenvalues --   -0.05161  -0.04079  -0.01531  -0.01023   0.01440
 Alpha virt. eigenvalues --    0.02665   0.05498   0.05586   0.05909   0.06641
 Alpha virt. eigenvalues --    0.07094   0.07148   0.07664   0.07943   0.08010
 Alpha virt. eigenvalues --    0.08758   0.08982   0.09050   0.09571   0.09684
 Alpha virt. eigenvalues --    0.10217   0.11122   0.11329   0.11575   0.11901
 Alpha virt. eigenvalues --    0.12334   0.12672   0.13129   0.13361   0.13781
 Alpha virt. eigenvalues --    0.13988   0.14010   0.14917   0.15173   0.15503
 Alpha virt. eigenvalues --    0.15745   0.16108   0.16255   0.16716   0.16973
 Alpha virt. eigenvalues --    0.17063   0.17769   0.18232   0.18537   0.18738
 Alpha virt. eigenvalues --    0.19039   0.19302   0.19765   0.20655   0.21035
 Alpha virt. eigenvalues --    0.22111   0.23091   0.23217   0.23557   0.24181
 Alpha virt. eigenvalues --    0.24411   0.24847   0.25259   0.25919   0.26171
 Alpha virt. eigenvalues --    0.26605   0.26973   0.27398   0.27829   0.28451
 Alpha virt. eigenvalues --    0.29212   0.29977   0.30542   0.31018   0.31307
 Alpha virt. eigenvalues --    0.31665   0.32500   0.32876   0.33514   0.34339
 Alpha virt. eigenvalues --    0.34844   0.36096   0.36341   0.37131   0.38231
 Alpha virt. eigenvalues --    0.38765   0.39385   0.40184   0.40792   0.41074
 Alpha virt. eigenvalues --    0.41572   0.42293   0.42448   0.42667   0.42726
 Alpha virt. eigenvalues --    0.43276   0.43933   0.44238   0.44437   0.44724
 Alpha virt. eigenvalues --    0.45070   0.45730   0.45901   0.45989   0.46349
 Alpha virt. eigenvalues --    0.47212   0.47494   0.47828   0.48174   0.48256
 Alpha virt. eigenvalues --    0.48482   0.49488   0.49741   0.50070   0.50532
 Alpha virt. eigenvalues --    0.50646   0.51216   0.51979   0.52922   0.53010
 Alpha virt. eigenvalues --    0.53808   0.54554   0.55269   0.55867   0.56364
 Alpha virt. eigenvalues --    0.57154   0.57554   0.57680   0.58375   0.58604
 Alpha virt. eigenvalues --    0.59003   0.59809   0.60685   0.61522   0.61755
 Alpha virt. eigenvalues --    0.62096   0.62381   0.63147   0.63533   0.64022
 Alpha virt. eigenvalues --    0.64175   0.64736   0.65237   0.65789   0.66154
 Alpha virt. eigenvalues --    0.66495   0.66691   0.67124   0.67266   0.67620
 Alpha virt. eigenvalues --    0.68045   0.68206   0.68422   0.68647   0.68887
 Alpha virt. eigenvalues --    0.69014   0.69088   0.69721   0.69856   0.70043
 Alpha virt. eigenvalues --    0.70301   0.70796   0.70922   0.70950   0.71234
 Alpha virt. eigenvalues --    0.71561   0.71815   0.72046   0.72222   0.72547
 Alpha virt. eigenvalues --    0.72681   0.72779   0.73075   0.73108   0.73594
 Alpha virt. eigenvalues --    0.73824   0.74105   0.74390   0.74531   0.74726
 Alpha virt. eigenvalues --    0.75089   0.75192   0.75624   0.76028   0.76219
 Alpha virt. eigenvalues --    0.76820   0.77109   0.77367   0.77840   0.78143
 Alpha virt. eigenvalues --    0.78367   0.78815   0.79019   0.79185   0.79304
 Alpha virt. eigenvalues --    0.79876   0.80086   0.80763   0.81133   0.81691
 Alpha virt. eigenvalues --    0.82297   0.82597   0.83030   0.83628   0.84306
 Alpha virt. eigenvalues --    0.85089   0.85338   0.86005   0.86282   0.86583
 Alpha virt. eigenvalues --    0.88308   0.89256   0.90352   0.92110   0.92554
 Alpha virt. eigenvalues --    0.93838   0.94106   0.95510   0.96326   0.97040
 Alpha virt. eigenvalues --    0.97781   0.97973   1.01472   1.02214   1.03244
 Alpha virt. eigenvalues --    1.03469   1.04744   1.05458   1.06262   1.07210
 Alpha virt. eigenvalues --    1.08512   1.09815   1.10476   1.11246   1.11644
 Alpha virt. eigenvalues --    1.12257   1.12603   1.13181   1.13589   1.14283
 Alpha virt. eigenvalues --    1.15670   1.16899   1.18618   1.18953   1.20098
 Alpha virt. eigenvalues --    1.21444   1.21673   1.23332   1.25663   1.26001
 Alpha virt. eigenvalues --    1.27626   1.28370   1.28886   1.30267   1.31065
 Alpha virt. eigenvalues --    1.32787   1.34909   1.35587   1.36353   1.38135
 Alpha virt. eigenvalues --    1.38994   1.39987   1.41078   1.41490   1.42431
 Alpha virt. eigenvalues --    1.44356   1.45319   1.46379   1.46855   1.47124
 Alpha virt. eigenvalues --    1.47611   1.48327   1.49018   1.49347   1.49712
 Alpha virt. eigenvalues --    1.50515   1.50850   1.51501   1.52976   1.53875
 Alpha virt. eigenvalues --    1.54571   1.55987   1.58181   1.59378   1.60275
 Alpha virt. eigenvalues --    1.64644   1.66599   1.66834   1.69735   1.71552
 Alpha virt. eigenvalues --    1.72477   1.73168   1.74082   1.74305   1.75374
 Alpha virt. eigenvalues --    1.76375   1.77939   1.78131   1.79552   1.80137
 Alpha virt. eigenvalues --    1.80873   1.81146   1.82540   1.82823   1.84872
 Alpha virt. eigenvalues --    1.85189   1.85721   1.86596   1.87145   1.88591
 Alpha virt. eigenvalues --    1.88866   1.89310   1.89700   1.89844   1.90237
 Alpha virt. eigenvalues --    1.90595   1.91533   1.91737   1.93422   1.94545
 Alpha virt. eigenvalues --    1.95097   1.95379   1.95661   1.96393   1.96817
 Alpha virt. eigenvalues --    1.97765   1.98158   1.98349   2.00294   2.01460
 Alpha virt. eigenvalues --    2.02074   2.03449   2.04695   2.06340   2.06581
 Alpha virt. eigenvalues --    2.07694   2.08404   2.09623   2.09813   2.10124
 Alpha virt. eigenvalues --    2.10938   2.12090   2.12176   2.13196   2.15749
[...]
 0.00002965,0.00008305,0.00002084,-0.00003126,-0.00024345,-0.00001162,-
 0.01169128,0.00425398,-0.01858259,-0.00089750,-0.00037890,0.00185929,-
 0.08150850,0.04109101,-0.30721094,0.00021570,0.00055952,-0.00092459,-0
 .00022209,0.00077420,0.00193379,-0.00000415,0.00007509,-0.00027796,-0.
 00000090,-0.00000064,-0.00000200,-0.00000054,0.00000256,0.00000192,-0.
 00000003,-0.00000056,-0.00000005,-0.00000003,0.00000301,0.00000137,0.0
 0000079,-0.00000094,0.00000009,-0.00000006,0.00000071,0.00000045,-0.00
 000116,0.00000269,-0.00000017,-0.00000241,-0.00000460,-0.00000195,-0.0
 0000047,-0.00000110,0.00000063,0.00000261,0.00000177,-0.00000022,-0.00
 000505,0.00000889,-0.00000249,-0.00000203,0.00000118,0.00000411,-0.000
 01812,0.00000374,-0.00000820,-0.00000752,0.00000534,-0.00001206,0.0000
 1604,0.00000534,0.00000118,0.00002797,0.00008649,0.00001731,0.00001946
 ,-0.00000542,-0.00002165,0.00000195,0.00000799,-0.00000875,0.00000961,
 0.00000198,-0.00000420,0.00000627,0.00000622,0.00000089,0.00000368,0.0
 0000179,0.,-0.00000235,0.00000033,0.00000102,0.00000679,-0.00000017,0.
 00000582,0.00000512,-0.00000160,0.00000276,-0.00000339,-0.00000531,0.0
 0000173,0.00000229,-0.00000179,0.00000575,-0.00000409,0.00000550,0.000
 00867,0.00000616,-0.00000408,0.00000474,0.00000106,0.00000134,-0.00001
 442,0.00001311,-0.00000766,0.00001949,-0.00000042,0.00000239,-0.000003
 09,-0.00000758,-0.00000246,0.00000597,0.00000577,0.00001532,0.00000083
 ,-0.00003726,-0.00001455,-0.00002445,0.00004114,-0.00005103,0.00020132
 ,0.09015186,-0.04542859,0.32344454,-0.00000523,-0.00000505,-0.00000225
 ,0.00000905,-0.00000029,0.00001271,-0.00000581,0.00000956,-0.00000370,
 0.00000838,-0.00001127,0.00000661,0.00001267,0.00002557,0.00000065,-0.
 00003643,0.00002167,0.00002617,0.00005419,-0.00007705,0.00048390,0.000
 34616,-0.00003785,-0.00013652,0.00020815,0.00002113,-0.00047770,0.0000
 5327,0.00086819,-0.00173938,-0.00017047,-0.00006052,-0.00051912,0.0000
 2900,-0.00012597,0.00002635,-0.00005586,-0.00005714,-0.00000279,0.0000
 3798,0.00004540,0.00000871,0.00001344,0.00000422,-0.00001734,-0.000018
 24,-0.00001628,0.00000813,-0.00000068,0.00000823,0.00000801,-0.0000109
 8,-0.00001346,-0.00000734,-0.00000368,0.00001279,0.00001381,0.00000554
 ,0.00000648,-0.00000628,0.00000009,-0.00000341,0.00000867,0.00000345,0
 .00000322,0.00000212,0.00000340,-0.00000434,-0.00000054,0.00000383,0.0
 0001025,0.00000650,-0.00000495,0.00001179,-0.00000358,0.00001815,0.000
 01505,0.00000129,-0.00001029,-0.00004175,0.00000614,0.00002336,0.00005
 806,0.00003811,-0.00310374,0.00190337,-0.00312361,-0.00117357,-0.00000
 221,0.00138434,-0.01584835,-0.00004318,0.02435035,-0.18346521,0.003279
 47,0.13773378,0.00862861,0.00016942,-0.00724626,0.00066745,-0.00030060
 ,-0.00164705,0.00000627,0.00000618,0.00000509,0.00000223,-0.00000879,-
 0.00000413,-0.00000255,0.00000329,-0.00000204,-0.00000139,-0.00000479,
 -0.00000557,-0.00000505,-0.00000017,0.00000107,0.00000109,-0.00000229,
 -0.00000257,0.00000064,-0.00000415,-0.00000055,-0.00000175,0.00001190,
 0.00000375,0.00000084,0.00000306,0.00000157,-0.00000407,-0.00000060,-0
 .00000367,0.00001126,-0.00001801,-0.00000131,-0.00000086,-0.00000184,-
 0.00000208,0.00003083,-0.00001131,0.00001715,-0.00000716,0.00000452,0.
 00002433,-0.00002876,0.00004837,-0.00012032,-0.00002047,-0.00003804,-0
 .00002007,-0.00000354,0.00000372,0.00000498,-0.00000439,-0.00000097,0.
 00000279,-0.00000648,-0.00000013,0.00000290,-0.00000305,-0.00000709,-0
 .00000038,-0.00000441,-0.00000069,0.00000107,0.00000179,0.00000396,0.0
 0000148,-0.00000666,-0.00000507,-0.00000188,-0.00000355,-0.00000053,-0
 .00000476,-0.00000182,-0.00000258,0.00000301,-0.00000464,0.00000195,-0
 .00000111,0.00000224,-0.00000303,-0.00000550,-0.00000979,-0.00000461,-
 0.00000718,0.00000371,0.00000724,0.00000492,0.00001264,-0.00000785,0.0
 0003007,0.00000219,-0.00000603,-0.00002841,-0.00002108,-0.00000254,0.0
 0000068,-0.00000373,-0.00000749,-0.00000263,0.00000030,0.00003954,0.00
 000445,-0.00030223,0.00005879,-0.00016427,0.00125848,-0.00081213,-0.00
 037309,0.19288605,-0.00000202,-0.00001945,0.00000421,0.00001386,-0.000
 00017,0.00000963,-0.00000163,-0.00000648,-0.00000096,0.00001739,-0.000
 01399,0.00001141,-0.00005315,0.00000852,-0.00000664,0.00003139,0.00019
 051,0.00003721,0.00002112,-0.00008298,-0.00012276,-0.00006671,-0.00011
 547,-0.00000387,-0.00018737,-0.00000578,0.00014834,0.00108739,0.004444
 12,0.00120620,-0.00001156,-0.00085025,-0.00005947,-0.00014035,-0.00081
 167,-0.00012242,0.00007783,0.00010301,-0.00007685,-0.00001425,-0.00002
 833,0.00001153,0.00000226,-0.00001799,-0.00003760,-0.00000152,-0.00002
 725,0.00000414,-0.00002439,-0.00000819,0.00000760,-0.00000917,-0.00000
 248,-0.00000214,-0.00000774,0.00000278,0.00000859,-0.00000008,0.000001
 34,-0.00000146,-0.00000239,-0.00000052,0.00000239,-0.00000047,0.000000
 97,-0.00000043,0.,-0.00000062,0.00000072,-0.00000062,0.00000100,-0.000
 00035,0.00000096,-0.00000024,0.00000141,0.00001556,0.00000246,0.000000
 94,-0.00002291,-0.00002725,0.00001969,-0.00006376,0.00006911,0.0000687
 6,0.00177080,0.00846123,0.00122144,0.00023132,0.00008441,-0.00018311,0
 .00345566,0.00489381,-0.00361602,0.00310310,-0.03926386,0.00138376,-0.
 00299612,0.00417458,0.00345101,-0.00074801,-0.00293546,-0.00026716,0.0
 0001147,0.00001066,-0.00000298,0.00000367,-0.00000207,-0.00000120,-0.0
 0000887,0.00000693,-0.00000626,-0.00000429,0.00000517,-0.00000731,-0.0
 0001167,-0.00000613,0.00000340,0.00000301,0.00000349,-0.00000588,-0.00
 000834,0.00000325,-0.00000352,-0.00001422,-0.00000118,0.00001437,0.000
 01566,0.00000446,-0.00000361,0.00000277,-0.00000606,-0.00000731,-0.000
 00838,0.00000758,-0.00000948,0.00000309,0.00000632,0.00000104,0.000031
 47,-0.00001551,-0.00000450,0.00001613,0.00004249,-0.00000103,0.0000747
 4,0.00015985,0.00007063,0.00003877,0.00003800,0.00002780,0.00000759,0.
 00000133,-0.00001144,0.00000034,0.00000005,-0.00000035,-0.00000294,-0.
 00000073,-0.00000196,-0.00000033,-0.00000186,0.00000068,0.00000065,-0.
 00000035,-0.00000104,0.00000085,0.00000043,-0.00000128,-0.00000040,-0.
 00000043,-0.00000007,-0.00000018,-0.00000016,0.00000028,0.00000069,-0.
 00000049,-0.00000069,0.00000163,-0.00000082,-0.00000023,-0.00000042,0.
 00000046,-0.00000071,-0.00000087,0.00000033,-0.00000030,0.00000008,-0.
 00000234,0.00000146,-0.00000242,0.00000441,-0.00000222,-0.00000064,0.0
 0000078,0.00000113,0.00000400,-0.00000111,-0.00000093,-0.00000390,-0.0
 0000325,-0.00000039,0.00000897,0.00000726,0.00001482,0.00000159,-0.000
 27133,0.00001695,-0.00090522,-0.00512783,-0.00064782,-0.00489389,0.026
 76452,-0.00000020,0.00001795,-0.00000647,-0.00000196,-0.00000126,-0.00
 000494,-0.00000246,0.00000884,0.00000412,0.00001224,0.00000185,-0.0000
 1812,-0.00000951,-0.00000666,-0.00001869,0.00004739,0.00002783,-0.0000
 2372,-0.00031286,0.00000178,0.00019130,0.00004443,-0.00003342,0.000101
 20,0.00145227,-0.00014033,-0.00061049,-0.00347812,0.00140241,-0.003700
 37,-0.00083013,0.00002156,0.00011752,0.00005814,-0.00007913,0.00001702
 ,-0.00002957,0.00002011,-0.00000024,0.00004263,-0.00004405,0.00000689,
 0.00000115,0.00001041,0.00000602,0.00000946,-0.00000461,-0.00000208,-0
 .00000281,0.00000134,-0.00001290,-0.00000475,0.00000076,0.00000245,-0.
 00000331,-0.00000042,-0.00000080,-0.00000258,-0.00000188,0.00000308,-0
 .00000095,0.00000134,-0.00000335,-0.00000155,-0.00000016,0.00000059,-0
 .00000169,-0.00000087,-0.00000184,-0.00000117,0.00000127,-0.00000051,-
 0.00000416,0.00000056,-0.00000064,0.00000139,-0.00000091,0.00000301,-0
 .00000193,0.00000168,0.00000617,-0.00000512,-0.00004901,0.00001747,-0.
 00171399,0.00115822,0.00071441,-0.00002574,-0.00001763,0.00032097,-0.0
 0640597,0.00043779,0.00840955,0.13811168,0.00127854,-0.20943083,0.0212
 9534,-0.00037182,-0.01682687,0.00208701,-0.00079934,0.00114296,-0.0000
 0461,-0.00000544,0.00000623,-0.00000155,-0.00000344,0.00000102,0.00000
 264,-0.00000386,0.00000326,0.00000212,-0.00000478,0.00000515,0.0000033
 4,0.00000454,-0.00000280,-0.00000165,-0.00000885,0.00000862,0.00000363
 ,-0.00000298,0.00000165,0.00001406,-0.00000202,-0.00001811,-0.00002841
 ,0.00000057,0.00001323,-0.00000266,-0.00001385,0.00002353,-0.00000461,
 0.00000793,0.00000669,-0.00005009,0.00000115,0.00001343,0.00000076,0.0
 0000959,0.00000835,-0.00007068,0.00001155,0.00002555,-0.00016612,0.000
 10310,-0.00040747,-0.00004652,0.00008251,-0.00000447,-0.00000065,0.000
 00031,-0.00000329,0.00000229,0.00000109,-0.00000096,0.00000135,0.00000
 033,-0.00000242,0.00000157,0.00000278,0.00000007,0.00000165,0.00000015
 ,-0.00000080,-0.00000026,-0.00000127,-0.00000068,0.00000282,0.00000167
 ,0.00000111,0.00000105,-0.00000011,0.00000159,0.00000052,0.00000019,-0
 .00000125,0.00000199,-0.00000080,0.00000078,-0.00000075,0.00000156,0.0
 0000144,0.00000089,-0.00000025,0.00000142,-0.00000024,-0.00000198,-0.0
 0000153,-0.00000171,0.00000113,0.00000084,0.00000049,0.00000110,-0.000
 00069,0.00000105,-0.00000098,0.00000005,0.00000134,0.00000199,0.000001
 67,-0.00000475,-0.00000298,-0.00000309,-0.00016169,-0.00000726,0.00003
 473,0.00037985,-0.00072794,0.00069774,-0.14890386,-0.00248010,0.219044
 74,-0.00000343,-0.00002869,0.00000430,0.00001401,-0.00000855,0.0000137
 3,-0.00005837,-0.00004173,-0.00004393,0.00008824,0.00010769,-0.0000073
 6,0.00015656,0.00004739,0.00014957,0.00097720,-0.00045409,-0.00164055,
 0.00790036,0.00039035,-0.00744484,0.00030529,0.00121491,-0.00192899,-0
 .00011430,0.00005487,-0.00068870,-0.00394166,0.00161453,-0.00307977,-0
 .00034727,-0.00007618,0.00138430,-0.00032718,0.00004516,-0.00022759,-0
 .00005392,-0.00010565,0.00001986,0.00002964,0.00009144,-0.00000054,0.0
 0002727,-0.00001362,-0.00000651,-0.00003188,-0.00001315,0.00000885,-0.
 00000707,-0.00000689,0.00003696,-0.00000336,-0.00000927,-0.00000269,-0
 .00000181,0.00001019,0.00001060,0.00000556,0.00000512,-0.00000637,0.00
 000119,-0.00000341,0.00000836,0.00000353,0.00000067,-0.00000053,0.0000
 0299,0.00000086,0.00000405,0.00000352,-0.00000016,0.00000187,0.0000017
 5,0.00000236,0.00000411,0.00001291,0.00000299,-0.00000905,-0.00001605,
 -0.00002328,-0.00001600,-0.00000438,0.00011839,0.00006430,0.00035457,-
 0.00010149,0.00021578,-0.00027031,0.00005747,-0.00018021,0.00004433,0.
 00004236,-0.00034292,0.00119495,-0.00087226,0.00220685,-0.01608787,0.0
 0005541,0.02327751,-0.17676871,0.00264000,0.13593822,0.00001698,0.0000
 0940,-0.00000441,0.00000112,-0.00000138,-0.00000303,-0.00000837,0.0000
 1058,-0.00000611,-0.00000546,0.00000211,-0.00000978,-0.00001195,-0.000
 01012,0.00000270,0.00000393,0.00000995,-0.00001359,-0.00001421,0.00002
 670,-0.00000933,-0.00014958,-0.00003469,0.00006820,0.00009701,0.000054
 51,0.00000581,-0.00002714,-0.00003607,-0.00003509,-0.00000127,-0.00008
 341,-0.00002865,0.00011002,-0.00013661,0.00007706,-0.00005758,0.000082
 84,-0.00003530,0.00039429,0.00006975,-0.00039794,-0.00005943,-0.000137
 58,0.00007381,0.00001747,-0.00007929,-0.00002606,-0.00000448,0.0000038
 9,0.00000746,-0.00000668,-0.00000022,0.00000058,-0.00000589,-0.0000017
 7,0.00000459,-0.00000346,-0.00000659,-0.00000056,-0.00000377,-0.000000
 52,0.00000115,0.00000124,0.00000271,0.00000116,-0.00000616,-0.00000361
 ,-0.00000245,-0.00000300,0.00000001,-0.00000370,-0.00000082,-0.0000005
 0,0.00000211,-0.00000394,0.00000168,-0.00000178,0.00000202,-0.00000329
 ,-0.00000462,-0.00000526,-0.00000097,-0.00000476,0.00000119,0.00000422
 ,0.00000483,0.00000509,-0.00000232,0.00000581,0.00000025,-0.00000336,-
 0.00000829,-0.00000662,0.00000099,-0.00000050,-0.00000287,-0.00000717,
 -0.00000234,0.00000667,0.00001384,0.00000546,0.00006320,-0.00000729,-0
 .00001198,-0.00003182,0.00002688,-0.00000945,0.00001417,0.00016545,-0.
 00129516,0.18659878,0.00001072,-0.00003797,0.00002405,-0.00000054,-0.0
 0001874,-0.00000730,-0.00005100,-0.00008433,-0.00009831,0.00005023,0.0
 0012940,0.00009099,0.00078734,0.00026832,0.00059135,-0.00073083,-0.004
 97343,-0.00098992,-0.00344877,0.00502187,0.00370361,0.00139843,0.00686
 241,0.00157635,-0.00002342,-0.00054816,-0.00000271,0.00132512,0.004699
 25,0.00108683,0.00012136,0.00028283,-0.00018468,0.00008872,0.00017644,
 0.00002884,-0.00004419,0.00004181,0.00004173,0.00000454,-0.00008036,0.
 00000123,0.00002246,-0.00000879,0.00000439,-0.00000941,-0.00000584,0.0
 0000191,0.00000481,0.00002190,0.00000910,0.00000321,-0.00000861,-0.000
 00810,-0.00000324,0.00000294,0.00000364,0.00000038,0.00000193,-0.00000
 163,-0.00000099,-0.00000060,0.00000138,0.00000003,0.00000108,0.0000000
 2,0.00000041,-0.00000032,0.00000010,-0.00000006,0.00000130,0.00000025,
 0.00000009,-0.00000006,0.00000006,0.00000617,0.00000223,-0.00000285,-0
 .00000799,-0.00001402,0.00000070,0.00003614,-0.00001093,-0.00003778,-0
 .00003619,-0.00015932,-0.00006299,0.00001361,0.00001216,0.00002385,-0.
 00006539,-0.00003604,0.00002016,-0.00042292,-0.00311874,-0.00073466,0.
 00349462,0.00340109,-0.00361987,0.00306475,-0.03783283,0.00194999,0.00
 001029,0.00000805,-0.00002885,0.00000050,0.00001995,0.00000255,-0.0000
 1111,0.00000987,-0.00000824,-0.00000691,0.00002104,-0.00000557,-0.0000
 1093,-0.00001723,0.00000473,0.00000421,0.00005349,-0.00002558,-0.00004
 068,0.00006255,-0.00001693,-0.00023766,-0.00010203,0.00010493,0.000184
 64,-0.00007694,-0.00006568,-0.00003035,-0.00005021,-0.00004489,0.00003
 107,-0.00025930,0.00002038,-0.00008188,0.00014697,0.00027874,-0.000459
 51,0.00032817,-0.00039369,-0.00012542,0.00013948,0.00022193,-0.0001371
 1,-0.00097261,-0.00014175,0.00000546,0.00004065,-0.00001736,-0.0000016
 5,0.00000227,-0.00000166,-0.00000110,0.00000027,-0.00000195,0.00000154
 ,0.00000089,0.00000014,-0.00000049,-0.00000214,0.00000038,-0.00000012,
 -0.00000021,-0.00000019,0.00000051,0.00000077,-0.00000035,-0.00000105,
 -0.00000093,-0.00000007,-0.00000019,-0.00000022,-0.00000024,0.00000004
 ,-0.00000058,0.00000010,0.00000037,-0.00000047,0.,-0.00000018,0.000000
 02,-0.00000060,-0.00000081,-0.00000016,-0.00000055,0.00000041,-0.00000
 072,0.00000066,-0.00000034,0.00000090,0.00000085,-0.00000037,0.0000002
 8,-0.00000081,0.00000077,-0.00000049,-0.00000014,-0.00000165,-0.000002
 40,-0.00000003,-0.00000113,0.00000402,0.00000093,-0.00000298,0.0000039
 9,-0.00000093,0.00001951,0.00017149,0.00001971,-0.00002139,0.00015449,
 0.00019294,-0.00467249,0.02632917,-0.00001389,0.00001648,-0.00001947,0
 .00002144,0.00000878,0.00002326,-0.00003157,0.00008889,0.00007554,0.00
 008935,-0.00010045,-0.00015084,-0.00020067,0.00005010,0.00004653,0.002
 41974,-0.00073722,0.00057511,0.02096537,-0.00006496,-0.01799434,-0.003
 29192,0.00187391,-0.00401382,-0.00076406,0.00004955,0.00006451,-0.0015
 7578,0.00071941,0.00059373,-0.00032112,0.00006396,0.00024354,-0.000052
 70,0.00004884,-0.00002765,-0.00002057,-0.00000015,0.00001649,0.0000398
 1,-0.00002042,-0.00000702,0.00000503,-0.00000035,0.00000955,0.00000253
 ,0.00000268,-0.00000124,0.00000564,-0.00000331,-0.00000440,0.00000287,
 0.00000503,0.00000500,-0.00000176,-0.00000582,-0.00000658,-0.00000399,
 -0.00000453,0.00000493,-0.00000168,0.00000228,-0.00000536,-0.00000284,
 -0.00000116,-0.00000015,-0.00000295,0.00000012,-0.00000142,-0.00000277
 ,-0.00000119,-0.00000251,-0.00000208,-0.00000194,0.00000048,-0.0000040
 0,-0.00000695,-0.00000090,0.00000232,0.00001552,0.00000533,-0.00002054
 ,-0.00004319,-0.00001303,-0.00033901,0.00000415,0.00024332,0.00024581,
 -0.00003153,0.00000333,0.00046245,-0.00008034,0.00010689,-0.00177296,-
 0.00023904,0.00063071,-0.00501432,0.00029635,0.00662575,0.13526006,0.0
 0200331,-0.20988114,0.00000282,-0.00000067,0.00002469,0.00000088,-0.00
 001819,-0.00000608,-0.00000048,0.00000222,0.00000362,0.00000114,-0.000
 02186,-0.00000662,-0.00000580,0.00000839,-0.00000766,-0.00000115,-0.00
 006180,0.00003313,0.00001988,-0.00002798,0.00000775,0.00011203,0.00004
 256,-0.00006510,-0.00019380,0.00003156,0.00011947,0.00001828,-0.000173
 17,0.00012093,0.00000884,0.00005503,0.00001858,-0.00134238,-0.00006564
 ,0.00032450,-0.00020015,-0.00005615,0.00031332,0.00111304,-0.00001045,
 -0.00095847,0.00006845,-0.00013371,-0.00004421,-0.00001336,0.00005792,
 -0.00000275,-0.00000034,0.00000032,-0.00000358,0.00000296,0.00000154,-
 0.00000282,0.00000431,-0.00000047,-0.00000239,0.00000219,0.00000505,0.
 00000054,0.00000344,0.00000025,-0.00000154,-0.00000053,-0.00000255,-0.
 00000161,0.00000510,0.00000356,0.00000172,0.00000201,0.00000004,0.0000
 0325,0.00000147,0.00000100,-0.00000268,0.00000377,-0.00000159,0.000001
 07,-0.00000134,0.00000266,0.00000294,0.00000333,0.00000110,0.00000339,
 -0.00000078,-0.00000417,-0.00000245,-0.00000446,0.00000317,-0.00000785
 ,-0.00000040,0.00000266,0.00000734,0.00000689,-0.00000082,-0.00000006,
 0.00000089,0.00000344,0.00000264,-0.00000209,-0.00001279,-0.00000410,-
 0.00003167,-0.00000191,0.00002414,0.00005120,0.00001500,0.00001235,0.0
 0035318,-0.00004769,0.00014275,-0.14606861,-0.00350265,0.22280769\\-0.
 00000293,-0.00000123,0.00000402,0.00000421,0.00000519,-0.00000179,-0.0
 0000188,0.00000402,-0.00000524,0.00000342,-0.00000198,0.00000591,-0.00
 000190,0.00000186,-0.00000291,-0.00000359,-0.00000572,0.00000070,0.000
 00058,-0.00000006,-0.00000118,0.00000100,-0.00000131,-0.00000200,-0.00
 000003,0.00000016,-0.00000173,0.00000133,-0.00000142,-0.00000081,-0.00
 000041,0.00000131,-0.00000247,-0.00000159,-0.00000317,-0.00000088,0.00
 000154,0.00000121,-0.00000018,-0.00000397,0.00000040,0.00000048,-0.000
 00162,-0.00000041,0.00000023,0.00000282,0.00000062,-0.00000031,-0.0000
 0273,-0.00000057,-0.00000158,0.00000259,0.00000144,0.00000116,0.000001
 83,-0.00000090,-0.00000170,0.00000095,0.00000077,-0.00000644,-0.000002
 30,0.00000711,0.00000954,0.00000144,-0.00000546,-0.00000276,-0.0000000
 2,-0.00000488,0.00000030,0.00000291,0.00000307,0.00000154,-0.00000445,
 0.00000031,-0.00000076,-0.00000331,0.00000181,0.00000145,0.00000150,0.
 00000495,0.00000228,-0.00000019,-0.00000253,-0.00000288,0.00000502,-0.
 00000183,0.00000433,0.00000009,0.00000143,-0.00000233,-0.00000136,-0.0
 0000033,-0.00000118,-0.00000073,0.00000092,0.00000164,-0.00000124,-0.0
 0000048,0.00000069,-0.00000072,0.00000362,0.00000112,0.00000043,0.0000
 0015,-0.00000043,-0.00000085,-0.00000128,0.00000042,0.00000122,-0.0000
 0019,0.00000070,0.00000078,-0.00000150,0.00000181,-0.00000050,-0.00000
 064,0.00000013,-0.00000137,-0.00000104,0.00000160,0.00000088,0.0000000
 5,0.00000145,-0.00000131,0.00000064,-0.00000105,-0.00000099,0.00000130
 ,-0.00000061,0.00000072,-0.00000050,0.00000143,0.00000097,0.00000088,0
 .00000161,-0.00000038,-0.00000062,-0.00000132,0.00000179,0.00000320,0.
 00000032,-0.00000050,0.00000038,0.00000052,0.00000018,-0.00000045,0.00
 000020,0.00000148,0.00000003,-0.00000081,0.00000011,0.00000036,-0.0000
 0021,-0.00000093,0.00000052,-0.00000074,-0.00000109,0.00000043,-0.0000
 0029,-0.00000123,-0.00000127,0.00000067,0.00000089,0.00000068,0.000002
 90,0.00000105,-0.00000112,-0.00000257,0.00000086,-0.00000140,-0.000001
 18,0.00000059,-0.00000085,-0.00000017,-0.00000180,0.00000223,-0.000000
 39,0.00000075,0.00000245,-0.00000015,0.00000068,-0.00000173,0.00000108
 ,-0.00000194,-0.00000177,-0.00000119,0.00000057,0.00000100,-0.00000041
 ,0.00000027,-0.00000135,-0.00000075,0.00000059,-0.00000058,0.00000198,
 0.00000068,-0.00000121,-0.00000131,0.00000096,-0.00000091,0.00000065,-
 0.00000027,0.00000036,-0.00000115,-0.00000047,-0.00000115,0.00000128,0
 .00000005,-0.00000077,0.00000017,0.00000069,-0.00000115,-0.00000002,0.
 00000019,-0.00000110,-0.00000041\\\@
 The archive entry for this job was punched.


 OLD HORSE! OLD HORSE! WHAT BROUGHT YOU HERE?
 FROM SACARAP' TO PORTLAND PIER
 I'VE CARTED STONE THIS MANY A YEAR;
 TILL, KILLED BY BLOWS AND SORE ABUSE,
 THEY SALTED ME DOWN FOR SAILORS' USE.
 THE SAILORS THEY DO ME DESPISE;
 THEY TURN ME OVER AND DAMN MY EYES;
 CUT OFF MY MEAT, AND SCRAPE MY BONES,
 AND PITCH ME OVER TO DAVY JONES.

    SAILORS' COMPLAINT ABOUT THE BEEF
    SERVED ON SHIPBOARD, CIRCA 1835.
 Job cpu time:       0 days  6 hours 15 minutes 14.0 seconds.
 Elapsed time:       0 days  0 hours 11 minutes 48.1 seconds.
 File lengths (MBytes):  RWF=   2377 Int=      0 D2E=      0 Chk=     29 Scr=      1
 Normal termination of Gaussian 16 at Mon Mar 24 00:31:16 2025.
