 Entering Gaussian System, Link 0=g16
 Initial command:
 /public/software/apps/Gaussian/g16/l1.exe "/tmp/Gau-6590.inp" -scrdir="/tmp/"
 Entering Link 1 = /public/software/apps/Gaussian/g16/l1.exe PID=      6591.
  
 Copyright (c) 1988-2019, Gaussian, Inc.  All Rights Reserved.
  
 This is part of the Gaussian(R) 16 program.  It is based on
 the Gaussian(R) 09 system (copyright 2009, Gaussian, Inc.),
 the Gaussian(R) 03 system (copyright 2003, Gaussian, Inc.),
 the Gaussian(R) 98 system (copyright 1998, Gaussian, Inc.),
 the Gaussian(R) 94 system (copyright 1995, Gaussian, Inc.),
 the Gaussian 92(TM) system (copyright 1992, Gaussian, Inc.),
 the Gaussian 90(TM) system (copyright 1990, Gaussian, Inc.),
 the Gaussian 88(TM) system (copyright 1988, Gaussian, Inc.),
 the Gaussian 86(TM) system (copyright 1986, Carnegie Mellon
 University), and the Gaussian 82(TM) system (copyright 1983,
 Carnegie Mellon University). Gaussian is a federally registered
 trademark of Gaussian, Inc.
  
 This software contains proprietary and confidential information,
 including trade secrets, belonging to Gaussian, Inc.
  
 This software is provided under written license and may be
 used, copied, transmitted, or stored only in accord with that
 written license.
  
 The following legend is applicable only to US Government
 contracts under FAR:
  
                    RESTRICTED RIGHTS LEGEND
  
 Use, reproduction and disclosure by the US Government is
 subject to restrictions as set forth in subparagraphs (a)
 and (c) of the Commercial Computer Software - Restricted
 Rights clause in FAR 52.227-19.
  
 Gaussian, Inc.
 340 Quinnipiac St., Bldg. 40, Wallingford CT 06492
  
  
 ---------------------------------------------------------------
 Warning -- This program may not be used in any manner that
 competes with the business of Gaussian, Inc. or will provide
 assistance to any competitor of Gaussian, Inc.  The licensee
 of this program is prohibited from giving any competitor of
 Gaussian, Inc. access to this program.  By using this program,
 the user acknowledges that Gaussian, Inc. is engaged in the
 business of creating and licensing software in the field of
 computational chemistry and represents and warrants to the
 licensee that it is not a competitor of Gaussian, Inc. and that
 it will not use this program in any manner prohibited above.
 ---------------------------------------------------------------
  

 Cite this work as:
 Gaussian 16, Revision C.01,
 M. J. Frisch, G. W. Trucks, H. B. Schlegel, G. E. Scuseria, 
 M. A. Robb, J. R. Cheeseman, G. Scalmani, V. Barone, 
 G. A. Petersson, H. Nakatsuji, X. Li, M. Caricato, A. V. Marenich, 
 J. Bloino, B. G. Janesko, R. Gomperts, B. Mennucci, H. P. Hratchian, 
 J. V. Ortiz, A. F. Izmaylov, J. L. Sonnenberg, D. Williams-Young, 
 F. Ding, F. Lipparini, F. Egidi, J. Goings, B. Peng, A. Petrone, 
 T. Henderson, D. Ranasinghe, V. G. Zakrzewski, J. Gao, N. Rega, 
 G. Zheng, W. Liang, M. Hada, M. Ehara, K. Toyota, R. Fukuda, 
 J. Hasegawa, M. Ishida, T. Nakajima, Y. Honda, O. Kitao, H. Nakai, 
 T. Vreven, K. Throssell, J. A. Montgomery, Jr., J. E. Peralta, 
 F. Ogliaro, M. J. Bearpark, J. J. Heyd, E. N. Brothers, K. N. Kudin, 
 V. N. Staroverov, T. A. Keith, R. Kobayashi, J. Normand, 
 K. Raghavachari, A. P. Rendell, J. C. Burant, S. S. Iyengar, 
 J. Tomasi, M. Cossi, J. M. Millam, M. Klene, C. Adamo, R. Cammi, 
 J. W. Ochterski, R. L. Martin, K. Morokuma, O. Farkas, 
 J. B. Foresman, and D. J. Fox, Gaussian, Inc., Wallingford CT, 2019.
 
 ******************************************
 Gaussian 16:  ES64L-G16RevC.01  3-Jul-2019
                23-Mar-2025 
 ******************************************
 %nprocshared=32
 Will use up to   32 processors via shared memory.
 %mem=100GB
 ------------------------------------------
 #p opt freq b3lyp/def2svpp em=gd3bj nosymm
 ------------------------------------------
 1/18=20,19=15,26=3,38=1/1,3;
 2/9=110,12=2,15=1,17=6,18=5,40=1/2;
 3/5=43,7=202,11=2,25=1,30=1,71=1,74=-5,124=41/1,2,3;
 4//1;
 5/5=2,38=5/2;
 6/7=2,8=2,9=2,10=2,28=1/1;
 7/30=1/1,2,3,16;
 1/18=20,19=15,26=3/3(2);
 2/9=110,15=1/2;
 99//99;
 2/9=110,15=1/2;
 3/5=43,7=202,11=2,25=1,30=1,71=1,74=-5,124=41/1,2,3;
 4/5=5,16=3,69=1/1;
 5/5=2,38=5/2;
 7/30=1/1,2,3,16;
 1/18=20,19=15,26=3/3(-5);
 2/9=110,15=1/2;
 6/7=2,8=2,9=2,10=2,19=2,28=1/1;
 99/9=1/99;
 Leave Link    1 at Sun Mar 23 23:45:32 2025, MaxMem= 13421772800 cpu:               1.7 elap:               0.1
 (Enter /public/software/apps/Gaussian/g16/l101.exe)
 ----------------------
 $$$$Singlemol####0????
 ----------------------
 Symbolic Z-matrix:
 Charge =  0 Multiplicity = 1
 O                     0.87827   4.00926   1.90712 
 C                    -0.27416   3.32179   1.69718 
 C                    -1.24962   3.38393   2.71136 
 C                    -2.44057   2.73695   2.56563 
 C                    -2.71834   1.98083   1.40666 
 C                    -3.93732   1.29883   1.2403 
 C                    -4.20048   0.55892   0.1114 
 C                    -5.48116  -0.14022  -0.05777 
 C                    -6.08188  -0.8024    1.01026 
 C                    -7.28665  -1.45673   0.84966 
 C                    -7.93774  -1.46889  -0.3791 
 C                    -9.25449  -2.17594  -0.56306 
 C                    -10.34188  -1.57429   0.33495 
 C                    -11.67593  -2.27789   0.10575 
 C                    -11.54465  -3.7743    0.37288 
 C                    -10.46237  -4.38     -0.51569 
 C                    -9.12739  -3.67848  -0.28571 
 C                    -7.33787  -0.80588  -1.44243 
 C                    -6.12894  -0.15489  -1.28975 
 C                    -3.21014   0.47681  -0.89085 
 C                    -2.01681   1.12503  -0.75895 
 C                    -1.73746   1.90848   0.38283 
 C                    -0.51011   2.60243   0.53966 
 C                     0.50943   2.6011   -0.54136 
 C                     0.2684    3.31012  -1.70425 
 O                    -0.88774   3.99007  -1.91822 
 C                     1.24204   3.36891  -2.72035 
 C                     2.43585   2.72794  -2.57168 
 C                     2.71845   1.98151  -1.4076 
 C                     3.93929   1.3033   -1.23966 
 C                     4.2065    0.57054  -0.10703 
 C                     5.48722  -0.1288    0.06123 
 C                     6.13841  -0.14122   1.29144 
 C                     7.34631  -0.79448   1.44275 
 C                     7.94194  -1.46195   0.37981 
 C                     9.25675  -2.17292   0.56274 
 C                     10.34264  -1.58443  -0.34562 
 C                     11.67432  -2.29249  -0.11637 
 C                     11.53452  -3.79032  -0.37089 
 C                     10.45339  -4.38356   0.52744 
 C                     9.1208   -3.67709   0.29855 
 C                     7.28765  -1.45174  -0.84725 
 C                     6.08389  -0.79526  -1.00647 
 C                     3.21932   0.49443   0.89884 
 C                     2.02452   1.13979   0.76585 
 C                     1.73995   1.91359  -0.38117 
 H                     1.48056   3.86828   1.16323 
 H                    -1.01979   3.96214   3.59219 
 H                    -3.18905   2.79212   3.34222 
 H                    -4.68231   1.38326   2.01868 
 H                    -5.58646  -0.82125   1.97037 
 H                    -7.72278  -1.96667   1.69609 
 H                    -9.5696   -2.05041  -1.60559 
 H                    -10.05267  -1.6806    1.3822 
 H                    -10.43923  -0.50686   0.12282 
 H                    -11.99648  -2.12152  -0.92713 
 H                    -12.43741  -1.84768   0.75996 
 H                    -11.28249  -3.93309   1.42166 
 H                    -12.49959  -4.271     0.18835 
 H                    -10.75315  -4.27339  -1.56362 
 H                    -10.36033  -5.44679  -0.30478 
 H                    -8.36158  -4.10538  -0.93769 
 H                    -8.81037  -3.83533   0.74701 
 H                    -7.82614  -0.79719  -2.40718 
 H                    -5.69316   0.3675   -2.12926 
 H                    -3.3987   -0.1313   -1.76322 
 H                    -1.26351   1.03482  -1.52854 
 H                    -1.48903   3.85086  -1.17318 
 H                     1.00816   3.93909  -3.60532 
 H                     3.18269   2.77993  -3.35007 
 H                     4.68202   1.38409  -2.02058 
 H                     5.70609   0.38438   2.13073 
 H                     7.83706  -0.78425   2.40624 
 H                     9.57773  -2.04029   1.60257 
 H                     10.04823  -1.69874  -1.39053 
 H                     10.44604  -0.51568  -0.14353 
 H                     11.99996  -2.12946   0.9139 
 H                     12.43517  -1.87126  -0.77716 
 H                     11.26678  -3.95617  -1.41716 
 H                     12.48785  -4.29025  -0.18673 
 H                     10.74977  -4.27045   1.57313 
 H                     10.34488  -5.4514    0.32523 
 H                     8.79736  -3.84071  -0.73112 
 H                     8.35637  -4.0947    0.95809 
 H                     7.72032  -1.96515  -1.69336 
 H                     5.58591  -0.81601  -1.96519 
 H                     3.4113   -0.10708   1.77503 
 H                     1.27377   1.05401   1.53846 
 
 ITRead=  0  0  0  0  0  0  0  0  0  0  0  0  0  0  0  0  0  0  0  0
 ITRead=  0  0  0  0  0  0  0  0  0  0  0  0  0  0  0  0  0  0  0  0
 ITRead=  0  0  0  0  0  0  0  0  0  0  0  0  0  0  0  0  0  0  0  0
 ITRead=  0  0  0  0  0  0  0  0  0  0  0  0  0  0  0  0  0  0  0  0
 ITRead=  0  0  0  0  0  0  0  0
 MicOpt= -1 -1 -1 -1 -1 -1 -1 -1 -1 -1 -1 -1 -1 -1 -1 -1 -1 -1 -1 -1
 MicOpt= -1 -1 -1 -1 -1 -1 -1 -1 -1 -1 -1 -1 -1 -1 -1 -1 -1 -1 -1 -1
 MicOpt= -1 -1 -1 -1 -1 -1 -1 -1 -1 -1 -1 -1 -1 -1 -1 -1 -1 -1 -1 -1
 MicOpt= -1 -1 -1 -1 -1 -1 -1 -1 -1 -1 -1 -1 -1 -1 -1 -1 -1 -1 -1 -1
 MicOpt= -1 -1 -1 -1 -1 -1 -1 -1
 NAtoms=     88 NQM=       88 NQMF=       0 NMMI=      0 NMMIF=      0
                NMic=       0 NMicF=      0.
                    Isotopes and Nuclear Properties:
 (Nuclear quadrupole moments (NQMom) in fm**2, nuclear magnetic moments (NMagM)
  in nuclear magnetons)

  Atom         1           2           3           4           5           6           7           8           9          10
 IAtWgt=          16          12          12          12          12          12          12          12          12          12
 AtmWgt=  15.9949146  12.0000000  12.0000000  12.0000000  12.0000000  12.0000000  12.0000000  12.0000000  12.0000000  12.0000000
 NucSpn=           0           0           0           0           0           0           0           0           0           0
 AtZEff=  -0.0000000  -0.0000000  -0.0000000  -0.0000000  -0.0000000  -0.0000000  -0.0000000  -0.0000000  -0.0000000  -0.0000000
 NQMom=    0.0000000   0.0000000   0.0000000   0.0000000   0.0000000   0.0000000   0.0000000   0.0000000   0.0000000   0.0000000
 NMagM=    0.0000000   0.0000000   0.0000000   0.0000000   0.0000000   0.0000000   0.0000000   0.0000000   0.0000000   0.0000000
 AtZNuc=   8.0000000   6.0000000   6.0000000   6.0000000   6.0000000   6.0000000   6.0000000   6.0000000   6.0000000   6.0000000

  Atom        11          12          13          14          15          16          17          18          19          20
 IAtWgt=          12          12          12          12          12          12          12          12          12          12
 AtmWgt=  12.0000000  12.0000000  12.0000000  12.0000000  12.0000000  12.0000000  12.0000000  12.0000000  12.0000000  12.0000000
 NucSpn=           0           0           0           0           0           0           0           0           0           0
 AtZEff=  -0.0000000  -0.0000000  -0.0000000  -0.0000000  -0.0000000  -0.0000000  -0.0000000  -0.0000000  -0.0000000  -0.0000000
 NQMom=    0.0000000   0.0000000   0.0000000   0.0000000   0.0000000   0.0000000   0.0000000   0.0000000   0.0000000   0.0000000
 NMagM=    0.0000000   0.0000000   0.0000000   0.0000000   0.0000000   0.0000000   0.0000000   0.0000000   0.0000000   0.0000000
 AtZNuc=   6.0000000   6.0000000   6.0000000   6.0000000   6.0000000   6.0000000   6.0000000   6.0000000   6.0000000   6.0000000

  Atom        21          22          23          24          25          26          27          28          29          30
 IAtWgt=          12          12          12          12          12          16          12          12          12          12
 AtmWgt=  12.0000000  12.0000000  12.0000000  12.0000000  12.0000000  15.9949146  12.0000000  12.0000000  12.0000000  12.0000000
 NucSpn=           0           0           0           0           0           0           0           0           0           0
 AtZEff=  -0.0000000  -0.0000000  -0.0000000  -0.0000000  -0.0000000  -0.0000000  -0.0000000  -0.0000000  -0.0000000  -0.0000000
 NQMom=    0.0000000   0.0000000   0.0000000   0.0000000   0.0000000   0.0000000   0.0000000   0.0000000   0.0000000   0.0000000
 NMagM=    0.0000000   0.0000000   0.0000000   0.0000000   0.0000000   0.0000000   0.0000000   0.0000000   0.0000000   0.0000000
 AtZNuc=   6.0000000   6.0000000   6.0000000   6.0000000   6.0000000   8.0000000   6.0000000   6.0000000   6.0000000   6.0000000

  Atom        31          32          33          34          35          36          37          38          39          40
 IAtWgt=          12          12          12          12          12          12          12          12          12          12
 AtmWgt=  12.0000000  12.0000000  12.0000000  12.0000000  12.0000000  12.0000000  12.0000000  12.0000000  12.0000000  12.0000000
 NucSpn=           0           0           0           0           0           0           0           0           0           0
 AtZEff=  -0.0000000  -0.0000000  -0.0000000  -0.0000000  -0.0000000  -0.0000000  -0.0000000  -0.0000000  -0.0000000  -0.0000000
 NQMom=    0.0000000   0.0000000   0.0000000   0.0000000   0.0000000   0.0000000   0.0000000   0.0000000   0.0000000   0.0000000
 NMagM=    0.0000000   0.0000000   0.0000000   0.0000000   0.0000000   0.0000000   0.0000000   0.0000000   0.0000000   0.0000000
 AtZNuc=   6.0000000   6.0000000   6.0000000   6.0000000   6.0000000   6.0000000   6.0000000   6.0000000   6.0000000   6.0000000

  Atom        41          42          43          44          45          46          47          48          49          50
 IAtWgt=          12          12          12          12          12          12           1           1           1           1
 AtmWgt=  12.0000000  12.0000000  12.0000000  12.0000000  12.0000000  12.0000000   1.0078250   1.0078250   1.0078250   1.0078250
 NucSpn=           0           0           0           0           0           0           1           1           1           1
 AtZEff=  -0.0000000  -0.0000000  -0.0000000  -0.0000000  -0.0000000  -0.0000000  -0.0000000  -0.0000000  -0.0000000  -0.0000000
 NQMom=    0.0000000   0.0000000   0.0000000   0.0000000   0.0000000   0.0000000   0.0000000   0.0000000   0.0000000   0.0000000
 NMagM=    0.0000000   0.0000000   0.0000000   0.0000000   0.0000000   0.0000000   2.7928460   2.7928460   2.7928460   2.7928460
 AtZNuc=   6.0000000   6.0000000   6.0000000   6.0000000   6.0000000   6.0000000   1.0000000   1.0000000   1.0000000   1.0000000

  Atom        51          52          53          54          55          56          57          58          59          60
 IAtWgt=           1           1           1           1           1           1           1           1           1           1
 AtmWgt=   1.0078250   1.0078250   1.0078250   1.0078250   1.0078250   1.0078250   1.0078250   1.0078250   1.0078250   1.0078250
 NucSpn=           1           1           1           1           1           1           1           1           1           1
 AtZEff=  -0.0000000  -0.0000000  -0.0000000  -0.0000000  -0.0000000  -0.0000000  -0.0000000  -0.0000000  -0.0000000  -0.0000000
 NQMom=    0.0000000   0.0000000   0.0000000   0.0000000   0.0000000   0.0000000   0.0000000   0.0000000   0.0000000   0.0000000
 NMagM=    2.7928460   2.7928460   2.7928460   2.7928460   2.7928460   2.7928460   2.7928460   2.7928460   2.7928460   2.7928460
 AtZNuc=   1.0000000   1.0000000   1.0000000   1.0000000   1.0000000   1.0000000   1.0000000   1.0000000   1.0000000   1.0000000

  Atom        61          62          63          64          65          66          67          68          69          70
 IAtWgt=           1           1           1           1           1           1           1           1           1           1
 AtmWgt=   1.0078250   1.0078250   1.0078250   1.0078250   1.0078250   1.0078250   1.0078250   1.0078250   1.0078250   1.0078250
 NucSpn=           1           1           1           1           1           1           1           1           1           1
 AtZEff=  -0.0000000  -0.0000000  -0.0000000  -0.0000000  -0.0000000  -0.0000000  -0.0000000  -0.0000000  -0.0000000  -0.0000000
 NQMom=    0.0000000   0.0000000   0.0000000   0.0000000   0.0000000   0.0000000   0.0000000   0.0000000   0.0000000   0.0000000
 NMagM=    2.7928460   2.7928460   2.7928460   2.7928460   2.7928460   2.7928460   2.7928460   2.7928460   2.7928460   2.7928460
 AtZNuc=   1.0000000   1.0000000   1.0000000   1.0000000   1.0000000   1.0000000   1.0000000   1.0000000   1.0000000   1.0000000

  Atom        71          72          73          74          75          76          77          78          79          80
 IAtWgt=           1           1           1           1           1           1           1           1           1           1
 AtmWgt=   1.0078250   1.0078250   1.0078250   1.0078250   1.0078250   1.0078250   1.0078250   1.0078250   1.0078250   1.0078250
 NucSpn=           1           1           1           1           1           1           1           1           1           1
 AtZEff=  -0.0000000  -0.0000000  -0.0000000  -0.0000000  -0.0000000  -0.0000000  -0.0000000  -0.0000000  -0.0000000  -0.0000000
 NQMom=    0.0000000   0.0000000   0.0000000   0.0000000   0.0000000   0.0000000   0.0000000   0.0000000   0.0000000   0.0000000
 NMagM=    2.7928460   2.7928460   2.7928460   2.7928460   2.7928460   2.7928460   2.7928460   2.7928460   2.7928460   2.7928460
 AtZNuc=   1.0000000   1.0000000   1.0000000   1.0000000   1.0000000   1.0000000   1.0000000   1.0000000   1.0000000   1.0000000

  Atom        81          82          83          84          85          86          87          88
 IAtWgt=           1           1           1           1           1           1           1           1
 AtmWgt=   1.0078250   1.0078250   1.0078250   1.0078250   1.0078250   1.0078250   1.0078250   1.0078250
 NucSpn=           1           1           1           1           1           1           1           1
 AtZEff=  -0.0000000  -0.0000000  -0.0000000  -0.0000000  -0.0000000  -0.0000000  -0.0000000  -0.0000000
 NQMom=    0.0000000   0.0000000   0.0000000   0.0000000   0.0000000   0.0000000   0.0000000   0.0000000
 NMagM=    2.7928460   2.7928460   2.7928460   2.7928460   2.7928460   2.7928460   2.7928460   2.7928460
 AtZNuc=   1.0000000   1.0000000   1.0000000   1.0000000   1.0000000   1.0000000   1.0000000   1.0000000
 Leave Link  101 at Sun Mar 23 23:45:32 2025, MaxMem= 13421772800 cpu:               3.9 elap:               0.1
 (Enter /public/software/apps/Gaussian/g16/l103.exe)

 GradGradGradGradGradGradGradGradGradGradGradGradGradGradGradGradGradGrad
 Berny optimization.
 Initialization pass.
                           ----------------------------
                           !    Initial Parameters    !
                           ! (Angstroms and Degrees)  !
 --------------------------                            --------------------------
 ! Name  Definition              Value          Derivative Info.                !
 --------------------------------------------------------------------------------
 ! R1    R(1,2)                  1.3582         estimate D2E/DX2                !
 ! R2    R(1,47)                 0.9675         estimate D2E/DX2                !
 ! R3    R(2,3)                  1.4085         estimate D2E/DX2                !
 ! R4    R(2,23)                 1.3831         estimate D2E/DX2                !
 ! R5    R(3,4)                  1.3631         estimate D2E/DX2                !
 ! R6    R(3,48)                 1.0784         estimate D2E/DX2                !
 ! R7    R(4,5)                  1.4114         estimate D2E/DX2                !
 ! R8    R(4,49)                 1.08           estimate D2E/DX2                !
 ! R9    R(5,6)                  1.4067         estimate D2E/DX2                !
 ! R10   R(5,22)                 1.4197         estimate D2E/DX2                !
 ! R11   R(6,7)                  1.3752         estimate D2E/DX2                !
 ! R12   R(6,50)                 1.0807         estimate D2E/DX2                !
 ! R13   R(7,8)                  1.4689         estimate D2E/DX2                !
 ! R14   R(7,20)                 1.4114         estimate D2E/DX2                !
 ! R15   R(8,9)                  1.3928         estimate D2E/DX2                !
 ! R16   R(8,19)                 1.392          estimate D2E/DX2                !
 ! R17   R(9,10)                 1.3804         estimate D2E/DX2                !
 ! R18   R(9,51)                 1.0806         estimate D2E/DX2                !
 ! R19   R(10,11)                1.3906         estimate D2E/DX2                !
 ! R20   R(10,52)                1.0801         estimate D2E/DX2                !
 ! R21   R(11,12)                1.5059         estimate D2E/DX2                !
 ! R22   R(11,18)                1.3893         estimate D2E/DX2                !
 ! R23   R(12,13)                1.5332         estimate D2E/DX2                !
 ! R24   R(12,17)                1.5332         estimate D2E/DX2                !
 ! R25   R(12,53)                1.0963         estimate D2E/DX2                !
 ! R26   R(13,14)                1.5255         estimate D2E/DX2                !
 ! R27   R(13,54)                1.0916         estimate D2E/DX2                !
 ! R28   R(13,55)                1.0926         estimate D2E/DX2                !
 ! R29   R(14,15)                1.5257         estimate D2E/DX2                !
 ! R30   R(14,56)                1.0927         estimate D2E/DX2                !
 ! R31   R(14,57)                1.0922         estimate D2E/DX2                !
 ! R32   R(15,16)                1.5257         estimate D2E/DX2                !
 ! R33   R(15,58)                1.0926         estimate D2E/DX2                !
 ! R34   R(15,59)                1.0921         estimate D2E/DX2                !
 ! R35   R(16,17)                1.5255         estimate D2E/DX2                !
 ! R36   R(16,60)                1.0927         estimate D2E/DX2                !
 ! R37   R(16,61)                1.0922         estimate D2E/DX2                !
 ! R38   R(17,62)                1.0926         estimate D2E/DX2                !
 ! R39   R(17,63)                1.0916         estimate D2E/DX2                !
 ! R40   R(18,19)                1.3815         estimate D2E/DX2                !
 ! R41   R(18,64)                1.0813         estimate D2E/DX2                !
 ! R42   R(19,65)                1.0805         estimate D2E/DX2                !
 ! R43   R(20,21)                1.3644         estimate D2E/DX2                !
 ! R44   R(20,66)                1.08           estimate D2E/DX2                !
 ! R45   R(21,22)                1.4126         estimate D2E/DX2                !
 ! R46   R(21,67)                1.0807         estimate D2E/DX2                !
 ! R47   R(22,23)                1.4187         estimate D2E/DX2                !
 ! R48   R(23,24)                1.486          estimate D2E/DX2                !
 ! R49   R(24,25)                1.3832         estimate D2E/DX2                !
 ! R50   R(24,46)                1.4186         estimate D2E/DX2                !
 ! R51   R(25,26)                1.3582         estimate D2E/DX2                !
 ! R52   R(25,27)                1.4085         estimate D2E/DX2                !
 ! R53   R(26,68)                0.9675         estimate D2E/DX2                !
 ! R54   R(27,28)                1.3631         estimate D2E/DX2                !
 ! R55   R(27,69)                1.0784         estimate D2E/DX2                !
 ! R56   R(28,29)                1.4114         estimate D2E/DX2                !
 ! R57   R(28,70)                1.08           estimate D2E/DX2                !
 ! R58   R(29,30)                1.4066         estimate D2E/DX2                !
 ! R59   R(29,46)                1.4197         estimate D2E/DX2                !
 ! R60   R(30,31)                1.3752         estimate D2E/DX2                !
 ! R61   R(30,71)                1.0807         estimate D2E/DX2                !
 ! R62   R(31,32)                1.4689         estimate D2E/DX2                !
 ! R63   R(31,44)                1.4114         estimate D2E/DX2                !
 ! R64   R(32,33)                1.392          estimate D2E/DX2                !
 ! R65   R(32,43)                1.3929         estimate D2E/DX2                !
 ! R66   R(33,34)                1.3815         estimate D2E/DX2                !
 ! R67   R(33,72)                1.0805         estimate D2E/DX2                !
 ! R68   R(34,35)                1.3893         estimate D2E/DX2                !
 ! R69   R(34,73)                1.0813         estimate D2E/DX2                !
 ! R70   R(35,36)                1.5059         estimate D2E/DX2                !
 ! R71   R(35,42)                1.3906         estimate D2E/DX2                !
 ! R72   R(36,37)                1.5332         estimate D2E/DX2                !
 ! R73   R(36,41)                1.5332         estimate D2E/DX2                !
 ! R74   R(36,74)                1.0963         estimate D2E/DX2                !
 ! R75   R(37,38)                1.5255         estimate D2E/DX2                !
 ! R76   R(37,75)                1.0916         estimate D2E/DX2                !
 ! R77   R(37,76)                1.0926         estimate D2E/DX2                !
 ! R78   R(38,39)                1.5257         estimate D2E/DX2                !
 ! R79   R(38,77)                1.0927         estimate D2E/DX2                !
 ! R80   R(38,78)                1.0922         estimate D2E/DX2                !
 ! R81   R(39,40)                1.5257         estimate D2E/DX2                !
 ! R82   R(39,79)                1.0926         estimate D2E/DX2                !
 ! R83   R(39,80)                1.0921         estimate D2E/DX2                !
 ! R84   R(40,41)                1.5255         estimate D2E/DX2                !
 ! R85   R(40,81)                1.0927         estimate D2E/DX2                !
 ! R86   R(40,82)                1.0922         estimate D2E/DX2                !
 ! R87   R(41,83)                1.0916         estimate D2E/DX2                !
 ! R88   R(41,84)                1.0926         estimate D2E/DX2                !
 ! R89   R(42,43)                1.3803         estimate D2E/DX2                !
 ! R90   R(42,85)                1.0801         estimate D2E/DX2                !
 ! R91   R(43,86)                1.0805         estimate D2E/DX2                !
 ! R92   R(44,45)                1.3645         estimate D2E/DX2                !
 ! R93   R(44,87)                1.08           estimate D2E/DX2                !
 ! R94   R(45,46)                1.4126         estimate D2E/DX2                !
 ! R95   R(45,88)                1.0807         estimate D2E/DX2                !
 ! A1    A(2,1,47)             109.6094         estimate D2E/DX2                !
 ! A2    A(1,2,3)              116.9996         estimate D2E/DX2                !
 ! A3    A(1,2,23)             122.5036         estimate D2E/DX2                !
 ! A4    A(3,2,23)             120.4901         estimate D2E/DX2                !
 ! A5    A(2,3,4)              120.4736         estimate D2E/DX2                !
 ! A6    A(2,3,48)             117.6561         estimate D2E/DX2                !
 ! A7    A(4,3,48)             121.8691         estimate D2E/DX2                !
 ! A8    A(3,4,5)              120.93           estimate D2E/DX2                !
 ! A9    A(3,4,49)             120.2904         estimate D2E/DX2                !
 ! A10   A(5,4,49)             118.7792         estimate D2E/DX2                !
 ! A11   A(4,5,6)              121.8293         estimate D2E/DX2                !
 ! A12   A(4,5,22)             118.9142         estimate D2E/DX2                !
 ! A13   A(6,5,22)             119.2565         estimate D2E/DX2                !
 ! A14   A(5,6,7)              121.5858         estimate D2E/DX2                !
 ! A15   A(5,6,50)             118.3137         estimate D2E/DX2                !
 ! A16   A(7,6,50)             120.0901         estimate D2E/DX2                !
 ! A17   A(6,7,8)              121.1636         estimate D2E/DX2                !
 ! A18   A(6,7,20)             118.6833         estimate D2E/DX2                !
 ! A19   A(8,7,20)             120.1528         estimate D2E/DX2                !
 ! A20   A(7,8,9)              120.9308         estimate D2E/DX2                !
 ! A21   A(7,8,19)             120.8433         estimate D2E/DX2                !
 ! A22   A(9,8,19)             118.2256         estimate D2E/DX2                !
 ! A23   A(8,9,10)             120.8345         estimate D2E/DX2                !
 ! A24   A(8,9,51)             119.4644         estimate D2E/DX2                !
 ! A25   A(10,9,51)            119.6875         estimate D2E/DX2                !
 ! A26   A(9,10,11)            121.0367         estimate D2E/DX2                !
 ! A27   A(9,10,52)            119.0141         estimate D2E/DX2                !
 ! A28   A(11,10,52)           119.9491         estimate D2E/DX2                !
 ! A29   A(10,11,12)           121.4296         estimate D2E/DX2                !
 ! A30   A(10,11,18)           118.0308         estimate D2E/DX2                !
 ! A31   A(12,11,18)           120.5396         estimate D2E/DX2                !
 ! A32   A(11,12,13)           111.3673         estimate D2E/DX2                !
 ! A33   A(11,12,17)           111.4417         estimate D2E/DX2                !
 ! A34   A(11,12,53)           108.2849         estimate D2E/DX2                !
 ! A35   A(13,12,17)           109.7187         estimate D2E/DX2                !
 ! A36   A(13,12,53)           107.9495         estimate D2E/DX2                !
 ! A37   A(17,12,53)           107.9426         estimate D2E/DX2                !
 ! A38   A(12,13,14)           110.5611         estimate D2E/DX2                !
 ! A39   A(12,13,54)           109.6191         estimate D2E/DX2                !
 ! A40   A(12,13,55)           109.4407         estimate D2E/DX2                !
 ! A41   A(14,13,54)           109.323          estimate D2E/DX2                !
 ! A42   A(14,13,55)           110.09           estimate D2E/DX2                !
 ! A43   A(54,13,55)           107.7575         estimate D2E/DX2                !
 ! A44   A(13,14,15)           110.5368         estimate D2E/DX2                !
 ! A45   A(13,14,56)           109.4231         estimate D2E/DX2                !
 ! A46   A(13,14,57)           109.7561         estimate D2E/DX2                !
 ! A47   A(15,14,56)           109.3351         estimate D2E/DX2                !
 ! A48   A(15,14,57)           109.9646         estimate D2E/DX2                !
 ! A49   A(56,14,57)           107.775          estimate D2E/DX2                !
 ! A50   A(14,15,16)           110.3916         estimate D2E/DX2                !
 ! A51   A(14,15,58)           109.344          estimate D2E/DX2                !
 ! A52   A(14,15,59)           109.9532         estimate D2E/DX2                !
 ! A53   A(16,15,58)           109.3371         estimate D2E/DX2                !
 ! A54   A(16,15,59)           109.9562         estimate D2E/DX2                !
 ! A55   A(58,15,59)           107.8119         estimate D2E/DX2                !
 ! A56   A(15,16,17)           110.5117         estimate D2E/DX2                !
 ! A57   A(15,16,60)           109.3312         estimate D2E/DX2                !
 ! A58   A(15,16,61)           109.9721         estimate D2E/DX2                !
 ! A59   A(17,16,60)           109.4251         estimate D2E/DX2                !
 ! A60   A(17,16,61)           109.7722         estimate D2E/DX2                !
 ! A61   A(60,16,61)           107.779          estimate D2E/DX2                !
 ! A62   A(12,17,16)           110.5389         estimate D2E/DX2                !
 ! A63   A(12,17,62)           109.4547         estimate D2E/DX2                !
 ! A64   A(12,17,63)           109.635          estimate D2E/DX2                !
 ! A65   A(16,17,62)           110.1039         estimate D2E/DX2                !
 ! A66   A(16,17,63)           109.3111         estimate D2E/DX2                !
 ! A67   A(62,17,63)           107.7482         estimate D2E/DX2                !
 ! A68   A(11,18,19)           121.207          estimate D2E/DX2                !
 ! A69   A(11,18,64)           119.4551         estimate D2E/DX2                !
 ! A70   A(19,18,64)           119.3378         estimate D2E/DX2                !
 ! A71   A(8,19,18)            120.6642         estimate D2E/DX2                !
 ! A72   A(8,19,65)            119.6599         estimate D2E/DX2                !
 ! A73   A(18,19,65)           119.6605         estimate D2E/DX2                !
 ! A74   A(7,20,21)            121.1585         estimate D2E/DX2                !
 ! A75   A(7,20,66)            118.9376         estimate D2E/DX2                !
 ! A76   A(21,20,66)           119.887          estimate D2E/DX2                !
 ! A77   A(20,21,22)           120.9695         estimate D2E/DX2                !
 ! A78   A(20,21,67)           120.0761         estimate D2E/DX2                !
 ! A79   A(22,21,67)           118.9507         estimate D2E/DX2                !
 ! A80   A(5,22,21)            118.3284         estimate D2E/DX2                !
 ! A81   A(5,22,23)            119.5435         estimate D2E/DX2                !
 ! A82   A(21,22,23)           122.1228         estimate D2E/DX2                !
 ! A83   A(2,23,22)            119.6383         estimate D2E/DX2                !
 ! A84   A(2,23,24)            119.4889         estimate D2E/DX2                !
 ! A85   A(22,23,24)           120.846          estimate D2E/DX2                !
 ! A86   A(23,24,25)           119.4466         estimate D2E/DX2                !
 ! A87   A(23,24,46)           120.8924         estimate D2E/DX2                !
 ! A88   A(25,24,46)           119.6381         estimate D2E/DX2                !
 ! A89   A(24,25,26)           122.5076         estimate D2E/DX2                !
 ! A90   A(24,25,27)           120.494          estimate D2E/DX2                !
 ! A91   A(26,25,27)           116.9921         estimate D2E/DX2                !
 ! A92   A(25,26,68)           109.614          estimate D2E/DX2                !
 ! A93   A(25,27,28)           120.4705         estimate D2E/DX2                !
 ! A94   A(25,27,69)           117.655          estimate D2E/DX2                !
 ! A95   A(28,27,69)           121.8735         estimate D2E/DX2                !
 ! A96   A(27,28,29)           120.9289         estimate D2E/DX2                !
 ! A97   A(27,28,70)           120.2909         estimate D2E/DX2                !
 ! A98   A(29,28,70)           118.7795         estimate D2E/DX2                !
 ! A99   A(28,29,30)           121.8185         estimate D2E/DX2                !
 ! A100  A(28,29,46)           118.92           estimate D2E/DX2                !
 ! A101  A(30,29,46)           119.2614         estimate D2E/DX2                !
 ! A102  A(29,30,31)           121.5929         estimate D2E/DX2                !
 ! A103  A(29,30,71)           118.3043         estimate D2E/DX2                !
 ! A104  A(31,30,71)           120.0936         estimate D2E/DX2                !
 ! A105  A(30,31,32)           121.1609         estimate D2E/DX2                !
 ! A106  A(30,31,44)           118.6717         estimate D2E/DX2                !
 ! A107  A(32,31,44)           120.1667         estimate D2E/DX2                !
 ! A108  A(31,32,33)           120.8889         estimate D2E/DX2                !
 ! A109  A(31,32,43)           120.8962         estimate D2E/DX2                !
 ! A110  A(33,32,43)           118.2147         estimate D2E/DX2                !
 ! A111  A(32,33,34)           120.6661         estimate D2E/DX2                !
 ! A112  A(32,33,72)           119.6663         estimate D2E/DX2                !
 ! A113  A(34,33,72)           119.6527         estimate D2E/DX2                !
 ! A114  A(33,34,35)           121.2126         estimate D2E/DX2                !
 ! A115  A(33,34,73)           119.3352         estimate D2E/DX2                !
 ! A116  A(35,34,73)           119.4521         estimate D2E/DX2                !
 ! A117  A(34,35,36)           120.5452         estimate D2E/DX2                !
 ! A118  A(34,35,42)           118.0252         estimate D2E/DX2                !
 ! A119  A(36,35,42)           121.4296         estimate D2E/DX2                !
 ! A120  A(35,36,37)           111.4205         estimate D2E/DX2                !
 ! A121  A(35,36,41)           111.3973         estimate D2E/DX2                !
 ! A122  A(35,36,74)           108.285          estimate D2E/DX2                !
 ! A123  A(37,36,41)           109.7109         estimate D2E/DX2                !
 ! A124  A(37,36,74)           107.9479         estimate D2E/DX2                !
 ! A125  A(41,36,74)           107.943          estimate D2E/DX2                !
 ! A126  A(36,37,38)           110.5531         estimate D2E/DX2                !
 ! A127  A(36,37,75)           109.6283         estimate D2E/DX2                !
 ! A128  A(36,37,76)           109.4451         estimate D2E/DX2                !
 ! A129  A(38,37,75)           109.3097         estimate D2E/DX2                !
 ! A130  A(38,37,76)           110.096          estimate D2E/DX2                !
 ! A131  A(75,37,76)           107.7595         estimate D2E/DX2                !
 ! A132  A(37,38,39)           110.5241         estimate D2E/DX2                !
 ! A133  A(37,38,77)           109.4253         estimate D2E/DX2                !
 ! A134  A(37,38,78)           109.7653         estimate D2E/DX2                !
 ! A135  A(39,38,77)           109.3328         estimate D2E/DX2                !
 ! A136  A(39,38,78)           109.9686         estimate D2E/DX2                !
 ! A137  A(77,38,78)           107.7749         estimate D2E/DX2                !
 ! A138  A(38,39,40)           110.391          estimate D2E/DX2                !
 ! A139  A(38,39,79)           109.3422         estimate D2E/DX2                !
 ! A140  A(38,39,80)           109.9556         estimate D2E/DX2                !
 ! A141  A(40,39,79)           109.3384         estimate D2E/DX2                !
 ! A142  A(40,39,80)           109.9554         estimate D2E/DX2                !
 ! A143  A(79,39,80)           107.8114         estimate D2E/DX2                !
 ! A144  A(39,40,41)           110.5226         estimate D2E/DX2                !
 ! A145  A(39,40,81)           109.3294         estimate D2E/DX2                !
 ! A146  A(39,40,82)           109.9704         estimate D2E/DX2                !
 ! A147  A(41,40,81)           109.4245         estimate D2E/DX2                !
 ! A148  A(41,40,82)           109.7675         estimate D2E/DX2                !
 ! A149  A(81,40,82)           107.7766         estimate D2E/DX2                !
 ! A150  A(36,41,40)           110.5493         estimate D2E/DX2                !
 ! A151  A(36,41,83)           109.6245         estimate D2E/DX2                !
 ! A152  A(36,41,84)           109.4509         estimate D2E/DX2                !
 ! A153  A(40,41,83)           109.3252         estimate D2E/DX2                !
 ! A154  A(40,41,84)           110.0951         estimate D2E/DX2                !
 ! A155  A(83,41,84)           107.7464         estimate D2E/DX2                !
 ! A156  A(35,42,43)           121.0361         estimate D2E/DX2                !
 ! A157  A(35,42,85)           119.95           estimate D2E/DX2                !
 ! A158  A(43,42,85)           119.0138         estimate D2E/DX2                !
 ! A159  A(32,43,42)           120.844          estimate D2E/DX2                !
 ! A160  A(32,43,86)           119.4643         estimate D2E/DX2                !
 ! A161  A(42,43,86)           119.6778         estimate D2E/DX2                !
 ! A162  A(31,44,45)           121.1646         estimate D2E/DX2                !
 ! A163  A(31,44,87)           118.9401         estimate D2E/DX2                !
 ! A164  A(45,44,87)           119.8779         estimate D2E/DX2                !
 ! A165  A(44,45,46)           120.9733         estimate D2E/DX2                !
 ! A166  A(44,45,88)           120.0728         estimate D2E/DX2                !
 ! A167  A(46,45,88)           118.9497         estimate D2E/DX2                !
 ! A168  A(24,46,29)           119.5381         estimate D2E/DX2                !
 ! A169  A(24,46,45)           122.1341         estimate D2E/DX2                !
 ! A170  A(29,46,45)           118.3217         estimate D2E/DX2                !
 ! D1    D(47,1,2,3)           178.023          estimate D2E/DX2                !
 ! D2    D(47,1,2,23)           -2.9121         estimate D2E/DX2                !
 ! D3    D(1,2,3,4)            179.0192         estimate D2E/DX2                !
 ! D4    D(1,2,3,48)            -0.591          estimate D2E/DX2                !
 ! D5    D(23,2,3,4)            -0.0657         estimate D2E/DX2                !
 ! D6    D(23,2,3,48)         -179.6758         estimate D2E/DX2                !
 ! D7    D(1,2,23,22)         -179.8664         estimate D2E/DX2                !
 ! D8    D(1,2,23,24)           -1.7282         estimate D2E/DX2                !
 ! D9    D(3,2,23,22)           -0.8332         estimate D2E/DX2                !
 ! D10   D(3,2,23,24)          177.305          estimate D2E/DX2                !
 ! D11   D(2,3,4,5)              0.6801         estimate D2E/DX2                !
 ! D12   D(2,3,4,49)          -179.5824         estimate D2E/DX2                !
 ! D13   D(48,3,4,5)          -179.7265         estimate D2E/DX2                !
 ! D14   D(48,3,4,49)            0.011          estimate D2E/DX2                !
 ! D15   D(3,4,5,6)            179.5904         estimate D2E/DX2                !
 ! D16   D(3,4,5,22)            -0.3797         estimate D2E/DX2                !
 ! D17   D(49,4,5,6)            -0.1511         estimate D2E/DX2                !
 ! D18   D(49,4,5,22)          179.8789         estimate D2E/DX2                !
 ! D19   D(4,5,6,7)           -179.7217         estimate D2E/DX2                !
 ! D20   D(4,5,6,50)             1.448          estimate D2E/DX2                !
 ! D21   D(22,5,6,7)             0.2482         estimate D2E/DX2                !
 ! D22   D(22,5,6,50)         -178.5821         estimate D2E/DX2                !
 ! D23   D(4,5,22,21)          178.6635         estimate D2E/DX2                !
 ! D24   D(4,5,22,23)           -0.5177         estimate D2E/DX2                !
 ! D25   D(6,5,22,21)           -1.3073         estimate D2E/DX2                !
 ! D26   D(6,5,22,23)          179.5115         estimate D2E/DX2                !
 ! D27   D(5,6,7,8)           -179.4717         estimate D2E/DX2                !
 ! D28   D(5,6,7,20)             0.7267         estimate D2E/DX2                !
 ! D29   D(50,6,7,8)            -0.6618         estimate D2E/DX2                !
 ! D30   D(50,6,7,20)          179.5366         estimate D2E/DX2                !
 ! D31   D(6,7,8,9)            -40.621          estimate D2E/DX2                !
 ! D32   D(6,7,8,19)           139.1784         estimate D2E/DX2                !
 ! D33   D(20,7,8,9)           139.1777         estimate D2E/DX2                !
 ! D34   D(20,7,8,19)          -41.0229         estimate D2E/DX2                !
 ! D35   D(6,7,20,21)           -0.6296         estimate D2E/DX2                !
 ! D36   D(6,7,20,66)          177.8703         estimate D2E/DX2                !
 ! D37   D(8,7,20,21)          179.5667         estimate D2E/DX2                !
 ! D38   D(8,7,20,66)           -1.9334         estimate D2E/DX2                !
 ! D39   D(7,8,9,10)           179.8808         estimate D2E/DX2                !
 ! D40   D(7,8,9,51)            -1.4627         estimate D2E/DX2                !
 ! D41   D(19,8,9,10)            0.0763         estimate D2E/DX2                !
 ! D42   D(19,8,9,51)          178.7327         estimate D2E/DX2                !
 ! D43   D(7,8,19,18)         -179.5544         estimate D2E/DX2                !
 ! D44   D(7,8,19,65)           -0.983          estimate D2E/DX2                !
 ! D45   D(9,8,19,18)            0.2503         estimate D2E/DX2                !
 ! D46   D(9,8,19,65)          178.8218         estimate D2E/DX2                !
 ! D47   D(8,9,10,11)           -0.2954         estimate D2E/DX2                !
 ! D48   D(8,9,10,52)          179.573          estimate D2E/DX2                !
 ! D49   D(51,9,10,11)        -178.9488         estimate D2E/DX2                !
 ! D50   D(51,9,10,52)           0.9195         estimate D2E/DX2                !
 ! D51   D(9,10,11,12)        -179.792          estimate D2E/DX2                !
 ! D52   D(9,10,11,18)           0.1815         estimate D2E/DX2                !
 ! D53   D(52,10,11,12)          0.3409         estimate D2E/DX2                !
 ! D54   D(52,10,11,18)       -179.6856         estimate D2E/DX2                !
 ! D55   D(10,11,12,13)         61.523          estimate D2E/DX2                !
 ! D56   D(10,11,12,17)        -61.3581         estimate D2E/DX2                !
 ! D57   D(10,11,12,53)       -179.9352         estimate D2E/DX2                !
 ! D58   D(18,11,12,13)       -118.4499         estimate D2E/DX2                !
 ! D59   D(18,11,12,17)        118.669          estimate D2E/DX2                !
 ! D60   D(18,11,12,53)          0.0919         estimate D2E/DX2                !
 ! D61   D(10,11,18,19)          0.1474         estimate D2E/DX2                !
 ! D62   D(10,11,18,64)       -179.7462         estimate D2E/DX2                !
 ! D63   D(12,11,18,19)       -179.8788         estimate D2E/DX2                !
 ! D64   D(12,11,18,64)          0.2276         estimate D2E/DX2                !
 ! D65   D(11,12,13,14)        178.4245         estimate D2E/DX2                !
 ! D66   D(11,12,13,54)        -60.9852         estimate D2E/DX2                !
 ! D67   D(11,12,13,55)         56.9956         estimate D2E/DX2                !
 ! D68   D(17,12,13,14)        -57.7121         estimate D2E/DX2                !
 ! D69   D(17,12,13,54)         62.8781         estimate D2E/DX2                !
 ! D70   D(17,12,13,55)       -179.141          estimate D2E/DX2                !
 ! D71   D(53,12,13,14)         59.6819         estimate D2E/DX2                !
 ! D72   D(53,12,13,54)       -179.7279         estimate D2E/DX2                !
 ! D73   D(53,12,13,55)        -61.747          estimate D2E/DX2                !
 ! D74   D(11,12,17,16)       -178.4194         estimate D2E/DX2                !
 ! D75   D(11,12,17,62)        -56.9783         estimate D2E/DX2                !
 ! D76   D(11,12,17,63)         61.009          estimate D2E/DX2                !
 ! D77   D(13,12,17,16)         57.7607         estimate D2E/DX2                !
 ! D78   D(13,12,17,62)        179.2018         estimate D2E/DX2                !
 ! D79   D(13,12,17,63)        -62.8109         estimate D2E/DX2                !
 ! D80   D(53,12,17,16)        -59.6376         estimate D2E/DX2                !
 ! D81   D(53,12,17,62)         61.8035         estimate D2E/DX2                !
 ! D82   D(53,12,17,63)        179.7908         estimate D2E/DX2                !
 ! D83   D(12,13,14,15)         57.852          estimate D2E/DX2                !
 ! D84   D(12,13,14,56)        -62.6116         estimate D2E/DX2                !
 ! D85   D(12,13,14,57)        179.3159         estimate D2E/DX2                !
 ! D86   D(54,13,14,15)        -62.9147         estimate D2E/DX2                !
 ! D87   D(54,13,14,56)        176.6217         estimate D2E/DX2                !
 ! D88   D(54,13,14,57)         58.5492         estimate D2E/DX2                !
 ! D89   D(55,13,14,15)        178.8962         estimate D2E/DX2                !
 ! D90   D(55,13,14,56)         58.4326         estimate D2E/DX2                !
 ! D91   D(55,13,14,57)        -59.6399         estimate D2E/DX2                !
 ! D92   D(13,14,15,16)        -57.4744         estimate D2E/DX2                !
 ! D93   D(13,14,15,58)         62.8501         estimate D2E/DX2                !
 ! D94   D(13,14,15,59)       -178.963          estimate D2E/DX2                !
 ! D95   D(56,14,15,16)         63.0417         estimate D2E/DX2                !
 ! D96   D(56,14,15,58)       -176.6337         estimate D2E/DX2                !
 ! D97   D(56,14,15,59)        -58.4469         estimate D2E/DX2                !
 ! D98   D(57,14,15,16)       -178.815          estimate D2E/DX2                !
 ! D99   D(57,14,15,58)        -58.4904         estimate D2E/DX2                !
 ! D100  D(57,14,15,59)         59.6964         estimate D2E/DX2                !
 ! D101  D(14,15,16,17)         57.5214         estimate D2E/DX2                !
 ! D102  D(14,15,16,60)        -62.9791         estimate D2E/DX2                !
 ! D103  D(14,15,16,61)        178.8706         estimate D2E/DX2                !
 ! D104  D(58,15,16,17)        -62.8072         estimate D2E/DX2                !
 ! D105  D(58,15,16,60)        176.6923         estimate D2E/DX2                !
 ! D106  D(58,15,16,61)         58.542          estimate D2E/DX2                !
 ! D107  D(59,15,16,17)        179.0082         estimate D2E/DX2                !
 ! D108  D(59,15,16,60)         58.5077         estimate D2E/DX2                !
 ! D109  D(59,15,16,61)        -59.6426         estimate D2E/DX2                !
 ! D110  D(15,16,17,12)        -57.9484         estimate D2E/DX2                !
 ! D111  D(15,16,17,62)       -179.0047         estimate D2E/DX2                !
 ! D112  D(15,16,17,63)         62.8164         estimate D2E/DX2                !
 ! D113  D(60,16,17,12)         62.4959         estimate D2E/DX2                !
 ! D114  D(60,16,17,62)        -58.5604         estimate D2E/DX2                !
 ! D115  D(60,16,17,63)       -176.7393         estimate D2E/DX2                !
 ! D116  D(61,16,17,12)       -179.4159         estimate D2E/DX2                !
 ! D117  D(61,16,17,62)         59.5277         estimate D2E/DX2                !
 ! D118  D(61,16,17,63)        -58.6512         estimate D2E/DX2                !
 ! D119  D(11,18,19,8)          -0.3671         estimate D2E/DX2                !
 ! D120  D(11,18,19,65)       -178.9386         estimate D2E/DX2                !
 ! D121  D(64,18,19,8)         179.5266         estimate D2E/DX2                !
 ! D122  D(64,18,19,65)          0.9552         estimate D2E/DX2                !
 ! D123  D(7,20,21,22)          -0.4606         estimate D2E/DX2                !
 ! D124  D(7,20,21,67)         178.8301         estimate D2E/DX2                !
 ! D125  D(66,20,21,22)       -178.9464         estimate D2E/DX2                !
 ! D126  D(66,20,21,67)          0.3443         estimate D2E/DX2                !
 ! D127  D(20,21,22,5)           1.4228         estimate D2E/DX2                !
 ! D128  D(20,21,22,23)       -179.4183         estimate D2E/DX2                !
 ! D129  D(67,21,22,5)        -177.8757         estimate D2E/DX2                !
 ! D130  D(67,21,22,23)          1.2832         estimate D2E/DX2                !
 ! D131  D(5,22,23,2)            1.1161         estimate D2E/DX2                !
 ! D132  D(5,22,23,24)        -176.9963         estimate D2E/DX2                !
 ! D133  D(21,22,23,2)        -178.0328         estimate D2E/DX2                !
 ! D134  D(21,22,23,24)          3.8548         estimate D2E/DX2                !
 ! D135  D(2,23,24,25)        -107.2465         estimate D2E/DX2                !
 ! D136  D(2,23,24,46)          71.0027         estimate D2E/DX2                !
 ! D137  D(22,23,24,25)         70.8687         estimate D2E/DX2                !
 ! D138  D(22,23,24,46)       -110.8821         estimate D2E/DX2                !
 ! D139  D(23,24,25,26)         -1.6556         estimate D2E/DX2                !
 ! D140  D(23,24,25,27)        177.3983         estimate D2E/DX2                !
 ! D141  D(46,24,25,26)       -179.9271         estimate D2E/DX2                !
 ! D142  D(46,24,25,27)         -0.8732         estimate D2E/DX2                !
 ! D143  D(23,24,46,29)       -177.15           estimate D2E/DX2                !
 ! D144  D(23,24,46,45)          3.764          estimate D2E/DX2                !
 ! D145  D(25,24,46,29)          1.0959         estimate D2E/DX2                !
 ! D146  D(25,24,46,45)       -177.9901         estimate D2E/DX2                !
 ! D147  D(24,25,26,68)         -3.0001         estimate D2E/DX2                !
 ! D148  D(27,25,26,68)        177.9148         estimate D2E/DX2                !
 ! D149  D(24,25,27,28)         -0.0144         estimate D2E/DX2                !
 ! D150  D(24,25,27,69)       -179.6696         estimate D2E/DX2                !
 ! D151  D(26,25,27,28)        179.0902         estimate D2E/DX2                !
 ! D152  D(26,25,27,69)         -0.565          estimate D2E/DX2                !
 ! D153  D(25,27,28,29)          0.6793         estimate D2E/DX2                !
 ! D154  D(25,27,28,70)       -179.6261         estimate D2E/DX2                !
 ! D155  D(69,27,28,29)       -179.6803         estimate D2E/DX2                !
 ! D156  D(69,27,28,70)          0.0142         estimate D2E/DX2                !
 ! D157  D(27,28,29,30)        179.4381         estimate D2E/DX2                !
 ! D158  D(27,28,29,46)         -0.4385         estimate D2E/DX2                !
 ! D159  D(70,28,29,30)         -0.2609         estimate D2E/DX2                !
 ! D160  D(70,28,29,46)        179.8624         estimate D2E/DX2                !
 ! D161  D(28,29,30,31)       -179.5921         estimate D2E/DX2                !
 ! D162  D(28,29,30,71)          1.5094         estimate D2E/DX2                !
 ! D163  D(46,29,30,31)          0.2841         estimate D2E/DX2                !
 ! D164  D(46,29,30,71)       -178.6144         estimate D2E/DX2                !
 ! D165  D(28,29,46,24)         -0.4488         estimate D2E/DX2                !
 ! D166  D(28,29,46,45)        178.6719         estimate D2E/DX2                !
 ! D167  D(30,29,46,24)        179.6713         estimate D2E/DX2                !
 ! D168  D(30,29,46,45)         -1.2079         estimate D2E/DX2                !
 ! D169  D(29,30,31,32)       -179.7071         estimate D2E/DX2                !
 ! D170  D(29,30,31,44)          0.5929         estimate D2E/DX2                !
 ! D171  D(71,30,31,32)         -0.828          estimate D2E/DX2                !
 ! D172  D(71,30,31,44)        179.472          estimate D2E/DX2                !
 ! D173  D(30,31,32,33)        139.44           estimate D2E/DX2                !
 ! D174  D(30,31,32,43)        -40.4425         estimate D2E/DX2                !
 ! D175  D(44,31,32,33)        -40.8644         estimate D2E/DX2                !
 ! D176  D(44,31,32,43)        139.2532         estimate D2E/DX2                !
 ! D177  D(30,31,44,45)         -0.5331         estimate D2E/DX2                !
 ! D178  D(30,31,44,87)        177.9474         estimate D2E/DX2                !
 ! D179  D(32,31,44,45)        179.7638         estimate D2E/DX2                !
 ! D180  D(32,31,44,87)         -1.7558         estimate D2E/DX2                !
 ! D181  D(31,32,33,34)       -179.6565         estimate D2E/DX2                !
 ! D182  D(31,32,33,72)         -1.0649         estimate D2E/DX2                !
 ! D183  D(43,32,33,34)          0.229          estimate D2E/DX2                !
 ! D184  D(43,32,33,72)        178.8207         estimate D2E/DX2                !
 ! D185  D(31,32,43,42)        179.9792         estimate D2E/DX2                !
 ! D186  D(31,32,43,86)         -1.3828         estimate D2E/DX2                !
 ! D187  D(33,32,43,42)          0.0937         estimate D2E/DX2                !
 ! D188  D(33,32,43,86)        178.7317         estimate D2E/DX2                !
 ! D189  D(32,33,34,35)         -0.3583         estimate D2E/DX2                !
 ! D190  D(32,33,34,73)        179.5497         estimate D2E/DX2                !
 ! D191  D(72,33,34,35)       -178.9501         estimate D2E/DX2                !
 ! D192  D(72,33,34,73)          0.9578         estimate D2E/DX2                !
 ! D193  D(33,34,35,36)       -179.7996         estimate D2E/DX2                !
 ! D194  D(33,34,35,42)          0.1553         estimate D2E/DX2                !
 ! D195  D(73,34,35,36)          0.2926         estimate D2E/DX2                !
 ! D196  D(73,34,35,42)       -179.7526         estimate D2E/DX2                !
 ! D197  D(34,35,36,37)       -118.8568         estimate D2E/DX2                !
 ! D198  D(34,35,36,41)        118.2657         estimate D2E/DX2                !
 ! D199  D(34,35,36,74)         -0.2858         estimate D2E/DX2                !
 ! D200  D(42,35,36,37)         61.1899         estimate D2E/DX2                !
 ! D201  D(42,35,36,41)        -61.6876         estimate D2E/DX2                !
 ! D202  D(42,35,36,74)        179.761          estimate D2E/DX2                !
 ! D203  D(34,35,42,43)          0.1697         estimate D2E/DX2                !
 ! D204  D(34,35,42,85)       -179.6821         estimate D2E/DX2                !
 ! D205  D(36,35,42,43)       -179.8759         estimate D2E/DX2                !
 ! D206  D(36,35,42,85)          0.2723         estimate D2E/DX2                !
 ! D207  D(35,36,37,38)        178.4183         estimate D2E/DX2                !
 ! D208  D(35,36,37,75)        -61.0071         estimate D2E/DX2                !
 ! D209  D(35,36,37,76)         56.9842         estimate D2E/DX2                !
 ! D210  D(41,36,37,38)        -57.7436         estimate D2E/DX2                !
 ! D211  D(41,36,37,75)         62.831          estimate D2E/DX2                !
 ! D212  D(41,36,37,76)       -179.1778         estimate D2E/DX2                !
 ! D213  D(74,36,37,38)         59.6455         estimate D2E/DX2                !
 ! D214  D(74,36,37,75)       -179.7798         estimate D2E/DX2                !
 ! D215  D(74,36,37,76)        -61.7886         estimate D2E/DX2                !
 ! D216  D(35,36,41,40)       -178.4015         estimate D2E/DX2                !
 ! D217  D(35,36,41,83)         61.0095         estimate D2E/DX2                !
 ! D218  D(35,36,41,84)        -56.9671         estimate D2E/DX2                !
 ! D219  D(37,36,41,40)         57.7469         estimate D2E/DX2                !
 ! D220  D(37,36,41,83)        -62.8421         estimate D2E/DX2                !
 ! D221  D(37,36,41,84)        179.1813         estimate D2E/DX2                !
 ! D222  D(74,36,41,40)        -59.6453         estimate D2E/DX2                !
 ! D223  D(74,36,41,83)        179.7657         estimate D2E/DX2                !
 ! D224  D(74,36,41,84)         61.7891         estimate D2E/DX2                !
 ! D225  D(36,37,38,39)         57.9017         estimate D2E/DX2                !
 ! D226  D(36,37,38,77)        -62.5525         estimate D2E/DX2                !
 ! D227  D(36,37,38,78)        179.3684         estimate D2E/DX2                !
 ! D228  D(75,37,38,39)        -62.8628         estimate D2E/DX2                !
 ! D229  D(75,37,38,77)        176.683          estimate D2E/DX2                !
 ! D230  D(75,37,38,78)         58.6038         estimate D2E/DX2                !
 ! D231  D(76,37,38,39)        178.9501         estimate D2E/DX2                !
 ! D232  D(76,37,38,77)         58.4959         estimate D2E/DX2                !
 ! D233  D(76,37,38,78)        -59.5832         estimate D2E/DX2                !
 ! D234  D(37,38,39,40)        -57.4917         estimate D2E/DX2                !
 ! D235  D(37,38,39,79)         62.833          estimate D2E/DX2                !
 ! D236  D(37,38,39,80)       -178.9804         estimate D2E/DX2                !
 ! D237  D(77,38,39,40)         63.0178         estimate D2E/DX2                !
 ! D238  D(77,38,39,79)       -176.6575         estimate D2E/DX2                !
 ! D239  D(77,38,39,80)        -58.4709         estimate D2E/DX2                !
 ! D240  D(78,38,39,40)       -178.838          estimate D2E/DX2                !
 ! D241  D(78,38,39,79)        -58.5133         estimate D2E/DX2                !
 ! D242  D(78,38,39,80)         59.6733         estimate D2E/DX2                !
 ! D243  D(38,39,40,41)         57.4963         estimate D2E/DX2                !
 ! D244  D(38,39,40,81)        -63.0091         estimate D2E/DX2                !
 ! D245  D(38,39,40,82)        178.8456         estimate D2E/DX2                !
 ! D246  D(79,39,40,41)        -62.8307         estimate D2E/DX2                !
 ! D247  D(79,39,40,81)        176.664          estimate D2E/DX2                !
 ! D248  D(79,39,40,82)         58.5187         estimate D2E/DX2                !
 ! D249  D(80,39,40,41)        178.9851         estimate D2E/DX2                !
 ! D250  D(80,39,40,81)         58.4798         estimate D2E/DX2                !
 ! D251  D(80,39,40,82)        -59.6655         estimate D2E/DX2                !
 ! D252  D(39,40,41,36)        -57.9088         estimate D2E/DX2                !
 ! D253  D(39,40,41,83)         62.8587         estimate D2E/DX2                !
 ! D254  D(39,40,41,84)       -178.9614         estimate D2E/DX2                !
 ! D255  D(81,40,41,36)         62.5398         estimate D2E/DX2                !
 ! D256  D(81,40,41,83)       -176.6928         estimate D2E/DX2                !
 ! D257  D(81,40,41,84)        -58.5129         estimate D2E/DX2                !
 ! D258  D(82,40,41,36)       -179.3782         estimate D2E/DX2                !
 ! D259  D(82,40,41,83)        -58.6108         estimate D2E/DX2                !
 ! D260  D(82,40,41,84)         59.5691         estimate D2E/DX2                !
 ! D261  D(35,42,43,32)         -0.2962         estimate D2E/DX2                !
 ! D262  D(35,42,43,86)       -178.9313         estimate D2E/DX2                !
 ! D263  D(85,42,43,32)        179.5569         estimate D2E/DX2                !
 ! D264  D(85,42,43,86)          0.9218         estimate D2E/DX2                !
 ! D265  D(31,44,45,46)         -0.4205         estimate D2E/DX2                !
 ! D266  D(31,44,45,88)        178.8245         estimate D2E/DX2                !
 ! D267  D(87,44,45,46)       -178.8868         estimate D2E/DX2                !
 ! D268  D(87,44,45,88)          0.3582         estimate D2E/DX2                !
 ! D269  D(44,45,46,24)       -179.6178         estimate D2E/DX2                !
 ! D270  D(44,45,46,29)          1.2855         estimate D2E/DX2                !
 ! D271  D(88,45,46,24)          1.1289         estimate D2E/DX2                !
 ! D272  D(88,45,46,29)       -177.9678         estimate D2E/DX2                !
 --------------------------------------------------------------------------------
 Trust Radius=3.00D-01 FncErr=1.00D-07 GrdErr=1.00D-06 EigMax=2.50D+02 EigMin=1.00D-04
 Number of steps in this run=    528 maximum allowed number of steps=    528.
 GradGradGradGradGradGradGradGradGradGradGradGradGradGradGradGradGradGrad

 Leave Link  103 at Sun Mar 23 23:45:32 2025, MaxMem= 13421772800 cpu:               0.3 elap:               0.0
 (Enter /public/software/apps/Gaussian/g16/l202.exe)
 Symmetry turned off by external request.
 Stoichiometry    C44H42O2
 Framework group  C1[X(C44H42O2)]
 Deg. of freedom   258
 Full point group                 C1      NOp   1
                          Input orientation:                          
 ---------------------------------------------------------------------
 Center     Atomic      Atomic             Coordinates (Angstroms)
 Number     Number       Type             X           Y           Z
 ---------------------------------------------------------------------
      1          8           0        0.878273    4.009256    1.907120
      2          6           0       -0.274159    3.321794    1.697176
      3          6           0       -1.249622    3.383931    2.711357
      4          6           0       -2.440565    2.736945    2.565633
      5          6           0       -2.718340    1.980831    1.406656
      6          6           0       -3.937324    1.298831    1.240296
      7          6           0       -4.200480    0.558922    0.111401
      8          6           0       -5.481165   -0.140221   -0.057766
      9          6           0       -6.081876   -0.802397    1.010264
     10          6           0       -7.286647   -1.456726    0.849657
     11          6           0       -7.937738   -1.468892   -0.379095
     12          6           0       -9.254493   -2.175944   -0.563063
     13          6           0      -10.341882   -1.574288    0.334947
     14          6           0      -11.675927   -2.277892    0.105750
     15          6           0      -11.544650   -3.774301    0.372884
     16          6           0      -10.462371   -4.380002   -0.515693
     17          6           0       -9.127390   -3.678480   -0.285707
     18          6           0       -7.337866   -0.805884   -1.442428
     19          6           0       -6.128940   -0.154894   -1.289746
     20          6           0       -3.210143    0.476810   -0.890846
     21          6           0       -2.016809    1.125033   -0.758947
     22          6           0       -1.737464    1.908482    0.382826
     23          6           0       -0.510106    2.602434    0.539660
     24          6           0        0.509430    2.601098   -0.541360
     25          6           0        0.268395    3.310122   -1.704245
     26          8           0       -0.887736    3.990066   -1.918218
     27          6           0        1.242041    3.368905   -2.720346
     28          6           0        2.435852    2.727944   -2.571681
     29          6           0        2.718446    1.981514   -1.407604
     30          6           0        3.939291    1.303303   -1.239662
     31          6           0        4.206501    0.570541   -0.107029
     32          6           0        5.487218   -0.128795    0.061233
     33          6           0        6.138408   -0.141219    1.291437
     34          6           0        7.346309   -0.794480    1.442753
     35          6           0        7.941936   -1.461947    0.379810
     36          6           0        9.256745   -2.172915    0.562738
     37          6           0       10.342637   -1.584428   -0.345623
     38          6           0       11.674316   -2.292485   -0.116370
     39          6           0       11.534524   -3.790317   -0.370890
     40          6           0       10.453387   -4.383558    0.527444
     41          6           0        9.120800   -3.677087    0.298553
     42          6           0        7.287648   -1.451744   -0.847246
     43          6           0        6.083889   -0.795264   -1.006470
     44          6           0        3.219324    0.494428    0.898837
     45          6           0        2.024520    1.139787    0.765854
     46          6           0        1.739951    1.913594   -0.381171
     47          1           0        1.480557    3.868276    1.163233
     48          1           0       -1.019793    3.962136    3.592190
     49          1           0       -3.189050    2.792117    3.342221
     50          1           0       -4.682311    1.383261    2.018677
     51          1           0       -5.586463   -0.821249    1.970370
     52          1           0       -7.722783   -1.966667    1.696094
     53          1           0       -9.569603   -2.050413   -1.605588
     54          1           0      -10.052667   -1.680603    1.382195
     55          1           0      -10.439228   -0.506863    0.122824
     56          1           0      -11.996481   -2.121520   -0.927125
     57          1           0      -12.437406   -1.847680    0.759956
     58          1           0      -11.282489   -3.933094    1.421656
     59          1           0      -12.499589   -4.271001    0.188346
     60          1           0      -10.753147   -4.273388   -1.563619
     61          1           0      -10.360328   -5.446789   -0.304777
     62          1           0       -8.361583   -4.105378   -0.937687
     63          1           0       -8.810367   -3.835327    0.747011
     64          1           0       -7.826141   -0.797186   -2.407181
     65          1           0       -5.693156    0.367500   -2.129255
     66          1           0       -3.398696   -0.131299   -1.763221
     67          1           0       -1.263513    1.034819   -1.528542
     68          1           0       -1.489027    3.850861   -1.173177
     69          1           0        1.008159    3.939087   -3.605322
     70          1           0        3.182690    2.779933   -3.350073
     71          1           0        4.682020    1.384089   -2.020581
     72          1           0        5.706086    0.384377    2.130726
     73          1           0        7.837057   -0.784249    2.406236
     74          1           0        9.577728   -2.040293    1.602569
     75          1           0       10.048232   -1.698742   -1.390530
     76          1           0       10.446042   -0.515682   -0.143526
     77          1           0       11.999961   -2.129455    0.913900
     78          1           0       12.435166   -1.871262   -0.777164
     79          1           0       11.266783   -3.956174   -1.417164
     80          1           0       12.487852   -4.290248   -0.186733
     81          1           0       10.749769   -4.270450    1.573132
     82          1           0       10.344885   -5.451404    0.325231
     83          1           0        8.797361   -3.840714   -0.731117
     84          1           0        8.356373   -4.094697    0.958094
     85          1           0        7.720319   -1.965146   -1.693362
     86          1           0        5.585905   -0.816012   -1.965192
     87          1           0        3.411296   -0.107080    1.775030
     88          1           0        1.273774    1.054014    1.538455
 ---------------------------------------------------------------------
 Rotational constants (GHZ):           0.1120749           0.0181487           0.0165800
 Leave Link  202 at Sun Mar 23 23:45:32 2025, MaxMem= 13421772800 cpu:               1.2 elap:               0.0
 (Enter /public/software/apps/Gaussian/g16/l301.exe)
 Standard basis: def2SVPP (5D, 7F)
 Ernie: Thresh=  0.10000D-02 Tol=  0.10000D-05 Strict=F.
   728 basis functions,  1318 primitive gaussians,   774 cartesian basis functions
   161 alpha electrons      161 beta electrons
       nuclear repulsion energy      4824.0981810165 Hartrees.
 IExCor=  402 DFT=T Ex+Corr=B3LYP ExCW=0 ScaHFX=  0.200000
 ScaDFX=  0.800000  0.720000  1.000000  0.810000 ScalE2=  1.000000  1.000000
 IRadAn=      5 IRanWt=     -1 IRanGd=            0 ICorTp=0 IEmpDi=141
 NAtoms=   88 NActive=   88 NUniq=   88 SFac= 1.00D+00 NAtFMM=   60 NAOKFM=T Big=T
 Integral buffers will be    131072 words long.
 Raffenetti 2 integral format.
 Two-electron integral symmetry is turned off.
 R6Disp:  Grimme-D3(BJ) Dispersion energy=       -0.2163390570 Hartrees.
 Nuclear repulsion after empirical dispersion term =     4823.8818419595 Hartrees.
 Leave Link  301 at Sun Mar 23 23:45:32 2025, MaxMem= 13421772800 cpu:               0.8 elap:               0.0
 (Enter /public/software/apps/Gaussian/g16/l302.exe)
 NPDir=0 NMtPBC=     1 NCelOv=     1 NCel=       1 NClECP=     1 NCelD=      1
         NCelK=      1 NCelE2=     1 NClLst=     1 CellRange=     0.0.
 One-electron integrals computed using PRISM.
   1 Symmetry operations used in ECPInt.
 ECPInt:  NShTT=   64980 NPrTT=  260284 LenC2=   38497 LenP2D=   95495.
 LDataN:  DoStor=T MaxTD1= 4 Len=   56
 NBasis=   728 RedAO= T EigKep=  1.75D-04  NBF=   728
 NBsUse=   728 1.00D-06 EigRej= -1.00D+00 NBFU=   728
 Precomputing XC quadrature grid using
 IXCGrd= 4 IRadAn=           5 IRanWt=          -1 IRanGd=           0 AccXCQ= 0.00D+00.
 Generated NRdTot=       0 NPtTot=           0 NUsed=           0 NTot=          32
 NSgBfM=   631   631   631   631   631 MxSgAt=    88 MxSgA2=    88.
 Leave Link  302 at Sun Mar 23 23:45:33 2025, MaxMem= 13421772800 cpu:              31.6 elap:               1.0
 (Enter /public/software/apps/Gaussian/g16/l303.exe)
 DipDrv:  MaxL=1.
 Leave Link  303 at Sun Mar 23 23:45:33 2025, MaxMem= 13421772800 cpu:               4.0 elap:               0.1
 (Enter /public/software/apps/Gaussian/g16/l401.exe)
 ExpMin= 1.22D-01 ExpMax= 2.27D+03 ExpMxC= 3.41D+02 IAcc=3 IRadAn=         5 AccDes= 0.00D+00
 Harris functional with IExCor=  402 and IRadAn=       5 diagonalized for initial guess.
 HarFok:  IExCor=  402 AccDes= 0.00D+00 IRadAn=         5 IDoV= 1 UseB2=F ITyADJ=14
 ICtDFT=  3500011 ScaDFX=  1.000000  1.000000  1.000000  1.000000
 FoFCou: FMM=F IPFlag=           0 FMFlag=      100000 FMFlg1=        2001
         NFxFlg=           0 DoJE=T BraDBF=F KetDBF=T FulRan=T
         wScrn=  0.000000 ICntrl=       500 IOpCl=  0 I1Cent=   200000004 NGrid=           0
         NMat0=    1 NMatS0=      1 NMatT0=    0 NMatD0=    1 NMtDS0=    0 NMtDT0=    0
 Symmetry not used in FoFCou.
 Harris En= -1851.29506005487    
 JPrj=0 DoOrth=F DoCkMO=F.
 Leave Link  401 at Sun Mar 23 23:45:35 2025, MaxMem= 13421772800 cpu:              59.3 elap:               1.9
 (Enter /public/software/apps/Gaussian/g16/l502.exe)
 Two-electron integral symmetry not used.
 Closed shell SCF:
 Using DIIS extrapolation, IDIIS=  1040.
 NGot= 13421772800 LenX= 13420541092 LenY= 13419941242
 Requested convergence on RMS density matrix=1.00D-08 within 128 cycles.
 Requested convergence on MAX density matrix=1.00D-06.
 Requested convergence on             energy=1.00D-06.
 No special actions if energy rises.
 Fock matrices will be formed incrementally for  20 cycles.
 Integral accuracy reduced to 1.0D-05 until final iterations.

 Cycle   1  Pass 0  IDiag  1:
 FoFJK:  IHMeth= 1 ICntrl=       0 DoSepK=F KAlg= 0 I1Cent=           0 FoldK=F
 IRaf= 680000000 NMat=       1 IRICut=       1 DoRegI=T DoRafI=F ISym2E= 0 IDoP0=0 IntGTp=1.
 FoFCou: FMM=T IPFlag=           0 FMFlag=      100000 FMFlg1=        2001
         NFxFlg=           0 DoJE=F BraDBF=F KetDBF=F FulRan=T
         wScrn=  0.000000 ICntrl=         0 IOpCl=  0 I1Cent=           0 NGrid=           0
         NMat0=    1 NMatS0=      1 NMatT0=    0 NMatD0=    1 NMtDS0=    0 NMtDT0=    0
 Symmetry not used in FoFCou.
 FMM levels:  10  Number of levels for PrismC:   9
 E= -1850.25056806261    
 DIIS: error= 3.38D-02 at cycle   1 NSaved=   1.
 NSaved= 1 IEnMin= 1 EnMin= -1850.25056806261     IErMin= 1 ErrMin= 3.38D-02
 ErrMax= 3.38D-02  0.00D+00 EMaxC= 1.00D-01 BMatC= 8.80D-01 BMatP= 8.80D-01
 IDIUse=3 WtCom= 6.62D-01 WtEn= 3.38D-01
 Coeff-Com:  0.100D+01
 Coeff-En:   0.100D+01
 Coeff:      0.100D+01
 Gap=     0.168 Goal=   None    Shift=    0.000
 GapD=    0.168 DampG=1.000 DampE=0.500 DampFc=0.5000 IDamp=-1.
 Damping current iteration by 5.00D-01
 RMSDP=4.59D-03 MaxDP=1.63D-01              OVMax= 1.65D-01

 Cycle   2  Pass 0  IDiag  1:
 RMSU=  2.09D-03    CP:  9.38D-01
 E= -1850.72182996878     Delta-E=       -0.471261906166 Rises=F Damp=T
 DIIS: error= 8.80D-03 at cycle   2 NSaved=   2.
 NSaved= 2 IEnMin= 2 EnMin= -1850.72182996878     IErMin= 2 ErrMin= 8.80D-03
 ErrMax= 8.80D-03  0.00D+00 EMaxC= 1.00D-01 BMatC= 4.55D-02 BMatP= 8.80D-01
 IDIUse=3 WtCom= 9.12D-01 WtEn= 8.80D-02
 Coeff-Com:  0.423D-01 0.958D+00
 Coeff-En:   0.559D-01 0.944D+00
 Coeff:      0.435D-01 0.957D+00
 Gap=     0.183 Goal=   None    Shift=    0.000
 RMSDP=1.59D-03 MaxDP=1.06D-01 DE=-4.71D-01 OVMax= 1.29D-01

 Cycle   3  Pass 0  IDiag  1:
 RMSU=  1.44D-03    CP:  8.96D-01  1.07D+00
 E= -1851.24541599192     Delta-E=       -0.523586023140 Rises=F Damp=F
 DIIS: error= 7.83D-03 at cycle   3 NSaved=   3.
 NSaved= 3 IEnMin= 3 EnMin= -1851.24541599192     IErMin= 3 ErrMin= 7.83D-03
 ErrMax= 7.83D-03  0.00D+00 EMaxC= 1.00D-01 BMatC= 3.46D-02 BMatP= 4.55D-02
 IDIUse=3 WtCom= 9.22D-01 WtEn= 7.83D-02
 Coeff-Com: -0.223D-01 0.464D+00 0.558D+00
 Coeff-En:   0.000D+00 0.000D+00 0.100D+01
 Coeff:     -0.206D-01 0.428D+00 0.593D+00
 Gap=     0.159 Goal=   None    Shift=    0.000
 RMSDP=5.98D-04 MaxDP=4.05D-02 DE=-5.24D-01 OVMax= 6.90D-02

 Cycle   4  Pass 0  IDiag  1:
 RMSU=  4.92D-04    CP:  8.98D-01  1.12D+00  7.78D-01
 E= -1851.26931156318     Delta-E=       -0.023895571260 Rises=F Damp=F
 DIIS: error= 4.67D-03 at cycle   4 NSaved=   4.
 NSaved= 4 IEnMin= 4 EnMin= -1851.26931156318     IErMin= 4 ErrMin= 4.67D-03
 ErrMax= 4.67D-03  0.00D+00 EMaxC= 1.00D-01 BMatC= 1.18D-02 BMatP= 3.46D-02
 IDIUse=3 WtCom= 9.53D-01 WtEn= 4.67D-02
 Coeff-Com: -0.163D-01 0.169D+00 0.385D+00 0.462D+00
 Coeff-En:   0.000D+00 0.000D+00 0.285D+00 0.715D+00
 Coeff:     -0.156D-01 0.161D+00 0.381D+00 0.474D+00
 Gap=     0.152 Goal=   None    Shift=    0.000
 RMSDP=3.13D-04 MaxDP=2.89D-02 DE=-2.39D-02 OVMax= 4.40D-02

 Cycle   5  Pass 0  IDiag  1:
 RMSU=  1.88D-04    CP:  8.96D-01  1.11D+00  8.36D-01  5.29D-01
 E= -1851.28093415894     Delta-E=       -0.011622595757 Rises=F Damp=F
 DIIS: error= 1.65D-03 at cycle   5 NSaved=   5.
 NSaved= 5 IEnMin= 5 EnMin= -1851.28093415894     IErMin= 5 ErrMin= 1.65D-03
 ErrMax= 1.65D-03  0.00D+00 EMaxC= 1.00D-01 BMatC= 1.63D-03 BMatP= 1.18D-02
 IDIUse=3 WtCom= 9.84D-01 WtEn= 1.65D-02
 Coeff-Com: -0.756D-02 0.404D-01 0.168D+00 0.316D+00 0.483D+00
 Coeff-En:   0.000D+00 0.000D+00 0.000D+00 0.117D+00 0.883D+00
 Coeff:     -0.743D-02 0.397D-01 0.165D+00 0.312D+00 0.490D+00
 Gap=     0.151 Goal=   None    Shift=    0.000
 RMSDP=1.02D-04 MaxDP=5.66D-03 DE=-1.16D-02 OVMax= 1.57D-02

 Cycle   6  Pass 0  IDiag  1:
 RMSU=  6.68D-05    CP:  8.95D-01  1.12D+00  8.37D-01  6.02D-01  6.49D-01
 E= -1851.28261589746     Delta-E=       -0.001681738528 Rises=F Damp=F
 DIIS: error= 3.74D-04 at cycle   6 NSaved=   6.
 NSaved= 6 IEnMin= 6 EnMin= -1851.28261589746     IErMin= 6 ErrMin= 3.74D-04
 ErrMax= 3.74D-04  0.00D+00 EMaxC= 1.00D-01 BMatC= 1.44D-04 BMatP= 1.63D-03
 IDIUse=3 WtCom= 9.96D-01 WtEn= 3.74D-03
 Coeff-Com: -0.281D-02 0.651D-02 0.573D-01 0.134D+00 0.296D+00 0.509D+00
 Coeff-En:   0.000D+00 0.000D+00 0.000D+00 0.000D+00 0.476D-01 0.952D+00
 Coeff:     -0.280D-02 0.648D-02 0.571D-01 0.134D+00 0.295D+00 0.510D+00
 Gap=     0.151 Goal=   None    Shift=    0.000
 RMSDP=3.04D-05 MaxDP=1.14D-03 DE=-1.68D-03 OVMax= 3.93D-03

 Cycle   7  Pass 0  IDiag  1:
 RMSU=  2.27D-05    CP:  8.95D-01  1.12D+00  8.38D-01  5.99D-01  6.93D-01
                    CP:  7.26D-01
 E= -1851.28278535225     Delta-E=       -0.000169454791 Rises=F Damp=F
 DIIS: error= 1.28D-04 at cycle   7 NSaved=   7.
 NSaved= 7 IEnMin= 7 EnMin= -1851.28278535225     IErMin= 7 ErrMin= 1.28D-04
 ErrMax= 1.28D-04  0.00D+00 EMaxC= 1.00D-01 BMatC= 1.56D-05 BMatP= 1.44D-04
 IDIUse=3 WtCom= 9.99D-01 WtEn= 1.28D-03
[...]
 00005,0.00000065,-0.00000011,0.00000076,0.00000020,0.00000025,-0.00000
 028,0.00000027,-0.00000054,-0.00000100,-0.00000034,0.00000009,0.000001
 35,0.00000048,0.00000058,0.00000099,-0.00000067,0.00000062,0.00000057,
 -0.00000326,0.00000233,-0.00000320,0.00000011,0.00000992,0.00000264,0.
 00004213,0.00000936,-0.00002707,0.00000712,0.00000524,-0.00000358,0.00
 000191,0.00004566,-0.00004757,0.00033882,-0.00063714,0.00099931,-0.001
 79322,-0.00025929,-0.00032979,-0.00001067,-0.00004239,0.00002437,0.000
 00477,-0.00000201,0.00000392,-0.00000185,0.00000097,0.00000385,-0.0000
 0424,-0.00000131,0.00000205,0.00000131,-0.00000355,0.00000339,0.000013
 51,-0.00000277,-0.00000384,-0.00000315,0.00000117,-0.00000202,0.000008
 73,-0.00000506,-0.00000002,0.00000439,0.00000192,0.00000279,0.00000913
 ,-0.00001247,-0.00000267,-0.00000126,0.00000282,0.00000262,-0.00000161
 ,0.00000519,0.00000171,0.00001872,-0.00001620,-0.00001388,0.00001157,-
 0.00008166,-0.00008635,0.06359820,-0.00020534,-0.00001448,-0.00008461,
 0.00022865,0.00002705,0.00007587,-0.00007400,0.00001370,0.00004616,0.0
 0006170,0.00004337,0.00000532,0.00000127,-0.00002596,-0.00004508,0.000
 02570,0.00001472,0.00000927,0.00000238,-0.00001237,-0.00002779,-0.0000
 0715,-0.00000629,-0.00000335,0.00000421,0.00000266,0.00000245,0.000000
 90,-0.00000071,0.00000174,-0.00000126,-0.00000104,0.00000042,-0.000001
 79,-0.00000027,-0.00000206,0.00000026,0.00000245,0.00000178,-0.0000004
 2,-0.00000102,-0.00000097,0.00000010,0.00000004,0.00000111,-0.00000131
 ,0.00000035,-0.00000066,0.00000208,-0.00000103,0.00000121,0.00000115,0
 .00000080,-0.00000288,0.00000289,0.00000051,0.00000087,-0.00002957,-0.
 00001020,0.00001105,0.00001213,0.00002273,0.00003324,-0.00004676,-0.00
 003928,-0.00008906,0.00009095,0.00020457,0.00007611,-0.00029754,-0.000
 04367,0.00067457,-0.00013135,-0.00045759,-0.00026616,0.00014042,-0.000
 13329,0.00005009,0.00009502,0.00007805,0.00001617,-0.00026515,-0.00039
 957,-0.00025822,-0.00004738,-0.00033000,-0.00058643,0.00087538,0.00355
 612,0.00131695,0.00243180,0.00208816,0.00085531,-0.00107133,-0.0013874
 2,-0.00132576,0.00002323,0.00053944,0.00074512,0.00018364,-0.00028029,
 -0.00039230,0.00001016,-0.00003358,0.00023352,0.00001280,0.00001804,-0
 .00001291,0.00000190,0.00000086,-0.00000234,-0.00000072,0.00000129,0.0
 0000257,0.00000047,0.00000210,-0.00000014,0.00000048,0.00000058,0.0000
 0436,-0.00000664,0.00000597,-0.00001027,-0.00010003,0.00009826,-0.0002
 1613,0.00029977,-0.00004862,-0.00017138,0.03162251,-0.13154395,0.13406
 919,0.00168034,-0.00359921,0.01281102,0.00490452,0.00509795,0.00221800
 ,0.00005001,0.00001367,0.00008668,0.00000929,-0.00001300,-0.00000671,0
 .00000536,-0.00000076,-0.00000036,0.00000489,-0.00000141,-0.00000089,-
 0.00000144,-0.00000091,0.00000132,0.00000118,0.00000113,-0.00000115,0.
 00000054,0.00000020,0.00000038,-0.00000022,-0.00000005,0.,-0.00000036,
 0.00000010,0.00000012,0.,0.00000036,0.00000026,0.00000154,0.00000003,-
 0.00000049,-0.00000039,-0.00000017,-0.00000045,0.00000115,0.00000054,0
 .00000005,0.00000035,-0.00000014,0.00000009,0.00000073,0.00000102,-0.0
 0000012,0.00000027,-0.00000069,-0.00000041,-0.00000024,-0.00000010,0.0
 0000012,0.00000042,0.00000046,0.00000106,-0.00000148,0.00000081,-0.000
 00210,-0.00000234,0.00000140,0.00000017,-0.00001002,-0.00000742,-0.000
 01027,-0.00002679,0.00001069,0.00002810,0.00000907,0.00000502,0.000011
 25,0.00000388,0.00002263,0.00003476,0.00015443,0.00015611,0.00003728,-
 0.00007694,0.00009425,-0.00050535,-0.00000670,0.00005849,-0.00000380,-
 0.00000679,0.00000327,-0.00000512,0.00000090,-0.00000035,-0.00000260,-
 0.00000088,-0.00000361,0.00000105,-0.00000070,0.00000024,-0.00000185,0
 .00000002,-0.00000054,0.00000010,-0.00000040,-0.00000053,-0.00000126,-
 0.00000061,-0.00000108,0.00000053,-0.00000082,0.00000078,-0.00000169,-
 0.00000033,-0.00000151,-0.00000073,0.00000131,-0.00000244,-0.00000231,
 -0.00000050,-0.00000258,0.00000443,-0.00000843,-0.00001701,-0.00000042
 ,0.00000367,-0.00005245,-0.00003755,-0.03857667,0.12926624,-0.00005199
 ,0.00001704,0.00001749,0.00003719,-0.00003230,0.00000529,-0.00001410,0
 .00000407,0.00000822,0.00000439,0.00000723,0.00000797,-0.00000565,-0.0
 0001113,0.00000045,0.00000520,-0.00000074,0.00000342,0.00000023,-0.000
 00223,-0.00000381,0.00000949,0.00000637,0.00000244,-0.00000349,-0.0000
 0441,-0.00000253,-0.00000141,-0.00000071,-0.00000222,0.00000038,0.0000
 0003,-0.00000033,0.00000161,0.00000102,0.00000214,-0.00000070,-0.00000
 214,-0.00000123,0.00000029,0.00000114,0.00000074,-0.00000034,0.0000004
 1,-0.00000055,0.00000096,-0.00000067,0.00000057,-0.00000332,0.00000194
 ,-0.00000055,-0.00000022,-0.00000263,0.00000227,-0.00000411,-0.0000022
 1,-0.00000123,-0.00000235,-0.00000263,0.00000271,0.00000059,-0.0000150
 9,-0.00000329,0.00002063,0.00003991,0.00000725,0.00007656,0.00010481,-
 0.00000608,0.00000256,0.00023336,-0.00014926,-0.00011167,-0.00033104,0
 .00006821,-0.00017823,0.00005927,-0.00005032,0.00006559,0.00003077,0.0
 0003584,-0.00019220,-0.00020044,-0.00015916,0.00041358,-0.00061707,0.0
 0030093,0.00451157,0.00103629,-0.00077529,-0.00512307,0.01227218,-0.01
 409352,-0.00245314,-0.00002114,-0.00039681,-0.00084938,-0.00042816,0.0
 0000043,0.00031126,-0.00031413,0.00019715,-0.00000880,0.00012215,0.000
 37441,0.00003608,0.00003700,0.00003000,0.00000398,0.00001253,-0.000006
 94,0.00000277,-0.00000489,0.00000436,-0.00000034,0.00000241,-0.0000065
 1,0.00000963,0.00000273,0.00000384,-0.00002543,0.00000451,-0.00000961,
 -0.00032845,0.00020463,-0.00021434,0.00060085,-0.00052544,-0.00023554,
 -0.03429749,0.13294002,-0.23919673,0.00121810,0.00112051,0.00137378,0.
 00133745,0.00255434,0.00319278,0.00001854,-0.00004760,-0.00003010,-0.0
 0000175,-0.00000098,0.00000347,-0.00000328,0.00000034,0.00000112,-0.00
 000246,0.00000051,0.00000206,0.00000053,0.00000247,-0.00000042,-0.0000
 0168,-0.00000020,0.00000140,-0.00000056,-0.00000040,-0.00000046,0.0000
 0018,0.00000031,-0.00000027,0.00000059,-0.00000081,0.00000013,-0.00000
 017,-0.00000029,-0.00000015,-0.00000079,-0.00000042,0.00000011,0.00000
 029,0.00000006,0.00000022,-0.00000062,-0.00000058,-0.00000006,-0.00000
 022,0.00000028,-0.00000018,-0.00000089,-0.00000156,0.00000032,0.000000
 55,0.00000011,-0.00000082,-0.00000004,0.00000030,0.00000028,-0.0000012
 1,0.00000017,-0.00000111,0.00000085,0.00000122,0.00000222,-0.00000319,
 -0.00000018,-0.00000435,0.00000225,0.00001280,0.00000249,0.00003222,0.
 00001083,-0.00001962,-0.00000987,0.00001481,-0.00000462,0.00002128,-0.
 00000615,0.00003903,-0.00030507,0.00058740,-0.00082379,-0.00043462,0.0
 0037284,0.00060067,-0.00000753,-0.00002110,-0.00000831,-0.00000368,-0.
 00000158,-0.00000415,0.00000192,0.00000063,-0.00000142,0.00000073,-0.0
 0000275,-0.00000101,-0.00000024,0.00000188,-0.00000220,-0.00000854,-0.
 00000008,0.00000306,0.00000179,-0.00000104,0.00000154,-0.00000662,0.00
 000162,0.00000055,-0.00000371,-0.00000005,-0.00000217,-0.00000536,0.00
 000559,0.00000075,0.00000209,-0.00000341,-0.00000521,-0.00000048,-0.00
 000649,0.00000614,0.00002550,0.00001230,0.00000368,-0.00002832,0.00003
 995,0.00007639,0.03693881,-0.14703943,0.25018429,-0.00129114,-0.000365
 62,-0.00032842,0.00031068,0.00217271,0.00034947,0.00003370,-0.00011577
 ,0.00009030,0.00001478,0.00006573,0.00000474,-0.00003518,-0.00009136,-
 0.00004446,0.00001657,0.00004397,0.00002532,0.00000366,-0.00002003,-0.
 00004388,-0.00002162,-0.00001382,-0.00000422,0.00000933,0.00000900,0.0
 0000606,0.00000364,-0.00000134,0.00000626,-0.00000125,-0.00000083,0.00
 000095,-0.00000415,-0.00000137,-0.00000528,0.00000120,0.00000591,0.000
 00361,-0.00000066,-0.00000249,-0.00000224,0.00000049,-0.00000028,0.000
 00191,-0.00000264,0.00000135,-0.00000160,0.00000643,-0.00000329,0.0000
 0213,0.00000177,0.00000418,-0.00000537,0.00001096,0.00000450,-0.000002
 11,-0.00005320,-0.00003021,0.00004025,0.00012604,-0.00002730,0.0000614
 1,-0.00031203,0.00011028,-0.00017227,-0.00061644,0.00047327,-0.0005844
 3,-0.00068749,-0.00024805,-0.00040374,-0.00000121,-0.00025533,0.000081
 23,0.00005042,0.00005442,0.00005262,0.00010489,-0.00007943,-0.00010575
 ,0.00022471,0.00003732,-0.00032167,0.00071432,0.00214450,-0.00058986,0
 .00007167,0.00009393,-0.00081184,-0.00161740,0.00501045,-0.00078988,-0
 .00023467,-0.00021958,0.00107607,-0.00001121,0.00003846,0.00003808,-0.
 00001272,0.00002730,-0.00001866,0.00001023,-0.00000762,-0.00000053,0.0
 0000516,-0.00000896,0.00001426,-0.00000330,0.00001602,-0.00000662,0.00
 000033,-0.00000551,0.00000635,-0.00000066,-0.00000066,-0.00000225,0.00
 000562,0.00000437,0.00000381,-0.00001643,-0.00000839,-0.00000105,-0.00
 001016,0.00007781,0.00004803,-0.00031461,0.00006859,-0.00016075,-0.014
 50284,-0.00305191,0.02095219,-0.18585674,-0.01084199,0.14305324,0.0078
 5325,0.00039833,-0.00512437,0.00012823,-0.00024875,0.00021906,0.000029
 12,-0.00003623,-0.00002526,0.00001247,-0.00000795,-0.00000146,0.000007
 86,0.00000012,-0.00000405,-0.00000328,-0.00000344,0.00000323,0.0000033
 8,0.00000172,-0.00000278,0.00000155,0.00000077,0.00000128,-0.00000050,
 -0.00000038,0.00000039,-0.00000107,0.00000064,0.00000007,0.00000023,0.
 00000075,0.00000062,0.00000277,0.00000053,-0.00000070,-0.00000071,-0.0
 0000029,-0.00000064,0.00000190,0.00000116,0.00000006,0.00000072,-0.000
 00040,0.00000039,0.00000188,0.00000267,-0.00000040,-0.00000030,-0.0000
 0097,0.00000027,-0.00000031,-0.00000048,0.00000001,0.00000269,0.000001
 00,0.00000280,-0.00000295,-0.00000049,-0.00000419,0.00000012,0.0000100
 3,0.00000223,0.00001951,0.00000307,0.00002580,-0.00000254,-0.00000003,
 -0.00001109,-0.00000383,0.00001568,0.00002344,0.00002862,0.00013705,-0
 .00006870,-0.00019060,-0.00031054,-0.00008733,-0.00002364,-0.00001792,
 -0.00000662,-0.00002093,0.00000734,-0.00000965,-0.00000626,0.00000215,
 -0.00000619,0.00000135,-0.00000089,-0.00000282,0.00000222,0.00000009,-
 0.00000050,-0.00000116,0.00000150,-0.00000257,-0.00000520,0.00000175,0
 .00000109,0.00000105,-0.00000053,-0.00000047,-0.00000279,0.00000195,0.
 00000013,-0.00000244,-0.00000066,-0.00000233,-0.00000390,0.00000438,0.
 00000086,0.00000093,-0.00000198,-0.00000294,0.00000220,-0.00000055,-0.
 00000121,-0.00002837,0.00002320,0.00000156,0.00000048,-0.00002492,0.00
 000413,0.00024460,-0.00195504,-0.00123227,0.19583482,-0.00066151,-0.00
 006225,-0.00033403,0.00160111,-0.00059374,0.00019123,0.00009328,-0.000
 08478,-0.00015404,-0.00012273,-0.00001592,-0.00004733,-0.00009400,0.00
 002083,0.00020503,0.00003388,-0.00003640,-0.00006338,-0.00005057,-0.00
 001129,0.00003369,0.00004926,0.00003007,0.00000178,-0.00001821,-0.0000
 1852,-0.00001495,-0.00000554,0.00000241,-0.00000887,-0.00000193,-0.000
 00057,-0.00000277,0.00000633,0.00000267,0.00000933,-0.00000260,-0.0000
 0915,-0.00000548,0.00000064,0.00000390,0.00000363,-0.00000087,0.000000
 89,-0.00000232,0.00000366,-0.00000294,0.00000278,-0.00001161,0.0000060
 1,-0.00000319,0.00000012,-0.00000995,0.00000860,-0.00002444,-0.0000128
 4,0.00000431,0.00006298,-0.00001886,-0.00005536,-0.00017834,-0.0001077
 4,-0.00004483,0.00034300,0.00033594,-0.00008479,0.00037227,-0.00060519
 ,0.00019224,-0.00102151,-0.00153031,-0.00084255,-0.00027565,0.00003245
 ,-0.00051082,0.00026861,0.00006533,0.00002636,-0.00020582,-0.00005198,
 0.00002156,-0.00067005,0.00012232,0.00052669,0.00275459,0.00162708,0.0
 0372518,0.00025462,-0.00077820,0.00006745,0.00495552,0.00405195,0.0033
 9719,0.00022406,0.00041328,-0.00053760,-0.00008385,-0.00009599,-0.0000
 5010,0.00000785,0.00001536,0.00002844,0.00001380,0.00000560,0.00002089
 ,-0.00001283,-0.00000534,0.00000160,0.00000038,0.00000023,-0.00000128,
 -0.00000026,0.00000019,0.00000017,0.00000052,0.00000084,0.00000013,-0.
 00000073,-0.00000302,-0.00000051,0.00000958,0.00000156,-0.00000060,-0.
 00004923,-0.00000864,-0.00008173,0.00006666,-0.00015802,0.00008424,0.0
 1092240,0.00524100,-0.01068936,-0.01065218,-0.04664883,0.02586136,-0.0
 1239985,0.00286058,0.01108567,-0.00005447,-0.00048941,0.00045403,0.000
 02408,-0.00000457,-0.00000216,-0.00003173,-0.00000958,0.00000134,-0.00
 000772,0.00000395,0.00000685,0.00000256,0.00000722,-0.00000169,-0.0000
 0610,-0.00000172,0.00000437,-0.00000242,-0.00000141,-0.00000223,0.0000
 0068,0.00000084,-0.00000082,0.00000190,-0.00000147,0.00000021,-0.00000
 052,-0.00000104,-0.00000099,-0.00000346,-0.00000120,0.00000064,0.00000
 088,0.00000032,0.00000062,-0.00000222,-0.00000175,-0.00000003,-0.00000
 089,0.00000074,-0.00000076,-0.00000303,-0.00000433,0.00000068,0.000001
 27,0.00000079,-0.00000160,0.00000012,0.00000085,0.00000047,-0.00000555
 ,-0.00000133,-0.00000444,0.00000371,0.00000398,0.00000574,-0.00000992,
 -0.00000742,-0.00001278,-0.00000303,-0.00001119,-0.00003547,-0.0000163
 0,-0.00005108,0.00011074,0.00003357,0.00002264,0.00001081,0.00010011,-
 0.00001965,0.00028004,-0.00032085,-0.00062570,-0.00035729,-0.00005300,
 0.00005716,0.00003150,0.00000651,-0.00000189,0.00000153,0.00000146,-0.
 00000054,0.00000045,-0.00000005,0.00000007,0.00000025,-0.00000091,-0.0
 0000142,0.00000039,0.00000026,-0.00000006,-0.00000032,0.00000009,-0.00
 000055,0.00000030,-0.00000015,-0.00000022,-0.00000010,-0.00000048,-0.0
 0000034,0.,0.00000015,0.00000037,0.00000008,0.00000136,-0.00000159,-0.
 00000027,0.00000008,0.00000057,-0.00000041,-0.00000136,-0.00000082,0.0
 0000233,0.00002012,0.00000269,-0.00000081,-0.00001182,-0.00000422,-0.0
 0003140,-0.00209733,-0.00298063,-0.00222876,0.00693362,0.04015292,-0.0
 0012867,-0.00026054,0.00004411,0.00052988,-0.00030472,0.00068778,-0.00
 023627,0.00002073,0.00014224,0.00018705,0.00019016,0.00000093,-0.00007
 570,-0.00008096,-0.00017163,0.00003303,0.00004475,0.00004782,0.0000081
 8,-0.00002432,-0.00008439,-0.00003899,-0.00002462,-0.00000719,0.000015
 72,0.00001127,0.00000643,0.00000379,-0.00000364,0.00000881,-0.00000237
 ,-0.00000179,0.00000216,-0.00000684,-0.00000179,-0.00000855,0.00000148
 ,0.00000945,0.00000519,-0.00000121,-0.00000386,-0.00000398,0.00000054,
 -0.00000016,0.00000277,-0.00000446,0.00000177,-0.00000294,0.00000919,-
 0.00000458,0.00000280,0.00000249,0.00000481,-0.00000859,0.00001810,0.0
 0000718,-0.00000279,-0.00010224,-0.00004190,0.00007688,0.00009892,0.00
 005905,0.00003234,-0.00055341,-0.00037408,0.00007366,0.00038389,-0.000
 36052,0.00018074,0.00081791,-0.00171575,-0.00009679,0.00020843,-0.0001
 5922,-0.00031878,-0.00018080,0.00011830,0.00019265,-0.00013877,-0.0000
 3198,0.00005647,0.00121693,-0.00030925,-0.00052771,-0.00179057,0.00454
 240,-0.00149883,-0.00084148,0.00013797,-0.00000855,0.00020997,0.002930
 76,0.00262817,-0.00012816,0.00011688,0.00019521,0.00001030,-0.00003317
 ,-0.00002749,-0.00000417,0.00000696,-0.00000435,0.00000221,-0.00000117
 ,0.00000307,-0.00000874,-0.00000066,-0.00000600,0.00000147,-0.00000730
 ,0.00000391,-0.00000091,0.00000319,-0.00000272,0.00000053,0.00000057,0
 .00000206,-0.00000343,-0.00000234,-0.00000225,0.00000980,0.00000441,0.
 00000269,-0.00000690,0.00002210,-0.00000014,-0.00008397,-0.00000255,0.
 00001897,-0.00394497,0.00079422,0.00637195,0.14236901,0.02559625,-0.20
 022494,0.01816443,0.00154965,-0.01443469,0.00013269,0.00016149,-0.0002
 6846,0.00000400,-0.00001228,-0.00002164,0.00002121,-0.00001090,0.00000
 148,0.00000822,-0.00000360,-0.00000656,-0.00000506,-0.00000375,0.00000
 618,0.00000396,0.00000289,-0.00000412,0.00000267,0.00000103,0.00000269
 ,-0.00000067,-0.00000060,0.00000109,-0.00000153,0.00000054,0.00000008,
 0.00000045,0.00000123,0.00000155,0.00000454,0.00000069,-0.00000135,-0.
 00000113,-0.00000055,-0.00000056,0.00000345,0.00000186,0.00000006,0.00
 000149,-0.00000064,0.00000118,0.00000277,0.00000385,-0.00000074,-0.000
 00026,-0.00000180,-0.00000049,-0.00000067,-0.00000059,0.00000105,0.000
 00443,0.00000207,0.00000467,-0.00000534,0.00000056,-0.00000641,0.00000
 268,0.00001030,0.00000250,0.00002577,0.00003552,0.00000149,0.00001054,
 0.00004102,-0.00012514,-0.00002507,0.00002977,0.00001277,-0.00004260,0
 .00024612,-0.00028431,-0.00009544,-0.00039114,-0.00022814,-0.00003280,
 0.00001148,0.00000128,0.00000107,-0.00000039,0.00000300,0.00000149,-0.
 00000109,0.00000139,-0.00000036,0.00000069,0.00000061,-0.00000155,-0.0
 0000115,-0.00000002,0.00000030,-0.00000098,0.00000092,0.00000339,-0.00
 000076,-0.00000096,-0.00000088,0.00000038,-0.00000068,0.00000251,-0.00
 000165,0.00000013,0.00000072,0.00000070,0.00000057,0.00000264,-0.00000
 380,-0.00000068,-0.00000007,0.00000042,-0.00000047,-0.00000043,0.00000
 126,0.00000098,0.00000185,0.00000551,-0.00000276,-0.00000676,-0.000003
 30,-0.00000903,-0.00084212,-0.00234763,-0.00034627,-0.15520030,-0.0301
 9476,0.20791664\\-0.00000054,0.00000156,0.00000176,-0.00000224,-0.0000
 0316,0.00000016,0.00000239,0.00000128,-0.00000084,-0.00000070,-0.00000
 118,-0.00000172,0.00000018,0.00000005,0.00000074,0.00000181,-0.0000014
 5,-0.00000062,-0.00000231,-0.00000028,-0.00000018,0.00000204,0.0000003
 0,-0.00000072,-0.00000202,0.00000156,-0.00000193,0.00000175,-0.0000006
 5,-0.00000141,-0.00000132,0.00000068,-0.00000028,0.00000480,-0.0000044
 4,-0.00000168,-0.00000142,0.00000550,0.00000118,-0.00000328,0.00000175
 ,-0.00000040,-0.00000191,-0.00000158,0.00000197,-0.00000080,-0.0000036
 9,-0.00000105,0.00000165,0.00000220,0.00000108,-0.00000287,0.00000141,
 0.00000268,0.00000042,-0.00000060,0.00000283,0.00000047,0.00000210,0.0
 0000175,-0.00000168,-0.00000138,0.00000128,0.00000187,0.00000148,-0.00
 000191,0.00000054,0.00000011,0.00000252,0.00000018,-0.00000058,-0.0000
 0168,0.00000194,-0.00000299,-0.00000077,0.00000089,0.00000194,-0.00000
 203,-0.00000245,0.00000149,0.00000087,0.00000056,-0.00000133,0.0000016
 0,-0.00000026,0.00000016,-0.00000067,-0.00000184,-0.00000146,0.0000006
 5,0.00000230,-0.00000028,0.00000004,-0.00000203,0.00000029,0.00000076,
 -0.00000051,-0.00000107,-0.00000274,0.00000160,-0.00000052,-0.00000218
 ,0.00000095,-0.00000005,0.00000009,-0.00000260,-0.00000025,0.00000090,
 -0.00000022,0.00000345,-0.00000098,0.00000345,0.00000163,0.00000024,0.
 00000197,-0.00000159,-0.00000199,0.00000057,-0.00000345,0.00000118,-0.
 00000238,-0.00000024,-0.00000045,-0.00000100,0.00000041,0.00000132,0.0
 0000173,0.00000132,0.00000197,-0.00000045,0.00000202,-0.00000175,0.000
 00156,-0.00000084,-0.00000139,-0.00000206,0.00000177,0.00000214,0.0000
 0129,0.00000068,-0.00000090,-0.00000035,-0.00000005,0.00000024,-0.0000
 0034,0.00000001,0.00000043,-0.00000003,0.00000058,0.00000055,0.0000000
 9,-0.00000058,0.00000093,0.00000036,-0.00000033,0.00000073,0.00000058,
 -0.00000150,-0.00000042,0.00000174,-0.00000132,0.00000106,0.00000002,-
 0.00000154,-0.00000064,0.00000115,-0.00000043,-0.00000046,0.00000083,-
 0.00000017,0.00000048,0.00000126,0.00000065,0.00000049,0.00000041,0.00
 000028,-0.00000007,0.,0.00000156,-0.00000010,0.00000028,0.00000084,0.0
 0000042,-0.00000126,0.00000051,-0.00000012,-0.00000161,-0.00000033,0.0
 0000094,0.00000066,-0.00000008,-0.00000056,-0.00000076,0.00000001,-0.0
 0000068,0.00000048,-0.00000027,-0.00000023,-0.00000059,-0.00000082,-0.
 00000008,-0.00000136,0.00000088,0.00000083,0.00000040,0.00000002,-0.00
 000022,0.00000038,0.00000012,-0.00000037,0.00000005,0.00000065,-0.0000
 0050,0.00000075,0.00000007,0.00000070,-0.00000044,0.00000030,0.0000004
 8,0.00000002,-0.00000042,0.00000022,-0.00000069,-0.00000135,-0.0000009
 8,0.00000010,-0.00000138,0.00000055,-0.00000117,-0.00000048,0.00000046
 ,-0.00000083,-0.00000018,-0.00000039,-0.00000124,0.00000067,-0.0000005
 2,-0.00000043,0.00000029,0.00000007,-0.00000006,0.00000150,0.00000009,
 -0.00000028,0.00000079,-0.00000052,0.00000100,0.00000050,-0.00000118,0
 .00000133,0.00000068,0.00000013,-0.00000029,-0.00000021,-0.00000076,-0
 .00000005,-0.00000055,-0.00000089,-0.00000050,-0.00000027,0.00000024,0
 .00000040,-0.00000070,0.00000021\\\@
 The archive entry for this job was punched.


 IN-LAWS ARE LIKE SEEDS. YOU DON'T NEED THEM
 BUT THEY COME WITH THE TOMATO.
 Job cpu time:       0 days  9 hours 20 minutes 28.9 seconds.
 Elapsed time:       0 days  0 hours 17 minutes 36.4 seconds.
 File lengths (MBytes):  RWF=   4953 Int=      0 D2E=      0 Chk=     48 Scr=      1
 Normal termination of Gaussian 16 at Mon Mar 24 00:11:10 2025.
