 Entering Gaussian System, Link 0=g16
 Initial command:
 /public/software/apps/Gaussian/g16/l1.exe "/tmp/Gau-19541.inp" -scrdir="/tmp/"
 Entering Link 1 = /public/software/apps/Gaussian/g16/l1.exe PID=     19542.
  
 Copyright (c) 1988-2019, Gaussian, Inc.  All Rights Reserved.
  
 This is part of the Gaussian(R) 16 program.  It is based on
 the Gaussian(R) 09 system (copyright 2009, Gaussian, Inc.),
 the Gaussian(R) 03 system (copyright 2003, Gaussian, Inc.),
 the Gaussian(R) 98 system (copyright 1998, Gaussian, Inc.),
 the Gaussian(R) 94 system (copyright 1995, Gaussian, Inc.),
 the Gaussian 92(TM) system (copyright 1992, Gaussian, Inc.),
 the Gaussian 90(TM) system (copyright 1990, Gaussian, Inc.),
 the Gaussian 88(TM) system (copyright 1988, Gaussian, Inc.),
 the Gaussian 86(TM) system (copyright 1986, Carnegie Mellon
 University), and the Gaussian 82(TM) system (copyright 1983,
 Carnegie Mellon University). Gaussian is a federally registered
 trademark of Gaussian, Inc.
  
 This software contains proprietary and confidential information,
 including trade secrets, belonging to Gaussian, Inc.
  
 This software is provided under written license and may be
 used, copied, transmitted, or stored only in accord with that
 written license.
  
 The following legend is applicable only to US Government
 contracts under FAR:
  
                    RESTRICTED RIGHTS LEGEND
  
 Use, reproduction and disclosure by the US Government is
 subject to restrictions as set forth in subparagraphs (a)
 and (c) of the Commercial Computer Software - Restricted
 Rights clause in FAR 52.227-19.
  
 Gaussian, Inc.
 340 Quinnipiac St., Bldg. 40, Wallingford CT 06492
  
  
 ---------------------------------------------------------------
 Warning -- This program may not be used in any manner that
 competes with the business of Gaussian, Inc. or will provide
 assistance to any competitor of Gaussian, Inc.  The licensee
 of this program is prohibited from giving any competitor of
 Gaussian, Inc. access to this program.  By using this program,
 the user acknowledges that Gaussian, Inc. is engaged in the
 business of creating and licensing software in the field of
 computational chemistry and represents and warrants to the
 licensee that it is not a competitor of Gaussian, Inc. and that
 it will not use this program in any manner prohibited above.
 ---------------------------------------------------------------
  

 Cite this work as:
 Gaussian 16, Revision C.01,
 M. J. Frisch, G. W. Trucks, H. B. Schlegel, G. E. Scuseria, 
 M. A. Robb, J. R. Cheeseman, G. Scalmani, V. Barone, 
 G. A. Petersson, H. Nakatsuji, X. Li, M. Caricato, A. V. Marenich, 
 J. Bloino, B. G. Janesko, R. Gomperts, B. Mennucci, H. P. Hratchian, 
 J. V. Ortiz, A. F. Izmaylov, J. L. Sonnenberg, D. Williams-Young, 
 F. Ding, F. Lipparini, F. Egidi, J. Goings, B. Peng, A. Petrone, 
 T. Henderson, D. Ranasinghe, V. G. Zakrzewski, J. Gao, N. Rega, 
 G. Zheng, W. Liang, M. Hada, M. Ehara, K. Toyota, R. Fukuda, 
 J. Hasegawa, M. Ishida, T. Nakajima, Y. Honda, O. Kitao, H. Nakai, 
 T. Vreven, K. Throssell, J. A. Montgomery, Jr., J. E. Peralta, 
 F. Ogliaro, M. J. Bearpark, J. J. Heyd, E. N. Brothers, K. N. Kudin, 
 V. N. Staroverov, T. A. Keith, R. Kobayashi, J. Normand, 
 K. Raghavachari, A. P. Rendell, J. C. Burant, S. S. Iyengar, 
 J. Tomasi, M. Cossi, J. M. Millam, M. Klene, C. Adamo, R. Cammi, 
 J. W. Ochterski, R. L. Martin, K. Morokuma, O. Farkas, 
 J. B. Foresman, and D. J. Fox, Gaussian, Inc., Wallingford CT, 2019.
 
 ******************************************
 Gaussian 16:  ES64L-G16RevC.01  3-Jul-2019
                24-Mar-2025 
 ******************************************
 %nprocshared=32
 Will use up to   32 processors via shared memory.
 %mem=100GB
 ------------------------------------------
 #p opt freq b3lyp/def2svpp em=gd3bj nosymm
 ------------------------------------------
 1/18=20,19=15,26=3,38=1/1,3;
 2/9=110,12=2,15=1,17=6,18=5,40=1/2;
 3/5=43,7=202,11=2,25=1,30=1,71=1,74=-5,124=41/1,2,3;
 4//1;
 5/5=2,38=5/2;
 6/7=2,8=2,9=2,10=2,28=1/1;
 7/30=1/1,2,3,16;
 1/18=20,19=15,26=3/3(2);
 2/9=110,15=1/2;
 99//99;
 2/9=110,15=1/2;
 3/5=43,7=202,11=2,25=1,30=1,71=1,74=-5,124=41/1,2,3;
 4/5=5,16=3,69=1/1;
 5/5=2,38=5/2;
 7/30=1/1,2,3,16;
 1/18=20,19=15,26=3/3(-5);
 2/9=110,15=1/2;
 6/7=2,8=2,9=2,10=2,19=2,28=1/1;
 99/9=1/99;
 Leave Link    1 at Mon Mar 24 14:21:45 2025, MaxMem= 13421772800 cpu:               0.8 elap:               0.0
 (Enter /public/software/apps/Gaussian/g16/l101.exe)
 ----------------------
 $$$$Singlemol####0????
 ----------------------
 Symbolic Z-matrix:
 Charge =  0 Multiplicity = 1
 O                    -0.81473   2.86795  -1.9385 
 C                     0.32732   2.17883  -1.69053 
 C                     1.33199   2.23072  -2.67699 
 C                     2.51452   1.57799  -2.49466 
 C                     2.75544   0.82897  -1.32296 
 C                     3.96756   0.14483  -1.11971 
 C                     4.1882   -0.59512   0.01739 
 C                     5.45072  -1.31983   0.22689 
 C                     5.45465  -2.62915   0.70447 
 C                     6.63611  -3.31956   0.89973 
 C                     7.8516   -2.71371   0.62837 
 C                     7.88055  -1.4121    0.16019 
 C                     6.68979  -0.73934  -0.03548 
 F                     6.75209   0.53861  -0.47426 
 C                     3.17079  -0.6722    0.99227 
 C                     1.98856  -0.0115    0.82719 
 C                     1.74548   0.76545  -0.32737 
 C                     0.52661   1.464    -0.52298 
 C                    -0.52762   1.4667    0.52459 
 C                    -0.33112   2.18904   1.68791 
 O                     0.81076   2.87896   1.93449 
 C                    -1.33889   2.24832   2.67082 
 C                    -2.52168   1.59579   2.48905 
 C                    -2.75941   0.83828   1.32217 
 C                    -3.97117   0.1531    1.11969 
 C                    -4.18713  -0.59648  -0.0119 
 C                    -5.44824  -1.32389  -0.22082 
 C                    -5.44835  -2.63918  -0.6816 
 C                    -6.62839  -3.33192  -0.87744 
 C                    -7.84586  -2.72231  -0.62396 
 C                    -7.87845  -1.41475  -0.1726 
 C                    -6.68915  -0.73986   0.0244 
 F                    -6.75393   0.54373   0.4461 
 C                    -3.16621  -0.68174  -0.98238 
 C                    -1.98488  -0.01924  -0.81868 
 C                    -1.74606   0.76686   0.33057 
 H                    -1.43991   2.74     -1.21125 
 H                     1.1299    2.80532  -3.56682 
 H                     3.28602   1.62573  -3.24841 
 H                     4.72179   0.20122  -1.8905 
 H                     4.50967  -3.11194   0.90455 
 H                     6.60888  -4.33535   1.26414 
 H                     8.7754   -3.24995   0.78136 
 H                     8.81083  -0.90927  -0.05317 
 H                     3.34634  -1.24941   1.88809 
 H                     1.21909  -0.08265   1.58252 
 H                     1.43713   2.74702   1.20899 
 H                    -1.13934   2.82894   3.55734 
 H                    -3.29568   1.65016   3.2398 
 H                    -4.7288    0.21623   1.88667 
 H                    -4.50178  -3.12439  -0.86802 
 H                    -6.59837  -4.35234  -1.22865 
 H                    -8.76852  -3.26028  -0.77787 
 H                    -8.81039  -0.90908   0.02614 
 H                    -3.33854  -1.26687  -1.87368 
 H                    -1.21269  -0.09631  -1.5706 
 
 ITRead=  0  0  0  0  0  0  0  0  0  0  0  0  0  0  0  0  0  0  0  0
 ITRead=  0  0  0  0  0  0  0  0  0  0  0  0  0  0  0  0  0  0  0  0
 ITRead=  0  0  0  0  0  0  0  0  0  0  0  0  0  0  0  0
 MicOpt= -1 -1 -1 -1 -1 -1 -1 -1 -1 -1 -1 -1 -1 -1 -1 -1 -1 -1 -1 -1
 MicOpt= -1 -1 -1 -1 -1 -1 -1 -1 -1 -1 -1 -1 -1 -1 -1 -1 -1 -1 -1 -1
 MicOpt= -1 -1 -1 -1 -1 -1 -1 -1 -1 -1 -1 -1 -1 -1 -1 -1
 NAtoms=     56 NQM=       56 NQMF=       0 NMMI=      0 NMMIF=      0
                NMic=       0 NMicF=      0.
                    Isotopes and Nuclear Properties:
 (Nuclear quadrupole moments (NQMom) in fm**2, nuclear magnetic moments (NMagM)
  in nuclear magnetons)

  Atom         1           2           3           4           5           6           7           8           9          10
 IAtWgt=          16          12          12          12          12          12          12          12          12          12
 AtmWgt=  15.9949146  12.0000000  12.0000000  12.0000000  12.0000000  12.0000000  12.0000000  12.0000000  12.0000000  12.0000000
 NucSpn=           0           0           0           0           0           0           0           0           0           0
 AtZEff=  -0.0000000  -0.0000000  -0.0000000  -0.0000000  -0.0000000  -0.0000000  -0.0000000  -0.0000000  -0.0000000  -0.0000000
 NQMom=    0.0000000   0.0000000   0.0000000   0.0000000   0.0000000   0.0000000   0.0000000   0.0000000   0.0000000   0.0000000
 NMagM=    0.0000000   0.0000000   0.0000000   0.0000000   0.0000000   0.0000000   0.0000000   0.0000000   0.0000000   0.0000000
 AtZNuc=   8.0000000   6.0000000   6.0000000   6.0000000   6.0000000   6.0000000   6.0000000   6.0000000   6.0000000   6.0000000

  Atom        11          12          13          14          15          16          17          18          19          20
 IAtWgt=          12          12          12          19          12          12          12          12          12          12
 AtmWgt=  12.0000000  12.0000000  12.0000000  18.9984032  12.0000000  12.0000000  12.0000000  12.0000000  12.0000000  12.0000000
 NucSpn=           0           0           0           1           0           0           0           0           0           0
 AtZEff=  -0.0000000  -0.0000000  -0.0000000  -0.0000000  -0.0000000  -0.0000000  -0.0000000  -0.0000000  -0.0000000  -0.0000000
 NQMom=    0.0000000   0.0000000   0.0000000   0.0000000   0.0000000   0.0000000   0.0000000   0.0000000   0.0000000   0.0000000
 NMagM=    0.0000000   0.0000000   0.0000000   2.6288670   0.0000000   0.0000000   0.0000000   0.0000000   0.0000000   0.0000000
 AtZNuc=   6.0000000   6.0000000   6.0000000   9.0000000   6.0000000   6.0000000   6.0000000   6.0000000   6.0000000   6.0000000

  Atom        21          22          23          24          25          26          27          28          29          30
 IAtWgt=          16          12          12          12          12          12          12          12          12          12
 AtmWgt=  15.9949146  12.0000000  12.0000000  12.0000000  12.0000000  12.0000000  12.0000000  12.0000000  12.0000000  12.0000000
 NucSpn=           0           0           0           0           0           0           0           0           0           0
 AtZEff=  -0.0000000  -0.0000000  -0.0000000  -0.0000000  -0.0000000  -0.0000000  -0.0000000  -0.0000000  -0.0000000  -0.0000000
 NQMom=    0.0000000   0.0000000   0.0000000   0.0000000   0.0000000   0.0000000   0.0000000   0.0000000   0.0000000   0.0000000
 NMagM=    0.0000000   0.0000000   0.0000000   0.0000000   0.0000000   0.0000000   0.0000000   0.0000000   0.0000000   0.0000000
 AtZNuc=   8.0000000   6.0000000   6.0000000   6.0000000   6.0000000   6.0000000   6.0000000   6.0000000   6.0000000   6.0000000

  Atom        31          32          33          34          35          36          37          38          39          40
 IAtWgt=          12          12          19          12          12          12           1           1           1           1
 AtmWgt=  12.0000000  12.0000000  18.9984032  12.0000000  12.0000000  12.0000000   1.0078250   1.0078250   1.0078250   1.0078250
 NucSpn=           0           0           1           0           0           0           1           1           1           1
 AtZEff=  -0.0000000  -0.0000000  -0.0000000  -0.0000000  -0.0000000  -0.0000000  -0.0000000  -0.0000000  -0.0000000  -0.0000000
 NQMom=    0.0000000   0.0000000   0.0000000   0.0000000   0.0000000   0.0000000   0.0000000   0.0000000   0.0000000   0.0000000
 NMagM=    0.0000000   0.0000000   2.6288670   0.0000000   0.0000000   0.0000000   2.7928460   2.7928460   2.7928460   2.7928460
 AtZNuc=   6.0000000   6.0000000   9.0000000   6.0000000   6.0000000   6.0000000   1.0000000   1.0000000   1.0000000   1.0000000

  Atom        41          42          43          44          45          46          47          48          49          50
 IAtWgt=           1           1           1           1           1           1           1           1           1           1
 AtmWgt=   1.0078250   1.0078250   1.0078250   1.0078250   1.0078250   1.0078250   1.0078250   1.0078250   1.0078250   1.0078250
 NucSpn=           1           1           1           1           1           1           1           1           1           1
 AtZEff=  -0.0000000  -0.0000000  -0.0000000  -0.0000000  -0.0000000  -0.0000000  -0.0000000  -0.0000000  -0.0000000  -0.0000000
 NQMom=    0.0000000   0.0000000   0.0000000   0.0000000   0.0000000   0.0000000   0.0000000   0.0000000   0.0000000   0.0000000
 NMagM=    2.7928460   2.7928460   2.7928460   2.7928460   2.7928460   2.7928460   2.7928460   2.7928460   2.7928460   2.7928460
 AtZNuc=   1.0000000   1.0000000   1.0000000   1.0000000   1.0000000   1.0000000   1.0000000   1.0000000   1.0000000   1.0000000

  Atom        51          52          53          54          55          56
 IAtWgt=           1           1           1           1           1           1
 AtmWgt=   1.0078250   1.0078250   1.0078250   1.0078250   1.0078250   1.0078250
 NucSpn=           1           1           1           1           1           1
 AtZEff=  -0.0000000  -0.0000000  -0.0000000  -0.0000000  -0.0000000  -0.0000000
 NQMom=    0.0000000   0.0000000   0.0000000   0.0000000   0.0000000   0.0000000
 NMagM=    2.7928460   2.7928460   2.7928460   2.7928460   2.7928460   2.7928460
 AtZNuc=   1.0000000   1.0000000   1.0000000   1.0000000   1.0000000   1.0000000
 Leave Link  101 at Mon Mar 24 14:21:45 2025, MaxMem= 13421772800 cpu:               4.7 elap:               0.2
 (Enter /public/software/apps/Gaussian/g16/l103.exe)

 GradGradGradGradGradGradGradGradGradGradGradGradGradGradGradGradGradGrad
 Berny optimization.
 Initialization pass.
                           ----------------------------
                           !    Initial Parameters    !
                           ! (Angstroms and Degrees)  !
 --------------------------                            --------------------------
 ! Name  Definition              Value          Derivative Info.                !
 --------------------------------------------------------------------------------
 ! R1    R(1,2)                  1.3567         estimate D2E/DX2                !
 ! R2    R(1,37)                 0.9675         estimate D2E/DX2                !
 ! R3    R(2,3)                  1.409          estimate D2E/DX2                !
 ! R4    R(2,18)                 1.3834         estimate D2E/DX2                !
 ! R5    R(3,4)                  1.363          estimate D2E/DX2                !
 ! R6    R(3,38)                 1.0783         estimate D2E/DX2                !
 ! R7    R(4,5)                  1.4114         estimate D2E/DX2                !
 ! R8    R(4,39)                 1.0796         estimate D2E/DX2                !
 ! R9    R(5,6)                  1.4066         estimate D2E/DX2                !
 ! R10   R(5,17)                 1.4196         estimate D2E/DX2                !
 ! R11   R(6,7)                  1.3745         estimate D2E/DX2                !
 ! R12   R(6,40)                 1.0799         estimate D2E/DX2                !
 ! R13   R(7,8)                  1.4707         estimate D2E/DX2                !
 ! R14   R(7,15)                 1.4112         estimate D2E/DX2                !
 ! R15   R(8,9)                  1.3937         estimate D2E/DX2                !
 ! R16   R(8,13)                 1.3932         estimate D2E/DX2                !
 ! R17   R(9,10)                 1.3823         estimate D2E/DX2                !
 ! R18   R(9,41)                 1.0799         estimate D2E/DX2                !
 ! R19   R(10,11)                1.385          estimate D2E/DX2                !
 ! R20   R(10,42)                1.0795         estimate D2E/DX2                !
 ! R21   R(11,12)                1.3835         estimate D2E/DX2                !
 ! R22   R(11,43)                1.0791         estimate D2E/DX2                !
 ! R23   R(12,13)                1.3816         estimate D2E/DX2                !
 ! R24   R(12,44)                1.0788         estimate D2E/DX2                !
 ! R25   R(13,14)                1.3526         estimate D2E/DX2                !
 ! R26   R(15,16)                1.3643         estimate D2E/DX2                !
 ! R27   R(15,45)                1.08           estimate D2E/DX2                !
 ! R28   R(16,17)                1.4127         estimate D2E/DX2                !
 ! R29   R(16,46)                1.0806         estimate D2E/DX2                !
 ! R30   R(17,18)                1.4184         estimate D2E/DX2                !
 ! R31   R(18,19)                1.4862         estimate D2E/DX2                !
 ! R32   R(19,20)                1.3834         estimate D2E/DX2                !
 ! R33   R(19,36)                1.4184         estimate D2E/DX2                !
 ! R34   R(20,21)                1.3567         estimate D2E/DX2                !
 ! R35   R(20,22)                1.409          estimate D2E/DX2                !
 ! R36   R(21,47)                0.9675         estimate D2E/DX2                !
 ! R37   R(22,23)                1.363          estimate D2E/DX2                !
 ! R38   R(22,48)                1.0784         estimate D2E/DX2                !
 ! R39   R(23,24)                1.4114         estimate D2E/DX2                !
 ! R40   R(23,49)                1.0797         estimate D2E/DX2                !
 ! R41   R(24,25)                1.4067         estimate D2E/DX2                !
 ! R42   R(24,36)                1.4196         estimate D2E/DX2                !
 ! R43   R(25,26)                1.3744         estimate D2E/DX2                !
 ! R44   R(25,50)                1.0799         estimate D2E/DX2                !
 ! R45   R(26,27)                1.4708         estimate D2E/DX2                !
 ! R46   R(26,34)                1.4112         estimate D2E/DX2                !
 ! R47   R(27,28)                1.3937         estimate D2E/DX2                !
 ! R48   R(27,32)                1.3932         estimate D2E/DX2                !
 ! R49   R(28,29)                1.3823         estimate D2E/DX2                !
 ! R50   R(28,51)                1.0799         estimate D2E/DX2                !
 ! R51   R(29,30)                1.385          estimate D2E/DX2                !
 ! R52   R(29,52)                1.0796         estimate D2E/DX2                !
 ! R53   R(30,31)                1.3837         estimate D2E/DX2                !
 ! R54   R(30,53)                1.0791         estimate D2E/DX2                !
 ! R55   R(31,32)                1.3816         estimate D2E/DX2                !
 ! R56   R(31,54)                1.0788         estimate D2E/DX2                !
 ! R57   R(32,33)                1.3526         estimate D2E/DX2                !
 ! R58   R(34,35)                1.3643         estimate D2E/DX2                !
 ! R59   R(34,55)                1.08           estimate D2E/DX2                !
 ! R60   R(35,36)                1.4127         estimate D2E/DX2                !
 ! R61   R(35,56)                1.0806         estimate D2E/DX2                !
 ! A1    A(2,1,37)             109.8389         estimate D2E/DX2                !
 ! A2    A(1,2,3)              116.9727         estimate D2E/DX2                !
 ! A3    A(1,2,18)             122.5457         estimate D2E/DX2                !
 ! A4    A(3,2,18)             120.477          estimate D2E/DX2                !
 ! A5    A(2,3,4)              120.4883         estimate D2E/DX2                !
 ! A6    A(2,3,38)             117.6285         estimate D2E/DX2                !
 ! A7    A(4,3,38)             121.8823         estimate D2E/DX2                !
 ! A8    A(3,4,5)              120.8851         estimate D2E/DX2                !
 ! A9    A(3,4,39)             120.359          estimate D2E/DX2                !
 ! A10   A(5,4,39)             118.7559         estimate D2E/DX2                !
 ! A11   A(4,5,6)              121.6802         estimate D2E/DX2                !
 ! A12   A(4,5,17)             118.9817         estimate D2E/DX2                !
 ! A13   A(6,5,17)             119.338          estimate D2E/DX2                !
 ! A14   A(5,6,7)              121.3128         estimate D2E/DX2                !
 ! A15   A(5,6,40)             118.25           estimate D2E/DX2                !
 ! A16   A(7,6,40)             120.4301         estimate D2E/DX2                !
 ! A17   A(6,7,8)              121.3942         estimate D2E/DX2                !
 ! A18   A(6,7,15)             119.0242         estimate D2E/DX2                !
 ! A19   A(8,7,15)             119.5757         estimate D2E/DX2                !
 ! A20   A(7,8,9)              120.9407         estimate D2E/DX2                !
 ! A21   A(7,8,13)             122.0939         estimate D2E/DX2                !
 ! A22   A(9,8,13)             116.9652         estimate D2E/DX2                !
 ! A23   A(8,9,10)             121.3355         estimate D2E/DX2                !
 ! A24   A(8,9,41)             118.7532         estimate D2E/DX2                !
 ! A25   A(10,9,41)            119.9001         estimate D2E/DX2                !
 ! A26   A(9,10,11)            120.2629         estimate D2E/DX2                !
 ! A27   A(9,10,42)            119.7432         estimate D2E/DX2                !
 ! A28   A(11,10,42)           119.9939         estimate D2E/DX2                !
 ! A29   A(10,11,12)           119.7498         estimate D2E/DX2                !
 ! A30   A(10,11,43)           120.4101         estimate D2E/DX2                !
 ! A31   A(12,11,43)           119.8401         estimate D2E/DX2                !
 ! A32   A(11,12,13)           119.2089         estimate D2E/DX2                !
 ! A33   A(11,12,44)           121.5656         estimate D2E/DX2                !
 ! A34   A(13,12,44)           119.2253         estimate D2E/DX2                !
 ! A35   A(8,13,12)            122.4759         estimate D2E/DX2                !
 ! A36   A(8,13,14)            119.7159         estimate D2E/DX2                !
 ! A37   A(12,13,14)           117.7956         estimate D2E/DX2                !
 ! A38   A(7,15,16)            120.9769         estimate D2E/DX2                !
 ! A39   A(7,15,45)            119.0121         estimate D2E/DX2                !
 ! A40   A(16,15,45)           120.0003         estimate D2E/DX2                !
 ! A41   A(15,16,17)           120.9513         estimate D2E/DX2                !
 ! A42   A(15,16,46)           120.0383         estimate D2E/DX2                !
 ! A43   A(17,16,46)           119.0093         estimate D2E/DX2                !
 ! A44   A(5,17,16)            118.3827         estimate D2E/DX2                !
 ! A45   A(5,17,18)            119.5119         estimate D2E/DX2                !
 ! A46   A(16,17,18)           122.1016         estimate D2E/DX2                !
 ! A47   A(2,18,17)            119.6469         estimate D2E/DX2                !
 ! A48   A(2,18,19)            119.4553         estimate D2E/DX2                !
 ! A49   A(17,18,19)           120.8802         estimate D2E/DX2                !
 ! A50   A(18,19,20)           119.5333         estimate D2E/DX2                !
 ! A51   A(18,19,36)           120.7977         estimate D2E/DX2                !
 ! A52   A(20,19,36)           119.6479         estimate D2E/DX2                !
 ! A53   A(19,20,21)           122.5422         estimate D2E/DX2                !
 ! A54   A(19,20,22)           120.465          estimate D2E/DX2                !
 ! A55   A(21,20,22)           116.9879         estimate D2E/DX2                !
 ! A56   A(20,21,47)           109.8315         estimate D2E/DX2                !
 ! A57   A(20,22,23)           120.497          estimate D2E/DX2                !
 ! A58   A(20,22,48)           117.6326         estimate D2E/DX2                !
 ! A59   A(23,22,48)           121.8693         estimate D2E/DX2                !
 ! A60   A(22,23,24)           120.8887         estimate D2E/DX2                !
 ! A61   A(22,23,49)           120.3483         estimate D2E/DX2                !
 ! A62   A(24,23,49)           118.763          estimate D2E/DX2                !
 ! A63   A(23,24,25)           121.7033         estimate D2E/DX2                !
 ! A64   A(23,24,36)           118.9651         estimate D2E/DX2                !
 ! A65   A(25,24,36)           119.3315         estimate D2E/DX2                !
 ! A66   A(24,25,26)           121.2988         estimate D2E/DX2                !
 ! A67   A(24,25,50)           118.2704         estimate D2E/DX2                !
 ! A68   A(26,25,50)           120.4235         estimate D2E/DX2                !
 ! A69   A(25,26,27)           121.4272         estimate D2E/DX2                !
 ! A70   A(25,26,34)           119.045          estimate D2E/DX2                !
 ! A71   A(27,26,34)           119.5218         estimate D2E/DX2                !
 ! A72   A(26,27,28)           120.917          estimate D2E/DX2                !
 ! A73   A(26,27,32)           122.0986         estimate D2E/DX2                !
 ! A74   A(28,27,32)           116.9841         estimate D2E/DX2                !
 ! A75   A(27,28,29)           121.324          estimate D2E/DX2                !
 ! A76   A(27,28,51)           118.7541         estimate D2E/DX2                !
 ! A77   A(29,28,51)           119.911          estimate D2E/DX2                !
 ! A78   A(28,29,30)           120.2603         estimate D2E/DX2                !
 ! A79   A(28,29,52)           119.7387         estimate D2E/DX2                !
 ! A80   A(30,29,52)           120.0011         estimate D2E/DX2                !
 ! A81   A(29,30,31)           119.7597         estimate D2E/DX2                !
 ! A82   A(29,30,53)           120.4045         estimate D2E/DX2                !
 ! A83   A(31,30,53)           119.8357         estimate D2E/DX2                !
 ! A84   A(30,31,32)           119.2007         estimate D2E/DX2                !
 ! A85   A(30,31,54)           121.562          estimate D2E/DX2                !
 ! A86   A(32,31,54)           119.2369         estimate D2E/DX2                !
 ! A87   A(27,32,31)           122.4693         estimate D2E/DX2                !
 ! A88   A(27,32,33)           119.6911         estimate D2E/DX2                !
 ! A89   A(31,32,33)           117.8262         estimate D2E/DX2                !
 ! A90   A(26,34,35)           120.9695         estimate D2E/DX2                !
 ! A91   A(26,34,55)           119.0019         estimate D2E/DX2                !
 ! A92   A(35,34,55)           120.0179         estimate D2E/DX2                !
 ! A93   A(34,35,36)           120.9448         estimate D2E/DX2                !
 ! A94   A(34,35,56)           120.0434         estimate D2E/DX2                !
 ! A95   A(36,35,56)           119.0106         estimate D2E/DX2                !
 ! A96   A(19,36,24)           119.5252         estimate D2E/DX2                !
 ! A97   A(19,36,35)           122.0752         estimate D2E/DX2                !
 ! A98   A(24,36,35)           118.3957         estimate D2E/DX2                !
 ! D1    D(37,1,2,3)           178.2862         estimate D2E/DX2                !
 ! D2    D(37,1,2,18)           -2.4936         estimate D2E/DX2                !
 ! D3    D(1,2,3,4)            179.2063         estimate D2E/DX2                !
 ! D4    D(1,2,3,38)            -0.4608         estimate D2E/DX2                !
 ! D5    D(18,2,3,4)            -0.0309         estimate D2E/DX2                !
 ! D6    D(18,2,3,38)         -179.698          estimate D2E/DX2                !
 ! D7    D(1,2,18,17)         -179.9842         estimate D2E/DX2                !
 ! D8    D(1,2,18,19)           -1.496          estimate D2E/DX2                !
 ! D9    D(3,2,18,17)           -0.7906         estimate D2E/DX2                !
 ! D10   D(3,2,18,19)          177.6976         estimate D2E/DX2                !
 ! D11   D(2,3,4,5)              0.5093         estimate D2E/DX2                !
 ! D12   D(2,3,4,39)          -179.5032         estimate D2E/DX2                !
 ! D13   D(38,3,4,5)          -179.8381         estimate D2E/DX2                !
 ! D14   D(38,3,4,39)            0.1494         estimate D2E/DX2                !
 ! D15   D(3,4,5,6)            179.7596         estimate D2E/DX2                !
 ! D16   D(3,4,5,17)            -0.155          estimate D2E/DX2                !
 ! D17   D(39,4,5,6)            -0.2281         estimate D2E/DX2                !
 ! D18   D(39,4,5,17)          179.8572         estimate D2E/DX2                !
 ! D19   D(4,5,6,7)           -179.2359         estimate D2E/DX2                !
 ! D20   D(4,5,6,40)            -0.2025         estimate D2E/DX2                !
 ! D21   D(17,5,6,7)             0.6784         estimate D2E/DX2                !
 ! D22   D(17,5,6,40)          179.7119         estimate D2E/DX2                !
 ! D23   D(4,5,17,16)          178.6442         estimate D2E/DX2                !
 ! D24   D(4,5,17,18)           -0.6622         estimate D2E/DX2                !
 ! D25   D(6,5,17,16)           -1.2724         estimate D2E/DX2                !
 ! D26   D(6,5,17,18)          179.4212         estimate D2E/DX2                !
 ! D27   D(5,6,7,8)            179.5077         estimate D2E/DX2                !
 ! D28   D(5,6,7,15)             0.3938         estimate D2E/DX2                !
 ! D29   D(40,6,7,8)             0.4952         estimate D2E/DX2                !
 ! D30   D(40,6,7,15)         -178.6187         estimate D2E/DX2                !
 ! D31   D(6,7,8,9)           -135.4627         estimate D2E/DX2                !
 ! D32   D(6,7,8,13)            44.69           estimate D2E/DX2                !
 ! D33   D(15,7,8,9)            43.6464         estimate D2E/DX2                !
 ! D34   D(15,7,8,13)         -136.2009         estimate D2E/DX2                !
 ! D35   D(6,7,15,16)           -0.8718         estimate D2E/DX2                !
 ! D36   D(6,7,15,45)         -179.6793         estimate D2E/DX2                !
 ! D37   D(8,7,15,16)          179.9979         estimate D2E/DX2                !
 ! D38   D(8,7,15,45)            1.1904         estimate D2E/DX2                !
 ! D39   D(7,8,9,10)           179.7607         estimate D2E/DX2                !
 ! D40   D(7,8,9,41)             0.977          estimate D2E/DX2                !
 ! D41   D(13,8,9,10)           -0.3844         estimate D2E/DX2                !
 ! D42   D(13,8,9,41)         -179.1681         estimate D2E/DX2                !
 ! D43   D(7,8,13,12)          179.9091         estimate D2E/DX2                !
 ! D44   D(7,8,13,14)            1.2296         estimate D2E/DX2                !
 ! D45   D(9,8,13,12)            0.056          estimate D2E/DX2                !
 ! D46   D(9,8,13,14)         -178.6235         estimate D2E/DX2                !
 ! D47   D(8,9,10,11)            0.3598         estimate D2E/DX2                !
 ! D48   D(8,9,10,42)         -179.566          estimate D2E/DX2                !
 ! D49   D(41,9,10,11)         179.1297         estimate D2E/DX2                !
 ! D50   D(41,9,10,42)          -0.7961         estimate D2E/DX2                !
 ! D51   D(9,10,11,12)           0.0065         estimate D2E/DX2                !
 ! D52   D(9,10,11,43)         179.9071         estimate D2E/DX2                !
 ! D53   D(42,10,11,12)        179.9322         estimate D2E/DX2                !
 ! D54   D(42,10,11,43)         -0.1672         estimate D2E/DX2                !
 ! D55   D(10,11,12,13)         -0.3259         estimate D2E/DX2                !
 ! D56   D(10,11,12,44)        179.5087         estimate D2E/DX2                !
 ! D57   D(43,11,12,13)        179.7729         estimate D2E/DX2                !
 ! D58   D(43,11,12,44)         -0.3925         estimate D2E/DX2                !
 ! D59   D(11,12,13,8)           0.2967         estimate D2E/DX2                !
 ! D60   D(11,12,13,14)        179.0003         estimate D2E/DX2                !
 ! D61   D(44,12,13,8)        -179.5419         estimate D2E/DX2                !
 ! D62   D(44,12,13,14)         -0.8383         estimate D2E/DX2                !
 ! D63   D(7,15,16,17)           0.2529         estimate D2E/DX2                !
 ! D64   D(7,15,16,46)         179.8806         estimate D2E/DX2                !
 ! D65   D(45,15,16,17)        179.0487         estimate D2E/DX2                !
 ! D66   D(45,15,16,46)         -1.3236         estimate D2E/DX2                !
 ! D67   D(15,16,17,5)           0.8206         estimate D2E/DX2                !
 ! D68   D(15,16,17,18)       -179.8919         estimate D2E/DX2                !
 ! D69   D(46,16,17,5)        -178.8108         estimate D2E/DX2                !
 ! D70   D(46,16,17,18)          0.4767         estimate D2E/DX2                !
 ! D71   D(5,17,18,2)            1.1302         estimate D2E/DX2                !
 ! D72   D(5,17,18,19)        -177.336          estimate D2E/DX2                !
 ! D73   D(16,17,18,2)        -178.1495         estimate D2E/DX2                !
 ! D74   D(16,17,18,19)          3.3843         estimate D2E/DX2                !
 ! D75   D(2,18,19,20)        -106.7209         estimate D2E/DX2                !
 ! D76   D(2,18,19,36)          71.6051         estimate D2E/DX2                !
 ! D77   D(17,18,19,20)         71.7482         estimate D2E/DX2                !
 ! D78   D(17,18,19,36)       -109.9258         estimate D2E/DX2                !
 ! D79   D(18,19,20,21)         -1.6868         estimate D2E/DX2                !
 ! D80   D(18,19,20,22)        177.4857         estimate D2E/DX2                !
 ! D81   D(36,19,20,21)        179.9678         estimate D2E/DX2                !
 ! D82   D(36,19,20,22)         -0.8597         estimate D2E/DX2                !
 ! D83   D(18,19,36,24)       -177.0965         estimate D2E/DX2                !
 ! D84   D(18,19,36,35)          3.6371         estimate D2E/DX2                !
 ! D85   D(20,19,36,24)          1.2276         estimate D2E/DX2                !
 ! D86   D(20,19,36,35)       -178.0388         estimate D2E/DX2                !
 ! D87   D(19,20,21,47)         -2.3879         estimate D2E/DX2                !
 ! D88   D(22,20,21,47)        178.4125         estimate D2E/DX2                !
 ! D89   D(19,20,22,23)         -0.047          estimate D2E/DX2                !
 ! D90   D(19,20,22,48)       -179.6694         estimate D2E/DX2                !
 ! D91   D(21,20,22,23)        179.1701         estimate D2E/DX2                !
 ! D92   D(21,20,22,48)         -0.4523         estimate D2E/DX2                !
 ! D93   D(20,22,23,24)          0.5821         estimate D2E/DX2                !
 ! D94   D(20,22,23,49)       -179.4458         estimate D2E/DX2                !
 ! D95   D(48,22,23,24)       -179.8118         estimate D2E/DX2                !
 ! D96   D(48,22,23,49)          0.1603         estimate D2E/DX2                !
 ! D97   D(22,23,24,25)        179.7029         estimate D2E/DX2                !
 ! D98   D(22,23,24,36)         -0.198          estimate D2E/DX2                !
 ! D99   D(49,23,24,25)         -0.2696         estimate D2E/DX2                !
 ! D100  D(49,23,24,36)        179.8295         estimate D2E/DX2                !
 ! D101  D(23,24,25,26)       -179.137          estimate D2E/DX2                !
 ! D102  D(23,24,25,50)         -0.1193         estimate D2E/DX2                !
 ! D103  D(36,24,25,26)          0.7636         estimate D2E/DX2                !
 ! D104  D(36,24,25,50)        179.7813         estimate D2E/DX2                !
 ! D105  D(23,24,36,19)         -0.7043         estimate D2E/DX2                !
 ! D106  D(23,24,36,35)        178.5891         estimate D2E/DX2                !
 ! D107  D(25,24,36,19)        179.3924         estimate D2E/DX2                !
 ! D108  D(25,24,36,35)         -1.3142         estimate D2E/DX2                !
 ! D109  D(24,25,26,27)        179.4364         estimate D2E/DX2                !
 ! D110  D(24,25,26,34)          0.3345         estimate D2E/DX2                !
 ! D111  D(50,25,26,27)          0.4397         estimate D2E/DX2                !
 ! D112  D(50,25,26,34)       -178.6622         estimate D2E/DX2                !
 ! D113  D(25,26,27,28)       -135.1542         estimate D2E/DX2                !
 ! D114  D(25,26,27,32)         45.0546         estimate D2E/DX2                !
 ! D115  D(34,26,27,28)         43.9435         estimate D2E/DX2                !
 ! D116  D(34,26,27,32)       -135.8477         estimate D2E/DX2                !
 ! D117  D(25,26,34,35)         -0.8822         estimate D2E/DX2                !
 ! D118  D(25,26,34,55)       -179.6919         estimate D2E/DX2                !
 ! D119  D(27,26,34,35)        179.9985         estimate D2E/DX2                !
 ! D120  D(27,26,34,55)          1.1888         estimate D2E/DX2                !
 ! D121  D(26,27,28,29)        179.8222         estimate D2E/DX2                !
 ! D122  D(26,27,28,51)          1.0287         estimate D2E/DX2                !
 ! D123  D(32,27,28,29)         -0.3763         estimate D2E/DX2                !
 ! D124  D(32,27,28,51)       -179.1698         estimate D2E/DX2                !
 ! D125  D(26,27,32,31)        179.8221         estimate D2E/DX2                !
 ! D126  D(26,27,32,33)          1.1838         estimate D2E/DX2                !
 ! D127  D(28,27,32,31)          0.0232         estimate D2E/DX2                !
 ! D128  D(28,27,32,33)       -178.6152         estimate D2E/DX2                !
 ! D129  D(27,28,29,30)          0.3803         estimate D2E/DX2                !
 ! D130  D(27,28,29,52)       -179.5697         estimate D2E/DX2                !
 ! D131  D(51,28,29,30)        179.1601         estimate D2E/DX2                !
 ! D132  D(51,28,29,52)         -0.79           estimate D2E/DX2                !
 ! D133  D(28,29,30,31)         -0.0191         estimate D2E/DX2                !
 ! D134  D(28,29,30,53)        179.8808         estimate D2E/DX2                !
 ! D135  D(52,29,30,31)        179.9308         estimate D2E/DX2                !
 ! D136  D(52,29,30,53)         -0.1693         estimate D2E/DX2                !
 ! D137  D(29,30,31,32)         -0.3242         estimate D2E/DX2                !
 ! D138  D(29,30,31,54)        179.4859         estimate D2E/DX2                !
 ! D139  D(53,30,31,32)        179.7754         estimate D2E/DX2                !
 ! D140  D(53,30,31,54)         -0.4145         estimate D2E/DX2                !
 ! D141  D(30,31,32,27)          0.3249         estimate D2E/DX2                !
 ! D142  D(30,31,32,33)        178.9874         estimate D2E/DX2                !
 ! D143  D(54,31,32,27)       -179.4896         estimate D2E/DX2                !
 ! D144  D(54,31,32,33)         -0.8272         estimate D2E/DX2                !
 ! D145  D(26,34,35,36)          0.3059         estimate D2E/DX2                !
 ! D146  D(26,34,35,56)        179.9022         estimate D2E/DX2                !
 ! D147  D(55,34,35,36)        179.1035         estimate D2E/DX2                !
 ! D148  D(55,34,35,56)         -1.3001         estimate D2E/DX2                !
 ! D149  D(34,35,36,19)       -179.931          estimate D2E/DX2                !
 ! D150  D(34,35,36,24)          0.7946         estimate D2E/DX2                !
 ! D151  D(56,35,36,19)          0.4685         estimate D2E/DX2                !
 ! D152  D(56,35,36,24)       -178.8059         estimate D2E/DX2                !
 --------------------------------------------------------------------------------
 Trust Radius=3.00D-01 FncErr=1.00D-07 GrdErr=1.00D-06 EigMax=2.50D+02 EigMin=1.00D-04
 Number of steps in this run=    321 maximum allowed number of steps=    336.
 GradGradGradGradGradGradGradGradGradGradGradGradGradGradGradGradGradGrad

 Leave Link  103 at Mon Mar 24 14:21:45 2025, MaxMem= 13421772800 cpu:               0.2 elap:               0.0
 (Enter /public/software/apps/Gaussian/g16/l202.exe)
 Symmetry turned off by external request.
 Stoichiometry    C32H20F2O2
 Framework group  C1[X(C32H20F2O2)]
 Deg. of freedom   162
 Full point group                 C1      NOp   1
                          Input orientation:                          
 ---------------------------------------------------------------------
 Center     Atomic      Atomic             Coordinates (Angstroms)
 Number     Number       Type             X           Y           Z
 ---------------------------------------------------------------------
      1          8           0       -0.814726    2.867948   -1.938496
      2          6           0        0.327321    2.178828   -1.690527
      3          6           0        1.331990    2.230719   -2.676989
      4          6           0        2.514517    1.577985   -2.494662
      5          6           0        2.755440    0.828970   -1.322963
      6          6           0        3.967559    0.144834   -1.119706
      7          6           0        4.188201   -0.595117    0.017386
      8          6           0        5.450723   -1.319829    0.226891
      9          6           0        5.454649   -2.629148    0.704473
     10          6           0        6.636112   -3.319555    0.899734
     11          6           0        7.851597   -2.713707    0.628365
     12          6           0        7.880552   -1.412103    0.160186
     13          6           0        6.689792   -0.739337   -0.035484
     14          9           0        6.752085    0.538610   -0.474260
     15          6           0        3.170789   -0.672195    0.992266
     16          6           0        1.988561   -0.011500    0.827193
     17          6           0        1.745481    0.765453   -0.327368
     18          6           0        0.526613    1.463997   -0.522978
     19          6           0       -0.527623    1.466696    0.524593
     20          6           0       -0.331122    2.189036    1.687912
     21          8           0        0.810756    2.878964    1.934488
     22          6           0       -1.338889    2.248320    2.670822
     23          6           0       -2.521680    1.595793    2.489048
     24          6           0       -2.759405    0.838281    1.322165
     25          6           0       -3.971174    0.153100    1.119690
     26          6           0       -4.187130   -0.596477   -0.011896
     27          6           0       -5.448243   -1.323891   -0.220817
     28          6           0       -5.448351   -2.639180   -0.681597
     29          6           0       -6.628387   -3.331916   -0.877437
     30          6           0       -7.845861   -2.722311   -0.623962
     31          6           0       -7.878454   -1.414753   -0.172604
     32          6           0       -6.689150   -0.739859    0.024403
     33          9           0       -6.753929    0.543725    0.446095
     34          6           0       -3.166210   -0.681742   -0.982383
     35          6           0       -1.984881   -0.019239   -0.818681
     36          6           0       -1.746055    0.766859    0.330570
     37          1           0       -1.439908    2.740002   -1.211251
     38          1           0        1.129900    2.805321   -3.566822
     39          1           0        3.286020    1.625731   -3.248409
     40          1           0        4.721787    0.201215   -1.890503
     41          1           0        4.509666   -3.111937    0.904554
     42          1           0        6.608879   -4.335345    1.264137
     43          1           0        8.775398   -3.249950    0.781356
     44          1           0        8.810833   -0.909269   -0.053169
     45          1           0        3.346342   -1.249407    1.888093
     46          1           0        1.219093   -0.082649    1.582516
     47          1           0        1.437134    2.747020    1.208992
     48          1           0       -1.139342    2.828944    3.557335
     49          1           0       -3.295675    1.650161    3.239801
     50          1           0       -4.728800    0.216226    1.886670
     51          1           0       -4.501776   -3.124392   -0.868022
     52          1           0       -6.598375   -4.352336   -1.228647
     53          1           0       -8.768523   -3.260279   -0.777872
     54          1           0       -8.810394   -0.909083    0.026136
     55          1           0       -3.338540   -1.266870   -1.873682
     56          1           0       -1.212694   -0.096314   -1.570603
 ---------------------------------------------------------------------
 Rotational constants (GHZ):           0.2235646           0.0452566           0.0424052
 Leave Link  202 at Mon Mar 24 14:21:45 2025, MaxMem= 13421772800 cpu:               0.3 elap:               0.0
 (Enter /public/software/apps/Gaussian/g16/l301.exe)
 Standard basis: def2SVPP (5D, 7F)
 Ernie: Thresh=  0.10000D-02 Tol=  0.10000D-05 Strict=F.
   544 basis functions,   980 primitive gaussians,   580 cartesian basis functions
   123 alpha electrons      123 beta electrons
       nuclear repulsion energy      3433.8797162657 Hartrees.
 IExCor=  402 DFT=T Ex+Corr=B3LYP ExCW=0 ScaHFX=  0.200000
 ScaDFX=  0.800000  0.720000  1.000000  0.810000 ScalE2=  1.000000  1.000000
 IRadAn=      5 IRanWt=     -1 IRanGd=            0 ICorTp=0 IEmpDi=141
 NAtoms=   56 NActive=   56 NUniq=   56 SFac= 1.00D+00 NAtFMM=   60 NAOKFM=F Big=F
 Integral buffers will be    131072 words long.
 Raffenetti 2 integral format.
 Two-electron integral symmetry is turned off.
 R6Disp:  Grimme-D3(BJ) Dispersion energy=       -0.1476029629 Hartrees.
 Nuclear repulsion after empirical dispersion term =     3433.7321133028 Hartrees.
 Leave Link  301 at Mon Mar 24 14:21:45 2025, MaxMem= 13421772800 cpu:               0.5 elap:               0.0
 (Enter /public/software/apps/Gaussian/g16/l302.exe)
 NPDir=0 NMtPBC=     1 NCelOv=     1 NCel=       1 NClECP=     1 NCelD=      1
         NCelK=      1 NCelE2=     1 NClLst=     1 CellRange=     0.0.
 One-electron integrals computed using PRISM.
   1 Symmetry operations used in ECPInt.
 ECPInt:  NShTT=   32896 NPrTT=  131856 LenC2=   25359 LenP2D=   64162.
 LDataN:  DoStor=T MaxTD1= 4 Len=   56
 NBasis=   544 RedAO= T EigKep=  1.76D-04  NBF=   544
 NBsUse=   544 1.00D-06 EigRej= -1.00D+00 NBFU=   544
 Precomputing XC quadrature grid using
 IXCGrd= 4 IRadAn=           5 IRanWt=          -1 IRanGd=           0 AccXCQ= 0.00D+00.
 Generated NRdTot=       0 NPtTot=           0 NUsed=           0 NTot=          32
 NSgBfM=   552   552   552   552   552 MxSgAt=    56 MxSgA2=    56.
 Leave Link  302 at Mon Mar 24 14:21:46 2025, MaxMem= 13421772800 cpu:              15.2 elap:               0.5
 (Enter /public/software/apps/Gaussian/g16/l303.exe)
 DipDrv:  MaxL=1.
 Leave Link  303 at Mon Mar 24 14:21:46 2025, MaxMem= 13421772800 cpu:               1.5 elap:               0.1
 (Enter /public/software/apps/Gaussian/g16/l401.exe)
 ExpMin= 1.22D-01 ExpMax= 2.89D+03 ExpMxC= 4.35D+02 IAcc=3 IRadAn=         5 AccDes= 0.00D+00
 Harris functional with IExCor=  402 and IRadAn=       5 diagonalized for initial guess.
 HarFok:  IExCor=  402 AccDes= 0.00D+00 IRadAn=         5 IDoV= 1 UseB2=F ITyADJ=14
 ICtDFT=  3500011 ScaDFX=  1.000000  1.000000  1.000000  1.000000
 FoFCou: FMM=F IPFlag=           0 FMFlag=      100000 FMFlg1=           0
         NFxFlg=           0 DoJE=T BraDBF=F KetDBF=T FulRan=T
         wScrn=  0.000000 ICntrl=       500 IOpCl=  0 I1Cent=   200000004 NGrid=           0
         NMat0=    1 NMatS0=      1 NMatT0=    0 NMatD0=    1 NMtDS0=    0 NMtDT0=    0
 Symmetry not used in FoFCou.
 Harris En= -1580.51013374988    
 JPrj=0 DoOrth=F DoCkMO=F.
 Leave Link  401 at Mon Mar 24 14:21:47 2025, MaxMem= 13421772800 cpu:              39.6 elap:               1.3
 (Enter /public/software/apps/Gaussian/g16/l502.exe)
 Two-electron integral symmetry not used.
 Closed shell SCF:
 Using DIIS extrapolation, IDIIS=  1040.
 NGot= 13421772800 LenX= 13421075462 LenY= 13420738482
 Requested convergence on RMS density matrix=1.00D-08 within 128 cycles.
 Requested convergence on MAX density matrix=1.00D-06.
 Requested convergence on             energy=1.00D-06.
 No special actions if energy rises.
 Fock matrices will be formed incrementally for  20 cycles.
 Integral accuracy reduced to 1.0D-05 until final iterations.

 Cycle   1  Pass 0  IDiag  1:
 FoFJK:  IHMeth= 1 ICntrl=       0 DoSepK=F KAlg= 0 I1Cent=           0 FoldK=F
 IRaf= 670000000 NMat=       1 IRICut=       1 DoRegI=T DoRafI=F ISym2E= 0 IDoP0=0 IntGTp=1.
 FoFCou: FMM=F IPFlag=           0 FMFlag=      100000 FMFlg1=           0
         NFxFlg=           0 DoJE=F BraDBF=F KetDBF=F FulRan=T
         wScrn=  0.000000 ICntrl=         0 IOpCl=  0 I1Cent=           0 NGrid=           0
         NMat0=    1 NMatS0=      1 NMatT0=    0 NMatD0=    1 NMtDS0=    0 NMtDT0=    0
 Symmetry not used in FoFCou.
 E= -1579.90814238357    
 DIIS: error= 2.41D-02 at cycle   1 NSaved=   1.
 NSaved= 1 IEnMin= 1 EnMin= -1579.90814238357     IErMin= 1 ErrMin= 2.41D-02
 ErrMax= 2.41D-02  0.00D+00 EMaxC= 1.00D-01 BMatC= 5.74D-01 BMatP= 5.74D-01
 IDIUse=3 WtCom= 7.59D-01 WtEn= 2.41D-01
 Coeff-Com:  0.100D+01
 Coeff-En:   0.100D+01
 Coeff:      0.100D+01
 Gap=     0.173 Goal=   None    Shift=    0.000
 GapD=    0.173 DampG=1.000 DampE=0.500 DampFc=0.5000 IDamp=-1.
 Damping current iteration by 5.00D-01
 RMSDP=5.14D-03 MaxDP=1.52D-01              OVMax= 2.20D-01

 Cycle   2  Pass 0  IDiag  1:
 RMSU=  2.28D-03    CP:  9.38D-01
 E= -1580.20679659478     Delta-E=       -0.298654211208 Rises=F Damp=T
 DIIS: error= 3.85D-03 at cycle   2 NSaved=   2.
 NSaved= 2 IEnMin= 2 EnMin= -1580.20679659478     IErMin= 2 ErrMin= 3.85D-03
 ErrMax= 3.85D-03  0.00D+00 EMaxC= 1.00D-01 BMatC= 3.54D-02 BMatP= 5.74D-01
 IDIUse=3 WtCom= 9.62D-01 WtEn= 3.85D-02
 Coeff-Com:  0.324D-01 0.968D+00
 Coeff-En:   0.381D-01 0.962D+00
 Coeff:      0.326D-01 0.967D+00
 Gap=     0.166 Goal=   None    Shift=    0.000
 RMSDP=1.88D-03 MaxDP=1.09D-01 DE=-2.99D-01 OVMax= 1.91D-01

 Cycle   3  Pass 0  IDiag  1:
 RMSU=  1.65D-03    CP:  8.96D-01  1.17D+00
 E= -1580.50921917885     Delta-E=       -0.302422584064 Rises=F Damp=F
 DIIS: error= 6.01D-03 at cycle   3 NSaved=   3.
 NSaved= 3 IEnMin= 3 EnMin= -1580.50921917885     IErMin= 2 ErrMin= 3.85D-03
 ErrMax= 6.01D-03  0.00D+00 EMaxC= 1.00D-01 BMatC= 4.46D-02 BMatP= 3.54D-02
 IDIUse=3 WtCom= 1.14D-01 WtEn= 8.86D-01
 Coeff-Com: -0.355D-01 0.548D+00 0.487D+00
 Coeff-En:   0.000D+00 0.000D+00 0.100D+01
 Coeff:     -0.405D-02 0.627D-01 0.941D+00
 Gap=     0.169 Goal=   None    Shift=    0.000
 RMSDP=1.52D-03 MaxDP=7.54D-02 DE=-3.02D-01 OVMax= 1.40D-01

 Cycle   4  Pass 0  IDiag  1:
 RMSU=  1.05D-03    CP:  8.95D-01  1.37D+00  3.95D-01
 E= -1580.40976347862     Delta-E=        0.099455700227 Rises=F Damp=F
 DIIS: error= 1.08D-02 at cycle   4 NSaved=   4.
 NSaved= 4 IEnMin= 3 EnMin= -1580.50921917885     IErMin= 2 ErrMin= 3.85D-03
 ErrMax= 1.08D-02  0.00D+00 EMaxC= 1.00D-01 BMatC= 1.34D-01 BMatP= 3.54D-02
 IDIUse=2 WtCom= 0.00D+00 WtEn= 1.00D+00
 Coeff-En:   0.000D+00 0.000D+00 0.706D+00 0.294D+00
 Coeff:      0.000D+00 0.000D+00 0.706D+00 0.294D+00
 Gap=     0.159 Goal=   None    Shift=    0.000
 RMSDP=7.97D-04 MaxDP=5.16D-02 DE= 9.95D-02 OVMax= 7.36D-02

 Cycle   5  Pass 0  IDiag  1:
 RMSU=  1.92D-04    CP:  8.94D-01  1.25D+00  7.02D-01  5.04D-01
 E= -1580.55234407963     Delta-E=       -0.142580601016 Rises=F Damp=F
 DIIS: error= 2.24D-03 at cycle   5 NSaved=   5.
 NSaved= 5 IEnMin= 5 EnMin= -1580.55234407963     IErMin= 5 ErrMin= 2.24D-03
 ErrMax= 2.24D-03  0.00D+00 EMaxC= 1.00D-01 BMatC= 5.87D-03 BMatP= 3.54D-02
 IDIUse=3 WtCom= 9.78D-01 WtEn= 2.24D-02
 Coeff-Com:  0.510D-02 0.125D-01 0.354D+00 0.951D-01 0.533D+00
 Coeff-En:   0.000D+00 0.000D+00 0.128D+00 0.000D+00 0.872D+00
 Coeff:      0.499D-02 0.122D-01 0.349D+00 0.930D-01 0.541D+00
 Gap=     0.154 Goal=   None    Shift=    0.000
 RMSDP=2.15D-04 MaxDP=1.15D-02 DE=-1.43D-01 OVMax= 2.31D-02

 Cycle   6  Pass 0  IDiag  1:
 RMSU=  7.76D-05    CP:  8.94D-01  1.24D+00  7.86D-01  3.84D-01  7.00D-01
 E= -1580.55849383957     Delta-E=       -0.006149759936 Rises=F Damp=F
 DIIS: error= 5.34D-04 at cycle   6 NSaved=   6.
 NSaved= 6 IEnMin= 6 EnMin= -1580.55849383957     IErMin= 6 ErrMin= 5.34D-04
 ErrMax= 5.34D-04  0.00D+00 EMaxC= 1.00D-01 BMatC= 1.97D-04 BMatP= 5.87D-03
 IDIUse=3 WtCom= 9.95D-01 WtEn= 5.34D-03
 Coeff-Com:  0.108D-02-0.518D-02 0.111D+00-0.821D-02 0.375D+00 0.526D+00
 Coeff-En:   0.000D+00 0.000D+00 0.000D+00 0.000D+00 0.000D+00 0.100D+01
 Coeff:      0.107D-02-0.515D-02 0.111D+00-0.817D-02 0.373D+00 0.529D+00
 Gap=     0.154 Goal=   None    Shift=    0.000
 RMSDP=4.47D-05 MaxDP=2.13D-03 DE=-6.15D-03 OVMax= 5.12D-03

 Cycle   7  Pass 0  IDiag  1:
 RMSU=  2.25D-05    CP:  8.94D-01  1.23D+00  7.87D-01  3.84D-01  8.08D-01
                    CP:  5.81D-01
 E= -1580.55870451590     Delta-E=       -0.000210676325 Rises=F Damp=F
 DIIS: error= 1.24D-04 at cycle   7 NSaved=   7.
 NSaved= 7 IEnMin= 7 EnMin= -1580.55870451590     IErMin= 7 ErrMin= 1.24D-04
 ErrMax= 1.24D-04  0.00D+00 EMaxC= 1.00D-01 BMatC= 2.03D-05 BMatP= 1.97D-04
 IDIUse=3 WtCom= 9.99D-01 WtEn= 1.24D-03
 Coeff-Com:  0.177D-03-0.325D-02 0.406D-01-0.141D-01 0.192D+00 0.338D+00
 Coeff-Com:  0.447D+00
 Coeff-En:   0.000D+00 0.000D+00 0.000D+00 0.000D+00 0.000D+00 0.292D-01
 Coeff-En:   0.971D+00
 Coeff:      0.177D-03-0.324D-02 0.406D-01-0.141D-01 0.192D+00 0.338D+00
 Coeff:      0.447D+00
 Gap=     0.154 Goal=   None    Shift=    0.000
 RMSDP=1.24D-05 MaxDP=6.95D-04 DE=-2.11D-04 OVMax= 1.04D-03

 Cycle   8  Pass 0  IDiag  1:
 RMSU=  8.45D-06    CP:  8.94D-01  1.24D+00  7.87D-01  3.85D-01  7.94D-01
                    CP:  6.41D-01  6.79D-01
 E= -1580.55872603965     Delta-E=       -0.000021523750 Rises=F Damp=F
 DIIS: error= 2.04D-05 at cycle   8 NSaved=   8.
 NSaved= 8 IEnMin= 8 EnMin= -1580.55872603965     IErMin= 8 ErrMin= 2.04D-05
 ErrMax= 2.04D-05  0.00D+00 EMaxC= 1.00D-01 BMatC= 4.02D-07 BMatP= 2.03D-05
 IDIUse=1 WtCom= 1.00D+00 WtEn= 0.00D+00
 Coeff-Com: -0.203D-04-0.787D-03 0.875D-02-0.573D-02 0.529D-01 0.102D+00
 Coeff-Com:  0.188D+00 0.655D+00
 Coeff:     -0.203D-04-0.787D-03 0.875D-02-0.573D-02 0.529D-01 0.102D+00
 Coeff:      0.188D+00 0.655D+00
 Gap=     0.154 Goal=   None    Shift=    0.000
 RMSDP=3.23D-06 MaxDP=9.62D-05 DE=-2.15D-05 OVMax= 2.23D-04

 Initial convergence to 1.0D-05 achieved.  Increase integral accuracy.
 Cycle   9  Pass 1  IDiag  1:
 E= -1580.55857227587     Delta-E=        0.000153763776 Rises=F Damp=F
 DIIS: error= 3.82D-04 at cycle   1 NSaved=   1.
 NSaved= 1 IEnMin= 1 EnMin= -1580.55857227587     IErMin= 1 ErrMin= 3.82D-04
 ErrMax= 3.82D-04  0.00D+00 EMaxC= 1.00D-01 BMatC= 2.81D-05 BMatP= 2.81D-05
 IDIUse=3 WtCom= 9.96D-01 WtEn= 3.82D-03
 Coeff-Com:  0.100D+01
 Coeff-En:   0.100D+01
 Coeff:      0.100D+01
 Gap=     0.154 Goal=   None    Shift=    0.000
 RMSDP=3.23D-06 MaxDP=9.62D-05 DE= 1.54D-04 OVMax= 9.63D-04

 Cycle  10  Pass 1  IDiag  1:
 RMSU=  4.33D-04    CP:  9.99D-01
 E= -1580.55860342536     Delta-E=       -0.000031149489 Rises=F Damp=F
 DIIS: error= 2.20D-05 at cycle   2 NSaved=   2.
 NSaved= 2 IEnMin= 2 EnMin= -1580.55860342536     IErMin= 2 ErrMin= 2.20D-05
 ErrMax= 2.20D-05  0.00D+00 EMaxC= 1.00D-01 BMatC= 3.39D-07 BMatP= 2.81D-05
 IDIUse=1 WtCom= 1.00D+00 WtEn= 0.00D+00
 Coeff-Com:  0.931D-02 0.991D+00
 Coeff:      0.931D-02 0.991D+00
 Gap=     0.154 Goal=   None    Shift=    0.000
 RMSDP=6.73D-06 MaxDP=1.62D-04 DE=-3.11D-05 OVMax= 4.99D-04

 Cycle  11  Pass 1  IDiag  1:
 RMSU=  4.62D-06    CP:  9.99D-01  1.01D+00
 E= -1580.55860238433     Delta-E=        0.000001041026 Rises=F Damp=F
 DIIS: error= 4.37D-05 at cycle   3 NSaved=   3.
 NSaved= 3 IEnMin= 2 EnMin= -1580.55860342536     IErMin= 2 ErrMin= 2.20D-05
 ErrMax= 4.37D-05  0.00D+00 EMaxC= 1.00D-01 BMatC= 1.24D-06 BMatP= 3.39D-07
 IDIUse=1 WtCom= 1.00D+00 WtEn= 0.00D+00
 Coeff-Com: -0.576D-02 0.662D+00 0.344D+00
 Coeff:     -0.576D-02 0.662D+00 0.344D+00
 Gap=     0.154 Goal=   None    Shift=    0.000
 RMSDP=3.04D-06 MaxDP=9.91D-05 DE= 1.04D-06 OVMax= 3.33D-04

 Cycle  12  Pass 1  IDiag  1:
 RMSU=  8.87D-07    CP:  9.99D-01  1.01D+00  3.74D-01
 E= -1580.55860379002     Delta-E=       -0.000001405683 Rises=F Damp=F
 DIIS: error= 3.57D-06 at cycle   4 NSaved=   4.
 NSaved= 4 IEnMin= 4 EnMin= -1580.55860379002     IErMin= 4 ErrMin= 3.57D-06
 ErrMax= 3.57D-06  0.00D+00 EMaxC= 1.00D-01 BMatC= 1.22D-08 BMatP= 3.39D-07
 IDIUse=1 WtCom= 1.00D+00 WtEn= 0.00D+00
 Coeff-Com: -0.373D-02 0.399D+00 0.214D+00 0.390D+00
 Coeff:     -0.373D-02 0.399D+00 0.214D+00 0.390D+00
 Gap=     0.154 Goal=   None    Shift=    0.000
 RMSDP=2.74D-07 MaxDP=1.18D-05 DE=-1.41D-06 OVMax= 2.48D-05

 Cycle  13  Pass 1  IDiag  1:
 RMSU=  2.22D-07    CP:  9.99D-01  1.01D+00  3.97D-01  8.66D-01
 E= -1580.55860380253     Delta-E=       -0.000000012513 Rises=F Damp=F
 DIIS: error= 5.29D-07 at cycle   5 NSaved=   5.
 NSaved= 5 IEnMin= 5 EnMin= -1580.55860380253     IErMin= 5 ErrMin= 5.29D-07
 ErrMax= 5.29D-07  0.00D+00 EMaxC= 1.00D-01 BMatC= 1.86D-10 BMatP= 1.22D-08
 IDIUse=1 WtCom= 1.00D+00 WtEn= 0.00D+00
 Coeff-Com: -0.143D-02 0.151D+00 0.816D-01 0.178D+00 0.591D+00
 Coeff:     -0.143D-02 0.151D+00 0.816D-01 0.178D+00 0.591D+00
 Gap=     0.154 Goal=   None    Shift=    0.000
 RMSDP=5.47D-08 MaxDP=2.02D-06 DE=-1.25D-08 OVMax= 5.32D-06

 Cycle  14  Pass 1  IDiag  1:
 RMSU=  4.82D-08    CP:  9.99D-01  1.01D+00  3.97D-01  8.82D-01  9.10D-01
 E= -1580.55860380262     Delta-E=       -0.000000000093 Rises=F Damp=F
 DIIS: error= 2.88D-07 at cycle   6 NSaved=   6.
 NSaved= 6 IEnMin= 6 EnMin= -1580.55860380262     IErMin= 6 ErrMin= 2.88D-07
 ErrMax= 2.88D-07  0.00D+00 EMaxC= 1.00D-01 BMatC= 8.12D-11 BMatP= 1.86D-10
 IDIUse=1 WtCom= 1.00D+00 WtEn= 0.00D+00
 Coeff-Com: -0.116D-03 0.111D-01 0.611D-02 0.311D-01 0.411D+00 0.541D+00
 Coeff:     -0.116D-03 0.111D-01 0.611D-02 0.311D-01 0.411D+00 0.541D+00
 Gap=     0.154 Goal=   None    Shift=    0.000
 RMSDP=2.86D-08 MaxDP=1.12D-06 DE=-9.28D-11 OVMax= 3.03D-06

 Cycle  15  Pass 1  IDiag  1:
 RMSU=  1.80D-08    CP:  9.99D-01  1.01D+00  3.96D-01  8.85D-01  9.56D-01
                    CP:  6.01D-01
 E= -1580.55860380276     Delta-E=       -0.000000000136 Rises=F Damp=F
 DIIS: error= 1.05D-07 at cycle   7 NSaved=   7.
 NSaved= 7 IEnMin= 7 EnMin= -1580.55860380276     IErMin= 7 ErrMin= 1.05D-07
 ErrMax= 1.05D-07  0.00D+00 EMaxC= 1.00D-01 BMatC= 8.58D-12 BMatP= 8.12D-11
 IDIUse=1 WtCom= 1.00D+00 WtEn= 0.00D+00
 Coeff-Com:  0.663D-05-0.147D-02-0.699D-03 0.946D-02 0.233D+00 0.355D+00
 Coeff-Com:  0.404D+00
 Coeff:      0.663D-05-0.147D-02-0.699D-03 0.946D-02 0.233D+00 0.355D+00
 Coeff:      0.404D+00
 Gap=     0.154 Goal=   None    Shift=    0.000
 RMSDP=1.05D-08 MaxDP=7.33D-07 DE=-1.36D-10 OVMax= 1.17D-06

 Cycle  16  Pass 1  IDiag  1:
 RMSU=  5.17D-09    CP:  9.99D-01  1.01D+00  3.97D-01  8.86D-01  9.52D-01
                    CP:  6.39D-01  5.23D-01
 E= -1580.55860380271     Delta-E=        0.000000000051 Rises=F Damp=F
 DIIS: error= 2.57D-08 at cycle   8 NSaved=   8.
 NSaved= 8 IEnMin= 7 EnMin= -1580.55860380276     IErMin= 8 ErrMin= 2.57D-08
 ErrMax= 2.57D-08  0.00D+00 EMaxC= 1.00D-01 BMatC= 5.38D-13 BMatP= 8.58D-12
 IDIUse=1 WtCom= 1.00D+00 WtEn= 0.00D+00
 Coeff-Com:  0.200D-04-0.244D-02-0.128D-02 0.166D-02 0.935D-01 0.152D+00
 Coeff-Com:  0.246D+00 0.511D+00
 Coeff:      0.200D-04-0.244D-02-0.128D-02 0.166D-02 0.935D-01 0.152D+00
 Coeff:      0.246D+00 0.511D+00
 Gap=     0.154 Goal=   None    Shift=    0.000
 RMSDP=2.14D-09 MaxDP=1.27D-07 DE= 5.09D-11 OVMax= 1.95D-07

 SCF Done:  E(RB3LYP) =  -1580.55860380     A.U. after   16 cycles
            NFock= 16  Conv=0.21D-08     -V/T= 2.0090
 KE= 1.566499727362D+03 PE=-1.054611040946D+04 EE= 3.965319964992D+03
 Leave Link  502 at Mon Mar 24 14:22:27 2025, MaxMem= 13421772800 cpu:            1264.6 elap:              39.7
 (Enter /public/software/apps/Gaussian/g16/l601.exe)
 Copying SCF densities to generalized density rwf, IOpCl= 0 IROHF=0.

 **********************************************************************

            Population analysis using the SCF Density.

 **********************************************************************

 Alpha  occ. eigenvalues --  -24.69773 -24.69769 -19.16545 -19.16535 -10.27273
 Alpha  occ. eigenvalues --  -10.27272 -10.25780 -10.25777 -10.20510 -10.20506
 Alpha  occ. eigenvalues --  -10.20419 -10.20416 -10.19972 -10.19971 -10.19910
 Alpha  occ. eigenvalues --  -10.19891 -10.19719 -10.19715 -10.19652 -10.19649
 Alpha  occ. eigenvalues --  -10.19647 -10.19646 -10.19570 -10.19569 -10.19463
 Alpha  occ. eigenvalues --  -10.19462 -10.19137 -10.19133 -10.19104 -10.19101
 Alpha  occ. eigenvalues --  -10.19100 -10.19100 -10.18989 -10.18984 -10.18814
 Alpha  occ. eigenvalues --  -10.18810  -1.20466  -1.20459  -1.06043  -1.05765
 Alpha  occ. eigenvalues --   -0.88962  -0.88285  -0.87061  -0.86720  -0.83339
 Alpha  occ. eigenvalues --   -0.82780  -0.80032  -0.78188  -0.77560  -0.76076
 Alpha  occ. eigenvalues --   -0.75043  -0.74953  -0.74283  -0.73223  -0.71989
 Alpha  occ. eigenvalues --   -0.70940  -0.65929  -0.64654  -0.63912  -0.63705
 Alpha  occ. eigenvalues --   -0.62632  -0.61773  -0.61063  -0.60260  -0.60191
 Alpha  occ. eigenvalues --   -0.58799  -0.56390  -0.56228  -0.54601  -0.54099
 Alpha  occ. eigenvalues --   -0.52977  -0.52739  -0.52103  -0.50954  -0.50047
 Alpha  occ. eigenvalues --   -0.50030  -0.49131  -0.48815  -0.47437  -0.47424
 Alpha  occ. eigenvalues --   -0.46186  -0.46175  -0.45916  -0.45745  -0.45537
 Alpha  occ. eigenvalues --   -0.44773  -0.44731  -0.43991  -0.43461  -0.43009
 Alpha  occ. eigenvalues --   -0.42977  -0.41944  -0.41842  -0.40872  -0.40869
 Alpha  occ. eigenvalues --   -0.40390  -0.40059  -0.39358  -0.39185  -0.38876
 Alpha  occ. eigenvalues --   -0.38612  -0.37912  -0.37569  -0.37297  -0.36942
 Alpha  occ. eigenvalues --   -0.36879  -0.36582  -0.35174  -0.34804  -0.34566
 Alpha  occ. eigenvalues --   -0.33192  -0.32459  -0.32236  -0.30393  -0.29505
 Alpha  occ. eigenvalues --   -0.26988  -0.26618  -0.25751  -0.25630  -0.24591
 Alpha  occ. eigenvalues --   -0.24313  -0.21875  -0.21066
 Alpha virt. eigenvalues --   -0.05670  -0.05017  -0.03666  -0.03075  -0.01218
 Alpha virt. eigenvalues --   -0.01187   0.00261   0.00694   0.01480   0.02454
 Alpha virt. eigenvalues --    0.05993   0.05998   0.06543   0.07453   0.07691
 Alpha virt. eigenvalues --    0.08041   0.08702   0.08753   0.09123   0.09325
 Alpha virt. eigenvalues --    0.10485   0.10673   0.11025   0.11344   0.12470
 Alpha virt. eigenvalues --    0.12533   0.14114   0.14117   0.14394   0.14661
 Alpha virt. eigenvalues --    0.15233   0.15331   0.16546   0.16611   0.17201
 Alpha virt. eigenvalues --    0.17720   0.18463   0.18567   0.19630   0.22865
 Alpha virt. eigenvalues --    0.24772   0.24998   0.25384   0.25489   0.26241
 Alpha virt. eigenvalues --    0.26538   0.27075   0.27728   0.28234   0.28245
 Alpha virt. eigenvalues --    0.28713   0.29175   0.29413   0.30058   0.30432
 Alpha virt. eigenvalues --    0.31573   0.31661   0.32238   0.32406   0.32693
 Alpha virt. eigenvalues --    0.33104   0.33324   0.33818   0.34262   0.34409
 Alpha virt. eigenvalues --    0.34837   0.35170   0.35634   0.36302   0.36871
 Alpha virt. eigenvalues --    0.38136   0.38568   0.39296   0.39913   0.40419
 Alpha virt. eigenvalues --    0.40640   0.40954   0.41082   0.41838   0.42268
 Alpha virt. eigenvalues --    0.42838   0.43918   0.44175   0.45084   0.45464
 Alpha virt. eigenvalues --    0.45768   0.45789   0.46162   0.46412   0.46671
 Alpha virt. eigenvalues --    0.46829   0.47256   0.47492   0.47776   0.47883
 Alpha virt. eigenvalues --    0.47897   0.48379   0.48692   0.49388   0.49995
 Alpha virt. eigenvalues --    0.50341   0.50358   0.51860   0.52005   0.52277
 Alpha virt. eigenvalues --    0.52588   0.52831   0.53454   0.53758   0.53918
 Alpha virt. eigenvalues --    0.53961   0.54266   0.55815   0.55879   0.56138
 Alpha virt. eigenvalues --    0.56421   0.57887   0.58544   0.58629   0.58690
 Alpha virt. eigenvalues --    0.59341   0.60278   0.60677   0.60712   0.61381
 Alpha virt. eigenvalues --    0.61953   0.62705   0.63197   0.63815   0.65265
 Alpha virt. eigenvalues --    0.66200   0.66315   0.66351   0.66735   0.66829
 Alpha virt. eigenvalues --    0.67204   0.67545   0.67709   0.68238   0.68413
 Alpha virt. eigenvalues --    0.68573   0.68759   0.69193   0.69971   0.70195
 Alpha virt. eigenvalues --    0.71125   0.71284   0.71348   0.72037   0.72677
 Alpha virt. eigenvalues --    0.72838   0.73257   0.73274   0.73572   0.73964
 Alpha virt. eigenvalues --    0.74433   0.74466   0.75091   0.75467   0.76161
 Alpha virt. eigenvalues --    0.77048   0.77842   0.78074   0.78296   0.78560
 Alpha virt. eigenvalues --    0.79065   0.79078   0.79546   0.79889   0.80110
 Alpha virt. eigenvalues --    0.80748   0.81012   0.81271   0.81344   0.83030
 Alpha virt. eigenvalues --    0.83122   0.83915   0.83971   0.84970   0.85624
 Alpha virt. eigenvalues --    0.85938   0.86312   0.86861   0.87552   0.89535
 Alpha virt. eigenvalues --    0.90275   0.90871   0.91922   0.91958   0.94134
 Alpha virt. eigenvalues --    0.94327   0.94936   0.96143   0.97992   0.99689
 Alpha virt. eigenvalues --    1.00018   1.03116   1.03274   1.04340   1.05109
 Alpha virt. eigenvalues --    1.06568   1.08113   1.08850   1.09745   1.11810
 Alpha virt. eigenvalues --    1.12435   1.12494   1.13478   1.13785   1.15575
 Alpha virt. eigenvalues --    1.16477   1.19501   1.19847   1.21867   1.23091
 Alpha virt. eigenvalues --    1.23898   1.24007   1.24605   1.24692   1.25837
 Alpha virt. eigenvalues --    1.26268   1.26305   1.26979   1.28971   1.29323
 Alpha virt. eigenvalues --    1.29652   1.30506   1.32394   1.32688   1.33192
 Alpha virt. eigenvalues --    1.35264   1.35696   1.36663   1.39054   1.39199
 Alpha virt. eigenvalues --    1.40942   1.42037   1.42173   1.42841   1.43424
 Alpha virt. eigenvalues --    1.44800   1.45934   1.46569   1.46637   1.46765
 Alpha virt. eigenvalues --    1.47305   1.47907   1.47965   1.48478   1.48704
 Alpha virt. eigenvalues --    1.49096   1.49533   1.49568   1.50186   1.50353
 Alpha virt. eigenvalues --    1.52561   1.53135   1.53836   1.54700   1.55167
 Alpha virt. eigenvalues --    1.55232   1.57894   1.60193   1.60776   1.63776
 Alpha virt. eigenvalues --    1.65976   1.70997   1.71155   1.72556   1.72982
 Alpha virt. eigenvalues --    1.73010   1.73167   1.73789   1.74143   1.74169
 Alpha virt. eigenvalues --    1.74492   1.76193   1.76833   1.77001   1.77581
 Alpha virt. eigenvalues --    1.78156   1.80532   1.81768   1.83087   1.83387
 Alpha virt. eigenvalues --    1.84459   1.85043   1.85274   1.86766   1.87027
 Alpha virt. eigenvalues --    1.88318   1.88484   1.89606   1.90021   1.93736
 Alpha virt. eigenvalues --    1.94971   1.95354   1.95604   1.96657   1.97579
 Alpha virt. eigenvalues --    1.97721   2.00471   2.00701   2.01147   2.02390
 Alpha virt. eigenvalues --    2.03525   2.04915   2.05192   2.05536   2.06304
 Alpha virt. eigenvalues --    2.06327   2.07299   2.07599   2.07847   2.08783
 Alpha virt. eigenvalues --    2.08888   2.09855   2.10819   2.11106   2.12131
 Alpha virt. eigenvalues --    2.13851   2.14065   2.15676   2.15729   2.17065
 Alpha virt. eigenvalues --    2.17076   2.18582   2.19640   2.22525   2.23508
 Alpha virt. eigenvalues --    2.23931   2.24068   2.25432   2.25509   2.27411
 Alpha virt. eigenvalues --    2.28057   2.28305   2.28503   2.28615   2.29196
 Alpha virt. eigenvalues --    2.29212   2.31709   2.32589   2.33752   2.34361
 Alpha virt. eigenvalues --    2.34949   2.37186   2.37386   2.39431   2.42551
 Alpha virt. eigenvalues --    2.42887   2.43174   2.43193   2.45134   2.46628
 Alpha virt. eigenvalues --    2.48374   2.48581   2.50857   2.52777   2.54149
 Alpha virt. eigenvalues --    2.54975   2.55042   2.57688   2.58211   2.59327
 Alpha virt. eigenvalues --    2.60785   2.61421   2.61529   2.62119   2.63358
 Alpha virt. eigenvalues --    2.63473   2.64909   2.65279   2.65377   2.67137
 Alpha virt. eigenvalues --    2.67805   2.68631   2.68891   2.70116   2.70155
 Alpha virt. eigenvalues --    2.70708   2.71065   2.71744   2.74612   2.74886
 Alpha virt. eigenvalues --    2.79196   2.80627   2.82781   2.83509   2.87156
 Alpha virt. eigenvalues --    2.87233   2.90171   2.91050   2.93791   2.94245
 Alpha virt. eigenvalues --    2.96536   2.98059   3.01912   3.02065   3.07931
 Alpha virt. eigenvalues --    3.07967   3.09392   3.09497   3.10595   3.10889
 Alpha virt. eigenvalues --    3.20130   3.20747   3.30167   3.30404   3.31388
 Alpha virt. eigenvalues --    3.33195   3.34158   3.34752   3.44537   3.44654
 Alpha virt. eigenvalues --    3.52263   3.52364   3.55932   3.61297   3.85392
 Alpha virt. eigenvalues --    3.85399
          Condensed to atoms (all electrons):
 Mulliken charges:
               1
     1  O   -0.359323
     2  C    0.198416
     3  C   -0.122112
     4  C   -0.112495
     5  C    0.165812
     6  C   -0.214916
     7  C    0.161845
     8  C    0.037520
     9  C   -0.119028
    10  C   -0.034753
    11  C   -0.032979
    12  C   -0.149631
    13  C    0.276030
    14  F   -0.202808
    15  C   -0.093985
    16  C   -0.160710
    17  C    0.106355
    18  C   -0.120870
    19  C   -0.120425
    20  C    0.198641
    21  O   -0.359398
    22  C   -0.122191
    23  C   -0.112527
    24  C    0.165910
    25  C   -0.214322
    26  C    0.161335
    27  C    0.036768
    28  C   -0.118693
    29  C   -0.034860
    30  C   -0.032975
    31  C   -0.149783
    32  C    0.276524
    33  F   -0.202816
    34  C   -0.093795
    35  C   -0.159994
    36  C    0.105030
    37  H    0.342602
    38  H    0.044200
    39  H    0.042557
    40  H    0.035438
    41  H    0.049233
    42  H    0.049506
    43  H    0.056473
    44  H    0.054003
    45  H    0.042724
    46  H    0.060811
    47  H    0.342575
    48  H    0.044209
    49  H    0.042548
    50  H    0.035296
    51  H    0.049256
    52  H    0.049549
    53  H    0.056490
    54  H    0.054003
    55  H    0.042756
    56  H    0.060974
 Sum of Mulliken charges =  -0.00000
 Mulliken charges with hydrogens summed into heavy atoms:
               1
     1  O   -0.016721
     2  C    0.198416
     3  C   -0.077912
     4  C   -0.069938
     5  C    0.165812
     6  C   -0.179478
     7  C    0.161845
     8  C    0.037520
     9  C   -0.069795
    10  C    0.014752
    11  C    0.023493
    12  C   -0.095628
    13  C    0.276030
    14  F   -0.202808
    15  C   -0.051261
    16  C   -0.099899
    17  C    0.106355
    18  C   -0.120870
    19  C   -0.120425
    20  C    0.198641
    21  O   -0.016823
    22  C   -0.077982
    23  C   -0.069979
    24  C    0.165910
    25  C   -0.179025
    26  C    0.161335
    27  C    0.036768
    28  C   -0.069438
    29  C    0.014689
    30  C    0.023516
    31  C   -0.095780
    32  C    0.276524
    33  F   -0.202816
    34  C   -0.051039
    35  C   -0.099020
    36  C    0.105030
 Electronic spatial extent (au):  <R**2>=          24189.4006
 Charge=             -0.0000 electrons
 Dipole moment (field-independent basis, Debye):
    X=              0.0027    Y=             -2.9830    Z=              0.0136  Tot=              2.9831
 Quadrupole moment (field-independent basis, Debye-Ang):
   XX=           -183.0937   YY=           -199.2161   ZZ=           -201.4825
   XY=             -0.0153   XZ=             -1.7746   YZ=             -0.0002
 Traceless Quadrupole moment (field-independent basis, Debye-Ang):
   XX=             11.5038   YY=             -4.6187   ZZ=             -6.8851
   XY=             -0.0153   XZ=             -1.7746   YZ=             -0.0002
 Octapole moment (field-independent basis, Debye-Ang**2):
  XXX=              0.1968  YYY=            -11.7090  ZZZ=             -0.4371  XYY=             -0.4012
  XXY=           -126.0005  XXZ=              0.0392  XZZ=              0.2836  YZZ=             20.6519
  YYZ=              0.1784  XYZ=            -47.2502
 Hexadecapole moment (field-independent basis, Debye-Ang**3):
 XXXX=         -23578.3220 YYYY=          -4058.3205 ZZZZ=          -2144.4317 XXXY=             -1.8628
 XXXZ=            101.8551 YYYX=              1.7113 YYYZ=             -0.6717 ZZZX=           -208.2184
 ZZZY=             -0.1842 XXYY=          -4694.3982 XXZZ=          -4840.0625 YYZZ=          -1076.0308
 XXYZ=             -0.1583 YYXZ=             94.2578 ZZXY=             -2.0496
 N-N= 3.433732113303D+03 E-N=-1.054611041120D+04  KE= 1.566499727362D+03
 No NMR shielding tensors so no spin-rotation constants.
 Leave Link  601 at Mon Mar 24 14:22:27 2025, MaxMem= 13421772800 cpu:               4.3 elap:               0.2
 (Enter /public/software/apps/Gaussian/g16/l701.exe)
 ... and contract with generalized density number  0.
 Compute integral first derivatives.
 R6Disp: Adding Grimme-D3(BJ) dispersion energy 1st derivatives to the gradient.
   1 Symmetry operations used in ECPInt.
 ECPInt:  NShTT=   32896 NPrTT=  131856 LenC2=   25359 LenP2D=   64162.
 LDataN:  DoStor=T MaxTD1= 5 Len=  102
 Leave Link  701 at Mon Mar 24 14:22:27 2025, MaxMem= 13421772800 cpu:              10.3 elap:               0.3
 (Enter /public/software/apps/Gaussian/g16/l702.exe)
 L702 exits ... SP integral derivatives will be done elsewhere.
 Leave Link  702 at Mon Mar 24 14:22:27 2025, MaxMem= 13421772800 cpu:               0.2 elap:               0.0
 (Enter /public/software/apps/Gaussian/g16/l703.exe)
 Integral derivatives from FoFJK, PRISM(SPDF).
 Compute integral first derivatives, UseDBF=F ICtDFT=           0.
 Calling FoFJK, ICntrl=      2127 FMM=F ISym2X=0 I1Cent= 0 IOpClX= 0 NMat=1 NMatS=1 NMatT=0.
 FoFJK:  IHMeth= 1 ICntrl=    2127 DoSepK=F KAlg= 0 I1Cent=           0 FoldK=F
 IRaf=         0 NMat=       1 IRICut=       1 DoRegI=T DoRafI=F ISym2E= 0 IDoP0=0 IntGTp=1.
 FoFCou: FMM=F IPFlag=           0 FMFlag=      100000 FMFlg1=         800
         NFxFlg=           0 DoJE=F BraDBF=F KetDBF=F FulRan=T
         wScrn=  0.000000 ICntrl=      2127 IOpCl=  0 I1Cent=           0 NGrid=           0
         NMat0=    1 NMatS0=      1 NMatT0=    0 NMatD0=    1 NMtDS0=    0 NMtDT0=    0
 Symmetry not used in FoFCou.
 Leave Link  703 at Mon Mar 24 14:22:37 2025, MaxMem= 13421772800 cpu:             309.6 elap:               9.8
 (Enter /public/software/apps/Gaussian/g16/l716.exe)
 Dipole        = 1.06565969D-03-1.17361836D+00 5.34355970D-03
 -------------------------------------------------------------------
 Center     Atomic                   Forces (Hartrees/Bohr)
 Number     Number              X              Y              Z
 -------------------------------------------------------------------
      1        8           0.007141946   -0.000442879   -0.007100856
      2        6          -0.008490633    0.005761046    0.000304781
      3        6          -0.003572370    0.002613818   -0.002446360
      4        6           0.000294090   -0.000928438    0.000537256
      5        6           0.003798576   -0.000774822   -0.000316286
      6        6          -0.001778071    0.001798305   -0.001778745
      7        6           0.007007092   -0.002773044    0.001371971
      8        6          -0.003641151    0.004401651   -0.002886675
      9        6          -0.000412404   -0.000457316    0.000666399
     10        6           0.000088189   -0.005165657    0.002445334
     11        6           0.002121616   -0.001356434    0.000402793
     12        6           0.001162746    0.002590769   -0.001362935
     13        6           0.002085149    0.012095967   -0.003566149
     14        9          -0.000847315   -0.004847535    0.000973827
     15        6           0.001811626   -0.000602298   -0.000050696
     16        6          -0.004324029    0.000946771    0.001083005
     17        6          -0.002197706   -0.000518020    0.000190471
     18        6          -0.006184690    0.001423259    0.007743165
     19        6           0.006206266    0.001347175   -0.007715557
     20        6           0.008511957    0.005702716   -0.000344798
     21        8          -0.007163905   -0.000366620    0.007062893
     22        6           0.003545455    0.002637557    0.002453863
     23        6          -0.000282312   -0.000924014   -0.000511309
     24        6          -0.003801015   -0.000754164    0.000295342
     25        6           0.001767275    0.001824200    0.001767316
     26        6          -0.007021233   -0.002823910   -0.001432837
     27        6           0.003583270    0.004448901    0.002875176
     28        6           0.000389797   -0.000470080   -0.000638010
     29        6          -0.000063130   -0.005219760   -0.002400269
     30        6          -0.002128306   -0.001328722   -0.000369459
     31        6          -0.001161005    0.002532335    0.001293165
     32        6          -0.001993284    0.012194678    0.003373756
     33        9           0.000839769   -0.004910434   -0.000880944
     34        6          -0.001807043   -0.000598053    0.000078165
     35        6           0.004306194    0.000947811   -0.001060941
     36        6           0.002203027   -0.000559515   -0.000179401
     37        1          -0.003715916   -0.001500301    0.006293410
     38        1          -0.001470020    0.005514065   -0.008675322
     39        1           0.007059399    0.000637772   -0.007310931
     40        1           0.006574006    0.000576744   -0.005539847
     41        1          -0.008405127   -0.004171675    0.001652010
     42        1          -0.000333986   -0.009699878    0.003313013
     43        1           0.009047880   -0.005162938    0.001412627
     44        1           0.008231128    0.005397001   -0.002069735
     45        1           0.001098337   -0.004858317    0.007923511
     46        1          -0.005777308   -0.000455235    0.005850471
     47        1           0.003743102   -0.001541291   -0.006269690
     48        1           0.001453957    0.005568544    0.008629705
     49        1          -0.007079099    0.000682608    0.007278393
     50        1          -0.006594285    0.000608851    0.005527669
     51        1           0.008401198   -0.004176792   -0.001534869
     52        1           0.000340163   -0.009696051   -0.003167367
     53        1          -0.009031970   -0.005170561   -0.001419368
     54        1          -0.008265519    0.005432665    0.001952625
     55        1          -0.001064542   -0.004924776   -0.007893653
     56        1           0.005794163   -0.000505678   -0.005829105
 -------------------------------------------------------------------
 Cartesian Forces:  Max     0.012194678 RMS     0.004405603
 Leave Link  716 at Mon Mar 24 14:22:37 2025, MaxMem= 13421772800 cpu:               0.9 elap:               0.0
 (Enter /public/software/apps/Gaussian/g16/l103.exe)

 GradGradGradGradGradGradGradGradGradGradGradGradGradGradGradGradGradGrad
 Berny optimization.
 FormGI is forming the generalized inverse of G from B-inverse, IUseBI=4.
 GSVD:  received Info=                   1 from GESDD.
 Internal  Forces:  Max     0.015242325 RMS     0.004975999
 Search for a local minimum.
 Step number   1 out of a maximum of  321
[...]
 0018413,-0.00072942,0.00177675,-0.00313102,0.03531113,0.03421051,0.038
 01698,0.00000153,-0.00001440,0.00000701,-0.00000819,0.00000792,-0.0000
 0296,0.00000361,0.00000015,-0.00000458,-0.00000525,0.00000236,0.000000
 17,-0.00000142,-0.00000075,0.00000497,-0.00000183,0.00000056,-0.000000
 98,-0.00000087,-0.00000189,0.00000225,0.00000498,-0.00000218,0.0000015
 5,-0.00000126,0.00000052,0.00000008,-0.00000160,-0.00000119,0.00000017
 ,-0.00000092,0.00000183,-0.00000088,0.00000020,-0.00000048,0.00000040,
 0.00000088,0.00000232,-0.00000119,-0.00000260,-0.00000096,0.00000020,0
 .00000458,-0.00000151,-0.00000016,-0.00000316,0.00000469,-0.00000631,0
 .00000956,-0.00001017,0.00001063,0.00000054,0.00000021,-0.00001114,-0.
 00001136,-0.00003183,-0.00005279,0.00005471,0.00004183,0.00002690,-0.0
 0008565,-0.00004913,-0.00001264,-0.00002586,-0.00001127,0.00000245,-0.
 00002265,0.00000692,0.00004332,0.00001237,-0.00006520,-0.00005738,-0.0
 0003513,0.00001548,0.00016873,-0.00035117,0.00083930,0.00055374,-0.002
 74706,-0.00387988,-0.00100264,0.00052448,-0.00095239,-0.00059063,0.001
 61365,-0.00060249,0.00016018,0.00463245,-0.00175492,-0.00105074,-0.268
 77755,0.10111000,0.06951685,-0.01907563,0.01588075,0.00952194,0.002718
 34,0.00050151,-0.00047620,-0.00025146,-0.00015667,-0.00021238,-0.00003
 999,-0.00002391,0.00008773,0.00002975,0.00002833,0.00002014,-0.0000031
 7,0.00002077,-0.00001068,-0.00000064,-0.00000006,0.00000164,-0.0000012
 3,0.00000050,0.00000057,-0.00000048,0.00000018,0.00000087,0.00000026,-
 0.00000120,0.00000062,-0.00000013,0.00000070,-0.00000020,-0.00000060,0
 .00000035,0.00000004,-0.00000044,-0.00000010,0.00000015,0.00000003,0.0
 0000075,-0.00000071,0.00000207,-0.00000321,0.00000337,0.00001174,0.000
 00091,-0.00000981,-0.00000607,-0.00000246,-0.00000253,0.00000301,0.000
 00046,-0.00000917,-0.00001857,0.00002443,-0.00007006,-0.00006505,0.000
 03448,-0.00001738,0.00012180,-0.00018097,-0.00006143,0.00058093,0.0005
 5454,-0.00016898,0.28123263,0.00001721,-0.00000829,0.00000321,-0.00001
 523,0.00000852,-0.00000361,0.00000415,-0.00000085,-0.00000122,-0.00000
 146,0.00000142,-0.00000077,0.00000138,-0.00000112,0.00000037,-0.000000
 84,0.00000075,0.00000006,-0.00000013,0.00000001,0.00000081,-0.00000211
 ,0.00000064,-0.00000038,0.00000053,-0.00000013,0.00000006,0.00000069,0
 .00000065,0.00000004,0.00000028,-0.00000065,0.00000040,0.00000001,0.00
 000005,-0.00000005,-0.00000031,0.00000002,-0.00000002,0.00000090,-0.00
 000046,0.00000037,-0.00000008,0.00000006,-0.00000024,0.00000143,-0.000
 00073,0.00000060,-0.00000202,0.00000130,-0.00000130,0.00000120,-0.0000
 0338,0.00000357,0.00000764,0.00000211,0.00000698,-0.00000666,-0.000004
 98,-0.00000482,0.00000581,0.00000234,0.00000106,0.00000204,-0.00000344
 ,-0.00000195,-0.00000763,-0.00000642,-0.00000138,0.00002478,-0.0000017
 1,-0.00001717,0.00001447,-0.00002946,0.00005425,-0.00049504,0.00050839
 ,0.00027211,-0.00288866,-0.00056359,-0.00232660,-0.00071415,-0.0007710
 5,0.00007948,-0.00131199,-0.00317508,-0.00443726,0.02527937,-0.0057959
 5,-0.00655900,0.10320877,-0.10464135,-0.04211168,-0.01385685,0.0096107
 1,0.00300480,0.00112346,0.00060074,0.00236460,-0.00009658,-0.00009956,
 -0.00008895,-0.00001033,0.00000540,0.00006974,-0.00000990,0.00000236,-
 0.00000604,-0.00000762,0.00000347,-0.00000181,-0.00000068,-0.00000027,
 0.00000029,0.00000008,-0.00000020,-0.00000021,-0.00000011,-0.00000004,
 -0.00000034,-0.00000014,0.00000040,-0.00000047,0.00000002,-0.00000038,
 0.,0.00000029,-0.00000016,-0.00000008,0.00000010,0.00000006,-0.0000001
 3,0.00000011,-0.00000032,0.00000029,-0.00000040,0.00000050,-0.00000064
 ,-0.00000196,0.00000044,-0.00000019,-0.00000089,0.00000081,-0.00000060
 ,-0.00000151,0.00000230,-0.00000367,0.00000614,0.00002142,-0.00002284,
 0.00008248,-0.00006982,0.00020797,0.00112727,-0.00030075,-0.00044307,-
 0.00013401,0.00045182,0.00219493,-0.11133457,0.10425159,-0.00001835,0.
 00001024,-0.00000825,0.00001787,-0.00001106,0.00000466,-0.00000462,0.0
 0000050,0.00000226,0.00000291,-0.00000221,0.00000114,-0.00000055,0.000
 00143,-0.00000190,0.00000189,-0.00000107,0.00000016,-0.00000052,0.0000
 0125,-0.00000186,0.00000091,0.00000010,-0.00000031,-0.00000110,-0.0000
 0024,0.00000005,0.00000040,-0.00000016,-0.00000027,-0.00000032,-0.0000
 0014,-0.00000006,-0.00000008,0.00000037,-0.00000030,-0.00000065,-0.000
 00241,0.00000130,0.00000065,0.00000239,-0.00000132,-0.00000095,0.00000
 052,0.00000069,-0.00000122,-0.00000008,0.00000188,0.00000138,0.0000005
 7,-0.00000264,-0.00000213,0.00000222,-0.00000078,-0.00000924,-0.000002
 42,-0.00001334,-0.00000709,0.00000242,0.00000966,0.00000661,0.00000203
 ,-0.00000358,0.00000197,0.00000076,-0.00000510,-0.00000639,0.00000391,
 0.00001366,-0.00000274,-0.00002050,-0.00002649,-0.00002513,0.00007492,
 0.00009499,-0.00018245,0.00000239,0.00025648,-0.00044535,-0.00211639,0
 .00391151,-0.00034718,0.00006225,-0.00061150,-0.00037752,-0.00452537,0
 .00452020,0.01181674,-0.00440800,-0.00014491,0.07046725,-0.04155073,-0
 .06151397,-0.00416344,0.00032390,0.00631059,-0.00023489,0.00240410,-0.
 00358817,-0.00015417,0.00002543,-0.00004449,-0.00002176,-0.00003449,-0
 .00000705,0.00001884,0.00001473,0.00001759,0.00000657,-0.00000523,0.00
 000820,0.00000090,0.00000060,-0.00000081,0.00000059,-0.00000012,-0.000
 00006,0.00000029,-0.00000007,-0.00000010,0.00000026,0.,0.00000026,-0.0
 0000030,0.00000029,0.00000009,0.00000007,-0.00000006,0.00000017,0.0000
 0015,0.00000013,0.00000010,-0.00000093,0.00000016,-0.00000032,0.000000
 15,-0.00000039,-0.00000045,-0.00000053,-0.00000051,0.00000241,-0.00000
 044,-0.00000145,0.00000066,0.00000066,-0.00000409,-0.00000324,-0.00000
 915,-0.00002349,-0.00003258,-0.00001234,0.00021069,-0.00043858,0.00056
 499,-0.00030047,0.00016530,-0.00056883,0.00212933,-0.00319387,-0.07629
 918,0.04775333,0.05433724,-0.00000513,-0.00000502,0.00006669,-0.000002
 46,0.00004679,-0.00002158,0.00000564,0.00000362,0.00001793,-0.00001936
 ,0.00000861,0.00001163,-0.00000789,0.00000892,0.00001233,-0.00000301,0
 .00000564,0.00000532,-0.00000803,0.00000217,0.00000367,0.00000381,-0.0
 0000147,0.00000140,-0.00000471,0.00000016,0.00000294,0.00000142,0.0000
 0230,0.00000045,-0.00000129,0.00000054,0.00000082,0.00000042,0.0000010
 2,0.00000041,-0.00000293,-0.00000605,0.00000179,0.00000122,0.00000608,
 -0.00000160,0.00000817,0.00000542,-0.00000158,0.00000559,0.00001802,-0
 .00001312,0.00001458,-0.00005931,0.00002282,0.00011452,-0.00004061,0.0
 0000205,0.00059065,-0.00027897,-0.00092151,-0.00027415,0.00001712,-0.0
 0031470,-0.00016076,-0.00011058,-0.00011553,-0.00025466,-0.00008896,0.
 00016644,0.00017864,0.00040928,0.00004670,-0.00085749,-0.00008162,-0.0
 0006666,-0.00258166,-0.00153111,0.00361711,0.00634918,0.01143088,0.018
 00846,0.00102185,0.00150463,-0.00008153,-0.00021699,-0.00041265,0.0002
 5778,-0.00046287,-0.00008249,-0.00021672,0.00018885,-0.00023771,-0.000
 14578,0.00019384,0.00019271,0.00014189,-0.00042488,0.00037219,0.000179
 34,0.00001819,-0.00030316,-0.00018552,-0.06175520,-0.02857357,-0.03353
 981,-0.00019928,-0.01533188,-0.02363527,-0.00319820,-0.00483359,0.0017
 9747,0.00002132,0.00005779,-0.00007345,-0.00000846,-0.00001092,0.00000
 507,-0.00000597,-0.00000350,-0.00000028,-0.00000439,-0.00000123,-0.000
 00001,0.00000013,-0.00000080,-0.00000338,-0.00000105,-0.00000010,-0.00
 000131,0.00000045,-0.00000043,-0.00000062,0.00000003,-0.00000011,-0.00
 000093,-0.00000331,-0.00000247,-0.00000329,0.00000025,-0.00001047,0.00
 000412,0.00004313,-0.00000721,-0.00002586,0.00000653,-0.00000452,-0.00
 000215,0.00000585,-0.00004828,-0.00005086,0.00036360,0.00056878,0.0010
 4391,-0.00040727,-0.00083468,0.00052242,0.00002314,-0.00000241,0.00005
 277,0.00002556,-0.00001337,0.00001923,0.00000936,0.00000519,-0.0000137
 3,0.06143000,0.00021211,-0.00001720,0.00008496,-0.00022400,0.00003556,
 -0.00008163,0.00007264,0.00001176,-0.00004142,-0.00005684,0.00004126,-
 0.00000849,0.00000038,-0.00002402,0.00004010,-0.00002395,0.00001249,-0
 .00000980,-0.00000501,-0.00001239,0.00002598,0.00000286,-0.00000326,0.
 00000253,0.00000151,0.00000113,-0.00000051,-0.00000218,-0.00000090,0.0
 0000109,-0.00000040,0.00000207,-0.00000069,0.00000003,-0.00000126,0.00
 000100,0.00000201,0.00000573,-0.00000308,-0.00000427,-0.00000445,0.000
 00240,0.00002968,-0.00000800,-0.00000821,-0.00000899,0.00001784,-0.000
 03092,0.00003250,-0.00003157,0.00007947,-0.00007509,0.00020053,-0.0000
 7797,0.00016446,-0.00012509,-0.00077451,0.00003445,-0.00039465,0.00040
 555,-0.00012373,-0.00015452,-0.00006398,-0.00001859,0.00011552,-0.0000
 2204,0.00022905,-0.00043313,0.00020322,0.00015502,-0.00016295,0.000544
 78,-0.00101959,0.00336279,-0.00152212,-0.00055609,0.00237506,-0.001442
 21,-0.00010658,-0.00221083,0.00096639,-0.00115109,-0.00051518,0.000928
 25,0.00032938,-0.00001142,-0.00000684,-0.00016491,0.00023006,0.0001059
 7,-0.00011569,-0.00032062,-0.00019358,0.00071160,0.00026570,-0.0000383
 6,0.00003506,-0.00006298,0.00007199,-0.02813316,-0.12089608,-0.1293922
 6,-0.00200254,-0.00394120,-0.01348717,-0.00500728,0.00507474,-0.002108
 27,-0.00005155,0.00000697,-0.00007738,-0.00000891,-0.00001221,0.000005
 37,-0.00000410,-0.00000074,-0.00000019,-0.00000296,-0.00000040,0.00000
 016,-0.00000006,-0.00000143,-0.00000002,0.00000037,0.00000023,-0.00000
 034,-0.00000077,0.00000034,-0.00000031,-0.00000075,-0.00000032,-0.0000
 0016,0.00000245,0.00000092,0.00000052,0.00000832,-0.00000531,0.0000092
 3,0.00002493,0.00001202,-0.00002881,-0.00000552,0.00000173,-0.00001193
 ,-0.00000890,0.00002530,-0.00002783,-0.00012046,0.00010834,-0.00003913
 ,-0.00112512,-0.00089315,0.00044723,0.00000332,-0.00001520,0.00003567,
 0.00000747,0.00001577,-0.00003151,0.00002001,0.00001159,-0.00000962,0.
 03612647,0.12135877,-0.00004538,-0.00001970,0.00002294,0.00002700,0.00
 003488,-0.00000086,-0.00001198,-0.00000308,0.00000674,0.00000118,-0.00
 000592,0.00000850,-0.00000783,0.00001383,0.00000485,0.00000427,-0.0000
 0264,0.00000391,-0.00000441,0.00000117,-0.00000333,0.00001561,-0.00000
 518,0.00000344,-0.00000841,0.00000067,0.00000310,-0.00000211,-0.000001
 32,0.00000060,-0.00000317,0.00000436,-0.00000125,0.00000077,0.00000055
 ,0.00000084,-0.00000053,-0.00000296,0.00000043,-0.00000412,0.00000609,
 -0.00000279,0.00000310,0.00000559,0.00000210,-0.00000066,0.00001793,-0
 .00000874,0.00002699,-0.00004908,0.00001594,0.00007046,-0.00009757,0.0
 0000091,0.00008853,-0.00012267,-0.00016198,-0.00008174,0.00031008,-0.0
 0003290,-0.00017354,-0.00008284,-0.00003826,0.00000454,-0.00005218,0.0
 0004386,-0.00014822,0.00022966,-0.00011105,0.00019062,0.00067566,0.000
 25407,0.00455971,-0.00078153,-0.00055218,-0.00570203,-0.01214010,-0.01
 331092,-0.00176653,0.00055117,-0.00023592,0.00056081,-0.00077280,0.000
 19138,-0.00010327,0.00037895,0.00028376,-0.00009566,0.00007727,-0.0000
 2890,-0.00015919,-0.00003689,0.00001521,0.00022935,-0.00038731,-0.0000
 1936,0.00000726,0.00035555,0.00016838,-0.03280005,-0.12990961,-0.25005
 342,0.00146174,-0.00122472,0.00094072,0.00114523,-0.00254242,0.0030220
 4,0.00001363,0.00005227,-0.00004061,-0.00000276,0.00000035,0.00000432,
 -0.00000387,-0.00000024,0.00000121,-0.00000203,-0.00000021,0.00000217,
 0.00000082,-0.00000360,-0.00000082,-0.00000153,0.00000180,-0.00000172,
 -0.00000105,0.00000038,-0.00000038,-0.00000071,-0.00000029,-0.00000032
 ,-0.00000330,-0.00000056,-0.00000501,0.00000294,-0.00001384,0.00000403
 ,0.00003381,-0.00000718,-0.00001988,-0.00001056,-0.00001406,-0.0000040
 1,0.00002205,0.00000640,0.00003161,-0.00029742,-0.00067630,-0.00070086
 ,-0.00015911,0.00091718,0.00011831,0.00002754,-0.00001340,0.00002406,-
 0.00005566,0.00002239,0.00000144,-0.00000185,0.00001971,-0.00002045,0.
 03429237,0.14317358,0.26046077,-0.00125714,0.00036088,-0.00036903,0.00
 027330,-0.00218453,0.00033704,0.00004415,0.00012480,0.00009081,0.00000
 345,-0.00005371,0.00000740,-0.00002996,0.00008446,-0.00004042,0.000011
 14,-0.00003630,0.00002328,0.00001437,0.00001907,-0.00003582,-0.0000251
 4,0.00000789,-0.00000628,0.00001016,-0.00000151,-0.00000287,0.00000636
 ,0.00000333,-0.00000091,0.00000522,-0.00000896,0.00000327,-0.00000179,
 0.00000147,-0.00000236,-0.00000209,-0.00000935,0.00000652,0.00001041,0
 .00000314,-0.00000142,-0.00005623,0.00002569,0.00003412,0.00012242,0.0
 0002995,0.00006362,-0.00028575,-0.00012707,-0.00016723,-0.00061486,-0.
 00047592,-0.00062372,-0.00082004,0.00019005,-0.00053660,-0.00001463,0.
 00029256,0.00017902,0.00003474,-0.00006805,0.00004577,0.00015230,0.000
 09538,-0.00012002,0.00016668,-0.00008656,-0.00030588,0.00098732,-0.002
 03012,-0.00043430,0.00010683,-0.00006484,-0.00075852,-0.00160742,-0.00
 514579,-0.00081885,-0.00033507,0.00035986,0.00101285,-0.00005529,0.000
 12028,-0.00005022,-0.00001613,-0.00002131,-0.00002035,-0.00001463,-0.0
 0004584,-0.00001482,-0.00003114,0.00011699,-0.00001071,-0.00017344,-0.
 00036953,-0.00016842,0.00000946,0.00010186,0.00006427,-0.01451544,0.00
 251819,0.02030206,-0.19170329,0.00788466,0.14350245,0.00752507,-0.0001
 0248,-0.00410346,0.00012180,0.00024418,0.00022215,0.00002947,0.0000333
 4,-0.00002395,0.00001141,0.00000711,-0.00000094,0.00000498,-0.00000180
 ,-0.00000319,-0.00000109,0.00000536,-0.00000053,0.00000160,-0.00000285
 ,0.00000200,0.00000213,-0.00000104,0.00000045,0.00000207,0.00000040,0.
 00000015,0.00000024,-0.00000829,0.00000297,0.00001187,-0.00000538,0.00
 002101,0.00000011,0.00000055,-0.00001282,-0.00000289,-0.00001489,0.000
 02193,0.00003372,-0.00013022,-0.00005100,-0.00017570,0.00032343,-0.000
 11499,0.00005922,-0.00001162,0.00002310,-0.00001305,-0.00001546,-0.000
 00349,-0.00000254,-0.00000658,0.00000151,-0.00002645,-0.00001396,0.000
 00120,0.00024546,0.00192300,-0.00113166,0.20177373,0.00065973,-0.00005
 566,0.00036043,-0.00162374,-0.00058861,-0.00026156,-0.00008911,-0.0000
 8893,0.00014331,0.00011621,-0.00001148,0.00004587,0.00011493,0.0000050
 1,-0.00020240,-0.00004478,-0.00001392,0.00005445,0.00007723,-0.0000122
 9,-0.00001951,-0.00006653,0.00002121,-0.00000754,0.00003323,-0.0000033
 4,-0.00000859,0.00000860,0.00000422,0.00000242,0.00001356,-0.00001828,
 0.00000658,-0.00000684,0.00000097,-0.00000504,0.00000760,-0.00001097,0
 .00000742,0.00001178,-0.00000144,0.00000158,-0.00007968,-0.00002909,0.
 00004997,0.00018146,-0.00011903,0.00006095,-0.00035027,0.00034795,0.00
 007003,-0.00036976,-0.00062133,-0.00019230,0.00119385,-0.00135518,0.00
 103199,0.00029150,-0.00007534,0.00033106,-0.00023299,0.00009501,-0.000
 01725,0.00010959,-0.00007015,0.00001757,0.00077103,0.00015172,-0.00046
 669,-0.00295755,0.00147229,-0.00388407,-0.00019941,-0.00078622,-0.0001
 0594,-0.00432805,0.00401231,-0.00340242,-0.00058718,0.00033551,0.00033
 654,0.00003599,-0.00001967,0.00003930,-0.00002013,-0.00000800,-0.00001
 870,0.00001544,0.00001701,0.00000275,-0.00006518,0.00001670,-0.0000014
 6,-0.00002913,-0.00016033,0.00001770,0.00000749,-0.00001483,-0.0000042
 0,-0.01172940,0.00489768,0.01117967,0.00808919,-0.04533134,-0.02194114
 ,0.01253163,0.00264633,-0.01152429,0.00006950,-0.00049115,-0.00043142,
 -0.00002270,-0.00000328,0.00000091,0.00003108,-0.00001008,-0.00000027,
 0.00000568,0.00000345,-0.00000616,-0.00000301,0.00000694,0.00000150,0.
 00000452,-0.00000608,0.00000424,0.00000273,-0.00000178,0.00000048,0.00
 000323,0.00000051,0.00000039,0.00001050,-0.00000528,0.00001390,0.00000
 559,-0.00000378,0.00003758,0.00001290,-0.00005165,-0.00010390,-0.00003
 541,0.00002308,-0.00001028,-0.00009367,-0.00002717,-0.00029049,0.00031
 319,-0.00063475,0.00038441,-0.00005945,-0.00003050,0.00000901,-0.00000
 710,-0.00000708,0.00000018,0.00000002,-0.00000232,0.00000368,-0.000018
 92,-0.00000972,-0.00001021,0.00212493,-0.00303377,0.00211270,-0.003833
 93,0.03965594,-0.00015460,0.00026988,0.00003007,0.00050797,0.00025077,
 0.00071686,-0.00024082,-0.00001723,0.00013592,0.00018242,-0.00019347,0
 .00000695,-0.00006959,0.00007357,-0.00017649,0.00002790,-0.00003206,0.
 00005013,0.00002845,0.00002621,-0.00007969,-0.00004294,0.00001765,-0.0
 0001098,0.00000961,-0.00000578,0.00000114,0.00001028,0.00000778,-0.000
 00176,0.00000822,-0.00001426,0.00000590,-0.00000244,0.00000428,-0.0000
 0387,-0.00000295,-0.00001950,0.00000978,0.00001766,0.00001004,-0.00000
 342,-0.00012073,0.00003461,0.00007225,0.00010813,-0.00005813,0.0000329
 0,-0.00056876,0.00037267,0.00005682,0.00036740,0.00035560,0.00014656,0
 .00070675,0.00157821,-0.00013169,0.00021273,0.00020809,-0.00019692,-0.
 00021045,-0.00012979,0.00017703,-0.00008966,0.00004859,0.00003190,0.00
 120883,0.00027659,-0.00051160,-0.00155402,-0.00452923,-0.00150971,-0.0
 0089061,-0.00005917,-0.00012322,-0.00007614,-0.00326777,0.00268705,-0.
 00004500,-0.00003817,0.00029980,0.00001381,0.00006005,-0.00005992,0.00
 001003,-0.00001452,0.00000429,0.00000081,-0.00001181,0.00000077,0.0000
 1108,0.00004549,-0.00001007,-0.00009865,-0.00002187,-0.00007563,0.0000
 1013,0.00001790,0.00002961,-0.00426896,-0.00077997,0.00652450,0.143047
 85,-0.02249268,-0.19574852,0.01872498,-0.00084565,-0.01380839,0.000136
 39,-0.00016443,-0.00026609,0.00000483,0.00001326,-0.00002094,0.0000212
 3,0.00001090,0.00000274,0.00000442,0.00000124,-0.00000533,-0.00000260,
 0.00000846,-0.00000392,0.00000148,-0.00000468,0.00000196,0.00000388,-0
 .00000189,0.00000019,0.00000335,0.00000064,-0.00000046,0.00000405,-0.0
 0000916,0.00000400,0.00002072,-0.00003753,-0.00000067,0.00001987,-0.00
 004464,-0.00013029,-0.00002478,-0.00002964,0.00001150,-0.00003193,-0.0
 0025241,-0.00027704,-0.00008887,0.00039069,-0.00023330,0.00004963,-0.0
 0000260,0.00000642,0.00000079,0.00000285,0.00000131,0.00000259,0.00000
 147,-0.00000221,-0.00000107,-0.00000255,0.00000551,-0.00086854,0.00240
 583,-0.00028571,-0.15603416,0.02658727,0.20262400\\0.00005725,-0.00001
 662,-0.00001254,-0.00006991,0.00001939,-0.00002236,0.00004199,0.000004
 23,-0.00002478,-0.00002096,0.00002155,-0.00000982,0.00004003,-0.000016
 45,0.00000544,-0.00002803,0.00002319,-0.00001158,0.00000260,-0.0000146
 9,0.00001348,0.00000170,-0.00007797,0.00004135,-0.00002991,0.00001937,
 -0.00002306,0.00002980,-0.00001249,0.00001615,-0.00002125,-0.00001825,
 -0.00000881,-0.00000234,-0.00002972,0.00000440,0.00003876,0.00020407,-
 0.00005581,-0.00004185,-0.00011098,0.00002420,0.00003332,-0.00001299,-
 0.00000071,-0.00002825,0.00001844,-0.00000565,0.00003320,-0.00000897,-
 0.00000228,-0.00005495,-0.00000316,0.00006521,0.00005014,-0.00000855,-
 0.00006977,0.00007218,0.00002155,0.00002232,-0.00005868,-0.00001431,0.
 00001540,-0.00004229,0.00000440,0.00002568,0.00002176,0.00002208,0.000
 00988,-0.00004009,-0.00001676,-0.00000393,0.00002760,0.00002511,0.0000
 1292,0.00000169,-0.00001430,-0.00001664,-0.00000344,-0.00008365,-0.000
 04258,0.00003059,0.00002121,0.00002376,-0.00003096,-0.00001319,-0.0000
 1616,0.00002285,-0.00001875,0.00000858,0.00000281,-0.00002898,-0.00000
 364,-0.00004000,0.00020987,0.00005672,0.00004091,-0.00011376,-0.000025
 13,-0.00003508,-0.00001400,0.00000238,0.00002980,0.00002260,0.00000643
 ,-0.00003206,-0.00000864,0.00000190,-0.00001664,0.00000128,0.00002201,
 -0.00000327,-0.00000543,0.00000609,-0.00000207,-0.00000241,-0.00000068
 ,0.00001524,0.00000183,0.00000126,0.00000140,0.00000718,-0.00000605,0.
 00000560,0.00000469,-0.00000455,0.00000230,0.00000313,0.00000378,-0.00
 000193,-0.00000213,0.00000534,-0.00000092,0.00000598,0.00000017,0.0000
 0586,-0.00000371,-0.00000240,0.00001683,0.00000148,-0.00002226,0.00000
 326,-0.00000480,-0.00000653,0.00000191,-0.00000306,0.00000049,-0.00001
 411,0.00000114,-0.00000138,-0.00000168,0.00000756,0.00000624,-0.000006
 22,0.00000471,0.00000462,-0.00000245,0.00000287,-0.00000368,0.00000153
 ,-0.00000298,-0.00000546,0.00000083,0.00000660,-0.00000017,-0.00000443
 ,-0.00000382,0.00000219\\\@
 The archive entry for this job was punched.


 IF YOU GET CONFUSED, LOGIC OUT YOUR DILEMMA

           --  PICKER X-RAY CORP.    DIGITAL PRINTER MANUAL CA. 1964
 Job cpu time:       0 days  4 hours 59 minutes 42.5 seconds.
 Elapsed time:       0 days  0 hours  9 minutes 24.7 seconds.
 File lengths (MBytes):  RWF=   1956 Int=      0 D2E=      0 Chk=     27 Scr=      1
 Normal termination of Gaussian 16 at Mon Mar 24 14:35:40 2025.
