 Entering Gaussian System, Link 0=g16
 Initial command:
 /public/software/apps/Gaussian/g16/l1.exe "/tmp/Gau-120595.inp" -scrdir="/tmp/"
 Entering Link 1 = /public/software/apps/Gaussian/g16/l1.exe PID=    120614.
  
 Copyright (c) 1988-2019, Gaussian, Inc.  All Rights Reserved.
  
 This is part of the Gaussian(R) 16 program.  It is based on
 the Gaussian(R) 09 system (copyright 2009, Gaussian, Inc.),
 the Gaussian(R) 03 system (copyright 2003, Gaussian, Inc.),
 the Gaussian(R) 98 system (copyright 1998, Gaussian, Inc.),
 the Gaussian(R) 94 system (copyright 1995, Gaussian, Inc.),
 the Gaussian 92(TM) system (copyright 1992, Gaussian, Inc.),
 the Gaussian 90(TM) system (copyright 1990, Gaussian, Inc.),
 the Gaussian 88(TM) system (copyright 1988, Gaussian, Inc.),
 the Gaussian 86(TM) system (copyright 1986, Carnegie Mellon
 University), and the Gaussian 82(TM) system (copyright 1983,
 Carnegie Mellon University). Gaussian is a federally registered
 trademark of Gaussian, Inc.
  
 This software contains proprietary and confidential information,
 including trade secrets, belonging to Gaussian, Inc.
  
 This software is provided under written license and may be
 used, copied, transmitted, or stored only in accord with that
 written license.
  
 The following legend is applicable only to US Government
 contracts under FAR:
  
                    RESTRICTED RIGHTS LEGEND
  
 Use, reproduction and disclosure by the US Government is
 subject to restrictions as set forth in subparagraphs (a)
 and (c) of the Commercial Computer Software - Restricted
 Rights clause in FAR 52.227-19.
  
 Gaussian, Inc.
 340 Quinnipiac St., Bldg. 40, Wallingford CT 06492
  
  
 ---------------------------------------------------------------
 Warning -- This program may not be used in any manner that
 competes with the business of Gaussian, Inc. or will provide
 assistance to any competitor of Gaussian, Inc.  The licensee
 of this program is prohibited from giving any competitor of
 Gaussian, Inc. access to this program.  By using this program,
 the user acknowledges that Gaussian, Inc. is engaged in the
 business of creating and licensing software in the field of
 computational chemistry and represents and warrants to the
 licensee that it is not a competitor of Gaussian, Inc. and that
 it will not use this program in any manner prohibited above.
 ---------------------------------------------------------------
  

 Cite this work as:
 Gaussian 16, Revision C.01,
 M. J. Frisch, G. W. Trucks, H. B. Schlegel, G. E. Scuseria, 
 M. A. Robb, J. R. Cheeseman, G. Scalmani, V. Barone, 
 G. A. Petersson, H. Nakatsuji, X. Li, M. Caricato, A. V. Marenich, 
 J. Bloino, B. G. Janesko, R. Gomperts, B. Mennucci, H. P. Hratchian, 
 J. V. Ortiz, A. F. Izmaylov, J. L. Sonnenberg, D. Williams-Young, 
 F. Ding, F. Lipparini, F. Egidi, J. Goings, B. Peng, A. Petrone, 
 T. Henderson, D. Ranasinghe, V. G. Zakrzewski, J. Gao, N. Rega, 
 G. Zheng, W. Liang, M. Hada, M. Ehara, K. Toyota, R. Fukuda, 
 J. Hasegawa, M. Ishida, T. Nakajima, Y. Honda, O. Kitao, H. Nakai, 
 T. Vreven, K. Throssell, J. A. Montgomery, Jr., J. E. Peralta, 
 F. Ogliaro, M. J. Bearpark, J. J. Heyd, E. N. Brothers, K. N. Kudin, 
 V. N. Staroverov, T. A. Keith, R. Kobayashi, J. Normand, 
 K. Raghavachari, A. P. Rendell, J. C. Burant, S. S. Iyengar, 
 J. Tomasi, M. Cossi, J. M. Millam, M. Klene, C. Adamo, R. Cammi, 
 J. W. Ochterski, R. L. Martin, K. Morokuma, O. Farkas, 
 J. B. Foresman, and D. J. Fox, Gaussian, Inc., Wallingford CT, 2019.
 
 ******************************************
 Gaussian 16:  ES64L-G16RevC.01  3-Jul-2019
                24-Mar-2025 
 ******************************************
 %nprocshared=32
 Will use up to   32 processors via shared memory.
 %mem=100GB
 ------------------------------------------
 #p opt freq b3lyp/def2svpp em=gd3bj nosymm
 ------------------------------------------
 1/18=20,19=15,26=3,38=1/1,3;
 2/9=110,12=2,15=1,17=6,18=5,40=1/2;
 3/5=43,7=202,11=2,25=1,30=1,71=1,74=-5,124=41/1,2,3;
 4//1;
 5/5=2,38=5/2;
 6/7=2,8=2,9=2,10=2,28=1/1;
 7/30=1/1,2,3,16;
 1/18=20,19=15,26=3/3(2);
 2/9=110,15=1/2;
 99//99;
 2/9=110,15=1/2;
 3/5=43,7=202,11=2,25=1,30=1,71=1,74=-5,124=41/1,2,3;
 4/5=5,16=3,69=1/1;
 5/5=2,38=5/2;
 7/30=1/1,2,3,16;
 1/18=20,19=15,26=3/3(-5);
 2/9=110,15=1/2;
 6/7=2,8=2,9=2,10=2,19=2,28=1/1;
 99/9=1/99;
 Leave Link    1 at Mon Mar 24 16:53:15 2025, MaxMem= 13421772800 cpu:               1.2 elap:               0.0
 (Enter /public/software/apps/Gaussian/g16/l101.exe)
 ----------------------
 $$$$Singlemol####0????
 ----------------------
 Symbolic Z-matrix:
 Charge =  0 Multiplicity = 1
 C                    -4.47738   3.11156   1.10726 
 C                    -5.62693   2.4343    0.42267 
 C                    -6.83998   3.08581   0.25215 
 C                    -7.89547   2.45456  -0.38013 
 C                    -7.74749   1.16239  -0.85022 
 C                    -6.54572   0.48719  -0.69356 
 C                    -6.37651  -0.91423  -1.20002 
 C                    -5.48613   1.13033  -0.05297 
 C                    -4.19631   0.42177   0.11817 
 C                    -3.2142    0.50819  -0.88761 
 C                    -2.02012  -0.14158  -0.7594 
 C                    -1.73852  -0.92031   0.38469 
 C                    -0.50853  -1.61131   0.5406 
 C                     0.50837  -1.6112   -0.54285 
 C                     0.26773  -2.32684  -1.70127 
 O                    -0.88722  -3.01132  -1.90936 
 C                     1.23938  -2.38766  -2.71899 
 C                     2.43204  -1.7432   -2.575 
 C                     2.71497  -0.9922   -1.41458 
 C                     3.93739  -0.31322  -1.24808 
 C                     4.1954    0.42341  -0.12094 
 C                     5.48604   1.12984   0.05285 
 C                     6.54012   0.48686   0.70266 
 C                     6.36482  -0.91247   1.2128 
 C                     7.74241   1.15997   0.86443 
 C                     7.8963    2.44991   0.39022 
 C                     6.84647   3.08074  -0.2519 
 C                     5.63307   2.43132  -0.42769 
 C                     4.48959   3.10846  -1.12246 
 C                     3.21274   0.51059   0.88428 
 C                     2.0187   -0.13919   0.75602 
 C                     1.73772  -0.91891  -0.38754 
 C                    -0.26719  -2.32572   1.69964 
 O                     0.88853  -3.00865   1.9085 
 C                    -1.23886  -2.38675   2.71734 
 C                    -2.43214  -1.74358   2.57278 
 C                    -2.71562  -0.99356   1.41187 
 C                    -3.93811  -0.31478   1.24534 
 H                    -3.60628   3.14099   0.45354 
 H                    -4.19276   2.56471   2.0057 
 H                    -4.74001   4.12878   1.38671 
 H                    -6.9571    4.09604   0.61761 
 H                    -8.83559   2.97097  -0.50746 
 H                    -8.57327   0.67124  -1.34483 
 H                    -6.12182  -1.58734  -0.38189 
 H                    -7.29048  -1.26709  -1.671 
 H                    -5.5669   -0.9625   -1.92764 
 H                    -3.4203    1.10285  -1.76624 
 H                    -1.27101  -0.05811  -1.53385 
 H                    -1.48497  -2.87346  -1.16126 
 H                     1.00553  -2.96251  -3.60093 
 H                     3.17814  -1.7972   -3.354 
 H                     4.67965  -0.37967  -2.03173 
 H                     5.55035  -0.95694   1.93521 
 H                     7.27501  -1.26554   1.69087 
 H                     6.11424  -1.58774   0.39515 
 H                     8.56366   0.66897   1.36668 
 H                     8.83654   2.965     0.52195 
 H                     6.96852   4.08906  -0.62102 
 H                     4.20716   2.5569   -2.01868 
 H                     3.61547   3.14558  -0.47312 
 H                     4.75758   4.12283  -1.40717 
 H                     3.41846   1.10594   1.76254 
 H                     1.26931  -0.05524   1.53015 
 H                     1.48627  -2.87073   1.16042 
 H                    -1.00452  -2.9606    3.59979 
 H                    -3.17826  -1.79769   3.35177 
 H                    -4.68006  -0.38057   2.02934 
 
 ITRead=  0  0  0  0  0  0  0  0  0  0  0  0  0  0  0  0  0  0  0  0
 ITRead=  0  0  0  0  0  0  0  0  0  0  0  0  0  0  0  0  0  0  0  0
 ITRead=  0  0  0  0  0  0  0  0  0  0  0  0  0  0  0  0  0  0  0  0
 ITRead=  0  0  0  0  0  0  0  0
 MicOpt= -1 -1 -1 -1 -1 -1 -1 -1 -1 -1 -1 -1 -1 -1 -1 -1 -1 -1 -1 -1
 MicOpt= -1 -1 -1 -1 -1 -1 -1 -1 -1 -1 -1 -1 -1 -1 -1 -1 -1 -1 -1 -1
 MicOpt= -1 -1 -1 -1 -1 -1 -1 -1 -1 -1 -1 -1 -1 -1 -1 -1 -1 -1 -1 -1
 MicOpt= -1 -1 -1 -1 -1 -1 -1 -1
 NAtoms=     68 NQM=       68 NQMF=       0 NMMI=      0 NMMIF=      0
                NMic=       0 NMicF=      0.
                    Isotopes and Nuclear Properties:
 (Nuclear quadrupole moments (NQMom) in fm**2, nuclear magnetic moments (NMagM)
  in nuclear magnetons)

  Atom         1           2           3           4           5           6           7           8           9          10
 IAtWgt=          12          12          12          12          12          12          12          12          12          12
 AtmWgt=  12.0000000  12.0000000  12.0000000  12.0000000  12.0000000  12.0000000  12.0000000  12.0000000  12.0000000  12.0000000
 NucSpn=           0           0           0           0           0           0           0           0           0           0
 AtZEff=  -0.0000000  -0.0000000  -0.0000000  -0.0000000  -0.0000000  -0.0000000  -0.0000000  -0.0000000  -0.0000000  -0.0000000
 NQMom=    0.0000000   0.0000000   0.0000000   0.0000000   0.0000000   0.0000000   0.0000000   0.0000000   0.0000000   0.0000000
 NMagM=    0.0000000   0.0000000   0.0000000   0.0000000   0.0000000   0.0000000   0.0000000   0.0000000   0.0000000   0.0000000
 AtZNuc=   6.0000000   6.0000000   6.0000000   6.0000000   6.0000000   6.0000000   6.0000000   6.0000000   6.0000000   6.0000000

  Atom        11          12          13          14          15          16          17          18          19          20
 IAtWgt=          12          12          12          12          12          16          12          12          12          12
 AtmWgt=  12.0000000  12.0000000  12.0000000  12.0000000  12.0000000  15.9949146  12.0000000  12.0000000  12.0000000  12.0000000
 NucSpn=           0           0           0           0           0           0           0           0           0           0
 AtZEff=  -0.0000000  -0.0000000  -0.0000000  -0.0000000  -0.0000000  -0.0000000  -0.0000000  -0.0000000  -0.0000000  -0.0000000
 NQMom=    0.0000000   0.0000000   0.0000000   0.0000000   0.0000000   0.0000000   0.0000000   0.0000000   0.0000000   0.0000000
 NMagM=    0.0000000   0.0000000   0.0000000   0.0000000   0.0000000   0.0000000   0.0000000   0.0000000   0.0000000   0.0000000
 AtZNuc=   6.0000000   6.0000000   6.0000000   6.0000000   6.0000000   8.0000000   6.0000000   6.0000000   6.0000000   6.0000000

  Atom        21          22          23          24          25          26          27          28          29          30
 IAtWgt=          12          12          12          12          12          12          12          12          12          12
 AtmWgt=  12.0000000  12.0000000  12.0000000  12.0000000  12.0000000  12.0000000  12.0000000  12.0000000  12.0000000  12.0000000
 NucSpn=           0           0           0           0           0           0           0           0           0           0
 AtZEff=  -0.0000000  -0.0000000  -0.0000000  -0.0000000  -0.0000000  -0.0000000  -0.0000000  -0.0000000  -0.0000000  -0.0000000
 NQMom=    0.0000000   0.0000000   0.0000000   0.0000000   0.0000000   0.0000000   0.0000000   0.0000000   0.0000000   0.0000000
 NMagM=    0.0000000   0.0000000   0.0000000   0.0000000   0.0000000   0.0000000   0.0000000   0.0000000   0.0000000   0.0000000
 AtZNuc=   6.0000000   6.0000000   6.0000000   6.0000000   6.0000000   6.0000000   6.0000000   6.0000000   6.0000000   6.0000000

  Atom        31          32          33          34          35          36          37          38          39          40
 IAtWgt=          12          12          12          16          12          12          12          12           1           1
 AtmWgt=  12.0000000  12.0000000  12.0000000  15.9949146  12.0000000  12.0000000  12.0000000  12.0000000   1.0078250   1.0078250
 NucSpn=           0           0           0           0           0           0           0           0           1           1
 AtZEff=  -0.0000000  -0.0000000  -0.0000000  -0.0000000  -0.0000000  -0.0000000  -0.0000000  -0.0000000  -0.0000000  -0.0000000
 NQMom=    0.0000000   0.0000000   0.0000000   0.0000000   0.0000000   0.0000000   0.0000000   0.0000000   0.0000000   0.0000000
 NMagM=    0.0000000   0.0000000   0.0000000   0.0000000   0.0000000   0.0000000   0.0000000   0.0000000   2.7928460   2.7928460
 AtZNuc=   6.0000000   6.0000000   6.0000000   8.0000000   6.0000000   6.0000000   6.0000000   6.0000000   1.0000000   1.0000000

  Atom        41          42          43          44          45          46          47          48          49          50
 IAtWgt=           1           1           1           1           1           1           1           1           1           1
 AtmWgt=   1.0078250   1.0078250   1.0078250   1.0078250   1.0078250   1.0078250   1.0078250   1.0078250   1.0078250   1.0078250
 NucSpn=           1           1           1           1           1           1           1           1           1           1
 AtZEff=  -0.0000000  -0.0000000  -0.0000000  -0.0000000  -0.0000000  -0.0000000  -0.0000000  -0.0000000  -0.0000000  -0.0000000
 NQMom=    0.0000000   0.0000000   0.0000000   0.0000000   0.0000000   0.0000000   0.0000000   0.0000000   0.0000000   0.0000000
 NMagM=    2.7928460   2.7928460   2.7928460   2.7928460   2.7928460   2.7928460   2.7928460   2.7928460   2.7928460   2.7928460
 AtZNuc=   1.0000000   1.0000000   1.0000000   1.0000000   1.0000000   1.0000000   1.0000000   1.0000000   1.0000000   1.0000000

  Atom        51          52          53          54          55          56          57          58          59          60
 IAtWgt=           1           1           1           1           1           1           1           1           1           1
 AtmWgt=   1.0078250   1.0078250   1.0078250   1.0078250   1.0078250   1.0078250   1.0078250   1.0078250   1.0078250   1.0078250
 NucSpn=           1           1           1           1           1           1           1           1           1           1
 AtZEff=  -0.0000000  -0.0000000  -0.0000000  -0.0000000  -0.0000000  -0.0000000  -0.0000000  -0.0000000  -0.0000000  -0.0000000
 NQMom=    0.0000000   0.0000000   0.0000000   0.0000000   0.0000000   0.0000000   0.0000000   0.0000000   0.0000000   0.0000000
 NMagM=    2.7928460   2.7928460   2.7928460   2.7928460   2.7928460   2.7928460   2.7928460   2.7928460   2.7928460   2.7928460
 AtZNuc=   1.0000000   1.0000000   1.0000000   1.0000000   1.0000000   1.0000000   1.0000000   1.0000000   1.0000000   1.0000000

  Atom        61          62          63          64          65          66          67          68
 IAtWgt=           1           1           1           1           1           1           1           1
 AtmWgt=   1.0078250   1.0078250   1.0078250   1.0078250   1.0078250   1.0078250   1.0078250   1.0078250
 NucSpn=           1           1           1           1           1           1           1           1
 AtZEff=  -0.0000000  -0.0000000  -0.0000000  -0.0000000  -0.0000000  -0.0000000  -0.0000000  -0.0000000
 NQMom=    0.0000000   0.0000000   0.0000000   0.0000000   0.0000000   0.0000000   0.0000000   0.0000000
 NMagM=    2.7928460   2.7928460   2.7928460   2.7928460   2.7928460   2.7928460   2.7928460   2.7928460
 AtZNuc=   1.0000000   1.0000000   1.0000000   1.0000000   1.0000000   1.0000000   1.0000000   1.0000000
 Leave Link  101 at Mon Mar 24 16:53:16 2025, MaxMem= 13421772800 cpu:              12.3 elap:               0.4
 (Enter /public/software/apps/Gaussian/g16/l103.exe)

 GradGradGradGradGradGradGradGradGradGradGradGradGradGradGradGradGradGrad
 Berny optimization.
 Initialization pass.
                           ----------------------------
                           !    Initial Parameters    !
                           ! (Angstroms and Degrees)  !
 --------------------------                            --------------------------
 ! Name  Definition              Value          Derivative Info.                !
 --------------------------------------------------------------------------------
 ! R1    R(1,2)                  1.4996         estimate D2E/DX2                !
 ! R2    R(1,39)                 1.0895         estimate D2E/DX2                !
 ! R3    R(1,40)                 1.0896         estimate D2E/DX2                !
 ! R4    R(1,41)                 1.0871         estimate D2E/DX2                !
 ! R5    R(2,3)                  1.3875         estimate D2E/DX2                !
 ! R6    R(2,8)                  1.3951         estimate D2E/DX2                !
 ! R7    R(3,4)                  1.3829         estimate D2E/DX2                !
 ! R8    R(3,42)                 1.0807         estimate D2E/DX2                !
 ! R9    R(4,5)                  1.383          estimate D2E/DX2                !
 ! R10   R(4,43)                 1.0802         estimate D2E/DX2                !
 ! R11   R(5,6)                  1.3873         estimate D2E/DX2                !
 ! R12   R(5,44)                 1.0806         estimate D2E/DX2                !
 ! R13   R(6,7)                  1.4997         estimate D2E/DX2                !
 ! R14   R(6,8)                  1.3953         estimate D2E/DX2                !
 ! R15   R(7,45)                 1.0896         estimate D2E/DX2                !
 ! R16   R(7,46)                 1.0871         estimate D2E/DX2                !
 ! R17   R(7,47)                 1.0896         estimate D2E/DX2                !
 ! R18   R(8,9)                  1.4815         estimate D2E/DX2                !
 ! R19   R(9,10)                 1.4084         estimate D2E/DX2                !
 ! R20   R(9,38)                 1.371          estimate D2E/DX2                !
 ! R21   R(10,11)                1.3655         estimate D2E/DX2                !
 ! R22   R(10,48)                1.0808         estimate D2E/DX2                !
 ! R23   R(11,12)                1.4123         estimate D2E/DX2                !
 ! R24   R(11,49)                1.0807         estimate D2E/DX2                !
 ! R25   R(12,13)                1.4194         estimate D2E/DX2                !
 ! R26   R(12,37)                1.4196         estimate D2E/DX2                !
 ! R27   R(13,14)                1.4859         estimate D2E/DX2                !
 ! R28   R(13,33)                1.3828         estimate D2E/DX2                !
 ! R29   R(14,15)                1.3827         estimate D2E/DX2                !
 ! R30   R(14,32)                1.4194         estimate D2E/DX2                !
 ! R31   R(15,16)                1.3586         estimate D2E/DX2                !
 ! R32   R(15,17)                1.4084         estimate D2E/DX2                !
 ! R33   R(16,50)                0.9674         estimate D2E/DX2                !
 ! R34   R(17,18)                1.3633         estimate D2E/DX2                !
 ! R35   R(17,51)                1.0784         estimate D2E/DX2                !
 ! R36   R(18,19)                1.4109         estimate D2E/DX2                !
 ! R37   R(18,52)                1.08           estimate D2E/DX2                !
 ! R38   R(19,20)                1.4082         estimate D2E/DX2                !
 ! R39   R(19,32)                1.4196         estimate D2E/DX2                !
 ! R40   R(20,21)                1.371          estimate D2E/DX2                !
 ! R41   R(20,53)                1.0814         estimate D2E/DX2                !
 ! R42   R(21,22)                1.4815         estimate D2E/DX2                !
 ! R43   R(21,30)                1.4084         estimate D2E/DX2                !
 ! R44   R(22,23)                1.3953         estimate D2E/DX2                !
 ! R45   R(22,28)                1.3951         estimate D2E/DX2                !
 ! R46   R(23,24)                1.4997         estimate D2E/DX2                !
 ! R47   R(23,25)                1.3874         estimate D2E/DX2                !
 ! R48   R(24,54)                1.0896         estimate D2E/DX2                !
 ! R49   R(24,55)                1.087          estimate D2E/DX2                !
 ! R50   R(24,56)                1.0896         estimate D2E/DX2                !
 ! R51   R(25,26)                1.3829         estimate D2E/DX2                !
 ! R52   R(25,57)                1.0806         estimate D2E/DX2                !
 ! R53   R(26,27)                1.3829         estimate D2E/DX2                !
 ! R54   R(26,58)                1.0802         estimate D2E/DX2                !
 ! R55   R(27,28)                1.3874         estimate D2E/DX2                !
 ! R56   R(27,59)                1.0807         estimate D2E/DX2                !
 ! R57   R(28,29)                1.4996         estimate D2E/DX2                !
 ! R58   R(29,60)                1.0896         estimate D2E/DX2                !
 ! R59   R(29,61)                1.0895         estimate D2E/DX2                !
 ! R60   R(29,62)                1.0871         estimate D2E/DX2                !
 ! R61   R(30,31)                1.3654         estimate D2E/DX2                !
 ! R62   R(30,63)                1.0808         estimate D2E/DX2                !
 ! R63   R(31,32)                1.4123         estimate D2E/DX2                !
 ! R64   R(31,64)                1.0807         estimate D2E/DX2                !
 ! R65   R(33,34)                1.3586         estimate D2E/DX2                !
 ! R66   R(33,35)                1.4084         estimate D2E/DX2                !
 ! R67   R(34,65)                0.9674         estimate D2E/DX2                !
 ! R68   R(35,36)                1.3633         estimate D2E/DX2                !
 ! R69   R(35,66)                1.0784         estimate D2E/DX2                !
 ! R70   R(36,37)                1.4109         estimate D2E/DX2                !
 ! R71   R(36,67)                1.08           estimate D2E/DX2                !
 ! R72   R(37,38)                1.4082         estimate D2E/DX2                !
 ! R73   R(38,68)                1.0814         estimate D2E/DX2                !
 ! A1    A(2,1,39)             110.56           estimate D2E/DX2                !
 ! A2    A(2,1,40)             110.4866         estimate D2E/DX2                !
 ! A3    A(2,1,41)             110.7785         estimate D2E/DX2                !
 ! A4    A(39,1,40)            107.4241         estimate D2E/DX2                !
 ! A5    A(39,1,41)            108.7912         estimate D2E/DX2                !
 ! A6    A(40,1,41)            108.7093         estimate D2E/DX2                !
 ! A7    A(1,2,3)              120.9469         estimate D2E/DX2                !
 ! A8    A(1,2,8)              120.0258         estimate D2E/DX2                !
 ! A9    A(3,2,8)              119.0272         estimate D2E/DX2                !
 ! A10   A(2,3,4)              120.6083         estimate D2E/DX2                !
 ! A11   A(2,3,42)             119.4829         estimate D2E/DX2                !
 ! A12   A(4,3,42)             119.9089         estimate D2E/DX2                !
 ! A13   A(3,4,5)              120.017          estimate D2E/DX2                !
 ! A14   A(3,4,43)             119.9985         estimate D2E/DX2                !
 ! A15   A(5,4,43)             119.9844         estimate D2E/DX2                !
 ! A16   A(4,5,6)              120.6003         estimate D2E/DX2                !
 ! A17   A(4,5,44)             119.8991         estimate D2E/DX2                !
 ! A18   A(6,5,44)             119.5007         estimate D2E/DX2                !
 ! A19   A(5,6,7)              120.9572         estimate D2E/DX2                !
 ! A20   A(5,6,8)              119.0354         estimate D2E/DX2                !
 ! A21   A(7,6,8)              120.0074         estimate D2E/DX2                !
 ! A22   A(6,7,45)             110.492          estimate D2E/DX2                !
 ! A23   A(6,7,46)             110.7805         estimate D2E/DX2                !
 ! A24   A(6,7,47)             110.5329         estimate D2E/DX2                !
 ! A25   A(45,7,46)            108.7424         estimate D2E/DX2                !
 ! A26   A(45,7,47)            107.4785         estimate D2E/DX2                !
 ! A27   A(46,7,47)            108.7245         estimate D2E/DX2                !
 ! A28   A(2,8,6)              120.7116         estimate D2E/DX2                !
 ! A29   A(2,8,9)              119.702          estimate D2E/DX2                !
 ! A30   A(6,8,9)              119.5858         estimate D2E/DX2                !
 ! A31   A(8,9,10)             119.6857         estimate D2E/DX2                !
 ! A32   A(8,9,38)             121.0548         estimate D2E/DX2                !
 ! A33   A(10,9,38)            119.2589         estimate D2E/DX2                !
 ! A34   A(9,10,11)            120.9007         estimate D2E/DX2                !
 ! A35   A(9,10,48)            118.7731         estimate D2E/DX2                !
 ! A36   A(11,10,48)           120.3258         estimate D2E/DX2                !
 ! A37   A(10,11,12)           120.8509         estimate D2E/DX2                !
 ! A38   A(10,11,49)           120.1414         estimate D2E/DX2                !
 ! A39   A(12,11,49)           119.0055         estimate D2E/DX2                !
 ! A40   A(11,12,13)           122.0186         estimate D2E/DX2                !
 ! A41   A(11,12,37)           118.5138         estimate D2E/DX2                !
 ! A42   A(13,12,37)           119.4627         estimate D2E/DX2                !
 ! A43   A(12,13,14)           120.8579         estimate D2E/DX2                !
 ! A44   A(12,13,33)           119.6593         estimate D2E/DX2                !
 ! A45   A(14,13,33)           119.4574         estimate D2E/DX2                !
 ! A46   A(13,14,15)           119.4529         estimate D2E/DX2                !
 ! A47   A(13,14,32)           120.8627         estimate D2E/DX2                !
 ! A48   A(15,14,32)           119.6587         estimate D2E/DX2                !
 ! A49   A(14,15,16)           122.4816         estimate D2E/DX2                !
 ! A50   A(14,15,17)           120.5084         estimate D2E/DX2                !
 ! A51   A(16,15,17)           117.0041         estimate D2E/DX2                !
 ! A52   A(15,16,50)           109.5734         estimate D2E/DX2                !
 ! A53   A(15,17,18)           120.4522         estimate D2E/DX2                !
 ! A54   A(15,17,51)           117.6705         estimate D2E/DX2                !
 ! A55   A(18,17,51)           121.8762         estimate D2E/DX2                !
 ! A56   A(17,18,19)           120.9264         estimate D2E/DX2                !
 ! A57   A(17,18,52)           120.3018         estimate D2E/DX2                !
 ! A58   A(19,18,52)           118.7715         estimate D2E/DX2                !
 ! A59   A(18,19,20)           121.8682         estimate D2E/DX2                !
 ! A60   A(18,19,32)           118.9782         estimate D2E/DX2                !
 ! A61   A(20,19,32)           119.1536         estimate D2E/DX2                !
 ! A62   A(19,20,21)           121.3073         estimate D2E/DX2                !
 ! A63   A(19,20,53)           118.7187         estimate D2E/DX2                !
 ! A64   A(21,20,53)           119.9739         estimate D2E/DX2                !
 ! A65   A(20,21,22)           121.1023         estimate D2E/DX2                !
 ! A66   A(20,21,30)           119.2569         estimate D2E/DX2                !
 ! A67   A(22,21,30)           119.6406         estimate D2E/DX2                !
 ! A68   A(21,22,23)           119.5394         estimate D2E/DX2                !
 ! A69   A(21,22,28)           119.7502         estimate D2E/DX2                !
 ! A70   A(23,22,28)           120.7095         estimate D2E/DX2                !
 ! A71   A(22,23,24)           120.0067         estimate D2E/DX2                !
 ! A72   A(22,23,25)           119.0401         estimate D2E/DX2                !
 ! A73   A(24,23,25)           120.9531         estimate D2E/DX2                !
 ! A74   A(23,24,54)           110.5475         estimate D2E/DX2                !
 ! A75   A(23,24,55)           110.7802         estimate D2E/DX2                !
 ! A76   A(23,24,56)           110.4793         estimate D2E/DX2                !
 ! A77   A(54,24,55)           108.7261         estimate D2E/DX2                !
 ! A78   A(54,24,56)           107.4772         estimate D2E/DX2                !
 ! A79   A(55,24,56)           108.7405         estimate D2E/DX2                !
 ! A80   A(23,25,26)           120.5973         estimate D2E/DX2                !
 ! A81   A(23,25,57)           119.4947         estimate D2E/DX2                !
 ! A82   A(26,25,57)           119.908          estimate D2E/DX2                !
 ! A83   A(25,26,27)           120.0157         estimate D2E/DX2                !
 ! A84   A(25,26,58)           119.9901         estimate D2E/DX2                !
 ! A85   A(27,26,58)           119.9941         estimate D2E/DX2                !
 ! A86   A(26,27,28)           120.6127         estimate D2E/DX2                !
 ! A87   A(26,27,59)           119.9003         estimate D2E/DX2                !
 ! A88   A(28,27,59)           119.487          estimate D2E/DX2                !
 ! A89   A(22,28,27)           119.0247         estimate D2E/DX2                !
 ! A90   A(22,28,29)           120.0299         estimate D2E/DX2                !
 ! A91   A(27,28,29)           120.9455         estimate D2E/DX2                !
 ! A92   A(28,29,60)           110.4972         estimate D2E/DX2                !
 ! A93   A(28,29,61)           110.5503         estimate D2E/DX2                !
 ! A94   A(28,29,62)           110.7748         estimate D2E/DX2                !
 ! A95   A(60,29,61)           107.4275         estimate D2E/DX2                !
 ! A96   A(60,29,62)           108.7125         estimate D2E/DX2                !
 ! A97   A(61,29,62)           108.7874         estimate D2E/DX2                !
 ! A98   A(21,30,31)           120.9056         estimate D2E/DX2                !
 ! A99   A(21,30,63)           118.7684         estimate D2E/DX2                !
 ! A100  A(31,30,63)           120.3258         estimate D2E/DX2                !
 ! A101  A(30,31,32)           120.8477         estimate D2E/DX2                !
 ! A102  A(30,31,64)           120.1417         estimate D2E/DX2                !
 ! A103  A(32,31,64)           119.0085         estimate D2E/DX2                !
 ! A104  A(14,32,19)           119.465          estimate D2E/DX2                !
 ! A105  A(14,32,31)           122.0176         estimate D2E/DX2                !
 ! A106  A(19,32,31)           118.5127         estimate D2E/DX2                !
 ! A107  A(13,33,34)           122.4833         estimate D2E/DX2                !
 ! A108  A(13,33,35)           120.5086         estimate D2E/DX2                !
 ! A109  A(34,33,35)           117.0023         estimate D2E/DX2                !
 ! A110  A(33,34,65)           109.5763         estimate D2E/DX2                !
 ! A111  A(33,35,36)           120.452          estimate D2E/DX2                !
 ! A112  A(33,35,66)           117.674          estimate D2E/DX2                !
 ! A113  A(36,35,66)           121.8729         estimate D2E/DX2                !
 ! A114  A(35,36,37)           120.9252         estimate D2E/DX2                !
 ! A115  A(35,36,67)           120.3031         estimate D2E/DX2                !
 ! A116  A(37,36,67)           118.7714         estimate D2E/DX2                !
 ! A117  A(12,37,36)           118.9812         estimate D2E/DX2                !
 ! A118  A(12,37,38)           119.1503         estimate D2E/DX2                !
 ! A119  A(36,37,38)           121.8684         estimate D2E/DX2                !
 ! A120  A(9,38,37)            121.3104         estimate D2E/DX2                !
 ! A121  A(9,38,68)            119.9673         estimate D2E/DX2                !
 ! A122  A(37,38,68)           118.7221         estimate D2E/DX2                !
 ! D1    D(39,1,2,3)          -122.5468         estimate D2E/DX2                !
 ! D2    D(39,1,2,8)            57.4851         estimate D2E/DX2                !
 ! D3    D(40,1,2,3)           118.667          estimate D2E/DX2                !
 ! D4    D(40,1,2,8)           -61.301          estimate D2E/DX2                !
 ! D5    D(41,1,2,3)            -1.8641         estimate D2E/DX2                !
 ! D6    D(41,1,2,8)           178.1678         estimate D2E/DX2                !
 ! D7    D(1,2,3,4)           -179.9963         estimate D2E/DX2                !
 ! D8    D(1,2,3,42)             0.0407         estimate D2E/DX2                !
 ! D9    D(8,2,3,4)             -0.0279         estimate D2E/DX2                !
 ! D10   D(8,2,3,42)          -179.991          estimate D2E/DX2                !
 ! D11   D(1,2,8,6)           -179.9174         estimate D2E/DX2                !
 ! D12   D(1,2,8,9)             -0.18           estimate D2E/DX2                !
 ! D13   D(3,2,8,6)              0.114          estimate D2E/DX2                !
 ! D14   D(3,2,8,9)            179.8514         estimate D2E/DX2                !
 ! D15   D(2,3,4,5)             -0.0465         estimate D2E/DX2                !
 ! D16   D(2,3,4,43)           179.9899         estimate D2E/DX2                !
 ! D17   D(42,3,4,5)           179.9164         estimate D2E/DX2                !
 ! D18   D(42,3,4,43)           -0.0472         estimate D2E/DX2                !
 ! D19   D(3,4,5,6)              0.0359         estimate D2E/DX2                !
 ! D20   D(3,4,5,44)          -179.9441         estimate D2E/DX2                !
 ! D21   D(43,4,5,6)           179.9995         estimate D2E/DX2                !
 ! D22   D(43,4,5,44)            0.0195         estimate D2E/DX2                !
 ! D23   D(4,5,6,7)            179.9898         estimate D2E/DX2                !
 ! D24   D(4,5,6,8)              0.0487         estimate D2E/DX2                !
 ! D25   D(44,5,6,7)            -0.0301         estimate D2E/DX2                !
 ! D26   D(44,5,6,8)          -179.9712         estimate D2E/DX2                !
 ! D27   D(5,6,7,45)          -120.5115         estimate D2E/DX2                !
 ! D28   D(5,6,7,46)             0.0662         estimate D2E/DX2                !
 ! D29   D(5,6,7,47)           120.6485         estimate D2E/DX2                !
 ! D30   D(8,6,7,45)            59.429          estimate D2E/DX2                !
 ! D31   D(8,6,7,46)          -179.9933         estimate D2E/DX2                !
 ! D32   D(8,6,7,47)           -59.411          estimate D2E/DX2                !
 ! D33   D(5,6,8,2)             -0.1243         estimate D2E/DX2                !
 ! D34   D(5,6,8,9)           -179.8619         estimate D2E/DX2                !
 ! D35   D(7,6,8,2)            179.9341         estimate D2E/DX2                !
 ! D36   D(7,6,8,9)              0.1964         estimate D2E/DX2                !
 ! D37   D(2,8,9,10)           -90.8432         estimate D2E/DX2                !
 ! D38   D(2,8,9,38)            88.8631         estimate D2E/DX2                !
 ! D39   D(6,8,9,10)            88.8971         estimate D2E/DX2                !
 ! D40   D(6,8,9,38)           -91.3966         estimate D2E/DX2                !
 ! D41   D(8,9,10,11)         -179.5866         estimate D2E/DX2                !
 ! D42   D(8,9,10,48)            0.6068         estimate D2E/DX2                !
 ! D43   D(38,9,10,11)           0.7018         estimate D2E/DX2                !
 ! D44   D(38,9,10,48)        -179.1048         estimate D2E/DX2                !
 ! D45   D(8,9,38,37)          179.8126         estimate D2E/DX2                !
 ! D46   D(8,9,38,68)           -0.3366         estimate D2E/DX2                !
 ! D47   D(10,9,38,37)          -0.4798         estimate D2E/DX2                !
 ! D48   D(10,9,38,68)         179.3709         estimate D2E/DX2                !
 ! D49   D(9,10,11,12)           0.1206         estimate D2E/DX2                !
 ! D50   D(9,10,11,49)        -179.3355         estimate D2E/DX2                !
 ! D51   D(48,10,11,12)        179.9242         estimate D2E/DX2                !
 ! D52   D(48,10,11,49)          0.4681         estimate D2E/DX2                !
 ! D53   D(10,11,12,13)        179.6825         estimate D2E/DX2                !
 ! D54   D(10,11,12,37)         -1.1356         estimate D2E/DX2                !
 ! D55   D(49,11,12,13)         -0.8554         estimate D2E/DX2                !
 ! D56   D(49,11,12,37)        178.3266         estimate D2E/DX2                !
 ! D57   D(11,12,13,14)         -3.8692         estimate D2E/DX2                !
 ! D58   D(11,12,13,33)        177.9753         estimate D2E/DX2                !
 ! D59   D(37,12,13,14)        176.9564         estimate D2E/DX2                !
 ! D60   D(37,12,13,33)         -1.1991         estimate D2E/DX2                !
 ! D61   D(11,12,37,36)       -178.5535         estimate D2E/DX2                !
 ! D62   D(11,12,37,38)          1.3328         estimate D2E/DX2                !
 ! D63   D(13,12,37,36)          0.6499         estimate D2E/DX2                !
 ! D64   D(13,12,37,38)       -179.4638         estimate D2E/DX2                !
 ! D65   D(12,13,14,15)        -71.0231         estimate D2E/DX2                !
 ! D66   D(12,13,14,32)        110.8266         estimate D2E/DX2                !
 ! D67   D(33,13,14,15)        107.1361         estimate D2E/DX2                !
 ! D68   D(33,13,14,32)        -71.0142         estimate D2E/DX2                !
 ! D69   D(12,13,33,34)        179.9325         estimate D2E/DX2                !
 ! D70   D(12,13,33,35)          0.8347         estimate D2E/DX2                !
 ! D71   D(14,13,33,34)          1.7509         estimate D2E/DX2                !
 ! D72   D(14,13,33,35)       -177.3468         estimate D2E/DX2                !
 ! D73   D(13,14,15,16)          1.7413         estimate D2E/DX2                !
 ! D74   D(13,14,15,17)       -177.3489         estimate D2E/DX2                !
 ! D75   D(32,14,15,16)        179.9141         estimate D2E/DX2                !
 ! D76   D(32,14,15,17)          0.8239         estimate D2E/DX2                !
 ! D77   D(13,14,32,19)        176.9428         estimate D2E/DX2                !
 ! D78   D(13,14,32,31)         -3.862          estimate D2E/DX2                !
 ! D79   D(15,14,32,19)         -1.2037         estimate D2E/DX2                !
 ! D80   D(15,14,32,31)        177.9915         estimate D2E/DX2                !
 ! D81   D(14,15,16,50)          2.6743         estimate D2E/DX2                !
 ! D82   D(17,15,16,50)       -178.2055         estimate D2E/DX2                !
 ! D83   D(14,15,17,18)          0.1052         estimate D2E/DX2                !
 ! D84   D(14,15,17,51)        179.7208         estimate D2E/DX2                !
 ! D85   D(16,15,17,18)       -179.0333         estimate D2E/DX2                !
 ! D86   D(16,15,17,51)          0.5823         estimate D2E/DX2                !
 ! D87   D(15,17,18,19)         -0.6498         estimate D2E/DX2                !
 ! D88   D(15,17,18,52)        179.5694         estimate D2E/DX2                !
 ! D89   D(51,17,18,19)        179.7511         estimate D2E/DX2                !
 ! D90   D(51,17,18,52)         -0.0297         estimate D2E/DX2                !
 ! D91   D(17,18,19,20)       -179.6725         estimate D2E/DX2                !
 ! D92   D(17,18,19,32)          0.2523         estimate D2E/DX2                !
 ! D93   D(52,18,19,20)          0.1115         estimate D2E/DX2                !
 ! D94   D(52,18,19,32)       -179.9636         estimate D2E/DX2                !
 ! D95   D(18,19,20,21)        179.3918         estimate D2E/DX2                !
 ! D96   D(18,19,20,53)         -0.5104         estimate D2E/DX2                !
 ! D97   D(32,19,20,21)         -0.533          estimate D2E/DX2                !
 ! D98   D(32,19,20,53)        179.5648         estimate D2E/DX2                !
 ! D99   D(18,19,32,14)          0.6721         estimate D2E/DX2                !
 ! D100  D(18,19,32,31)       -178.5513         estimate D2E/DX2                !
 ! D101  D(20,19,32,14)       -179.401          estimate D2E/DX2                !
 ! D102  D(20,19,32,31)          1.3756         estimate D2E/DX2                !
 ! D103  D(19,20,21,22)        179.6579         estimate D2E/DX2                !
 ! D104  D(19,20,21,30)         -0.5313         estimate D2E/DX2                !
 ! D105  D(53,20,21,22)         -0.441          estimate D2E/DX2                !
 ! D106  D(53,20,21,30)        179.3697         estimate D2E/DX2                !
 ! D107  D(20,21,22,23)        -91.7522         estimate D2E/DX2                !
 ! D108  D(20,21,22,28)         88.5788         estimate D2E/DX2                !
 ! D109  D(30,21,22,23)         88.4378         estimate D2E/DX2                !
 ! D110  D(30,21,22,28)        -91.2313         estimate D2E/DX2                !
 ! D111  D(20,21,30,31)          0.7442         estimate D2E/DX2                !
 ! D112  D(20,21,30,63)       -179.0588         estimate D2E/DX2                !
 ! D113  D(22,21,30,31)       -179.4422         estimate D2E/DX2                !
 ! D114  D(22,21,30,63)          0.7547         estimate D2E/DX2                !
 ! D115  D(21,22,23,24)          0.343          estimate D2E/DX2                !
 ! D116  D(21,22,23,25)       -179.7458         estimate D2E/DX2                !
 ! D117  D(28,22,23,24)       -179.9912         estimate D2E/DX2                !
 ! D118  D(28,22,23,25)         -0.08           estimate D2E/DX2                !
 ! D119  D(21,22,28,27)        179.7358         estimate D2E/DX2                !
 ! D120  D(21,22,28,29)         -0.2657         estimate D2E/DX2                !
 ! D121  D(23,22,28,27)          0.0707         estimate D2E/DX2                !
 ! D122  D(23,22,28,29)       -179.9308         estimate D2E/DX2                !
 ! D123  D(22,23,24,54)        -59.41           estimate D2E/DX2                !
 ! D124  D(22,23,24,55)        179.9963         estimate D2E/DX2                !
 ! D125  D(22,23,24,56)         59.4296         estimate D2E/DX2                !
 ! D126  D(25,23,24,54)        120.6806         estimate D2E/DX2                !
 ! D127  D(25,23,24,55)          0.0868         estimate D2E/DX2                !
 ! D128  D(25,23,24,56)       -120.4799         estimate D2E/DX2                !
 ! D129  D(22,23,25,26)          0.0413         estimate D2E/DX2                !
 ! D130  D(22,23,25,57)        179.9964         estimate D2E/DX2                !
 ! D131  D(24,23,25,26)        179.9516         estimate D2E/DX2                !
 ! D132  D(24,23,25,57)         -0.0933         estimate D2E/DX2                !
 ! D133  D(23,25,26,27)          0.006          estimate D2E/DX2                !
 ! D134  D(23,25,26,58)        179.97           estimate D2E/DX2                !
 ! D135  D(57,25,26,27)       -179.9488         estimate D2E/DX2                !
 ! D136  D(57,25,26,58)          0.0151         estimate D2E/DX2                !
 ! D137  D(25,26,27,28)         -0.0157         estimate D2E/DX2                !
 ! D138  D(25,26,27,59)        179.9507         estimate D2E/DX2                !
 ! D139  D(58,26,27,28)       -179.9796         estimate D2E/DX2                !
 ! D140  D(58,26,27,59)         -0.0133         estimate D2E/DX2                !
 ! D141  D(26,27,28,22)         -0.0224         estimate D2E/DX2                !
 ! D142  D(26,27,28,29)        179.9791         estimate D2E/DX2                !
 ! D143  D(59,27,28,22)       -179.9889         estimate D2E/DX2                !
 ! D144  D(59,27,28,29)          0.0126         estimate D2E/DX2                !
 ! D145  D(22,28,29,60)        -61.1356         estimate D2E/DX2                !
 ! D146  D(22,28,29,61)         57.6553         estimate D2E/DX2                !
 ! D147  D(22,28,29,62)        178.3245         estimate D2E/DX2                !
 ! D148  D(27,28,29,60)        118.8629         estimate D2E/DX2                !
 ! D149  D(27,28,29,61)       -122.3462         estimate D2E/DX2                !
 ! D150  D(27,28,29,62)         -1.677          estimate D2E/DX2                !
 ! D151  D(21,30,31,32)          0.1306         estimate D2E/DX2                !
 ! D152  D(21,30,31,64)       -179.3471         estimate D2E/DX2                !
 ! D153  D(63,30,31,32)        179.9306         estimate D2E/DX2                !
 ! D154  D(63,30,31,64)          0.4528         estimate D2E/DX2                !
 ! D155  D(30,31,32,14)        179.6096         estimate D2E/DX2                !
 ! D156  D(30,31,32,19)         -1.1878         estimate D2E/DX2                !
 ! D157  D(64,31,32,14)         -0.9068         estimate D2E/DX2                !
 ! D158  D(64,31,32,19)        178.2958         estimate D2E/DX2                !
 ! D159  D(13,33,34,65)          2.6735         estimate D2E/DX2                !
 ! D160  D(35,33,34,65)       -178.1989         estimate D2E/DX2                !
 ! D161  D(13,33,35,36)          0.0969         estimate D2E/DX2                !
 ! D162  D(13,33,35,66)        179.7194         estimate D2E/DX2                !
 ! D163  D(34,33,35,36)       -179.0489         estimate D2E/DX2                !
 ! D164  D(34,33,35,66)          0.5736         estimate D2E/DX2                !
 ! D165  D(33,35,36,37)         -0.6598         estimate D2E/DX2                !
 ! D166  D(33,35,36,67)        179.5713         estimate D2E/DX2                !
 ! D167  D(66,35,36,37)        179.734          estimate D2E/DX2                !
 ! D168  D(66,35,36,67)         -0.035          estimate D2E/DX2                !
 ! D169  D(35,36,37,12)          0.2774         estimate D2E/DX2                !
 ! D170  D(35,36,37,38)       -179.6057         estimate D2E/DX2                !
 ! D171  D(67,36,37,12)       -179.9502         estimate D2E/DX2                !
 ! D172  D(67,36,37,38)          0.1668         estimate D2E/DX2                !
 ! D173  D(12,37,38,9)          -0.5418         estimate D2E/DX2                !
 ! D174  D(12,37,38,68)        179.6056         estimate D2E/DX2                !
 ! D175  D(36,37,38,9)         179.3411         estimate D2E/DX2                !
 ! D176  D(36,37,38,68)         -0.5115         estimate D2E/DX2                !
 --------------------------------------------------------------------------------
 Trust Radius=3.00D-01 FncErr=1.00D-07 GrdErr=1.00D-06 EigMax=2.50D+02 EigMin=1.00D-04
 Number of steps in this run=    381 maximum allowed number of steps=    408.
 GradGradGradGradGradGradGradGradGradGradGradGradGradGradGradGradGradGrad

 Leave Link  103 at Mon Mar 24 16:53:16 2025, MaxMem= 13421772800 cpu:               0.7 elap:               0.0
 (Enter /public/software/apps/Gaussian/g16/l202.exe)
 Symmetry turned off by external request.
 Stoichiometry    C36H30O2
 Framework group  C1[X(C36H30O2)]
 Deg. of freedom   198
 Full point group                 C1      NOp   1
                          Input orientation:                          
 ---------------------------------------------------------------------
 Center     Atomic      Atomic             Coordinates (Angstroms)
 Number     Number       Type             X           Y           Z
 ---------------------------------------------------------------------
      1          6           0       -4.477384    3.111563    1.107258
      2          6           0       -5.626930    2.434300    0.422673
      3          6           0       -6.839977    3.085808    0.252152
      4          6           0       -7.895468    2.454561   -0.380129
      5          6           0       -7.747489    1.162390   -0.850220
      6          6           0       -6.545716    0.487187   -0.693563
      7          6           0       -6.376511   -0.914225   -1.200017
      8          6           0       -5.486127    1.130334   -0.052967
      9          6           0       -4.196307    0.421770    0.118172
     10          6           0       -3.214200    0.508191   -0.887606
     11          6           0       -2.020119   -0.141580   -0.759402
     12          6           0       -1.738516   -0.920306    0.384688
     13          6           0       -0.508529   -1.611310    0.540597
     14          6           0        0.508373   -1.611195   -0.542853
     15          6           0        0.267725   -2.326838   -1.701265
     16          8           0       -0.887221   -3.011324   -1.909357
     17          6           0        1.239377   -2.387664   -2.718992
     18          6           0        2.432037   -1.743203   -2.574998
     19          6           0        2.714966   -0.992204   -1.414577
     20          6           0        3.937391   -0.313220   -1.248077
     21          6           0        4.195397    0.423413   -0.120940
     22          6           0        5.486035    1.129838    0.052847
     23          6           0        6.540115    0.486862    0.702658
     24          6           0        6.364815   -0.912471    1.212797
     25          6           0        7.742407    1.159972    0.864433
     26          6           0        7.896298    2.449906    0.390224
     27          6           0        6.846473    3.080742   -0.251896
     28          6           0        5.633075    2.431320   -0.427688
     29          6           0        4.489592    3.108459   -1.122459
     30          6           0        3.212743    0.510588    0.884282
     31          6           0        2.018696   -0.139188    0.756022
     32          6           0        1.737716   -0.918907   -0.387544
     33          6           0       -0.267191   -2.325717    1.699641
     34          8           0        0.888531   -3.008649    1.908504
     35          6           0       -1.238858   -2.386750    2.717344
     36          6           0       -2.432143   -1.743577    2.572781
     37          6           0       -2.715616   -0.993562    1.411867
     38          6           0       -3.938109   -0.314778    1.245344
     39          1           0       -3.606275    3.140989    0.453540
     40          1           0       -4.192765    2.564705    2.005696
     41          1           0       -4.740011    4.128785    1.386708
     42          1           0       -6.957104    4.096037    0.617606
     43          1           0       -8.835593    2.970972   -0.507459
     44          1           0       -8.573271    0.671242   -1.344834
     45          1           0       -6.121816   -1.587338   -0.381890
     46          1           0       -7.290483   -1.267090   -1.671001
     47          1           0       -5.566898   -0.962495   -1.927639
     48          1           0       -3.420300    1.102852   -1.766239
     49          1           0       -1.271008   -0.058111   -1.533854
     50          1           0       -1.484966   -2.873459   -1.161265
     51          1           0        1.005527   -2.962508   -3.600925
     52          1           0        3.178140   -1.797196   -3.353999
     53          1           0        4.679646   -0.379666   -2.031734
     54          1           0        5.550352   -0.956937    1.935212
     55          1           0        7.275013   -1.265538    1.690869
     56          1           0        6.114236   -1.587738    0.395149
     57          1           0        8.563657    0.668973    1.366678
     58          1           0        8.836542    2.964996    0.521948
     59          1           0        6.968519    4.089055   -0.621016
     60          1           0        4.207161    2.556901   -2.018679
     61          1           0        3.615475    3.145584   -0.473122
     62          1           0        4.757579    4.122830   -1.407166
     63          1           0        3.418458    1.105943    1.762538
     64          1           0        1.269308   -0.055242    1.530152
     65          1           0        1.486269   -2.870733    1.160419
     66          1           0       -1.004518   -2.960598    3.599794
     67          1           0       -3.178256   -1.797690    3.351767
     68          1           0       -4.680061   -0.380572    2.029342
 ---------------------------------------------------------------------
 Rotational constants (GHZ):           0.1932907           0.0445741           0.0412911
 Leave Link  202 at Mon Mar 24 16:53:16 2025, MaxMem= 13421772800 cpu:               0.3 elap:               0.0
 (Enter /public/software/apps/Gaussian/g16/l301.exe)
 Standard basis: def2SVPP (5D, 7F)
 Ernie: Thresh=  0.10000D-02 Tol=  0.10000D-05 Strict=F.
   592 basis functions,  1070 primitive gaussians,   630 cartesian basis functions
   131 alpha electrons      131 beta electrons
       nuclear repulsion energy      3826.0854243996 Hartrees.
 IExCor=  402 DFT=T Ex+Corr=B3LYP ExCW=0 ScaHFX=  0.200000
 ScaDFX=  0.800000  0.720000  1.000000  0.810000 ScalE2=  1.000000  1.000000
 IRadAn=      5 IRanWt=     -1 IRanGd=            0 ICorTp=0 IEmpDi=141
 NAtoms=   68 NActive=   68 NUniq=   68 SFac= 1.00D+00 NAtFMM=   60 NAOKFM=T Big=T
 Integral buffers will be    131072 words long.
 Raffenetti 2 integral format.
 Two-electron integral symmetry is turned off.
 R6Disp:  Grimme-D3(BJ) Dispersion energy=       -0.1770936678 Hartrees.
 Nuclear repulsion after empirical dispersion term =     3825.9083307318 Hartrees.
 Leave Link  301 at Mon Mar 24 16:53:16 2025, MaxMem= 13421772800 cpu:               1.2 elap:               0.0
 (Enter /public/software/apps/Gaussian/g16/l302.exe)
 NPDir=0 NMtPBC=     1 NCelOv=     1 NCel=       1 NClECP=     1 NCelD=      1
         NCelK=      1 NCelE2=     1 NClLst=     1 CellRange=     0.0.
 One-electron integrals computed using PRISM.
   1 Symmetry operations used in ECPInt.
 ECPInt:  NShTT=   41616 NPrTT=  166760 LenC2=   32458 LenP2D=   81503.
 LDataN:  DoStor=T MaxTD1= 4 Len=   56
 NBasis=   592 RedAO= T EigKep=  1.76D-04  NBF=   592
 NBsUse=   592 1.00D-06 EigRej= -1.00D+00 NBFU=   592
 Precomputing XC quadrature grid using
 IXCGrd= 4 IRadAn=           5 IRanWt=          -1 IRanGd=           0 AccXCQ= 0.00D+00.
 Generated NRdTot=       0 NPtTot=           0 NUsed=           0 NTot=          32
 NSgBfM=   601   592   594   600   601 MxSgAt=    68 MxSgA2=    68.
 Leave Link  302 at Mon Mar 24 16:53:17 2025, MaxMem= 13421772800 cpu:              23.7 elap:               0.8
 (Enter /public/software/apps/Gaussian/g16/l303.exe)
 DipDrv:  MaxL=1.
 Leave Link  303 at Mon Mar 24 16:53:17 2025, MaxMem= 13421772800 cpu:               2.5 elap:               0.1
 (Enter /public/software/apps/Gaussian/g16/l401.exe)
 ExpMin= 1.22D-01 ExpMax= 2.27D+03 ExpMxC= 3.41D+02 IAcc=3 IRadAn=         5 AccDes= 0.00D+00
 Harris functional with IExCor=  402 and IRadAn=       5 diagonalized for initial guess.
 HarFok:  IExCor=  402 AccDes= 0.00D+00 IRadAn=         5 IDoV= 1 UseB2=F ITyADJ=14
 ICtDFT=  3500011 ScaDFX=  1.000000  1.000000  1.000000  1.000000
 FoFCou: FMM=F IPFlag=           0 FMFlag=      100000 FMFlg1=        2001
         NFxFlg=           0 DoJE=T BraDBF=F KetDBF=T FulRan=T
         wScrn=  0.000000 ICntrl=       500 IOpCl=  0 I1Cent=   200000004 NGrid=           0
         NMat0=    1 NMatS0=      1 NMatT0=    0 NMatD0=    1 NMtDS0=    0 NMtDT0=    0
 Symmetry not used in FoFCou.
 Harris En= -1539.41257134796    
 JPrj=0 DoOrth=F DoCkMO=F.
 Leave Link  401 at Mon Mar 24 16:53:19 2025, MaxMem= 13421772800 cpu:              50.4 elap:               1.6
 (Enter /public/software/apps/Gaussian/g16/l502.exe)
 Two-electron integral symmetry not used.
 Closed shell SCF:
 Using DIIS extrapolation, IDIIS=  1040.
 NGot= 13421772800 LenX= 13420951852 LenY= 13420554322
 Requested convergence on RMS density matrix=1.00D-08 within 128 cycles.
 Requested convergence on MAX density matrix=1.00D-06.
 Requested convergence on             energy=1.00D-06.
 No special actions if energy rises.
 Fock matrices will be formed incrementally for  20 cycles.
 Integral accuracy reduced to 1.0D-05 until final iterations.

 Cycle   1  Pass 0  IDiag  1:
 FoFJK:  IHMeth= 1 ICntrl=       0 DoSepK=F KAlg= 0 I1Cent=           0 FoldK=F
 IRaf= 920000000 NMat=       1 IRICut=       1 DoRegI=T DoRafI=F ISym2E= 0 IDoP0=0 IntGTp=1.
 FoFCou: FMM=T IPFlag=           0 FMFlag=      100000 FMFlg1=        2001
         NFxFlg=           0 DoJE=F BraDBF=F KetDBF=F FulRan=T
         wScrn=  0.000000 ICntrl=         0 IOpCl=  0 I1Cent=           0 NGrid=           0
         NMat0=    1 NMatS0=      1 NMatT0=    0 NMatD0=    1 NMtDS0=    0 NMtDT0=    0
 Symmetry not used in FoFCou.
 FMM levels:  10  Number of levels for PrismC:   9
 E= -1538.56476136837    
 DIIS: error= 3.30D-02 at cycle   1 NSaved=   1.
 NSaved= 1 IEnMin= 1 EnMin= -1538.56476136837     IErMin= 1 ErrMin= 3.30D-02
 ErrMax= 3.30D-02  0.00D+00 EMaxC= 1.00D-01 BMatC= 7.09D-01 BMatP= 7.09D-01
 IDIUse=3 WtCom= 6.70D-01 WtEn= 3.30D-01
 Coeff-Com:  0.100D+01
 Coeff-En:   0.100D+01
 Coeff:      0.100D+01
 Gap=     0.177 Goal=   None    Shift=    0.000
 GapD=    0.177 DampG=1.000 DampE=0.500 DampFc=0.5000 IDamp=-1.
 Damping current iteration by 5.00D-01
 RMSDP=5.13D-03 MaxDP=1.68D-01              OVMax= 1.52D-01

 Cycle   2  Pass 0  IDiag  1:
 RMSU=  2.29D-03    CP:  9.36D-01
 E= -1538.96066577716     Delta-E=       -0.395904408787 Rises=F Damp=T
 DIIS: error= 3.82D-03 at cycle   2 NSaved=   2.
 NSaved= 2 IEnMin= 2 EnMin= -1538.96066577716     IErMin= 2 ErrMin= 3.82D-03
 ErrMax= 3.82D-03  0.00D+00 EMaxC= 1.00D-01 BMatC= 2.93D-02 BMatP= 7.09D-01
 IDIUse=3 WtCom= 9.62D-01 WtEn= 3.82D-02
 Coeff-Com:  0.122D-02 0.999D+00
 Coeff-En:   0.000D+00 0.100D+01
 Coeff:      0.117D-02 0.999D+00
 Gap=     0.189 Goal=   None    Shift=    0.000
 RMSDP=1.93D-03 MaxDP=1.14D-01 DE=-3.96D-01 OVMax= 1.41D-01

 Cycle   3  Pass 0  IDiag  1:
 RMSU=  1.68D-03    CP:  8.85D-01  1.12D+00
 E= -1539.34981643888     Delta-E=       -0.389150661719 Rises=F Damp=F
 DIIS: error= 6.24D-03 at cycle   3 NSaved=   3.
 NSaved= 3 IEnMin= 3 EnMin= -1539.34981643888     IErMin= 2 ErrMin= 3.82D-03
 ErrMax= 6.24D-03  0.00D+00 EMaxC= 1.00D-01 BMatC= 3.22D-02 BMatP= 2.93D-02
 IDIUse=3 WtCom= 9.38D-01 WtEn= 6.24D-02
 Coeff-Com: -0.338D-01 0.532D+00 0.502D+00
 Coeff-En:   0.000D+00 0.000D+00 0.100D+01
 Coeff:     -0.317D-01 0.499D+00 0.533D+00
 Gap=     0.167 Goal=   None    Shift=    0.000
 RMSDP=7.77D-04 MaxDP=4.70D-02 DE=-3.89D-01 OVMax= 9.43D-02

 Cycle   4  Pass 0  IDiag  1:
 RMSU=  6.45D-04    CP:  8.86D-01  1.21D+00  7.71D-01
 E= -1539.37010604119     Delta-E=       -0.020289602318 Rises=F Damp=F
 DIIS: error= 4.48D-03 at cycle   4 NSaved=   4.
 NSaved= 4 IEnMin= 4 EnMin= -1539.37010604119     IErMin= 2 ErrMin= 3.82D-03
 ErrMax= 4.48D-03  0.00D+00 EMaxC= 1.00D-01 BMatC= 1.38D-02 BMatP= 2.93D-02
 IDIUse=3 WtCom= 9.55D-01 WtEn= 4.48D-02
 Coeff-Com: -0.215D-01 0.158D+00 0.390D+00 0.473D+00
 Coeff-En:   0.000D+00 0.000D+00 0.344D+00 0.656D+00
 Coeff:     -0.205D-01 0.151D+00 0.388D+00 0.481D+00
 Gap=     0.158 Goal=   None    Shift=    0.000
 RMSDP=3.69D-04 MaxDP=2.43D-02 DE=-2.03D-02 OVMax= 4.50D-02

 Cycle   5  Pass 0  IDiag  1:
 RMSU=  1.87D-04    CP:  8.84D-01  1.19D+00  8.44D-01  5.53D-01
 E= -1539.38495717699     Delta-E=       -0.014851135797 Rises=F Damp=F
 DIIS: error= 1.14D-03 at cycle   5 NSaved=   5.
 NSaved= 5 IEnMin= 5 EnMin= -1539.38495717699     IErMin= 5 ErrMin= 1.14D-03
 ErrMax= 1.14D-03  0.00D+00 EMaxC= 1.00D-01 BMatC= 9.71D-04 BMatP= 1.38D-02
 IDIUse=3 WtCom= 9.89D-01 WtEn= 1.14D-02
 Coeff-Com: -0.972D-02 0.469D-01 0.195D+00 0.299D+00 0.469D+00
 Coeff-En:   0.000D+00 0.000D+00 0.000D+00 0.648D-03 0.999D+00
 Coeff:     -0.961D-02 0.463D-01 0.193D+00 0.295D+00 0.475D+00
 Gap=     0.157 Goal=   None    Shift=    0.000
 RMSDP=9.40D-05 MaxDP=3.25D-03 DE=-1.49D-02 OVMax= 1.13D-02

 Cycle   6  Pass 0  IDiag  1:
 RMSU=  7.53D-05    CP:  8.84D-01  1.19D+00  8.42D-01  5.90D-01  7.35D-01
 E= -1539.38594524164     Delta-E=       -0.000988064649 Rises=F Damp=F
 DIIS: error= 2.87D-04 at cycle   6 NSaved=   6.
 NSaved= 6 IEnMin= 6 EnMin= -1539.38594524164     IErMin= 6 ErrMin= 2.87D-04
 ErrMax= 2.87D-04  0.00D+00 EMaxC= 1.00D-01 BMatC= 8.23D-05 BMatP= 9.71D-04
 IDIUse=3 WtCom= 9.97D-01 WtEn= 2.87D-03
 Coeff-Com: -0.236D-02 0.404D-02 0.517D-01 0.930D-01 0.268D+00 0.586D+00
 Coeff-En:   0.000D+00 0.000D+00 0.000D+00 0.000D+00 0.503D-01 0.950D+00
 Coeff:     -0.235D-02 0.403D-02 0.515D-01 0.927D-01 0.267D+00 0.587D+00
 Gap=     0.157 Goal=   None    Shift=    0.000
 RMSDP=3.37D-05 MaxDP=9.39D-04 DE=-9.88D-04 OVMax= 3.01D-03

 Cycle   7  Pass 0  IDiag  1:
 RMSU=  2.67D-05    CP:  8.84D-01  1.19D+00  8.46D-01  5.92D-01  7.85D-01
                    CP:  7.76D-01
 E= -1539.38606796324     Delta-E=       -0.000122721595 Rises=F Damp=F
 DIIS: error= 8.49D-05 at cycle   7 NSaved=   7.
 NSaved= 7 IEnMin= 7 EnMin= -1539.38606796324     IErMin= 7 ErrMin= 8.49D-05
 ErrMax= 8.49D-05  0.00D+00 EMaxC= 1.00D-01 BMatC= 8.74D-06 BMatP= 8.23D-05
 IDIUse=1 WtCom= 1.00D+00 WtEn= 0.00D+00
 Coeff-Com: -0.765D-03-0.421D-03 0.172D-01 0.339D-01 0.123D+00 0.346D+00
 Coeff-Com:  0.481D+00
 Coeff:     -0.765D-03-0.421D-03 0.172D-01 0.339D-01 0.123D+00 0.346D+00
 Coeff:      0.481D+00
 Gap=     0.157 Goal=   None    Shift=    0.000
 RMSDP=1.57D-05 MaxDP=6.17D-04 DE=-1.23D-04 OVMax= 9.37D-04

 Cycle   8  Pass 0  IDiag  1:
 RMSU=  1.47D-05    CP:  8.84D-01  1.19D+00  8.46D-01  5.93D-01  7.60D-01
                    CP:  8.00D-01  1.05D+00
 E= -1539.38608374295     Delta-E=       -0.000015779719 Rises=F Damp=F
 DIIS: error= 3.23D-05 at cycle   8 NSaved=   8.
 NSaved= 8 IEnMin= 8 EnMin= -1539.38608374295     IErMin= 8 ErrMin= 3.23D-05
 ErrMax= 3.23D-05  0.00D+00 EMaxC= 1.00D-01 BMatC= 5.22D-07 BMatP= 8.74D-06
 IDIUse=1 WtCom= 1.00D+00 WtEn= 0.00D+00
 Coeff-Com: -0.214D-03-0.621D-03 0.543D-02 0.113D-01 0.464D-01 0.142D+00
 Coeff-Com:  0.254D+00 0.542D+00
 Coeff:     -0.214D-03-0.621D-03 0.543D-02 0.113D-01 0.464D-01 0.142D+00
 Coeff:      0.254D+00 0.542D+00
 Gap=     0.157 Goal=   None    Shift=    0.000
 RMSDP=1.22D-05 MaxDP=5.23D-04 DE=-1.58D-05 OVMax= 2.28D-04

 Cycle   9  Pass 0  IDiag  1:
 RMSU=  1.08D-05    CP:  8.84D-01  1.19D+00  8.47D-01  5.95D-01  7.62D-01
                    CP:  7.99D-01  1.21D+00  1.22D+00
 E= -1539.38609403465     Delta-E=       -0.000010291691 Rises=F Damp=F
 DIIS: error= 2.51D-05 at cycle   9 NSaved=   9.
 NSaved= 9 IEnMin= 9 EnMin= -1539.38609403465     IErMin= 9 ErrMin= 2.51D-05
 ErrMax= 2.51D-05  0.00D+00 EMaxC= 1.00D-01 BMatC= 1.91D-07 BMatP= 5.22D-07
 IDIUse=1 WtCom= 1.00D+00 WtEn= 0.00D+00
 Coeff-Com: -0.568D-04-0.335D-03 0.162D-02 0.349D-02 0.165D-01 0.547D-01
 Coeff-Com:  0.116D+00 0.363D+00 0.445D+00
 Coeff:     -0.568D-04-0.335D-03 0.162D-02 0.349D-02 0.165D-01 0.547D-01
 Coeff:      0.116D+00 0.363D+00 0.445D+00
 Gap=     0.157 Goal=   None    Shift=    0.000
 RMSDP=1.21D-05 MaxDP=5.19D-04 DE=-1.03D-05 OVMax= 7.83D-05

 Cycle  10  Pass 0  IDiag  1:
 RMSU=  9.50D-06    CP:  8.84D-01  1.19D+00  8.47D-01  5.95D-01  7.57D-01
                    CP:  7.96D-01  1.24D+00  1.60D+00  1.45D+00
 E= -1539.38610899016     Delta-E=       -0.000014955510 Rises=F Damp=F
 DIIS: error= 2.26D-05 at cycle  10 NSaved=  10.
 NSaved=10 IEnMin=10 EnMin= -1539.38610899016     IErMin=10 ErrMin= 2.26D-05
 ErrMax= 2.26D-05  0.00D+00 EMaxC= 1.00D-01 BMatC= 1.51D-07 BMatP= 1.91D-07
 IDIUse=1 WtCom= 1.00D+00 WtEn= 0.00D+00
 Coeff-Com: -0.568D-04-0.328D-03 0.161D-02 0.346D-02 0.163D-01 0.539D-01
 Coeff-Com:  0.114D+00 0.352D+00 0.428D+00 0.317D-01
 Coeff:     -0.568D-04-0.328D-03 0.161D-02 0.346D-02 0.163D-01 0.539D-01
 Coeff:      0.114D+00 0.352D+00 0.428D+00 0.317D-01
 Gap=     0.157 Goal=   None    Shift=    0.000
 RMSDP=7.93D-07 MaxDP=2.06D-05 DE=-1.50D-05 OVMax= 1.48D-06

 Initial convergence to 1.0D-05 achieved.  Increase integral accuracy.
 Cycle  11  Pass 1  IDiag  1:
 E= -1539.38566141724     Delta-E=        0.000447572916 Rises=F Damp=F
 DIIS: error= 8.71D-04 at cycle   1 NSaved=   1.
 NSaved= 1 IEnMin= 1 EnMin= -1539.38566141724     IErMin= 1 ErrMin= 8.71D-04
 ErrMax= 8.71D-04  0.00D+00 EMaxC= 1.00D-01 BMatC= 8.79D-05 BMatP= 8.79D-05
 IDIUse=3 WtCom= 9.91D-01 WtEn= 8.71D-03
 Coeff-Com:  0.100D+01
 Coeff-En:   0.100D+01
 Coeff:      0.100D+01
 Gap=     0.157 Goal=   None    Shift=    0.000
 RMSDP=7.93D-07 MaxDP=2.06D-05 DE= 4.48D-04 OVMax= 1.41D-03

 Cycle  12  Pass 1  IDiag  1:
 RMSU=  6.66D-04    CP:  9.98D-01
 E= -1539.38575340559     Delta-E=       -0.000091988352 Rises=F Damp=F
 DIIS: error= 9.46D-06 at cycle   2 NSaved=   2.
 NSaved= 2 IEnMin= 2 EnMin= -1539.38575340559     IErMin= 2 ErrMin= 9.46D-06
 ErrMax= 9.46D-06  0.00D+00 EMaxC= 1.00D-01 BMatC= 1.92D-08 BMatP= 8.79D-05
 IDIUse=1 WtCom= 1.00D+00 WtEn= 0.00D+00
 Coeff-Com: -0.980D-02 0.101D+01
 Coeff:     -0.980D-02 0.101D+01
 Gap=     0.157 Goal=   None    Shift=    0.000
 RMSDP=8.95D-06 MaxDP=2.42D-04 DE=-9.20D-05 OVMax= 6.86D-05

 Cycle  13  Pass 1  IDiag  1:
 RMSU=  2.61D-06    CP:  9.98D-01  1.01D+00
 E= -1539.38575341591     Delta-E=       -0.000000010314 Rises=F Damp=F
 DIIS: error= 3.94D-06 at cycle   3 NSaved=   3.
 NSaved= 3 IEnMin= 3 EnMin= -1539.38575341591     IErMin= 3 ErrMin= 3.94D-06
 ErrMax= 3.94D-06  0.00D+00 EMaxC= 1.00D-01 BMatC= 1.79D-08 BMatP= 1.92D-08
 IDIUse=1 WtCom= 1.00D+00 WtEn= 0.00D+00
 Coeff-Com: -0.571D-02 0.578D+00 0.428D+00
 Coeff:     -0.571D-02 0.578D+00 0.428D+00
 Gap=     0.157 Goal=   None    Shift=    0.000
 RMSDP=4.38D-07 MaxDP=1.75D-05 DE=-1.03D-08 OVMax= 5.37D-05

 Cycle  14  Pass 1  IDiag  1:
 RMSU=  4.31D-07    CP:  9.98D-01  1.01D+00  9.76D-01
 E= -1539.38575343311     Delta-E=       -0.000000017201 Rises=F Damp=F
 DIIS: error= 1.55D-06 at cycle   4 NSaved=   4.
 NSaved= 4 IEnMin= 4 EnMin= -1539.38575343311     IErMin= 4 ErrMin= 1.55D-06
 ErrMax= 1.55D-06  0.00D+00 EMaxC= 1.00D-01 BMatC= 2.22D-09 BMatP= 1.79D-08
 IDIUse=1 WtCom= 1.00D+00 WtEn= 0.00D+00
 Coeff-Com: -0.166D-02 0.165D+00 0.264D+00 0.573D+00
 Coeff:     -0.166D-02 0.165D+00 0.264D+00 0.573D+00
 Gap=     0.157 Goal=   None    Shift=    0.000
 RMSDP=1.78D-07 MaxDP=1.31D-05 DE=-1.72D-08 OVMax= 2.46D-05

 Cycle  15  Pass 1  IDiag  1:
 RMSU=  1.20D-07    CP:  9.98D-01  1.01D+00  9.98D-01  7.39D-01
 E= -1539.38575343512     Delta-E=       -0.000000002012 Rises=F Damp=F
 DIIS: error= 7.24D-07 at cycle   5 NSaved=   5.
 NSaved= 5 IEnMin= 5 EnMin= -1539.38575343512     IErMin= 5 ErrMin= 7.24D-07
 ErrMax= 7.24D-07  0.00D+00 EMaxC= 1.00D-01 BMatC= 4.84D-10 BMatP= 2.22D-09
 IDIUse=1 WtCom= 1.00D+00 WtEn= 0.00D+00
 Coeff-Com: -0.113D-03 0.943D-02 0.102D+00 0.382D+00 0.507D+00
 Coeff:     -0.113D-03 0.943D-02 0.102D+00 0.382D+00 0.507D+00
 Gap=     0.157 Goal=   None    Shift=    0.000
 RMSDP=6.74D-08 MaxDP=5.10D-06 DE=-2.01D-09 OVMax= 7.65D-06

 Cycle  16  Pass 1  IDiag  1:
 RMSU=  4.30D-08    CP:  9.98D-01  1.01D+00  1.00D+00  7.93D-01  6.30D-01
 E= -1539.38575343561     Delta-E=       -0.000000000492 Rises=F Damp=F
 DIIS: error= 1.94D-07 at cycle   6 NSaved=   6.
 NSaved= 6 IEnMin= 6 EnMin= -1539.38575343561     IErMin= 6 ErrMin= 1.94D-07
 ErrMax= 1.94D-07  0.00D+00 EMaxC= 1.00D-01 BMatC= 4.56D-11 BMatP= 4.84D-10
 IDIUse=1 WtCom= 1.00D+00 WtEn= 0.00D+00
 Coeff-Com:  0.249D-04-0.369D-02 0.493D-01 0.209D+00 0.328D+00 0.417D+00
 Coeff:      0.249D-04-0.369D-02 0.493D-01 0.209D+00 0.328D+00 0.417D+00
 Gap=     0.157 Goal=   None    Shift=    0.000
 RMSDP=2.13D-08 MaxDP=7.37D-07 DE=-4.92D-10 OVMax= 1.55D-06

 Cycle  17  Pass 1  IDiag  1:
 RMSU=  9.17D-09    CP:  9.98D-01  1.01D+00  1.00D+00  7.88D-01  6.19D-01
                    CP:  5.60D-01
 E= -1539.38575343560     Delta-E=        0.000000000008 Rises=F Damp=F
 DIIS: error= 3.43D-08 at cycle   7 NSaved=   7.
 NSaved= 7 IEnMin= 6 EnMin= -1539.38575343561     IErMin= 7 ErrMin= 3.43D-08
 ErrMax= 3.43D-08  0.00D+00 EMaxC= 1.00D-01 BMatC= 1.58D-12 BMatP= 4.56D-11
 IDIUse=1 WtCom= 1.00D+00 WtEn= 0.00D+00
 Coeff-Com:  0.224D-04-0.280D-02 0.217D-01 0.949D-01 0.154D+00 0.230D+00
 Coeff-Com:  0.503D+00
 Coeff:      0.224D-04-0.280D-02 0.217D-01 0.949D-01 0.154D+00 0.230D+00
 Coeff:      0.503D+00
 Gap=     0.157 Goal=   None    Shift=    0.000
 RMSDP=3.86D-09 MaxDP=1.24D-07 DE= 8.19D-12 OVMax= 3.23D-07

 SCF Done:  E(RB3LYP) =  -1539.38575344     A.U. after   17 cycles
            NFock= 17  Conv=0.39D-08     -V/T= 2.0095
 KE= 1.524827714447D+03 PE=-1.121983544846D+04 EE= 4.329713649841D+03
 Leave Link  502 at Mon Mar 24 16:54:05 2025, MaxMem= 13421772800 cpu:            1465.7 elap:              46.7
 (Enter /public/software/apps/Gaussian/g16/l601.exe)
 Copying SCF densities to generalized density rwf, IOpCl= 0 IROHF=0.

 **********************************************************************

            Population analysis using the SCF Density.

 **********************************************************************

 Alpha  occ. eigenvalues --  -19.16536 -19.16528 -10.25753 -10.25752 -10.20414
 Alpha  occ. eigenvalues --  -10.20411 -10.19946 -10.19927 -10.19776 -10.19775
 Alpha  occ. eigenvalues --  -10.19695 -10.19694 -10.19409 -10.19409 -10.19201
 Alpha  occ. eigenvalues --  -10.19200 -10.18953 -10.18952 -10.18895 -10.18893
 Alpha  occ. eigenvalues --  -10.18870 -10.18870 -10.18864 -10.18863 -10.18840
 Alpha  occ. eigenvalues --  -10.18838 -10.18366 -10.18365 -10.17839 -10.17839
 Alpha  occ. eigenvalues --  -10.17510 -10.17509 -10.17507 -10.17506 -10.17121
 Alpha  occ. eigenvalues --  -10.17120 -10.17084 -10.17082  -1.06002  -1.05723
 Alpha  occ. eigenvalues --   -0.88931  -0.88168  -0.86381  -0.86048  -0.82893
 Alpha  occ. eigenvalues --   -0.82434  -0.80051  -0.77771  -0.77770  -0.77634
 Alpha  occ. eigenvalues --   -0.76845  -0.75839  -0.74275  -0.73466  -0.72513
 Alpha  occ. eigenvalues --   -0.71178  -0.68546  -0.68533  -0.67350  -0.67350
 Alpha  occ. eigenvalues --   -0.65648  -0.64133  -0.62536  -0.62213  -0.61823
 Alpha  occ. eigenvalues --   -0.58976  -0.58575  -0.58524  -0.56952  -0.56952
 Alpha  occ. eigenvalues --   -0.55300  -0.55185  -0.52958  -0.52946  -0.52019
 Alpha  occ. eigenvalues --   -0.50940  -0.49405  -0.49072  -0.48061  -0.48060
 Alpha  occ. eigenvalues --   -0.47010  -0.46959  -0.45562  -0.45456  -0.45259
 Alpha  occ. eigenvalues --   -0.44123  -0.43694  -0.43329  -0.43223  -0.42352
 Alpha  occ. eigenvalues --   -0.42295  -0.42256  -0.42210  -0.41642  -0.41639
 Alpha  occ. eigenvalues --   -0.41447  -0.41312  -0.40544  -0.40540  -0.40532
 Alpha  occ. eigenvalues --   -0.40532  -0.40213  -0.39581  -0.38969  -0.38750
 Alpha  occ. eigenvalues --   -0.38327  -0.38114  -0.37496  -0.37406  -0.36845
 Alpha  occ. eigenvalues --   -0.36506  -0.35429  -0.34748  -0.34544  -0.34375
 Alpha  occ. eigenvalues --   -0.34327  -0.33482  -0.33005  -0.32848  -0.31931
 Alpha  occ. eigenvalues --   -0.31585  -0.29991  -0.28527  -0.24735  -0.24640
 Alpha  occ. eigenvalues --   -0.24429  -0.24419  -0.24142  -0.24142  -0.22425
 Alpha  occ. eigenvalues --   -0.21343
 Alpha virt. eigenvalues --   -0.05620  -0.04621  -0.01884  -0.01397  -0.00491
 Alpha virt. eigenvalues --   -0.00489   0.00269   0.00310   0.01022   0.02243
 Alpha virt. eigenvalues --    0.05901   0.06266   0.06658   0.07108   0.07166
 Alpha virt. eigenvalues --    0.07586   0.07935   0.08149   0.08639   0.08699
 Alpha virt. eigenvalues --    0.09564   0.09630   0.09681   0.09763   0.10817
 Alpha virt. eigenvalues --    0.11110   0.11814   0.11909   0.12756   0.12759
 Alpha virt. eigenvalues --    0.13225   0.13427   0.15291   0.15403   0.15527
 Alpha virt. eigenvalues --    0.15679   0.15841   0.15909   0.16291   0.16305
 Alpha virt. eigenvalues --    0.16840   0.16841   0.18121   0.18604   0.18740
 Alpha virt. eigenvalues --    0.19096   0.19881   0.21444   0.21581   0.22831
 Alpha virt. eigenvalues --    0.23997   0.24170   0.24531   0.24539   0.26152
 Alpha virt. eigenvalues --    0.26418   0.26504   0.27721   0.28777   0.28874
 Alpha virt. eigenvalues --    0.29203   0.29638   0.30093   0.31412   0.32084
 Alpha virt. eigenvalues --    0.32085   0.32250   0.32368   0.32658   0.33322
 Alpha virt. eigenvalues --    0.33500   0.34297   0.34303   0.35064   0.35104
 Alpha virt. eigenvalues --    0.35382   0.35871   0.35955   0.36309   0.36714
 Alpha virt. eigenvalues --    0.38064   0.38277   0.38878   0.39016   0.39092
 Alpha virt. eigenvalues --    0.39308   0.39986   0.40223   0.41621   0.42145
 Alpha virt. eigenvalues --    0.42679   0.43568   0.43645   0.43693   0.44120
 Alpha virt. eigenvalues --    0.44612   0.44627   0.44820   0.44826   0.45137
 Alpha virt. eigenvalues --    0.45140   0.45791   0.46164   0.46576   0.46598
 Alpha virt. eigenvalues --    0.47133   0.47382   0.48029   0.48140   0.48497
 Alpha virt. eigenvalues --    0.48745   0.49293   0.49551   0.50037   0.50202
 Alpha virt. eigenvalues --    0.50214   0.50697   0.50917   0.51247   0.51303
 Alpha virt. eigenvalues --    0.52641   0.52690   0.52911   0.53812   0.54305
 Alpha virt. eigenvalues --    0.54868   0.55590   0.55727   0.56325   0.56500
 Alpha virt. eigenvalues --    0.57252   0.57594   0.58376   0.59211   0.59433
 Alpha virt. eigenvalues --    0.60526   0.60640   0.61105   0.61771   0.62066
 Alpha virt. eigenvalues --    0.62136   0.62572   0.62960   0.63062   0.64698
 Alpha virt. eigenvalues --    0.65615   0.66118   0.66128   0.66265   0.66471
 Alpha virt. eigenvalues --    0.66713   0.66741   0.67317   0.67740   0.67966
 Alpha virt. eigenvalues --    0.68034   0.68094   0.68573   0.68638   0.68911
 Alpha virt. eigenvalues --    0.69241   0.69411   0.69501   0.70035   0.70238
 Alpha virt. eigenvalues --    0.70379   0.70452   0.70560   0.70941   0.71895
 Alpha virt. eigenvalues --    0.71967   0.72223   0.72359   0.72899   0.73231
 Alpha virt. eigenvalues --    0.73311   0.73550   0.74140   0.74612   0.74921
 Alpha virt. eigenvalues --    0.75014   0.75277   0.75531   0.75915   0.76089
 Alpha virt. eigenvalues --    0.76520   0.76698   0.77026   0.77107   0.77327
 Alpha virt. eigenvalues --    0.77592   0.77845   0.78839   0.79003   0.79229
 Alpha virt. eigenvalues --    0.79490   0.79730   0.80455   0.80740   0.80836
 Alpha virt. eigenvalues --    0.81596   0.81748   0.82119   0.82363   0.82634
 Alpha virt. eigenvalues --    0.83166   0.83459   0.84262   0.84704   0.85182
 Alpha virt. eigenvalues --    0.85769   0.86092   0.86770   0.86927   0.87479
 Alpha virt. eigenvalues --    0.87767   0.89015   0.91309   0.91870   0.93893
 Alpha virt. eigenvalues --    0.93943   0.94332   0.94590   0.95542   0.95865
 Alpha virt. eigenvalues --    0.97543   0.98171   1.00752   1.03301   1.04096
 Alpha virt. eigenvalues --    1.04730   1.06008   1.06243   1.08900   1.09407
 Alpha virt. eigenvalues --    1.10787   1.11810   1.13581   1.14056   1.14690
 Alpha virt. eigenvalues --    1.15125   1.16107   1.16196   1.16981   1.18266
 Alpha virt. eigenvalues --    1.19753   1.22483   1.22706   1.23466   1.23917
 Alpha virt. eigenvalues --    1.24033   1.24884   1.25348   1.25790   1.26049
 Alpha virt. eigenvalues --    1.26594   1.26971   1.27672   1.31431   1.31474
 Alpha virt. eigenvalues --    1.33382   1.34619   1.35264   1.36940   1.37030
 Alpha virt. eigenvalues --    1.37747   1.38870   1.38906   1.39946   1.41107
 Alpha virt. eigenvalues --    1.41258   1.41436   1.41639   1.43220   1.44616
 Alpha virt. eigenvalues --    1.45346   1.46228   1.46518   1.46698   1.47462
 Alpha virt. eigenvalues --    1.47607   1.47997   1.48524   1.48718   1.49210
 Alpha virt. eigenvalues --    1.50025   1.50143   1.50623   1.51281   1.52215
 Alpha virt. eigenvalues --    1.53987   1.57412   1.58632   1.59195   1.65431
 Alpha virt. eigenvalues --    1.66037   1.67767   1.68046   1.70520   1.70629
 Alpha virt. eigenvalues --    1.71890   1.72394   1.73431   1.74074   1.74756
 Alpha virt. eigenvalues --    1.75595   1.76866   1.76878   1.77329   1.77871
 Alpha virt. eigenvalues --    1.78464   1.79278   1.79316   1.80440   1.80658
 Alpha virt. eigenvalues --    1.81102   1.82387   1.84431   1.85086   1.85159
 Alpha virt. eigenvalues --    1.85442   1.85531   1.86738   1.86788   1.88381
 Alpha virt. eigenvalues --    1.88383   1.88812   1.89207   1.90019   1.90248
 Alpha virt. eigenvalues --    1.91857   1.92212   1.93544   1.93842   1.95453
 Alpha virt. eigenvalues --    1.95728   1.96513   1.96519   1.97460   1.98270
 Alpha virt. eigenvalues --    2.01291   2.01371   2.04008   2.04647   2.05018
 Alpha virt. eigenvalues --    2.05466   2.06179   2.06203   2.07751   2.07795
 Alpha virt. eigenvalues --    2.08888   2.10407   2.10493   2.11203   2.11706
 Alpha virt. eigenvalues --    2.11883   2.12123   2.12236   2.12990   2.13349
 Alpha virt. eigenvalues --    2.16514   2.16610   2.17622   2.17918   2.18617
 Alpha virt. eigenvalues --    2.19344   2.20037   2.20206   2.20390   2.20596
 Alpha virt. eigenvalues --    2.22555   2.23295   2.23716   2.23894   2.24580
 Alpha virt. eigenvalues --    2.25295   2.25896   2.25951   2.26758   2.27583
 Alpha virt. eigenvalues --    2.27698   2.28925   2.29308   2.31791   2.32510
 Alpha virt. eigenvalues --    2.34159   2.34200   2.34622   2.35523   2.35596
 Alpha virt. eigenvalues --    2.36531   2.36563   2.37121   2.37615   2.38176
 Alpha virt. eigenvalues --    2.38388   2.40115   2.43715   2.43800   2.44967
 Alpha virt. eigenvalues --    2.47140   2.49304   2.49388   2.51425   2.53151
 Alpha virt. eigenvalues --    2.54458   2.55405   2.55411   2.55702   2.56244
 Alpha virt. eigenvalues --    2.57834   2.61181   2.61382   2.61924   2.63228
 Alpha virt. eigenvalues --    2.63410   2.63734   2.63980   2.65245   2.67193
 Alpha virt. eigenvalues --    2.67952   2.68053   2.69252   2.70810   2.70986
 Alpha virt. eigenvalues --    2.71130   2.71813   2.71964   2.73164   2.78316
 Alpha virt. eigenvalues --    2.78323   2.80524   2.80744   2.82855   2.82864
 Alpha virt. eigenvalues --    2.83404   2.84597   2.87307   2.88431   2.89850
 Alpha virt. eigenvalues --    2.91320   2.92763   2.94053   2.95414   2.97097
 Alpha virt. eigenvalues --    2.97250   2.98732   3.04665   3.05669   3.12626
 Alpha virt. eigenvalues --    3.12634   3.19673   3.20564   3.30801   3.33377
 Alpha virt. eigenvalues --    3.40464   3.40844   3.46457   3.46611   3.55771
 Alpha virt. eigenvalues --    3.61198
          Condensed to atoms (all electrons):
 Mulliken charges:
               1
     1  C   -0.117428
     2  C   -0.025714
     3  C   -0.150816
     4  C   -0.008201
     5  C   -0.151007
     6  C   -0.025140
     7  C   -0.117564
     8  C    0.037757
     9  C    0.025793
    10  C   -0.054917
    11  C   -0.163927
    12  C    0.101892
    13  C   -0.118139
    14  C   -0.118085
    15  C    0.199473
    16  O   -0.362282
    17  C   -0.123211
    18  C   -0.116604
    19  C    0.175466
    20  C   -0.201009
    21  C    0.025874
    22  C    0.037786
    23  C   -0.025230
    24  C   -0.117521
    25  C   -0.150947
    26  C   -0.008203
    27  C   -0.150858
    28  C   -0.025638
    29  C   -0.117585
    30  C   -0.054948
    31  C   -0.163995
    32  C    0.101877
    33  C    0.199498
    34  O   -0.362288
    35  C   -0.123222
    36  C   -0.116594
    37  C    0.175504
    38  C   -0.201042
    39  H    0.095477
    40  H    0.094065
    41  H    0.085369
    42  H    0.025835
    43  H    0.039821
    44  H    0.025878
    45  H    0.093540
    46  H    0.085867
    47  H    0.094653
[...]
 00135,-0.00000326,-0.00000191,0.00000028,0.00000065,-0.00000074,0.0000
 0016,0.00000069,-0.00000093,-0.00000023,0.00000080,0.00000059,-0.00000
 011,-0.00000284,0.00000086,0.00000205,0.00000165,-0.00000096,-0.000000
 77,0.00000049,-0.00001079,-0.00001248,0.00000049,0.00003524,-0.0000038
 1,0.00001252,-0.00018411,-0.00027811,-0.00017189,-0.04325449,0.1213112
 4,0.00000740,0.00000021,0.00000246,-0.00000293,-0.00000527,-0.00000857
 ,-0.00000254,0.00000051,-0.00000090,-0.00000082,0.00000200,0.00000060,
 -0.00000345,-0.00000709,-0.00000245,-0.00001390,0.00001796,0.00000568,
 -0.00000384,0.00000738,0.00000184,0.00001126,-0.00003075,-0.00001761,-
 0.00022754,-0.00025942,0.00008132,0.00016250,-0.00000542,-0.00001228,-
 0.00018462,-0.00010710,-0.00016708,0.00056972,-0.00073307,0.00047824,0
 .00426482,0.00031532,-0.00081573,-0.00057324,0.00045455,-0.00050319,0.
 00036366,0.00017381,-0.00006154,-0.00016877,-0.00010742,-0.00005083,-0
 .00005489,-0.00008422,0.00002782,0.00005973,0.00003164,-0.00000481,0.0
 0006055,-0.00003725,-0.00005508,0.00000916,-0.00000025,0.00000221,0.00
 000410,0.00000096,-0.00001439,-0.00001615,-0.00001092,-0.00000085,0.00
 000291,0.00001516,-0.00000423,0.00000096,-0.00000401,-0.00000039,0.000
 00093,-0.00000437,0.00000242,0.00000184,0.00000172,-0.00000018,0.00000
 154,-0.00000051,0.00000072,0.00000462,0.00000048,0.00000166,-0.0000011
 4,0.00000017,-0.00000058,-0.00000412,-0.00000058,0.00002380,0.00001333
 ,0.00005918,0.00003554,-0.00002750,-0.00018801,-0.00006669,-0.00806960
 ,0.01433561,-0.01493564,-0.00139805,-0.00135788,0.00121622,-0.04333983
 ,0.13054306,-0.24615532,0.00087815,0.00049780,0.00217069,0.00142167,0.
 00222533,0.00302320,0.00002554,0.00021263,-0.00007037,-0.00000227,-0.0
 0000072,0.00000407,-0.00000058,0.00000043,-0.00000418,-0.00000212,0.00
 000267,-0.00000055,-0.00000123,0.00000121,0.00000048,-0.00000137,0.000
 00072,-0.00000057,-0.00000395,0.00000064,-0.00000148,0.00000342,0.0000
 0163,0.00000238,-0.00000363,0.,-0.00000289,0.00000637,0.00000110,0.000
 00049,-0.00000048,0.00001601,-0.00000220,0.00002313,0.00001020,0.00001
 246,0.00004243,0.00007493,0.00003031,0.00001748,-0.00000296,-0.0000219
 9,0.00000271,0.00001019,-0.00000638,0.00000704,0.00000160,-0.00000361,
 -0.00000218,0.00000395,-0.00000113,0.00000494,0.00000047,0.00000182,-0
 .00000170,0.00000247,-0.00000219,0.00000324,0.00000013,0.00000105,0.00
 000134,0.00000043,0.00000031,0.00000097,0.00000129,-0.00000021,-0.0000
 0058,-0.00000175,0.00000390,0.00000136,-0.00000395,-0.00000130,0.00000
 243,0.00000234,0.00000007,0.00000500,0.00000611,0.00000427,-0.00002554
 ,0.00000143,-0.00002121,-0.00007214,-0.00022494,0.00007542,0.04749725,
 -0.14391909,0.25613094,-0.00000278,-0.00001273,0.00001345,0.00002884,0
 .00002153,0.00001801,-0.00000541,-0.00000516,-0.00000596,0.00000718,-0
 .00000238,0.00000220,0.00000341,0.00000221,-0.00000321,0.00001714,-0.0
 0003533,0.00000333,-0.00000099,0.00000273,0.00000155,-0.00003907,0.000
 07965,0.00003510,0.00002125,-0.00024697,0.00038731,0.00028335,-0.00011
 054,-0.00016031,0.00010823,0.00013172,-0.00035466,0.00110083,0.0020115
 3,-0.00045192,-0.00016143,-0.00006284,-0.00058211,-0.00010825,-0.00030
 417,-0.00011791,-0.00003020,-0.00001226,-0.00003575,0.00003715,0.00002
 244,0.00002114,0.00000894,0.00000255,-0.00002519,-0.00002115,-0.000016
 67,0.00000363,-0.00000771,0.00000047,0.00000885,-0.00001352,-0.0000048
 8,-0.00000551,-0.00000378,0.00000780,0.00001434,0.00001767,0.00001016,
 0.00000232,-0.00000389,-0.00000630,0.00000062,-0.00000009,0.00000084,-
 0.00000020,-0.00000080,-0.00000073,-0.00000130,-0.00000221,-0.00000158
 ,-0.00000087,-0.00000070,-0.00000194,-0.00000030,-0.00000671,0.0000008
 0,-0.00000363,0.00000028,-0.00000050,0.00000132,0.00002171,0.00000612,
 0.00000215,-0.00002607,-0.00003965,-0.00000264,0.00002356,0.00005385,0
 .00007710,-0.00103346,0.00529707,-0.00102889,-0.00102166,-0.00011006,0
 .00122225,-0.01411061,-0.00209739,0.02153448,-0.18617474,-0.00329036,0
 .14106337,0.00670021,0.00114657,-0.00460012,0.00013836,-0.00048071,-0.
 00199479,0.00000151,0.00000481,-0.00000363,-0.00000228,0.00001111,0.00
 000411,0.00000513,-0.00000861,-0.00000397,0.00000444,-0.00000756,-0.00
 000027,0.00000280,-0.00000288,0.00000092,0.00000643,-0.00000089,0.0000
 0181,-0.00001042,-0.00000964,-0.00000151,0.00000888,-0.00000102,0.0000
 0248,-0.00000141,-0.00000356,-0.00000720,0.00000329,0.00000784,0.00002
 352,0.00002953,0.00010314,-0.00004180,-0.00001491,-0.00001953,-0.00002
 008,-0.00000035,0.00000309,0.00000270,-0.00000389,-0.00000081,0.000002
 32,-0.00000515,0.00000012,0.00000286,0.00000295,0.00000098,0.00000661,
 -0.00000583,-0.00000061,-0.00000082,0.00000464,-0.00000347,-0.00000306
 ,-0.00000305,0.00000085,-0.00000056,-0.00000243,-0.00000112,0.00000031
 ,-0.00000141,-0.00000227,0.00000122,0.00000127,0.00000147,-0.00000483,
 -0.00000035,0.00000523,0.00000190,-0.00000317,-0.00000359,0.00000076,-
 0.00000571,-0.00000482,-0.00000391,0.00001247,0.00003188,0.00002134,-0
 .00030815,0.00011186,-0.00013139,0.00032198,-0.00203716,-0.00129537,0.
 19412999,-0.00000167,-0.00002058,0.00002261,-0.00000722,0.00002657,-0.
 00001216,-0.00000654,-0.00000759,-0.00000189,0.00000016,0.00000235,0.0
 0000142,0.00000227,-0.00000546,-0.00000493,0.00001744,0.00001156,0.000
 01815,-0.00000163,0.00000602,-0.00001077,0.00006622,0.00010634,0.00005
 489,0.00012113,0.00003274,-0.00029967,-0.00018467,-0.00002907,-0.00002
 222,-0.00069158,0.00008337,0.00047870,0.00276746,0.00143909,0.00363771
 ,0.00006154,-0.00078299,-0.00022918,-0.00032208,-0.00051434,-0.0003337
 4,0.00012032,0.00008439,-0.00003517,-0.00003881,-0.00001201,-0.0000063
 5,-0.00000708,-0.00000920,-0.00003339,-0.00000214,-0.00001632,-0.00000
 281,-0.00002283,-0.00000931,0.00000464,-0.00000250,0.00000301,0.000000
 61,-0.00000500,-0.00000187,0.00000265,-0.00000174,-0.00000148,-0.00000
 174,0.00000052,0.00000078,-0.00000048,-0.00000128,-0.00000023,0.000000
 81,-0.00000026,0.00000010,-0.00000063,0.00000006,-0.00000002,-0.000000
 30,0.00000075,-0.00000050,-0.00000004,0.00000015,-0.00000002,-0.000000
 55,-0.00000096,0.00000009,0.00000077,0.00000601,-0.00000166,-0.0000001
 3,-0.00001838,-0.00001092,0.00000998,-0.00004838,0.00005701,0.00006600
 ,0.00471151,0.00462930,0.00379794,0.00055967,0.00013885,-0.00062066,0.
 01127531,0.00542210,-0.01108808,-0.00355371,-0.04608463,0.01708260,-0.
 01122263,0.00335966,0.01184770,-0.00209866,-0.00158549,-0.00086964,0.0
 0000028,0.00000191,-0.00000735,-0.00000526,-0.00000617,-0.00000722,-0.
 00000242,0.00000318,-0.00000625,-0.00000094,-0.00000068,0.00000182,-0.
 00000301,-0.00000026,-0.00000087,-0.00000382,-0.00000156,-0.00000270,0
 .00000224,-0.00000107,0.00000826,-0.00000429,-0.00000228,-0.00000322,-
 0.00000153,-0.00000655,-0.00000466,0.00004741,0.00002498,-0.00000567,0
 .00013915,-0.00001955,0.00024552,0.00005574,-0.00000617,0.00003879,0.0
 0000799,0.00000171,-0.00001021,0.00000081,0.00000016,-0.00000075,-0.00
 000155,-0.00000011,-0.00000172,-0.00000037,0.00000030,-0.00000134,0.00
 000154,0.00000041,0.00000041,-0.00000101,0.00000027,-0.00000005,0.0000
 0044,-0.00000018,0.00000061,0.00000040,0.00000047,0.00000033,-0.000000
 22,0.00000039,0.00000026,0.00000016,-0.00000076,0.00000018,0.00000102,
 -0.00000018,-0.00000002,0.00000020,0.00000044,0.00000035,-0.00000337,-
 0.00000076,-0.00000026,0.00000800,-0.00000966,0.00001097,0.00007445,-0
 .00029617,-0.00005423,-0.00236673,-0.00315755,-0.00200252,-0.00000498,
 0.03719084,0.00000236,0.00001216,-0.00001169,-0.00002229,0.00000721,-0
 .00000481,-0.00000402,0.00000224,0.00000707,-0.00000576,0.00000478,-0.
 00000090,-0.00000419,-0.00000724,-0.00000086,0.00000021,0.00001089,0.0
 0001663,-0.00000391,0.00000977,-0.00003357,0.00005709,0.00004093,0.000
 03789,-0.00027564,0.00003950,0.00012452,-0.00003621,-0.00009214,0.0000
 7187,0.00124788,-0.00031995,-0.00055912,-0.00186706,0.00429061,-0.0018
 0697,-0.00082028,-0.00006779,0.00005960,-0.00008286,-0.00029981,-0.000
 14318,0.00002318,0.00005900,-0.00000555,0.00001210,-0.00005777,-0.0000
 0537,0.00000104,0.00000544,-0.00000312,0.00000674,-0.00001260,-0.00000
 458,-0.00001106,0.00000177,-0.00001046,-0.00000621,0.00000170,0.000001
 19,-0.00000462,0.00000015,0.00000214,-0.00000682,-0.00000349,-0.000001
 18,0.00000121,0.00000229,-0.00000077,-0.00000065,-0.00000041,0.0000006
 8,0.00000059,0.00000006,0.00000004,0.00000058,0.00000034,0.00000004,0.
 00000071,-0.00000002,0.00000023,0.00000213,0.00000034,0.00000055,-0.00
 000047,-0.00000017,0.00000023,0.00000327,-0.00000151,0.00000441,-0.000
 00853,-0.00000522,0.00000911,-0.00003563,-0.00002678,0.00003217,0.0001
 4813,0.00333208,0.00243450,0.00006782,-0.00007469,0.00017753,-0.003844
 04,0.00114819,0.00633141,0.14130244,0.01691021,-0.20052909,0.01896448,
 0.00041755,-0.01402530,0.00109962,-0.00235207,0.00039091,-0.00000718,-
 0.00001517,0.00000498,0.00001062,0.00000431,-0.00000618,-0.00000277,-0
 .00000155,0.00000494,-0.00000212,0.00000132,-0.00000209,0.00000080,0.,
 -0.00000198,-0.00000249,0.00000185,-0.00000344,0.00001162,-0.00000616,
 -0.00000559,-0.00000542,-0.00000383,0.00000474,-0.00000012,-0.00000069
 ,0.00001879,-0.00004860,0.00003102,0.00003371,-0.00006429,0.00028551,-
 0.00027671,-0.00000617,0.00008460,0.00003061,0.00000227,0.00000247,-0.
 00000637,0.00000232,0.00000075,-0.00000059,-0.00000030,0.00000071,-0.0
 0000262,-0.00000042,0.00000035,-0.00000203,0.00000197,0.00000029,0.000
 00068,-0.00000146,0.00000120,0.00000019,0.00000100,-0.00000031,0.00000
 062,0.00000110,0.00000058,0.00000022,0.00000031,0.00000109,-0.00000034
 ,-0.00000107,-0.00000071,0.00000218,0.00000038,-0.00000228,-0.00000136
 ,0.00000149,0.00000161,-0.00000016,-0.00000011,0.00000014,0.00000139,-
 0.00000138,-0.00000144,0.00000187,-0.00016635,-0.00006899,0.00001581,-
 0.00068672,-0.00228039,-0.00036145,-0.15389047,-0.02150054,0.20778937,
 0.00002068,0.00008253,0.00014042,0.00065699,0.00003706,0.00022107,-0.0
 0007264,-0.00012368,-0.00001016,0.00003633,-0.00001746,-0.00002386,-0.
 00012092,-0.00006272,0.00005484,-0.00008111,0.00003972,-0.00011660,0.0
 0006046,0.00000520,0.00001159,-0.00019297,-0.00161234,-0.00123372,0.00
 719895,0.00172733,-0.00531731,0.00163082,0.00297694,-0.00020267,-0.000
 06372,0.00016688,-0.00072363,-0.00224698,0.00431642,-0.00139199,-0.000
 34108,-0.00033158,0.00118001,-0.00023104,0.00023376,-0.00013251,-0.000
 09381,-0.00007490,0.00000039,0.00005356,0.00004540,0.00001153,0.000025
 60,-0.00002083,-0.00000871,-0.00003288,-0.00000655,0.00000470,-0.00000
 575,-0.00001007,0.00003344,-0.00000339,-0.00000685,-0.00000339,-0.0000
 0239,0.00000632,0.00000958,0.00001439,0.00000735,0.00000100,-0.0000026
 7,-0.00000556,0.00000091,-0.00000016,0.00000111,-0.00000013,-0.0000008
 2,-0.00000007,-0.00000103,-0.00000171,-0.00000112,-0.00000064,-0.00000
 009,-0.00000150,-0.00000004,-0.00000598,0.00000092,-0.00000330,0.00000
 026,-0.00000038,0.00000140,0.00001437,0.00000097,-0.00001092,-0.000021
 97,-0.00001404,-0.00001788,0.00003137,0.00007834,0.00007072,0.00022998
 ,-0.00026613,0.00011678,-0.00017656,0.00015650,-0.00012351,0.00005998,
 0.00012142,-0.00029340,0.00053886,-0.00242372,0.00109510,-0.01414709,-
 0.00222673,0.02031299,-0.18303408,-0.00505733,0.14031557,-0.00000932,-
 0.00001209,-0.00000716,-0.00007018,-0.00014218,-0.00014881,-0.00003550
 ,0.00003228,-0.00007898,0.00003764,-0.00002792,0.00000331,0.00000346,0
 .00000036,-0.00000858,-0.00000535,0.00000522,0.00000245,0.00000047,0.0
 0000287,-0.00000142,0.00000627,-0.00000486,0.00000527,0.00000369,0.000
 02358,0.00001514,0.00035654,0.00007338,-0.00028850,-0.00019193,-0.0003
 6041,-0.00010474,0.00000159,-0.00004203,-0.00003776,-0.00000363,0.0000
 0246,0.00000704,-0.00000515,0.00000155,-0.00000031,-0.00000296,-0.0000
 0175,0.00000336,0.00000182,-0.00000021,0.00000396,-0.00000385,-0.00000
 040,-0.00000074,0.00000275,-0.00000263,-0.00000130,-0.00000218,0.00000
 043,-0.00000042,-0.00000168,-0.00000071,0.00000019,-0.00000125,-0.0000
 0178,0.00000093,0.00000097,0.00000121,-0.00000369,-0.00000013,0.000004
 22,0.00000110,-0.00000272,-0.00000291,0.00000065,-0.00000411,-0.000004
 22,-0.00000288,0.00000722,0.00000794,0.00000756,0.00004565,-0.00001592
 ,-0.00001189,0.00000030,0.00007307,0.00002254,0.00009032,0.00058889,-0
 .00104779,0.19008852,-0.00007011,0.00006210,0.00019614,0.00074319,-0.0
 0022049,0.00022101,0.00006679,-0.00020525,-0.00018615,-0.00005114,-0.0
 0004549,-0.00000861,-0.00013581,-0.00009255,-0.00004216,-0.00029850,0.
 00065487,0.00006866,0.00010688,0.00012618,0.00005826,-0.00243815,-0.00
 261104,-0.00196914,-0.01118807,0.00323588,0.01291171,0.00355122,0.0032
 7604,0.00487697,0.00003499,-0.00057490,-0.00003220,0.00364848,0.001966
 35,0.00272950,0.00038414,0.00031842,-0.00056236,0.00020856,0.00002903,
 0.00012668,-0.00000326,0.00005441,0.00004407,-0.00003873,-0.00007617,-
 0.00002059,0.00000967,-0.00000484,-0.00000034,-0.00000103,-0.00000267,
 -0.00000156,0.00000878,0.00002035,0.00000596,0.00000096,-0.00000435,-0
 .00000933,-0.00000175,0.00000190,0.00000291,0.00000291,0.00000106,0.00
 000036,-0.00000041,0.00000045,-0.00000044,-0.00000024,-0.00000015,0.,-
 0.00000039,-0.00000074,-0.00000020,-0.00000039,-0.00000017,-0.00000038
 ,0.00000046,-0.00000059,-0.00000011,-0.00000179,0.00000024,-0.00000132
 ,-0.00000024,0.00000021,0.00000071,0.00000435,0.00000263,0.00000079,-0
 .00000658,-0.00001057,-0.00000114,0.00003411,-0.00002066,-0.00005231,-
 0.00003435,-0.00003459,-0.00020255,-0.00000495,-0.00001581,0.00006538,
 -0.00020588,0.00002370,0.00007570,-0.00077809,-0.00173530,-0.00224240,
 0.01038143,0.00408614,-0.01048585,-0.00479519,-0.04516604,0.01841093,0
 .00003818,0.00005475,-0.00000488,-0.00013135,-0.00025237,-0.00011246,-
 0.00002859,0.00005964,-0.00010265,0.00004730,-0.00002494,0.00001421,-0
 .00000989,-0.00000170,-0.00000078,-0.00005097,0.00001756,-0.00001370,-
 0.00005836,-0.00014046,-0.00002764,0.00002590,-0.00006320,0.00002465,-
 0.00000138,-0.00001288,-0.00003085,-0.00059853,0.00010341,0.00061696,-
 0.00035712,-0.00066939,-0.00040557,0.00001409,0.00003119,0.00000166,-0
 .00000015,0.00000150,-0.00000161,-0.00000011,-0.00000010,-0.00000071,0
 .00000175,0.00000116,0.00000031,0.00000014,0.00000030,0.00000094,-0.00
 000024,0.,0.00000006,0.00000044,-0.00000068,-0.00000064,-0.00000018,0.
 00000012,0.00000014,-0.00000046,-0.00000006,0.00000018,-0.00000046,-0.
 00000053,0.00000054,0.00000075,-0.00000023,-0.00000116,0.00000063,0.00
 000156,0.00000052,-0.00000106,-0.00000091,0.00000057,-0.00000095,-0.00
 000084,-0.00000047,-0.00000092,0.00000438,0.00000262,-0.00000774,0.000
 00980,-0.00000461,0.00005024,0.00012208,0.00006404,-0.00012473,-0.0000
 2504,0.00048873,0.00206193,0.03774832,0.00002271,0.00014486,0.00000128
 ,-0.00002645,0.00015002,0.00020158,0.00004137,0.00005508,-0.00006079,0
 .00002700,-0.00001051,-0.00002432,-0.00012574,-0.00014718,-0.00013341,
 -0.00067011,0.00039542,-0.00000124,0.00004083,0.00008290,-0.00010342,0
 .00054635,-0.00278301,-0.00006708,0.01861382,0.00119301,-0.01428648,-0
 .00125895,0.00542644,-0.00146804,-0.00070104,-0.00000495,0.00008099,-0
 .00030430,0.00196814,0.00171213,-0.00020084,0.00013479,0.00017857,0.00
 001669,0.00009553,0.00002402,-0.00002165,0.00001797,0.00003653,0.00001
 640,-0.00005109,-0.00002552,0.00001026,-0.00000733,0.00000775,0.000000
 32,0.00000044,-0.00000116,0.00000834,0.00000395,0.00000042,0.00000445,
 -0.00000030,-0.00000100,-0.00000323,-0.00000250,-0.00000419,-0.0000114
 8,-0.00000693,-0.00000252,0.00000239,0.00000370,-0.00000093,-0.0000008
 7,-0.00000044,0.00000090,0.00000094,0.00000057,0.00000018,0.00000114,0
 .00000066,0.00000018,0.00000105,0.00000016,0.00000034,0.00000405,0.000
 00019,0.00000153,-0.00000090,-0.00000038,0.00000017,-0.00000336,-0.000
 00233,-0.00000088,0.00000228,0.00000754,0.00000768,-0.00001718,-0.0000
 3197,-0.00003997,-0.00033855,-0.00000437,0.00017513,0.00021582,-0.0000
 9359,-0.00000549,0.00035559,-0.00022715,0.00005801,-0.00208629,-0.0007
 3835,-0.00005022,-0.00282555,0.00071671,0.00473691,0.13973101,0.018812
 36,-0.19923316,-0.00003411,-0.00007087,0.00002532,0.00007900,0.0000769
 0,0.00000042,-0.00003125,-0.00001953,0.00002723,0.00000155,-0.00001519
 ,-0.00000686,0.00000556,-0.00000875,0.00000795,-0.00003552,0.00003298,
 -0.00000354,-0.00003249,-0.00020021,-0.00015364,-0.00000048,-0.0000546
 7,0.00007828,0.00001644,0.00003442,0.00009918,0.00099865,0.00003787,-0
 .00077276,-0.00010264,-0.00037902,-0.00024340,0.00001218,0.00006344,0.
 00001905,0.00000004,0.00000211,-0.00000362,0.00000286,0.00000171,-0.00
 000262,0.00000335,-0.00000031,-0.00000258,-0.00000093,0.00000020,-0.00
 000398,0.00000357,0.00000048,0.00000105,-0.00000286,0.00000225,0.00000
 095,0.00000180,-0.00000060,0.00000096,0.00000199,0.00000103,0.00000029
 ,0.00000061,0.00000200,-0.00000070,-0.00000163,-0.00000116,0.00000360,
 0.00000064,-0.00000390,-0.00000207,0.00000259,0.00000291,-0.00000038,0
 .00000022,0.00000086,0.00000272,-0.00000446,-0.00000819,-0.00000686,-0
 .00002606,-0.00000116,0.00002444,0.00007145,0.00004197,0.00003765,0.00
 029878,-0.00015062,0.00020459,-0.15229516,-0.02448499,0.20895488\\-0.0
 0000397,0.00000038,-0.00000337,0.00000633,0.00000378,0.00000269,-0.000
 00347,0.00000184,0.00000150,-0.00000148,0.00000053,0.00000059,-0.00000
 377,0.00000155,-0.00000025,0.00000061,-0.00000689,-0.00000044,-0.00000
 270,0.00000406,0.00000168,0.00000072,-0.00000118,-0.00000055,-0.000000
 53,0.00000283,-0.00000389,-0.00000356,0.00000294,0.00000096,0.00000355
 ,-0.00000100,-0.00000009,-0.00000047,-0.00000152,0.00000156,0.00000388
 ,0.00000156,-0.00000229,-0.00000128,0.00000310,0.00000481,-0.00000632,
 -0.00000407,-0.00000472,0.00000037,0.00000332,0.00000167,0.00000422,0.
 00000048,-0.00000035,-0.00000121,-0.00000235,-0.00000497,0.00000333,0.
 00000259,0.00000214,-0.00000103,-0.00000309,-0.00000366,0.00000033,0.0
 0000334,0.00000461,-0.00000049,-0.00000177,0.00000071,-0.00000057,-0.0
 0000626,0.00000088,0.00000245,0.00000424,-0.00000137,0.00000380,0.0000
 0126,-0.00000003,0.00000143,0.00000070,-0.00000061,0.00000361,0.000001
 87,-0.00000138,-0.00000662,0.00000356,-0.00000323,0.00000416,0.0000004
 4,0.00000309,0.00000364,0.00000269,-0.00000119,-0.00000397,-0.00000288
 ,-0.00000041,-0.00000006,-0.00000237,-0.00000070,0.00000553,-0.0000043
 6,0.00000286,0.00000046,0.00000519,-0.00000262,-0.00000425,0.00000118,
 0.00000032,0.00000085,-0.00000301,0.00000460,-0.00000369,0.00000277,-0
 .00000186,0.00000086,-0.00000332,0.00000321,-0.00000079,-0.00000047,0.
 00000339,0.00000012,0.00000137,0.,0.00000232,-0.00000201,0.00000003,0.
 00000058,-0.00000163,-0.00000026,0.00000145,-0.00000080,0.00000082,0.0
 0000148,0.00000057,0.00000154,-0.00000011,0.00000023,-0.00000204,0.000
 00272,-0.00000063,0.00000135,-0.00000117,-0.00000093,0.00000149,0.0000
 0109,-0.00000123,0.00000095,-0.00000218,0.00000085,0.00000067,0.000002
 03,-0.00000210,-0.00000203,-0.00000098,0.00000016,0.00000143,-0.000001
 47,0.00000004,0.00000144,-0.00000115,0.00000020,0.00000078,0.00000123,
 -0.00000106,-0.00000176,-0.00000275,-0.00000062,-0.00000125,0.00000029
 ,0.00000014,0.00000179,-0.00000151,0.00000062,-0.00000146,-0.00000144,
 -0.00000081,-0.00000082,-0.00000058,-0.00000161,0.00000026,-0.00000023
 ,0.00000155,0.00000014,0.00000075,-0.00000047,-0.00000324,-0.00000227,
 -0.00000201,0.,-0.00000118,-0.00000116,-0.00000093,0.00000155,0.000000
 42,-0.00000030,-0.00000236,-0.00000160,0.00000171,0.00000111,0.0000002
 6,-0.00000153,0.00000158,0.00000028,-0.00000133,0.00000118,0.00000033,
 -0.00000073\\\@
 The archive entry for this job was punched.


 A CHEMICAL PHYSICIST MAKES PRECISE MEASUREMENTS ON IMPURE COMPOUNDS.
 A THEORETICAL PHYSICAL CHEMIST MAKES IMPRECISE
     MEASUREMENTS ON PURE COMPOUNDS.
 AN EXPERIMENTAL PHYSICAL CHEMIST MAKES IMPRECISE
     MEASUREMENTS ON IMPURE COMPOUNDS.
 Job cpu time:       0 days  7 hours 25 minutes 16.5 seconds.
 Elapsed time:       0 days  0 hours 14 minutes  0.9 seconds.
 File lengths (MBytes):  RWF=   2590 Int=      0 D2E=      0 Chk=     32 Scr=      1
 Normal termination of Gaussian 16 at Mon Mar 24 17:18:55 2025.
