 Entering Gaussian System, Link 0=g16
 Initial command:
 /public/software/apps/Gaussian/g16/l1.exe "/tmp/Gau-89667.inp" -scrdir="/tmp/"
 Entering Link 1 = /public/software/apps/Gaussian/g16/l1.exe PID=     89670.
  
 Copyright (c) 1988-2019, Gaussian, Inc.  All Rights Reserved.
  
 This is part of the Gaussian(R) 16 program.  It is based on
 the Gaussian(R) 09 system (copyright 2009, Gaussian, Inc.),
 the Gaussian(R) 03 system (copyright 2003, Gaussian, Inc.),
 the Gaussian(R) 98 system (copyright 1998, Gaussian, Inc.),
 the Gaussian(R) 94 system (copyright 1995, Gaussian, Inc.),
 the Gaussian 92(TM) system (copyright 1992, Gaussian, Inc.),
 the Gaussian 90(TM) system (copyright 1990, Gaussian, Inc.),
 the Gaussian 88(TM) system (copyright 1988, Gaussian, Inc.),
 the Gaussian 86(TM) system (copyright 1986, Carnegie Mellon
 University), and the Gaussian 82(TM) system (copyright 1983,
 Carnegie Mellon University). Gaussian is a federally registered
 trademark of Gaussian, Inc.
  
 This software contains proprietary and confidential information,
 including trade secrets, belonging to Gaussian, Inc.
  
 This software is provided under written license and may be
 used, copied, transmitted, or stored only in accord with that
 written license.
  
 The following legend is applicable only to US Government
 contracts under FAR:
  
                    RESTRICTED RIGHTS LEGEND
  
 Use, reproduction and disclosure by the US Government is
 subject to restrictions as set forth in subparagraphs (a)
 and (c) of the Commercial Computer Software - Restricted
 Rights clause in FAR 52.227-19.
  
 Gaussian, Inc.
 340 Quinnipiac St., Bldg. 40, Wallingford CT 06492
  
  
 ---------------------------------------------------------------
 Warning -- This program may not be used in any manner that
 competes with the business of Gaussian, Inc. or will provide
 assistance to any competitor of Gaussian, Inc.  The licensee
 of this program is prohibited from giving any competitor of
 Gaussian, Inc. access to this program.  By using this program,
 the user acknowledges that Gaussian, Inc. is engaged in the
 business of creating and licensing software in the field of
 computational chemistry and represents and warrants to the
 licensee that it is not a competitor of Gaussian, Inc. and that
 it will not use this program in any manner prohibited above.
 ---------------------------------------------------------------
  

 Cite this work as:
 Gaussian 16, Revision C.01,
 M. J. Frisch, G. W. Trucks, H. B. Schlegel, G. E. Scuseria, 
 M. A. Robb, J. R. Cheeseman, G. Scalmani, V. Barone, 
 G. A. Petersson, H. Nakatsuji, X. Li, M. Caricato, A. V. Marenich, 
 J. Bloino, B. G. Janesko, R. Gomperts, B. Mennucci, H. P. Hratchian, 
 J. V. Ortiz, A. F. Izmaylov, J. L. Sonnenberg, D. Williams-Young, 
 F. Ding, F. Lipparini, F. Egidi, J. Goings, B. Peng, A. Petrone, 
 T. Henderson, D. Ranasinghe, V. G. Zakrzewski, J. Gao, N. Rega, 
 G. Zheng, W. Liang, M. Hada, M. Ehara, K. Toyota, R. Fukuda, 
 J. Hasegawa, M. Ishida, T. Nakajima, Y. Honda, O. Kitao, H. Nakai, 
 T. Vreven, K. Throssell, J. A. Montgomery, Jr., J. E. Peralta, 
 F. Ogliaro, M. J. Bearpark, J. J. Heyd, E. N. Brothers, K. N. Kudin, 
 V. N. Staroverov, T. A. Keith, R. Kobayashi, J. Normand, 
 K. Raghavachari, A. P. Rendell, J. C. Burant, S. S. Iyengar, 
 J. Tomasi, M. Cossi, J. M. Millam, M. Klene, C. Adamo, R. Cammi, 
 J. W. Ochterski, R. L. Martin, K. Morokuma, O. Farkas, 
 J. B. Foresman, and D. J. Fox, Gaussian, Inc., Wallingford CT, 2019.
 
 ******************************************
 Gaussian 16:  ES64L-G16RevC.01  3-Jul-2019
                24-Mar-2025 
 ******************************************
 %nprocshared=32
 Will use up to   32 processors via shared memory.
 %mem=100GB
 ------------------------------------------
 #p opt freq b3lyp/def2svpp em=gd3bj nosymm
 ------------------------------------------
 1/18=20,19=15,26=3,38=1/1,3;
 2/9=110,12=2,15=1,17=6,18=5,40=1/2;
 3/5=43,7=202,11=2,25=1,30=1,71=1,74=-5,124=41/1,2,3;
 4//1;
 5/5=2,38=5/2;
 6/7=2,8=2,9=2,10=2,28=1/1;
 7/30=1/1,2,3,16;
 1/18=20,19=15,26=3/3(2);
 2/9=110,15=1/2;
 99//99;
 2/9=110,15=1/2;
 3/5=43,7=202,11=2,25=1,30=1,71=1,74=-5,124=41/1,2,3;
 4/5=5,16=3,69=1/1;
 5/5=2,38=5/2;
 7/30=1/1,2,3,16;
 1/18=20,19=15,26=3/3(-5);
 2/9=110,15=1/2;
 6/7=2,8=2,9=2,10=2,19=2,28=1/1;
 99/9=1/99;
 Leave Link    1 at Mon Mar 24 17:13:27 2025, MaxMem= 13421772800 cpu:               0.8 elap:               0.0
 (Enter /public/software/apps/Gaussian/g16/l101.exe)
 ----------------------
 $$$$Singlemol####0????
 ----------------------
 Symbolic Z-matrix:
 Charge =  0 Multiplicity = 1
 C                     7.86348  -4.37173  -1.12761 
 C                     7.50287  -3.80954   0.24885 
 C                     6.99987  -4.91983   1.17388 
 C                     6.47784  -2.70788   0.13042 
 C                     6.76783  -1.42662   0.56987 
 C                     5.84211  -0.39681   0.48025 
 C                     6.19815   0.98022   0.99343 
 C                     7.36225   1.57055   0.19504 
 C                     6.52915   0.93551   2.4867 
 C                     4.58816  -0.66003  -0.0742 
 C                     3.57476   0.41673  -0.17476 
 C                     2.51733   0.46201   0.7562 
 C                     1.54967   1.42113   0.6746 
 C                     1.58327   2.39525  -0.34575 
 C                     0.57365   3.3843   -0.47192 
 C                    -0.58881   3.38463   0.45395 
 C                    -0.68368   4.33756   1.44955 
 O                     0.25393   5.30941   1.62249 
 C                    -1.77153   4.33084   2.34535 
 C                    -2.73449   3.37077   2.25255 
 C                    -2.67302   2.37438   1.25438 
 C                    -3.64594   1.36151   1.15281 
 C                    -3.57723   0.40295   0.17316 
 C                    -4.58546  -0.67917   0.07867 
 C                    -5.84051  -0.42484  -0.47726 
 C                    -6.203     0.94747  -0.99842 
 C                    -6.53135   0.89229  -2.49194 
 C                    -7.37142   1.53618  -0.20518 
 C                    -6.76124  -1.45956  -0.56155 
 C                    -6.46509  -2.73714  -0.11567 
 C                    -7.48534  -3.8438   -0.22909 
 C                    -7.84578  -4.39932   1.15011 
 C                    -6.97681  -4.95739  -1.14705 
 C                    -5.21195  -2.96958   0.43026 
 C                    -4.26771  -1.96072   0.53726 
 C                    -2.92144  -2.25616   1.16056 
 C                    -2.14974  -3.28444   0.3309 
 C                    -3.08669  -2.73544   2.6044 
 C                    -2.52054   0.44818  -0.75868 
 C                    -1.55707   1.41187  -0.68242 
 C                    -1.59454   2.39104   0.33299 
 C                     0.66449   4.33196  -1.47289 
 O                    -0.27688   5.29924  -1.65094 
 C                     1.75197   4.32438  -2.36917 
 C                     2.71893   3.36891  -2.27103 
 C                     2.66185   2.37808  -1.26703 
 C                     3.63931   1.37025  -1.15963 
 C                     4.27658  -1.94546  -0.52596 
 C                     2.93197  -2.25143  -1.14765 
 C                     3.10007  -2.73569  -2.58953 
 C                     2.16695  -3.28114  -0.31357 
 C                     5.22579  -2.94911  -0.41402 
 H                     8.21204  -3.57561  -1.78201 
 H                     7.00051  -4.84268  -1.59163 
 H                     8.65175  -5.11611  -1.03651 
 H                     8.41126  -3.38434   0.69075 
 H                     6.11476  -5.39622   0.75956 
 H                     6.74395  -4.51214   2.14954 
 H                     7.76801  -5.67902   1.30565 
 H                     7.74118  -1.22946   0.99558 
 H                     5.33183   1.63631   0.86344 
 H                     7.11454   1.60736  -0.86356 
 H                     7.57705   2.58154   0.53483 
 H                     8.26062   0.97008   0.31484 
 H                     5.6969    0.51128   3.04432 
 H                     7.41232   0.33029   2.67481 
 H                     6.71748   1.94047   2.85867 
 H                     2.48521  -0.28109   1.53981 
 H                     0.74317   1.44175   1.39271 
 H                     0.97238   5.18683   0.986 
 H                    -1.80119   5.09671   3.10394 
 H                    -3.56019   3.35871   2.94858 
 H                    -4.45594   1.34384   1.8685 
 H                    -5.34036   1.60884  -0.87084 
 H                    -7.41096   0.28123  -2.67779 
 H                    -5.69595   0.4691   -3.04563 
 H                    -6.72438   1.89398  -2.87026 
 H                    -8.26693   0.93132  -0.32428 
 H                    -7.58987   2.54473  -0.54986 
 H                    -7.12616   1.57867   0.85379 
 H                    -7.73543  -1.26927  -0.98845 
 H                    -8.3948   -3.42483  -0.67478 
 H                    -8.62968  -5.14868   1.06194 
 H                    -8.20037  -3.60101   1.79856 
 H                    -6.98121  -4.86237   1.61909 
 H                    -7.74092  -5.72157  -1.27326 
 H                    -6.08883  -5.42618  -0.73024 
 H                    -6.72383  -4.55471  -2.12555 
 H                    -4.96444  -3.95937   0.78218 
 H                    -2.33451  -1.33272   1.18154 
 H                    -2.025    -2.9296   -0.68991 
 H                    -2.67563  -4.23559   0.30018 
 H                    -1.16447  -3.45051   0.76163 
 H                    -3.62271  -3.68031   2.64554 
 H                    -2.11177  -2.87517   3.06676 
 H                    -3.64195  -2.00081   3.18361 
 H                    -2.48572  -0.29873  -1.53854 
 H                    -0.75097   1.43244  -1.40098 
 H                    -0.99534   5.1768   -1.01443 
 H                     1.77803   5.08586  -3.13229 
 H                     3.54449   3.35611  -2.96721 
 H                     4.44967   1.35239  -1.87493 
 H                     2.33936  -1.33173  -1.17227 
 H                     2.12607  -2.88308  -3.05145 
 H                     3.64166  -3.67756  -2.62666 
 H                     3.65114  -2.00025  -3.17171 
 H                     2.69787  -4.22941  -0.28088 
 H                     1.18182  -3.45376  -0.74206 
 H                     2.04221  -2.92387   0.7064 
 H                     4.98314  -3.94182  -0.76097 
 
 ITRead=  0  0  0  0  0  0  0  0  0  0  0  0  0  0  0  0  0  0  0  0
 ITRead=  0  0  0  0  0  0  0  0  0  0  0  0  0  0  0  0  0  0  0  0
 ITRead=  0  0  0  0  0  0  0  0  0  0  0  0  0  0  0  0  0  0  0  0
 ITRead=  0  0  0  0  0  0  0  0  0  0  0  0  0  0  0  0  0  0  0  0
 ITRead=  0  0  0  0  0  0  0  0  0  0  0  0  0  0  0  0  0  0  0  0
 ITRead=  0  0  0  0  0  0  0  0  0  0
 MicOpt= -1 -1 -1 -1 -1 -1 -1 -1 -1 -1 -1 -1 -1 -1 -1 -1 -1 -1 -1 -1
 MicOpt= -1 -1 -1 -1 -1 -1 -1 -1 -1 -1 -1 -1 -1 -1 -1 -1 -1 -1 -1 -1
 MicOpt= -1 -1 -1 -1 -1 -1 -1 -1 -1 -1 -1 -1 -1 -1 -1 -1 -1 -1 -1 -1
 MicOpt= -1 -1 -1 -1 -1 -1 -1 -1 -1 -1 -1 -1 -1 -1 -1 -1 -1 -1 -1 -1
 MicOpt= -1 -1 -1 -1 -1 -1 -1 -1 -1 -1 -1 -1 -1 -1 -1 -1 -1 -1 -1 -1
 MicOpt= -1 -1 -1 -1 -1 -1 -1 -1 -1 -1
 NAtoms=    110 NQM=      110 NQMF=       0 NMMI=      0 NMMIF=      0
                NMic=       0 NMicF=      0.
                    Isotopes and Nuclear Properties:
 (Nuclear quadrupole moments (NQMom) in fm**2, nuclear magnetic moments (NMagM)
  in nuclear magnetons)

  Atom         1           2           3           4           5           6           7           8           9          10
 IAtWgt=          12          12          12          12          12          12          12          12          12          12
 AtmWgt=  12.0000000  12.0000000  12.0000000  12.0000000  12.0000000  12.0000000  12.0000000  12.0000000  12.0000000  12.0000000
 NucSpn=           0           0           0           0           0           0           0           0           0           0
 AtZEff=  -0.0000000  -0.0000000  -0.0000000  -0.0000000  -0.0000000  -0.0000000  -0.0000000  -0.0000000  -0.0000000  -0.0000000
 NQMom=    0.0000000   0.0000000   0.0000000   0.0000000   0.0000000   0.0000000   0.0000000   0.0000000   0.0000000   0.0000000
 NMagM=    0.0000000   0.0000000   0.0000000   0.0000000   0.0000000   0.0000000   0.0000000   0.0000000   0.0000000   0.0000000
 AtZNuc=   6.0000000   6.0000000   6.0000000   6.0000000   6.0000000   6.0000000   6.0000000   6.0000000   6.0000000   6.0000000

  Atom        11          12          13          14          15          16          17          18          19          20
 IAtWgt=          12          12          12          12          12          12          12          16          12          12
 AtmWgt=  12.0000000  12.0000000  12.0000000  12.0000000  12.0000000  12.0000000  12.0000000  15.9949146  12.0000000  12.0000000
 NucSpn=           0           0           0           0           0           0           0           0           0           0
 AtZEff=  -0.0000000  -0.0000000  -0.0000000  -0.0000000  -0.0000000  -0.0000000  -0.0000000  -0.0000000  -0.0000000  -0.0000000
 NQMom=    0.0000000   0.0000000   0.0000000   0.0000000   0.0000000   0.0000000   0.0000000   0.0000000   0.0000000   0.0000000
 NMagM=    0.0000000   0.0000000   0.0000000   0.0000000   0.0000000   0.0000000   0.0000000   0.0000000   0.0000000   0.0000000
 AtZNuc=   6.0000000   6.0000000   6.0000000   6.0000000   6.0000000   6.0000000   6.0000000   8.0000000   6.0000000   6.0000000

  Atom        21          22          23          24          25          26          27          28          29          30
 IAtWgt=          12          12          12          12          12          12          12          12          12          12
 AtmWgt=  12.0000000  12.0000000  12.0000000  12.0000000  12.0000000  12.0000000  12.0000000  12.0000000  12.0000000  12.0000000
 NucSpn=           0           0           0           0           0           0           0           0           0           0
 AtZEff=  -0.0000000  -0.0000000  -0.0000000  -0.0000000  -0.0000000  -0.0000000  -0.0000000  -0.0000000  -0.0000000  -0.0000000
 NQMom=    0.0000000   0.0000000   0.0000000   0.0000000   0.0000000   0.0000000   0.0000000   0.0000000   0.0000000   0.0000000
 NMagM=    0.0000000   0.0000000   0.0000000   0.0000000   0.0000000   0.0000000   0.0000000   0.0000000   0.0000000   0.0000000
 AtZNuc=   6.0000000   6.0000000   6.0000000   6.0000000   6.0000000   6.0000000   6.0000000   6.0000000   6.0000000   6.0000000

  Atom        31          32          33          34          35          36          37          38          39          40
 IAtWgt=          12          12          12          12          12          12          12          12          12          12
 AtmWgt=  12.0000000  12.0000000  12.0000000  12.0000000  12.0000000  12.0000000  12.0000000  12.0000000  12.0000000  12.0000000
 NucSpn=           0           0           0           0           0           0           0           0           0           0
 AtZEff=  -0.0000000  -0.0000000  -0.0000000  -0.0000000  -0.0000000  -0.0000000  -0.0000000  -0.0000000  -0.0000000  -0.0000000
 NQMom=    0.0000000   0.0000000   0.0000000   0.0000000   0.0000000   0.0000000   0.0000000   0.0000000   0.0000000   0.0000000
 NMagM=    0.0000000   0.0000000   0.0000000   0.0000000   0.0000000   0.0000000   0.0000000   0.0000000   0.0000000   0.0000000
 AtZNuc=   6.0000000   6.0000000   6.0000000   6.0000000   6.0000000   6.0000000   6.0000000   6.0000000   6.0000000   6.0000000

  Atom        41          42          43          44          45          46          47          48          49          50
 IAtWgt=          12          12          16          12          12          12          12          12          12          12
 AtmWgt=  12.0000000  12.0000000  15.9949146  12.0000000  12.0000000  12.0000000  12.0000000  12.0000000  12.0000000  12.0000000
 NucSpn=           0           0           0           0           0           0           0           0           0           0
 AtZEff=  -0.0000000  -0.0000000  -0.0000000  -0.0000000  -0.0000000  -0.0000000  -0.0000000  -0.0000000  -0.0000000  -0.0000000
 NQMom=    0.0000000   0.0000000   0.0000000   0.0000000   0.0000000   0.0000000   0.0000000   0.0000000   0.0000000   0.0000000
 NMagM=    0.0000000   0.0000000   0.0000000   0.0000000   0.0000000   0.0000000   0.0000000   0.0000000   0.0000000   0.0000000
 AtZNuc=   6.0000000   6.0000000   8.0000000   6.0000000   6.0000000   6.0000000   6.0000000   6.0000000   6.0000000   6.0000000

  Atom        51          52          53          54          55          56          57          58          59          60
 IAtWgt=          12          12           1           1           1           1           1           1           1           1
 AtmWgt=  12.0000000  12.0000000   1.0078250   1.0078250   1.0078250   1.0078250   1.0078250   1.0078250   1.0078250   1.0078250
 NucSpn=           0           0           1           1           1           1           1           1           1           1
 AtZEff=  -0.0000000  -0.0000000  -0.0000000  -0.0000000  -0.0000000  -0.0000000  -0.0000000  -0.0000000  -0.0000000  -0.0000000
 NQMom=    0.0000000   0.0000000   0.0000000   0.0000000   0.0000000   0.0000000   0.0000000   0.0000000   0.0000000   0.0000000
 NMagM=    0.0000000   0.0000000   2.7928460   2.7928460   2.7928460   2.7928460   2.7928460   2.7928460   2.7928460   2.7928460
 AtZNuc=   6.0000000   6.0000000   1.0000000   1.0000000   1.0000000   1.0000000   1.0000000   1.0000000   1.0000000   1.0000000

  Atom        61          62          63          64          65          66          67          68          69          70
 IAtWgt=           1           1           1           1           1           1           1           1           1           1
 AtmWgt=   1.0078250   1.0078250   1.0078250   1.0078250   1.0078250   1.0078250   1.0078250   1.0078250   1.0078250   1.0078250
 NucSpn=           1           1           1           1           1           1           1           1           1           1
 AtZEff=  -0.0000000  -0.0000000  -0.0000000  -0.0000000  -0.0000000  -0.0000000  -0.0000000  -0.0000000  -0.0000000  -0.0000000
 NQMom=    0.0000000   0.0000000   0.0000000   0.0000000   0.0000000   0.0000000   0.0000000   0.0000000   0.0000000   0.0000000
 NMagM=    2.7928460   2.7928460   2.7928460   2.7928460   2.7928460   2.7928460   2.7928460   2.7928460   2.7928460   2.7928460
 AtZNuc=   1.0000000   1.0000000   1.0000000   1.0000000   1.0000000   1.0000000   1.0000000   1.0000000   1.0000000   1.0000000

  Atom        71          72          73          74          75          76          77          78          79          80
 IAtWgt=           1           1           1           1           1           1           1           1           1           1
 AtmWgt=   1.0078250   1.0078250   1.0078250   1.0078250   1.0078250   1.0078250   1.0078250   1.0078250   1.0078250   1.0078250
 NucSpn=           1           1           1           1           1           1           1           1           1           1
 AtZEff=  -0.0000000  -0.0000000  -0.0000000  -0.0000000  -0.0000000  -0.0000000  -0.0000000  -0.0000000  -0.0000000  -0.0000000
 NQMom=    0.0000000   0.0000000   0.0000000   0.0000000   0.0000000   0.0000000   0.0000000   0.0000000   0.0000000   0.0000000
 NMagM=    2.7928460   2.7928460   2.7928460   2.7928460   2.7928460   2.7928460   2.7928460   2.7928460   2.7928460   2.7928460
 AtZNuc=   1.0000000   1.0000000   1.0000000   1.0000000   1.0000000   1.0000000   1.0000000   1.0000000   1.0000000   1.0000000

  Atom        81          82          83          84          85          86          87          88          89          90
 IAtWgt=           1           1           1           1           1           1           1           1           1           1
 AtmWgt=   1.0078250   1.0078250   1.0078250   1.0078250   1.0078250   1.0078250   1.0078250   1.0078250   1.0078250   1.0078250
 NucSpn=           1           1           1           1           1           1           1           1           1           1
 AtZEff=  -0.0000000  -0.0000000  -0.0000000  -0.0000000  -0.0000000  -0.0000000  -0.0000000  -0.0000000  -0.0000000  -0.0000000
 NQMom=    0.0000000   0.0000000   0.0000000   0.0000000   0.0000000   0.0000000   0.0000000   0.0000000   0.0000000   0.0000000
 NMagM=    2.7928460   2.7928460   2.7928460   2.7928460   2.7928460   2.7928460   2.7928460   2.7928460   2.7928460   2.7928460
 AtZNuc=   1.0000000   1.0000000   1.0000000   1.0000000   1.0000000   1.0000000   1.0000000   1.0000000   1.0000000   1.0000000

  Atom        91          92          93          94          95          96          97          98          99         100
 IAtWgt=           1           1           1           1           1           1           1           1           1           1
 AtmWgt=   1.0078250   1.0078250   1.0078250   1.0078250   1.0078250   1.0078250   1.0078250   1.0078250   1.0078250   1.0078250
 NucSpn=           1           1           1           1           1           1           1           1           1           1
 AtZEff=  -0.0000000  -0.0000000  -0.0000000  -0.0000000  -0.0000000  -0.0000000  -0.0000000  -0.0000000  -0.0000000  -0.0000000
 NQMom=    0.0000000   0.0000000   0.0000000   0.0000000   0.0000000   0.0000000   0.0000000   0.0000000   0.0000000   0.0000000
 NMagM=    2.7928460   2.7928460   2.7928460   2.7928460   2.7928460   2.7928460   2.7928460   2.7928460   2.7928460   2.7928460
 AtZNuc=   1.0000000   1.0000000   1.0000000   1.0000000   1.0000000   1.0000000   1.0000000   1.0000000   1.0000000   1.0000000

  Atom       101         102         103         104         105         106         107         108         109         110
 IAtWgt=           1           1           1           1           1           1           1           1           1           1
 AtmWgt=   1.0078250   1.0078250   1.0078250   1.0078250   1.0078250   1.0078250   1.0078250   1.0078250   1.0078250   1.0078250
 NucSpn=           1           1           1           1           1           1           1           1           1           1
 AtZEff=  -0.0000000  -0.0000000  -0.0000000  -0.0000000  -0.0000000  -0.0000000  -0.0000000  -0.0000000  -0.0000000  -0.0000000
 NQMom=    0.0000000   0.0000000   0.0000000   0.0000000   0.0000000   0.0000000   0.0000000   0.0000000   0.0000000   0.0000000
 NMagM=    2.7928460   2.7928460   2.7928460   2.7928460   2.7928460   2.7928460   2.7928460   2.7928460   2.7928460   2.7928460
 AtZNuc=   1.0000000   1.0000000   1.0000000   1.0000000   1.0000000   1.0000000   1.0000000   1.0000000   1.0000000   1.0000000
 Leave Link  101 at Mon Mar 24 17:13:27 2025, MaxMem= 13421772800 cpu:               4.8 elap:               0.2
 (Enter /public/software/apps/Gaussian/g16/l103.exe)

 GradGradGradGradGradGradGradGradGradGradGradGradGradGradGradGradGradGrad
 Berny optimization.
 Initialization pass.
                           ----------------------------
                           !    Initial Parameters    !
                           ! (Angstroms and Degrees)  !
 --------------------------                            --------------------------
 ! Name  Definition              Value          Derivative Info.                !
 --------------------------------------------------------------------------------
 ! R1    R(1,2)                  1.5299         estimate D2E/DX2                !
 ! R2    R(1,53)                 1.0879         estimate D2E/DX2                !
 ! R3    R(1,54)                 1.0871         estimate D2E/DX2                !
 ! R4    R(1,55)                 1.088          estimate D2E/DX2                !
 ! R5    R(2,3)                  1.5302         estimate D2E/DX2                !
 ! R6    R(2,4)                  1.5094         estimate D2E/DX2                !
 ! R7    R(2,56)                 1.096          estimate D2E/DX2                !
 ! R8    R(3,57)                 1.0872         estimate D2E/DX2                !
 ! R9    R(3,58)                 1.0879         estimate D2E/DX2                !
 ! R10   R(3,59)                 1.088          estimate D2E/DX2                !
 ! R11   R(4,5)                  1.3852         estimate D2E/DX2                !
 ! R12   R(4,52)                 1.3864         estimate D2E/DX2                !
 ! R13   R(5,6)                  1.3876         estimate D2E/DX2                !
 ! R14   R(5,60)                 1.0805         estimate D2E/DX2                !
 ! R15   R(6,7)                  1.5121         estimate D2E/DX2                !
 ! R16   R(6,10)                 1.3961         estimate D2E/DX2                !
 ! R17   R(7,8)                  1.53           estimate D2E/DX2                !
 ! R18   R(7,9)                  1.5302         estimate D2E/DX2                !
 ! R19   R(7,61)                 1.0945         estimate D2E/DX2                !
 ! R20   R(8,62)                 1.0878         estimate D2E/DX2                !
 ! R21   R(8,63)                 1.088          estimate D2E/DX2                !
 ! R22   R(8,64)                 1.0872         estimate D2E/DX2                !
 ! R23   R(9,65)                 1.0879         estimate D2E/DX2                !
 ! R24   R(9,66)                 1.087          estimate D2E/DX2                !
 ! R25   R(9,67)                 1.088          estimate D2E/DX2                !
 ! R26   R(10,11)                1.4821         estimate D2E/DX2                !
 ! R27   R(10,48)                1.3977         estimate D2E/DX2                !
 ! R28   R(11,12)                1.4096         estimate D2E/DX2                !
 ! R29   R(11,47)                1.3723         estimate D2E/DX2                !
 ! R30   R(12,13)                1.3649         estimate D2E/DX2                !
 ! R31   R(12,68)                1.0804         estimate D2E/DX2                !
 ! R32   R(13,14)                1.4111         estimate D2E/DX2                !
 ! R33   R(13,69)                1.0801         estimate D2E/DX2                !
 ! R34   R(14,15)                1.419          estimate D2E/DX2                !
 ! R35   R(14,46)                1.4186         estimate D2E/DX2                !
 ! R36   R(15,16)                1.4861         estimate D2E/DX2                !
 ! R37   R(15,42)                1.3814         estimate D2E/DX2                !
 ! R38   R(16,17)                1.3814         estimate D2E/DX2                !
 ! R39   R(16,41)                1.4189         estimate D2E/DX2                !
 ! R40   R(17,18)                1.3614         estimate D2E/DX2                !
 ! R41   R(17,19)                1.4092         estimate D2E/DX2                !
 ! R42   R(18,70)                0.9676         estimate D2E/DX2                !
 ! R43   R(19,20)                1.363          estimate D2E/DX2                !
 ! R44   R(19,71)                1.0784         estimate D2E/DX2                !
 ! R45   R(20,21)                1.4117         estimate D2E/DX2                !
 ! R46   R(20,72)                1.08           estimate D2E/DX2                !
 ! R47   R(21,22)                1.4081         estimate D2E/DX2                !
 ! R48   R(21,41)                1.4186         estimate D2E/DX2                !
 ! R49   R(22,23)                1.3723         estimate D2E/DX2                !
 ! R50   R(22,73)                1.081          estimate D2E/DX2                !
 ! R51   R(23,24)                1.482          estimate D2E/DX2                !
 ! R52   R(23,39)                1.4096         estimate D2E/DX2                !
 ! R53   R(24,25)                1.396          estimate D2E/DX2                !
 ! R54   R(24,35)                1.3977         estimate D2E/DX2                !
 ! R55   R(25,26)                1.512          estimate D2E/DX2                !
 ! R56   R(25,29)                1.3876         estimate D2E/DX2                !
 ! R57   R(26,27)                1.5302         estimate D2E/DX2                !
 ! R58   R(26,28)                1.53           estimate D2E/DX2                !
 ! R59   R(26,74)                1.0945         estimate D2E/DX2                !
 ! R60   R(27,75)                1.087          estimate D2E/DX2                !
 ! R61   R(27,76)                1.0879         estimate D2E/DX2                !
 ! R62   R(27,77)                1.088          estimate D2E/DX2                !
 ! R63   R(28,78)                1.0872         estimate D2E/DX2                !
 ! R64   R(28,79)                1.088          estimate D2E/DX2                !
 ! R65   R(28,80)                1.0878         estimate D2E/DX2                !
 ! R66   R(29,30)                1.3852         estimate D2E/DX2                !
 ! R67   R(29,81)                1.0805         estimate D2E/DX2                !
 ! R68   R(30,31)                1.5095         estimate D2E/DX2                !
 ! R69   R(30,34)                1.3865         estimate D2E/DX2                !
 ! R70   R(31,32)                1.5299         estimate D2E/DX2                !
 ! R71   R(31,33)                1.5301         estimate D2E/DX2                !
 ! R72   R(31,82)                1.096          estimate D2E/DX2                !
 ! R73   R(32,83)                1.088          estimate D2E/DX2                !
 ! R74   R(32,84)                1.0879         estimate D2E/DX2                !
 ! R75   R(32,85)                1.0871         estimate D2E/DX2                !
 ! R76   R(33,86)                1.088          estimate D2E/DX2                !
 ! R77   R(33,87)                1.0872         estimate D2E/DX2                !
 ! R78   R(33,88)                1.0879         estimate D2E/DX2                !
 ! R79   R(34,35)                1.386          estimate D2E/DX2                !
 ! R80   R(34,89)                1.0792         estimate D2E/DX2                !
 ! R81   R(35,36)                1.5127         estimate D2E/DX2                !
 ! R82   R(36,37)                1.5301         estimate D2E/DX2                !
 ! R83   R(36,38)                1.5303         estimate D2E/DX2                !
 ! R84   R(36,90)                1.0944         estimate D2E/DX2                !
 ! R85   R(37,91)                1.0879         estimate D2E/DX2                !
 ! R86   R(37,92)                1.0873         estimate D2E/DX2                !
 ! R87   R(37,93)                1.0881         estimate D2E/DX2                !
 ! R88   R(38,94)                1.0871         estimate D2E/DX2                !
 ! R89   R(38,95)                1.088          estimate D2E/DX2                !
 ! R90   R(38,96)                1.0879         estimate D2E/DX2                !
 ! R91   R(39,40)                1.3648         estimate D2E/DX2                !
 ! R92   R(39,97)                1.0804         estimate D2E/DX2                !
 ! R93   R(40,41)                1.4111         estimate D2E/DX2                !
 ! R94   R(40,98)                1.0801         estimate D2E/DX2                !
 ! R95   R(42,43)                1.3614         estimate D2E/DX2                !
 ! R96   R(42,44)                1.4092         estimate D2E/DX2                !
 ! R97   R(43,99)                0.9676         estimate D2E/DX2                !
 ! R98   R(44,45)                1.3629         estimate D2E/DX2                !
 ! R99   R(44,100)               1.0784         estimate D2E/DX2                !
 ! R100  R(45,46)                1.4117         estimate D2E/DX2                !
 ! R101  R(45,101)               1.08           estimate D2E/DX2                !
 ! R102  R(46,47)                1.4081         estimate D2E/DX2                !
 ! R103  R(47,102)               1.081          estimate D2E/DX2                !
 ! R104  R(48,49)                1.5126         estimate D2E/DX2                !
 ! R105  R(48,52)                1.3859         estimate D2E/DX2                !
 ! R106  R(49,50)                1.5303         estimate D2E/DX2                !
 ! R107  R(49,51)                1.5301         estimate D2E/DX2                !
 ! R108  R(49,103)               1.0944         estimate D2E/DX2                !
 ! R109  R(50,104)               1.088          estimate D2E/DX2                !
 ! R110  R(50,105)               1.0871         estimate D2E/DX2                !
 ! R111  R(50,106)               1.0879         estimate D2E/DX2                !
 ! R112  R(51,107)               1.0873         estimate D2E/DX2                !
 ! R113  R(51,108)               1.0881         estimate D2E/DX2                !
 ! R114  R(51,109)               1.0879         estimate D2E/DX2                !
 ! R115  R(52,110)               1.0792         estimate D2E/DX2                !
 ! A1    A(2,1,53)             110.3521         estimate D2E/DX2                !
 ! A2    A(2,1,54)             110.8607         estimate D2E/DX2                !
 ! A3    A(2,1,55)             110.2936         estimate D2E/DX2                !
 ! A4    A(53,1,54)            108.3369         estimate D2E/DX2                !
 ! A5    A(53,1,55)            108.5975         estimate D2E/DX2                !
 ! A6    A(54,1,55)            108.3289         estimate D2E/DX2                !
 ! A7    A(1,2,3)              110.777          estimate D2E/DX2                !
 ! A8    A(1,2,4)              110.9568         estimate D2E/DX2                !
 ! A9    A(1,2,56)             108.0564         estimate D2E/DX2                !
 ! A10   A(3,2,4)              110.7186         estimate D2E/DX2                !
 ! A11   A(3,2,56)             108.0714         estimate D2E/DX2                !
 ! A12   A(4,2,56)             108.1388         estimate D2E/DX2                !
 ! A13   A(2,3,57)             110.8045         estimate D2E/DX2                !
 ! A14   A(2,3,58)             110.3379         estimate D2E/DX2                !
 ! A15   A(2,3,59)             110.331          estimate D2E/DX2                !
 ! A16   A(57,3,58)            108.3271         estimate D2E/DX2                !
 ! A17   A(57,3,59)            108.3707         estimate D2E/DX2                !
 ! A18   A(58,3,59)            108.5996         estimate D2E/DX2                !
 ! A19   A(2,4,5)              120.5319         estimate D2E/DX2                !
 ! A20   A(2,4,52)             121.1367         estimate D2E/DX2                !
 ! A21   A(5,4,52)             118.3312         estimate D2E/DX2                !
 ! A22   A(4,5,6)              121.7552         estimate D2E/DX2                !
 ! A23   A(4,5,60)             118.8393         estimate D2E/DX2                !
 ! A24   A(6,5,60)             119.4053         estimate D2E/DX2                !
 ! A25   A(5,6,7)              119.7928         estimate D2E/DX2                !
 ! A26   A(5,6,10)             119.0077         estimate D2E/DX2                !
 ! A27   A(7,6,10)             121.1965         estimate D2E/DX2                !
 ! A28   A(6,7,8)              110.6966         estimate D2E/DX2                !
 ! A29   A(6,7,9)              110.8254         estimate D2E/DX2                !
 ! A30   A(6,7,61)             108.6166         estimate D2E/DX2                !
 ! A31   A(8,7,9)              110.8499         estimate D2E/DX2                !
 ! A32   A(8,7,61)             107.9976         estimate D2E/DX2                !
 ! A33   A(9,7,61)             107.7369         estimate D2E/DX2                !
 ! A34   A(7,8,62)             110.3403         estimate D2E/DX2                !
 ! A35   A(7,8,63)             110.2281         estimate D2E/DX2                !
 ! A36   A(7,8,64)             110.9834         estimate D2E/DX2                !
 ! A37   A(62,8,63)            108.5081         estimate D2E/DX2                !
 ! A38   A(62,8,64)            108.3057         estimate D2E/DX2                !
 ! A39   A(63,8,64)            108.4016         estimate D2E/DX2                !
 ! A40   A(7,9,65)             110.2499         estimate D2E/DX2                !
 ! A41   A(7,9,66)             111.1547         estimate D2E/DX2                !
 ! A42   A(7,9,67)             110.1256         estimate D2E/DX2                !
 ! A43   A(65,9,66)            108.4046         estimate D2E/DX2                !
 ! A44   A(65,9,67)            108.5037         estimate D2E/DX2                !
 ! A45   A(66,9,67)            108.3286         estimate D2E/DX2                !
 ! A46   A(6,10,11)            120.2733         estimate D2E/DX2                !
 ! A47   A(6,10,48)            120.1316         estimate D2E/DX2                !
 ! A48   A(11,10,48)           119.5921         estimate D2E/DX2                !
 ! A49   A(10,11,12)           119.4377         estimate D2E/DX2                !
 ! A50   A(10,11,47)           121.4218         estimate D2E/DX2                !
 ! A51   A(12,11,47)           119.14           estimate D2E/DX2                !
 ! A52   A(11,12,13)           120.993          estimate D2E/DX2                !
 ! A53   A(11,12,68)           118.6356         estimate D2E/DX2                !
 ! A54   A(13,12,68)           120.3714         estimate D2E/DX2                !
 ! A55   A(12,13,14)           120.7606         estimate D2E/DX2                !
 ! A56   A(12,13,69)           120.2022         estimate D2E/DX2                !
 ! A57   A(14,13,69)           119.037          estimate D2E/DX2                !
 ! A58   A(13,14,15)           121.9059         estimate D2E/DX2                !
 ! A59   A(13,14,46)           118.6433         estimate D2E/DX2                !
 ! A60   A(15,14,46)           119.4508         estimate D2E/DX2                !
 ! A61   A(14,15,16)           120.0875         estimate D2E/DX2                !
 ! A62   A(14,15,42)           119.7227         estimate D2E/DX2                !
 ! A63   A(16,15,42)           120.1804         estimate D2E/DX2                !
 ! A64   A(15,16,17)           120.1909         estimate D2E/DX2                !
 ! A65   A(15,16,41)           120.0774         estimate D2E/DX2                !
 ! A66   A(17,16,41)           119.7227         estimate D2E/DX2                !
 ! A67   A(16,17,18)           122.4577         estimate D2E/DX2                !
 ! A68   A(16,17,19)           120.5212         estimate D2E/DX2                !
 ! A69   A(18,17,19)           117.0194         estimate D2E/DX2                !
 ! A70   A(17,18,70)           109.716          estimate D2E/DX2                !
 ! A71   A(17,19,20)           120.3632         estimate D2E/DX2                !
 ! A72   A(17,19,71)           117.711          estimate D2E/DX2                !
 ! A73   A(20,19,71)           121.92           estimate D2E/DX2                !
 ! A74   A(19,20,21)           120.9675         estimate D2E/DX2                !
 ! A75   A(19,20,72)           120.2748         estimate D2E/DX2                !
 ! A76   A(21,20,72)           118.7574         estimate D2E/DX2                !
 ! A77   A(20,21,22)           121.9115         estimate D2E/DX2                !
 ! A78   A(20,21,41)           118.9511         estimate D2E/DX2                !
 ! A79   A(22,21,41)           119.1362         estimate D2E/DX2                !
 ! A80   A(21,22,23)           121.2876         estimate D2E/DX2                !
 ! A81   A(21,22,73)           118.7972         estimate D2E/DX2                !
 ! A82   A(23,22,73)           119.9143         estimate D2E/DX2                !
 ! A83   A(22,23,24)           121.4306         estimate D2E/DX2                !
 ! A84   A(22,23,39)           119.1457         estimate D2E/DX2                !
 ! A85   A(24,23,39)           119.4232         estimate D2E/DX2                !
 ! A86   A(23,24,25)           120.2629         estimate D2E/DX2                !
 ! A87   A(23,24,35)           119.5969         estimate D2E/DX2                !
 ! A88   A(25,24,35)           120.137          estimate D2E/DX2                !
 ! A89   A(24,25,26)           121.2071         estimate D2E/DX2                !
 ! A90   A(24,25,29)           119.0039         estimate D2E/DX2                !
 ! A91   A(26,25,29)           119.7858         estimate D2E/DX2                !
 ! A92   A(25,26,27)           110.8018         estimate D2E/DX2                !
 ! A93   A(25,26,28)           110.7073         estimate D2E/DX2                !
 ! A94   A(25,26,74)           108.621          estimate D2E/DX2                !
 ! A95   A(27,26,28)           110.857          estimate D2E/DX2                !
 ! A96   A(27,26,74)           107.7397         estimate D2E/DX2                !
 ! A97   A(28,26,74)           107.9965         estimate D2E/DX2                !
 ! A98   A(26,27,75)           111.1478         estimate D2E/DX2                !
 ! A99   A(26,27,76)           110.2432         estimate D2E/DX2                !
 ! A100  A(26,27,77)           110.1369         estimate D2E/DX2                !
 ! A101  A(75,27,76)           108.4016         estimate D2E/DX2                !
 ! A102  A(75,27,77)           108.332          estimate D2E/DX2                !
 ! A103  A(76,27,77)           108.5059         estimate D2E/DX2                !
 ! A104  A(26,28,78)           110.9868         estimate D2E/DX2                !
 ! A105  A(26,28,79)           110.2281         estimate D2E/DX2                !
 ! A106  A(26,28,80)           110.3375         estimate D2E/DX2                !
 ! A107  A(78,28,79)           108.3998         estimate D2E/DX2                !
 ! A108  A(78,28,80)           108.3059         estimate D2E/DX2                !
 ! A109  A(79,28,80)           108.5092         estimate D2E/DX2                !
 ! A110  A(25,29,30)           121.7587         estimate D2E/DX2                !
 ! A111  A(25,29,81)           119.4012         estimate D2E/DX2                !
 ! A112  A(30,29,81)           118.8398         estimate D2E/DX2                !
 ! A113  A(29,30,31)           120.4983         estimate D2E/DX2                !
 ! A114  A(29,30,34)           118.333          estimate D2E/DX2                !
 ! A115  A(31,30,34)           121.1685         estimate D2E/DX2                !
 ! A116  A(30,31,32)           110.9597         estimate D2E/DX2                !
 ! A117  A(30,31,33)           110.7326         estimate D2E/DX2                !
 ! A118  A(30,31,82)           108.128          estimate D2E/DX2                !
 ! A119  A(32,31,33)           110.7845         estimate D2E/DX2                !
 ! A120  A(32,31,82)           108.0525         estimate D2E/DX2                !
 ! A121  A(33,31,82)           108.0603         estimate D2E/DX2                !
 ! A122  A(31,32,83)           110.2896         estimate D2E/DX2                !
 ! A123  A(31,32,84)           110.3448         estimate D2E/DX2                !
 ! A124  A(31,32,85)           110.8667         estimate D2E/DX2                !
 ! A125  A(83,32,84)           108.5945         estimate D2E/DX2                !
 ! A126  A(83,32,85)           108.3357         estimate D2E/DX2                !
 ! A127  A(84,32,85)           108.3384         estimate D2E/DX2                !
 ! A128  A(31,33,86)           110.3252         estimate D2E/DX2                !
 ! A129  A(31,33,87)           110.8096         estimate D2E/DX2                !
 ! A130  A(31,33,88)           110.3339         estimate D2E/DX2                !
 ! A131  A(86,33,87)           108.3742         estimate D2E/DX2                !
 ! A132  A(86,33,88)           108.5984         estimate D2E/DX2                !
 ! A133  A(87,33,88)           108.3296         estimate D2E/DX2                !
 ! A134  A(30,34,35)           121.6092         estimate D2E/DX2                !
 ! A135  A(30,34,89)           119.3021         estimate D2E/DX2                !
 ! A136  A(35,34,89)           119.0887         estimate D2E/DX2                !
 ! A137  A(24,35,34)           119.1572         estimate D2E/DX2                !
 ! A138  A(24,35,36)           121.104          estimate D2E/DX2                !
 ! A139  A(34,35,36)           119.7345         estimate D2E/DX2                !
 ! A140  A(35,36,37)           110.8971         estimate D2E/DX2                !
 ! A141  A(35,36,38)           110.7226         estimate D2E/DX2                !
 ! A142  A(35,36,90)           108.6873         estimate D2E/DX2                !
 ! A143  A(37,36,38)           110.8297         estimate D2E/DX2                !
 ! A144  A(37,36,90)           107.8766         estimate D2E/DX2                !
 ! A145  A(38,36,90)           107.7043         estimate D2E/DX2                !
 ! A146  A(36,37,91)           110.3297         estimate D2E/DX2                !
 ! A147  A(36,37,92)           111.0551         estimate D2E/DX2                !
 ! A148  A(36,37,93)           110.1585         estimate D2E/DX2                !
 ! A149  A(91,37,92)           108.3176         estimate D2E/DX2                !
 ! A150  A(91,37,93)           108.5067         estimate D2E/DX2                !
 ! A151  A(92,37,93)           108.3996         estimate D2E/DX2                !
 ! A152  A(36,38,94)           111.1721         estimate D2E/DX2                !
 ! A153  A(36,38,95)           110.1462         estimate D2E/DX2                !
 ! A154  A(36,38,96)           110.2414         estimate D2E/DX2                !
 ! A155  A(94,38,95)           108.3072         estimate D2E/DX2                !
 ! A156  A(94,38,96)           108.3682         estimate D2E/DX2                !
 ! A157  A(95,38,96)           108.5314         estimate D2E/DX2                !
 ! A158  A(23,39,40)           120.9908         estimate D2E/DX2                !
 ! A159  A(23,39,97)           118.6308         estimate D2E/DX2                !
 ! A160  A(40,39,97)           120.3784         estimate D2E/DX2                !
 ! A161  A(39,40,41)           120.758          estimate D2E/DX2                !
 ! A162  A(39,40,98)           120.2069         estimate D2E/DX2                !
 ! A163  A(41,40,98)           119.0348         estimate D2E/DX2                !
 ! A164  A(16,41,21)           119.4542         estimate D2E/DX2                !
 ! A165  A(16,41,40)           121.8984         estimate D2E/DX2                !
 ! A166  A(21,41,40)           118.6474         estimate D2E/DX2                !
 ! A167  A(15,42,43)           122.459          estimate D2E/DX2                !
 ! A168  A(15,42,44)           120.5245         estimate D2E/DX2                !
 ! A169  A(43,42,44)           117.0148         estimate D2E/DX2                !
 ! A170  A(42,43,99)           109.7227         estimate D2E/DX2                !
 ! A171  A(42,44,45)           120.3615         estimate D2E/DX2                !
 ! A172  A(42,44,100)          117.7051         estimate D2E/DX2                !
 ! A173  A(45,44,100)          121.9276         estimate D2E/DX2                !
 ! A174  A(44,45,46)           120.9674         estimate D2E/DX2                !
 ! A175  A(44,45,101)          120.2797         estimate D2E/DX2                !
 ! A176  A(46,45,101)          118.7525         estimate D2E/DX2                !
 ! A177  A(14,46,45)           118.9542         estimate D2E/DX2                !
 ! A178  A(14,46,47)           119.1388         estimate D2E/DX2                !
 ! A179  A(45,46,47)           121.9058         estimate D2E/DX2                !
 ! A180  A(11,47,46)           121.2917         estimate D2E/DX2                !
 ! A181  A(11,47,102)          119.9098         estimate D2E/DX2                !
 ! A182  A(46,47,102)          118.7976         estimate D2E/DX2                !
 ! A183  A(10,48,49)           121.1334         estimate D2E/DX2                !
 ! A184  A(10,48,52)           119.1585         estimate D2E/DX2                !
 ! A185  A(49,48,52)           119.7038         estimate D2E/DX2                !
 ! A186  A(48,49,50)           110.7086         estimate D2E/DX2                !
 ! A187  A(48,49,51)           110.8865         estimate D2E/DX2                !
 ! A188  A(48,49,103)          108.6998         estimate D2E/DX2                !
 ! A189  A(50,49,51)           110.829          estimate D2E/DX2                !
 ! A190  A(50,49,103)          107.7119         estimate D2E/DX2                !
 ! A191  A(51,49,103)          107.8832         estimate D2E/DX2                !
 ! A192  A(49,50,104)          110.1548         estimate D2E/DX2                !
 ! A193  A(49,50,105)          111.1669         estimate D2E/DX2                !
 ! A194  A(49,50,106)          110.2396         estimate D2E/DX2                !
 ! A195  A(104,50,105)         108.3076         estimate D2E/DX2                !
 ! A196  A(104,50,106)         108.5331         estimate D2E/DX2                !
 ! A197  A(105,50,106)         108.3644         estimate D2E/DX2                !
 ! A198  A(49,51,107)          111.0494         estimate D2E/DX2                !
 ! A199  A(49,51,108)          110.1677         estimate D2E/DX2                !
 ! A200  A(49,51,109)          110.3281         estimate D2E/DX2                !
 ! A201  A(107,51,108)         108.3959         estimate D2E/DX2                !
 ! A202  A(107,51,109)         108.3142         estimate D2E/DX2                !
 ! A203  A(108,51,109)         108.5122         estimate D2E/DX2                !
 ! A204  A(4,52,48)            121.6149         estimate D2E/DX2                !
 ! A205  A(4,52,110)           119.2962         estimate D2E/DX2                !
 ! A206  A(48,52,110)          119.0888         estimate D2E/DX2                !
 ! D1    D(53,1,2,3)           179.519          estimate D2E/DX2                !
 ! D2    D(53,1,2,4)            56.1177         estimate D2E/DX2                !
 ! D3    D(53,1,2,56)          -62.2743         estimate D2E/DX2                !
 ! D4    D(54,1,2,3)            59.4894         estimate D2E/DX2                !
 ! D5    D(54,1,2,4)           -63.912          estimate D2E/DX2                !
 ! D6    D(54,1,2,56)          177.696          estimate D2E/DX2                !
 ! D7    D(55,1,2,3)           -60.492          estimate D2E/DX2                !
 ! D8    D(55,1,2,4)           176.1067         estimate D2E/DX2                !
 ! D9    D(55,1,2,56)           57.7146         estimate D2E/DX2                !
 ! D10   D(1,2,3,57)           -59.9265         estimate D2E/DX2                !
 ! D11   D(1,2,3,58)          -179.8983         estimate D2E/DX2                !
 ! D12   D(1,2,3,59)            60.0952         estimate D2E/DX2                !
 ! D13   D(4,2,3,57)            63.6119         estimate D2E/DX2                !
 ! D14   D(4,2,3,58)           -56.3598         estimate D2E/DX2                !
 ! D15   D(4,2,3,59)          -176.3663         estimate D2E/DX2                !
 ! D16   D(56,2,3,57)         -178.124          estimate D2E/DX2                !
 ! D17   D(56,2,3,58)           61.9042         estimate D2E/DX2                !
 ! D18   D(56,2,3,59)          -58.1023         estimate D2E/DX2                !
 ! D19   D(1,2,4,5)           -119.3501         estimate D2E/DX2                !
 ! D20   D(1,2,4,52)            60.8525         estimate D2E/DX2                !
 ! D21   D(3,2,4,5)            117.215          estimate D2E/DX2                !
 ! D22   D(3,2,4,52)           -62.5823         estimate D2E/DX2                !
 ! D23   D(56,2,4,5)            -1.008          estimate D2E/DX2                !
 ! D24   D(56,2,4,52)          179.1946         estimate D2E/DX2                !
 ! D25   D(2,4,5,6)           -179.6285         estimate D2E/DX2                !
 ! D26   D(2,4,5,60)             0.1975         estimate D2E/DX2                !
 ! D27   D(52,4,5,6)             0.1745         estimate D2E/DX2                !
 ! D28   D(52,4,5,60)         -179.9995         estimate D2E/DX2                !
 ! D29   D(2,4,52,48)          179.9167         estimate D2E/DX2                !
 ! D30   D(2,4,52,110)          -0.1724         estimate D2E/DX2                !
 ! D31   D(5,4,52,48)            0.115          estimate D2E/DX2                !
 ! D32   D(5,4,52,110)        -179.9741         estimate D2E/DX2                !
 ! D33   D(4,5,6,7)            179.0515         estimate D2E/DX2                !
 ! D34   D(4,5,6,10)            -0.3299         estimate D2E/DX2                !
 ! D35   D(60,5,6,7)            -0.7735         estimate D2E/DX2                !
 ! D36   D(60,5,6,10)          179.8451         estimate D2E/DX2                !
 ! D37   D(5,6,7,8)             63.4289         estimate D2E/DX2                !
 ! D38   D(5,6,7,9)            -59.9913         estimate D2E/DX2                !
 ! D39   D(5,6,7,61)          -178.16           estimate D2E/DX2                !
 ! D40   D(10,6,7,8)          -117.2036         estimate D2E/DX2                !
 ! D41   D(10,6,7,9)           119.3763         estimate D2E/DX2                !
 ! D42   D(10,6,7,61)            1.2075         estimate D2E/DX2                !
 ! D43   D(5,6,10,11)          179.5637         estimate D2E/DX2                !
 ! D44   D(5,6,10,48)            0.199          estimate D2E/DX2                !
 ! D45   D(7,6,10,11)            0.1913         estimate D2E/DX2                !
 ! D46   D(7,6,10,48)         -179.1734         estimate D2E/DX2                !
 ! D47   D(6,7,8,62)            57.1403         estimate D2E/DX2                !
 ! D48   D(6,7,8,63)           176.9687         estimate D2E/DX2                !
 ! D49   D(6,7,8,64)           -62.9224         estimate D2E/DX2                !
 ! D50   D(9,7,8,62)          -179.4536         estimate D2E/DX2                !
 ! D51   D(9,7,8,63)           -59.6253         estimate D2E/DX2                !
 ! D52   D(9,7,8,64)            60.4837         estimate D2E/DX2                !
 ! D53   D(61,7,8,62)          -61.6465         estimate D2E/DX2                !
 ! D54   D(61,7,8,63)           58.1819         estimate D2E/DX2                !
 ! D55   D(61,7,8,64)          178.2909         estimate D2E/DX2                !
 ! D56   D(6,7,9,65)           -56.4721         estimate D2E/DX2                !
 ! D57   D(6,7,9,66)            63.7665         estimate D2E/DX2                !
 ! D58   D(6,7,9,67)          -176.1724         estimate D2E/DX2                !
 ! D59   D(8,7,9,65)          -179.804          estimate D2E/DX2                !
 ! D60   D(8,7,9,66)           -59.5654         estimate D2E/DX2                !
 ! D61   D(8,7,9,67)            60.4957         estimate D2E/DX2                !
 ! D62   D(61,7,9,65)           62.23           estimate D2E/DX2                !
 ! D63   D(61,7,9,66)         -177.5314         estimate D2E/DX2                !
 ! D64   D(61,7,9,67)          -57.4703         estimate D2E/DX2                !
 ! D65   D(6,10,11,12)        -102.1012         estimate D2E/DX2                !
 ! D66   D(6,10,11,47)          78.1728         estimate D2E/DX2                !
 ! D67   D(48,10,11,12)         77.2669         estimate D2E/DX2                !
 ! D68   D(48,10,11,47)       -102.4591         estimate D2E/DX2                !
 ! D69   D(6,10,48,49)        -179.1555         estimate D2E/DX2                !
 ! D70   D(6,10,48,52)           0.0779         estimate D2E/DX2                !
 ! D71   D(11,10,48,49)          1.4755         estimate D2E/DX2                !
 ! D72   D(11,10,48,52)       -179.2911         estimate D2E/DX2                !
 ! D73   D(10,11,12,13)       -178.4731         estimate D2E/DX2                !
 ! D74   D(10,11,12,68)          1.4551         estimate D2E/DX2                !
 ! D75   D(47,11,12,13)          1.2592         estimate D2E/DX2                !
 ! D76   D(47,11,12,68)       -178.8125         estimate D2E/DX2                !
 ! D77   D(10,11,47,46)        178.8571         estimate D2E/DX2                !
 ! D78   D(10,11,47,102)        -0.8036         estimate D2E/DX2                !
 ! D79   D(12,11,47,46)         -0.8697         estimate D2E/DX2                !
 ! D80   D(12,11,47,102)       179.4696         estimate D2E/DX2                !
 ! D81   D(11,12,13,14)         -0.0459         estimate D2E/DX2                !
 ! D82   D(11,12,13,69)        179.7798         estimate D2E/DX2                !
 ! D83   D(68,12,13,14)       -179.9729         estimate D2E/DX2                !
 ! D84   D(68,12,13,69)         -0.1472         estimate D2E/DX2                !
 ! D85   D(12,13,14,15)        178.5186         estimate D2E/DX2                !
 ! D86   D(12,13,14,46)         -1.521          estimate D2E/DX2                !
 ! D87   D(69,13,14,15)         -1.309          estimate D2E/DX2                !
 ! D88   D(69,13,14,46)        178.6513         estimate D2E/DX2                !
 ! D89   D(13,14,15,16)         -2.3223         estimate D2E/DX2                !
 ! D90   D(13,14,15,42)        178.7901         estimate D2E/DX2                !
 ! D91   D(46,14,15,16)        177.7177         estimate D2E/DX2                !
 ! D92   D(46,14,15,42)         -1.1699         estimate D2E/DX2                !
 ! D93   D(13,14,46,45)       -178.5071         estimate D2E/DX2                !
 ! D94   D(13,14,46,47)          1.8755         estimate D2E/DX2                !
 ! D95   D(15,14,46,45)          1.4543         estimate D2E/DX2                !
 ! D96   D(15,14,46,47)       -178.1631         estimate D2E/DX2                !
 ! D97   D(14,15,16,17)        106.5868         estimate D2E/DX2                !
 ! D98   D(14,15,16,41)        -72.3179         estimate D2E/DX2                !
 ! D99   D(42,15,16,17)        -74.5307         estimate D2E/DX2                !
 ! D100  D(42,15,16,41)        106.5645         estimate D2E/DX2                !
 ! D101  D(14,15,42,43)        179.4981         estimate D2E/DX2                !
 ! D102  D(14,15,42,44)         -0.0217         estimate D2E/DX2                !
 ! D103  D(16,15,42,43)          0.6116         estimate D2E/DX2                !
 ! D104  D(16,15,42,44)       -178.9082         estimate D2E/DX2                !
 ! D105  D(15,16,17,18)          0.5875         estimate D2E/DX2                !
 ! D106  D(15,16,17,19)       -178.935          estimate D2E/DX2                !
 ! D107  D(41,16,17,18)        179.4961         estimate D2E/DX2                !
 ! D108  D(41,16,17,19)         -0.0263         estimate D2E/DX2                !
 ! D109  D(15,16,41,21)        177.704          estimate D2E/DX2                !
 ! D110  D(15,16,41,40)         -2.339          estimate D2E/DX2                !
 ! D111  D(17,16,41,21)         -1.2059         estimate D2E/DX2                !
 ! D112  D(17,16,41,40)        178.7512         estimate D2E/DX2                !
 ! D113  D(16,17,18,70)         -2.6095         estimate D2E/DX2                !
 ! D114  D(19,17,18,70)        176.9287         estimate D2E/DX2                !
 ! D115  D(16,17,19,20)          0.9735         estimate D2E/DX2                !
 ! D116  D(16,17,19,71)       -179.8912         estimate D2E/DX2                !
 ! D117  D(18,17,19,20)       -178.5741         estimate D2E/DX2                !
 ! D118  D(18,17,19,71)          0.5611         estimate D2E/DX2                !
 ! D119  D(17,19,20,21)         -0.6583         estimate D2E/DX2                !
 ! D120  D(17,19,20,72)        179.132          estimate D2E/DX2                !
 ! D121  D(71,19,20,21)       -179.7563         estimate D2E/DX2                !
 ! D122  D(71,19,20,72)          0.034          estimate D2E/DX2                !
 ! D123  D(19,20,21,22)        179.0269         estimate D2E/DX2                !
 ! D124  D(19,20,21,41)         -0.5804         estimate D2E/DX2                !
 ! D125  D(72,20,21,22)         -0.7665         estimate D2E/DX2                !
 ! D126  D(72,20,21,41)        179.6262         estimate D2E/DX2                !
 ! D127  D(20,21,22,23)        179.6731         estimate D2E/DX2                !
 ! D128  D(20,21,22,73)         -0.6696         estimate D2E/DX2                !
 ! D129  D(41,21,22,23)         -0.7203         estimate D2E/DX2                !
 ! D130  D(41,21,22,73)        178.937          estimate D2E/DX2                !
 ! D131  D(20,21,41,16)          1.5042         estimate D2E/DX2                !
 ! D132  D(20,21,41,40)       -178.4542         estimate D2E/DX2                !
 ! D133  D(22,21,41,16)       -178.1142         estimate D2E/DX2                !
 ! D134  D(22,21,41,40)          1.9274         estimate D2E/DX2                !
 ! D135  D(21,22,23,24)        178.8479         estimate D2E/DX2                !
 ! D136  D(21,22,23,39)         -0.8927         estimate D2E/DX2                !
 ! D137  D(73,22,23,24)         -0.8057         estimate D2E/DX2                !
 ! D138  D(73,22,23,39)        179.4538         estimate D2E/DX2                !
 ! D139  D(22,23,24,25)         78.1944         estimate D2E/DX2                !
 ! D140  D(22,23,24,35)       -102.458          estimate D2E/DX2                !
 ! D141  D(39,23,24,25)       -102.0657         estimate D2E/DX2                !
 ! D142  D(39,23,24,35)         77.2818         estimate D2E/DX2                !
 ! D143  D(22,23,39,40)          1.3005         estimate D2E/DX2                !
 ! D144  D(22,23,39,97)       -178.7724         estimate D2E/DX2                !
 ! D145  D(24,23,39,40)       -178.4454         estimate D2E/DX2                !
 ! D146  D(24,23,39,97)          1.4818         estimate D2E/DX2                !
 ! D147  D(23,24,25,26)          0.2033         estimate D2E/DX2                !
 ! D148  D(23,24,25,29)        179.5423         estimate D2E/DX2                !
 ! D149  D(35,24,25,26)       -179.1407         estimate D2E/DX2                !
 ! D150  D(35,24,25,29)          0.1983         estimate D2E/DX2                !
 ! D151  D(23,24,35,34)       -179.2567         estimate D2E/DX2                !
 ! D152  D(23,24,35,36)          1.4947         estimate D2E/DX2                !
 ! D153  D(25,24,35,34)          0.0918         estimate D2E/DX2                !
 ! D154  D(25,24,35,36)       -179.1569         estimate D2E/DX2                !
 ! D155  D(24,25,26,27)        119.2781         estimate D2E/DX2                !
 ! D156  D(24,25,26,28)       -117.3018         estimate D2E/DX2                !
 ! D157  D(24,25,26,74)          1.117          estimate D2E/DX2                !
 ! D158  D(29,25,26,27)        -60.0558         estimate D2E/DX2                !
 ! D159  D(29,25,26,28)         63.3643         estimate D2E/DX2                !
 ! D160  D(29,25,26,74)       -178.2169         estimate D2E/DX2                !
 ! D161  D(24,25,29,30)         -0.3461         estimate D2E/DX2                !
 ! D162  D(24,25,29,81)        179.8489         estimate D2E/DX2                !
 ! D163  D(26,25,29,30)        179.0025         estimate D2E/DX2                !
 ! D164  D(26,25,29,81)         -0.8025         estimate D2E/DX2                !
 ! D165  D(25,26,27,75)         63.7659         estimate D2E/DX2                !
 ! D166  D(25,26,27,76)        -56.4599         estimate D2E/DX2                !
 ! D167  D(25,26,27,77)       -176.1658         estimate D2E/DX2                !
 ! D168  D(28,26,27,75)        -59.568          estimate D2E/DX2                !
 ! D169  D(28,26,27,76)       -179.7938         estimate D2E/DX2                !
 ! D170  D(28,26,27,77)         60.5003         estimate D2E/DX2                !
 ! D171  D(74,26,27,75)       -177.5384         estimate D2E/DX2                !
 ! D172  D(74,26,27,76)         62.2358         estimate D2E/DX2                !
 ! D173  D(74,26,27,77)        -57.4701         estimate D2E/DX2                !
 ! D174  D(25,26,28,78)        -63.0106         estimate D2E/DX2                !
 ! D175  D(25,26,28,79)        176.8806         estimate D2E/DX2                !
 ! D176  D(25,26,28,80)         57.0526         estimate D2E/DX2                !
 ! D177  D(27,26,28,78)         60.3777         estimate D2E/DX2                !
 ! D178  D(27,26,28,79)        -59.7311         estimate D2E/DX2                !
 ! D179  D(27,26,28,80)       -179.5591         estimate D2E/DX2                !
 ! D180  D(74,26,28,78)        178.1917         estimate D2E/DX2                !
 ! D181  D(74,26,28,79)         58.0829         estimate D2E/DX2                !
 ! D182  D(74,26,28,80)        -61.7451         estimate D2E/DX2                !
 ! D183  D(25,29,30,31)       -179.6147         estimate D2E/DX2                !
 ! D184  D(25,29,30,34)          0.1939         estimate D2E/DX2                !
 ! D185  D(81,29,30,31)          0.1914         estimate D2E/DX2                !
 ! D186  D(81,29,30,34)        180.0            estimate D2E/DX2                !
 ! D187  D(29,30,31,32)       -119.2505         estimate D2E/DX2                !
 ! D188  D(29,30,31,33)        117.2931         estimate D2E/DX2                !
 ! D189  D(29,30,31,82)         -0.918          estimate D2E/DX2                !
 ! D190  D(34,30,31,32)         60.9464         estimate D2E/DX2                !
 ! D191  D(34,30,31,33)        -62.5101         estimate D2E/DX2                !
 ! D192  D(34,30,31,82)        179.2789         estimate D2E/DX2                !
 ! D193  D(29,30,34,35)          0.1092         estimate D2E/DX2                !
 ! D194  D(29,30,34,89)       -179.9704         estimate D2E/DX2                !
 ! D195  D(31,30,34,35)        179.9165         estimate D2E/DX2                !
 ! D196  D(31,30,34,89)         -0.1631         estimate D2E/DX2                !
 ! D197  D(30,31,32,83)        176.1966         estimate D2E/DX2                !
 ! D198  D(30,31,32,84)         56.2185         estimate D2E/DX2                !
 ! D199  D(30,31,32,85)        -63.8122         estimate D2E/DX2                !
 ! D200  D(33,31,32,83)        -60.3767         estimate D2E/DX2                !
 ! D201  D(33,31,32,84)        179.6452         estimate D2E/DX2                !
 ! D202  D(33,31,32,85)         59.6144         estimate D2E/DX2                !
 ! D203  D(82,31,32,83)         57.8184         estimate D2E/DX2                !
 ! D204  D(82,31,32,84)        -62.1597         estimate D2E/DX2                !
 ! D205  D(82,31,32,85)        177.8095         estimate D2E/DX2                !
 ! D206  D(30,31,33,86)       -176.5041         estimate D2E/DX2                !
 ! D207  D(30,31,33,87)         63.4702         estimate D2E/DX2                !
 ! D208  D(30,31,33,88)        -56.5053         estimate D2E/DX2                !
 ! D209  D(32,31,33,86)         59.9386         estimate D2E/DX2                !
 ! D210  D(32,31,33,87)        -60.0871         estimate D2E/DX2                !
 ! D211  D(32,31,33,88)        179.9373         estimate D2E/DX2                !
 ! D212  D(82,31,33,86)        -58.2518         estimate D2E/DX2                !
 ! D213  D(82,31,33,87)       -178.2775         estimate D2E/DX2                !
 ! D214  D(82,31,33,88)         61.747          estimate D2E/DX2                !
 ! D215  D(30,34,35,24)         -0.2496         estimate D2E/DX2                !
 ! D216  D(30,34,35,36)        179.0096         estimate D2E/DX2                !
 ! D217  D(89,34,35,24)        179.8299         estimate D2E/DX2                !
 ! D218  D(89,34,35,36)         -0.911          estimate D2E/DX2                !
 ! D219  D(24,35,36,37)       -117.4438         estimate D2E/DX2                !
 ! D220  D(24,35,36,38)        119.093          estimate D2E/DX2                !
 ! D221  D(24,35,36,90)          0.9811         estimate D2E/DX2                !
 ! D222  D(34,35,36,37)         63.3118         estimate D2E/DX2                !
 ! D223  D(34,35,36,38)        -60.1514         estimate D2E/DX2                !
 ! D224  D(34,35,36,90)       -178.2633         estimate D2E/DX2                !
 ! D225  D(35,36,37,91)         57.3813         estimate D2E/DX2                !
 ! D226  D(35,36,37,92)        -62.736          estimate D2E/DX2                !
 ! D227  D(35,36,37,93)        177.1568         estimate D2E/DX2                !
 ! D228  D(38,36,37,91)       -179.2171         estimate D2E/DX2                !
 ! D229  D(38,36,37,92)         60.6656         estimate D2E/DX2                !
 ! D230  D(38,36,37,93)        -59.4416         estimate D2E/DX2                !
 ! D231  D(90,36,37,91)        -61.5334         estimate D2E/DX2                !
 ! D232  D(90,36,37,92)        178.3493         estimate D2E/DX2                !
 ! D233  D(90,36,37,93)         58.2421         estimate D2E/DX2                !
 ! D234  D(35,36,38,94)         64.0777         estimate D2E/DX2                !
 ! D235  D(35,36,38,95)       -175.8632         estimate D2E/DX2                !
 ! D236  D(35,36,38,96)        -56.1209         estimate D2E/DX2                !
 ! D237  D(37,36,38,94)        -59.4243         estimate D2E/DX2                !
 ! D238  D(37,36,38,95)         60.6349         estimate D2E/DX2                !
 ! D239  D(37,36,38,96)       -179.6228         estimate D2E/DX2                !
 ! D240  D(90,36,38,94)       -177.2131         estimate D2E/DX2                !
 ! D241  D(90,36,38,95)        -57.1539         estimate D2E/DX2                !
 ! D242  D(90,36,38,96)         62.5884         estimate D2E/DX2                !
 ! D243  D(23,39,40,41)         -0.0578         estimate D2E/DX2                !
 ! D244  D(23,39,40,98)        179.7723         estimate D2E/DX2                !
 ! D245  D(97,39,40,41)       -179.9837         estimate D2E/DX2                !
 ! D246  D(97,39,40,98)         -0.1536         estimate D2E/DX2                !
 ! D247  D(39,40,41,16)        178.4869         estimate D2E/DX2                !
 ! D248  D(39,40,41,21)         -1.5558         estimate D2E/DX2                !
 ! D249  D(98,40,41,16)         -1.3452         estimate D2E/DX2                !
 ! D250  D(98,40,41,21)        178.6122         estimate D2E/DX2                !
 ! D251  D(15,42,43,99)         -2.6972         estimate D2E/DX2                !
 ! D252  D(44,42,43,99)        176.8385         estimate D2E/DX2                !
 ! D253  D(15,42,44,45)          0.942          estimate D2E/DX2                !
 ! D254  D(15,42,44,100)      -179.9188         estimate D2E/DX2                !
 ! D255  D(43,42,44,45)       -178.6032         estimate D2E/DX2                !
 ! D256  D(43,42,44,100)         0.536          estimate D2E/DX2                !
 ! D257  D(42,44,45,46)         -0.6414         estimate D2E/DX2                !
 ! D258  D(42,44,45,101)       179.1426         estimate D2E/DX2                !
 ! D259  D(100,44,45,46)      -179.7435         estimate D2E/DX2                !
 ! D260  D(100,44,45,101)        0.0405         estimate D2E/DX2                !
 ! D261  D(44,45,46,14)         -0.5566         estimate D2E/DX2                !
 ! D262  D(44,45,46,47)        179.0497         estimate D2E/DX2                !
 ! D263  D(101,45,46,14)       179.6561         estimate D2E/DX2                !
 ! D264  D(101,45,46,47)        -0.7375         estimate D2E/DX2                !
 ! D265  D(14,46,47,11)         -0.6969         estimate D2E/DX2                !
 ! D266  D(14,46,47,102)       178.9675         estimate D2E/DX2                !
 ! D267  D(45,46,47,11)        179.6974         estimate D2E/DX2                !
 ! D268  D(45,46,47,102)        -0.6382         estimate D2E/DX2                !
 ! D269  D(10,48,49,50)        119.0081         estimate D2E/DX2                !
 ! D270  D(10,48,49,51)       -117.5471         estimate D2E/DX2                !
 ! D271  D(10,48,49,103)         0.8874         estimate D2E/DX2                !
 ! D272  D(52,48,49,50)        -60.2213         estimate D2E/DX2                !
 ! D273  D(52,48,49,51)         63.2236         estimate D2E/DX2                !
 ! D274  D(52,48,49,103)      -178.342          estimate D2E/DX2                !
 ! D275  D(10,48,52,4)          -0.239          estimate D2E/DX2                !
 ! D276  D(10,48,52,110)       179.85           estimate D2E/DX2                !
 ! D277  D(49,48,52,4)         179.0056         estimate D2E/DX2                !
 ! D278  D(49,48,52,110)        -0.9054         estimate D2E/DX2                !
 ! D279  D(48,49,50,104)      -175.8552         estimate D2E/DX2                !
 ! D280  D(48,49,50,105)        64.0829         estimate D2E/DX2                !
 ! D281  D(48,49,50,106)       -56.1063         estimate D2E/DX2                !
 ! D282  D(51,49,50,104)        60.6668         estimate D2E/DX2                !
 ! D283  D(51,49,50,105)       -59.3951         estimate D2E/DX2                !
 ! D284  D(51,49,50,106)      -179.5844         estimate D2E/DX2                !
 ! D285  D(103,49,50,104)      -57.1341         estimate D2E/DX2                !
 ! D286  D(103,49,50,105)     -177.196          estimate D2E/DX2                !
 ! D287  D(103,49,50,106)       62.6148         estimate D2E/DX2                !
 ! D288  D(48,49,51,107)       -62.8377         estimate D2E/DX2                !
 ! D289  D(48,49,51,108)       177.0574         estimate D2E/DX2                !
 ! D290  D(48,49,51,109)        57.2703         estimate D2E/DX2                !
 ! D291  D(50,49,51,107)        60.538          estimate D2E/DX2                !
 ! D292  D(50,49,51,108)       -59.5669         estimate D2E/DX2                !
 ! D293  D(50,49,51,109)      -179.354          estimate D2E/DX2                !
 ! D294  D(103,49,51,107)      178.2343         estimate D2E/DX2                !
 ! D295  D(103,49,51,108)       58.1295         estimate D2E/DX2                !
 ! D296  D(103,49,51,109)      -61.6576         estimate D2E/DX2                !
 --------------------------------------------------------------------------------
 Trust Radius=3.00D-01 FncErr=1.00D-07 GrdErr=1.00D-06 EigMax=2.50D+02 EigMin=1.00D-04
 Number of steps in this run=    627 maximum allowed number of steps=    660.
 GradGradGradGradGradGradGradGradGradGradGradGradGradGradGradGradGradGrad

 Leave Link  103 at Mon Mar 24 17:13:27 2025, MaxMem= 13421772800 cpu:               0.8 elap:               0.0
 (Enter /public/software/apps/Gaussian/g16/l202.exe)
 Symmetry turned off by external request.
 Stoichiometry    C50H58O2
 Framework group  C1[X(C50H58O2)]
 Deg. of freedom   324
 Full point group                 C1      NOp   1
                          Input orientation:                          
 ---------------------------------------------------------------------
 Center     Atomic      Atomic             Coordinates (Angstroms)
 Number     Number       Type             X           Y           Z
 ---------------------------------------------------------------------
      1          6           0        7.863481   -4.371729   -1.127614
      2          6           0        7.502874   -3.809536    0.248845
      3          6           0        6.999874   -4.919829    1.173880
      4          6           0        6.477836   -2.707875    0.130417
      5          6           0        6.767828   -1.426624    0.569872
      6          6           0        5.842111   -0.396812    0.480251
      7          6           0        6.198147    0.980224    0.993425
      8          6           0        7.362251    1.570547    0.195037
      9          6           0        6.529147    0.935505    2.486703
     10          6           0        4.588157   -0.660030   -0.074200
     11          6           0        3.574762    0.416727   -0.174764
     12          6           0        2.517332    0.462009    0.756204
     13          6           0        1.549670    1.421130    0.674599
     14          6           0        1.583273    2.395252   -0.345753
     15          6           0        0.573653    3.384296   -0.471917
     16          6           0       -0.588809    3.384626    0.453948
     17          6           0       -0.683680    4.337564    1.449552
     18          8           0        0.253925    5.309407    1.622489
     19          6           0       -1.771528    4.330844    2.345349
     20          6           0       -2.734492    3.370767    2.252550
     21          6           0       -2.673022    2.374375    1.254380
     22          6           0       -3.645937    1.361510    1.152810
     23          6           0       -3.577234    0.402952    0.173161
     24          6           0       -4.585458   -0.679167    0.078672
     25          6           0       -5.840507   -0.424842   -0.477262
     26          6           0       -6.203003    0.947467   -0.998424
     27          6           0       -6.531347    0.892294   -2.491940
     28          6           0       -7.371420    1.536176   -0.205179
     29          6           0       -6.761235   -1.459558   -0.561552
     30          6           0       -6.465094   -2.737137   -0.115671
     31          6           0       -7.485342   -3.843800   -0.229086
     32          6           0       -7.845778   -4.399322    1.150106
     33          6           0       -6.976809   -4.957385   -1.147045
     34          6           0       -5.211954   -2.969583    0.430264
     35          6           0       -4.267706   -1.960716    0.537258
     36          6           0       -2.921442   -2.256162    1.160560
     37          6           0       -2.149739   -3.284437    0.330895
     38          6           0       -3.086693   -2.735437    2.604402
     39          6           0       -2.520544    0.448177   -0.758681
     40          6           0       -1.557069    1.411874   -0.682416
     41          6           0       -1.594542    2.391040    0.332991
     42          6           0        0.664493    4.331956   -1.472893
     43          8           0       -0.276877    5.299241   -1.650936
     44          6           0        1.751967    4.324379   -2.369171
     45          6           0        2.718931    3.368908   -2.271029
     46          6           0        2.661851    2.378082   -1.267032
     47          6           0        3.639312    1.370248   -1.159634
     48          6           0        4.276582   -1.945460   -0.525957
     49          6           0        2.931967   -2.251429   -1.147650
     50          6           0        3.100066   -2.735692   -2.589526
     51          6           0        2.166948   -3.281139   -0.313566
     52          6           0        5.225785   -2.949107   -0.414020
     53          1           0        8.212036   -3.575611   -1.782011
     54          1           0        7.000513   -4.842679   -1.591630
     55          1           0        8.651745   -5.116115   -1.036505
     56          1           0        8.411256   -3.384335    0.690749
     57          1           0        6.114762   -5.396224    0.759561
     58          1           0        6.743945   -4.512138    2.149538
     59          1           0        7.768010   -5.679018    1.305649
     60          1           0        7.741180   -1.229458    0.995575
     61          1           0        5.331825    1.636306    0.863437
     62          1           0        7.114541    1.607358   -0.863558
     63          1           0        7.577048    2.581538    0.534830
     64          1           0        8.260619    0.970080    0.314837
     65          1           0        5.696898    0.511280    3.044321
     66          1           0        7.412316    0.330289    2.674809
     67          1           0        6.717475    1.940466    2.858666
     68          1           0        2.485205   -0.281094    1.539813
     69          1           0        0.743168    1.441746    1.392711
     70          1           0        0.972377    5.186830    0.985998
[...]
 ,-0.00010388,-0.00026754,0.00019211,0.00015748,-0.00030434,0.00058243,
 0.00107444,0.00241087,-0.01040837,-0.02501026,0.00047547,-0.00166876,-
 0.00127885,-0.01580151,0.10363844,-0.00001704,-0.00000755,-0.00001223,
 0.00002038,0.00001003,-0.00000083,-0.00001070,-0.00000026,-0.00000799,
 -0.00016363,-0.00011981,-0.00023953,-0.00001752,0.00019641,0.00005424,
 0.00020759,0.00011136,0.00002100,0.00004226,-0.00003517,0.00000469,-0.
 00000119,0.00001417,0.00000995,0.00000498,0.00002620,-0.00000111,0.000
 15620,-0.00013531,0.00017465,0.00021759,0.00002035,0.00001580,-0.00008
 889,-0.00023392,-0.00056425,-0.00026412,-0.00000709,0.00003014,0.00002
 802,0.00009230,-0.00000670,-0.00002684,-0.00002962,0.00003554,0.000003
 25,-0.00000583,0.00000613,0.00002652,0.00003314,0.00001200,-0.00002480
 ,-0.00003770,-0.00001106,-0.00000791,-0.00000406,0.00000543,0.00000181
 ,0.00000818,0.00000827,0.00000159,-0.00000199,-0.00000298,0.00000307,0
 .00000279,0.00000784,-0.00001067,-0.00000372,-0.00000058,0.00001565,0.
 00000071,0.00000431,-0.00000498,0.00000852,0.00000261,-0.00000109,0.00
 000477,-0.00000488,0.00000407,-0.00000638,-0.00000514,-0.00000007,-0.0
 0000164,0.00000438,0.00001424,-0.00000232,0.00000982,-0.00001545,-0.00
 000439,-0.00000265,-0.00000738,-0.00001118,-0.00000272,0.00000021,0.00
 000778,0.00000379,0.00000517,0.00000505,-0.00000659,0.00003114,-0.0000
 0744,0.00001449,-0.00002167,-0.00000601,-0.00005593,0.00001173,0.00000
 644,0.00008399,-0.00014959,0.00019792,-0.00018071,-0.00000413,-0.00000
 885,0.00000397,0.00000035,-0.00004013,0.00000411,0.00003309,-0.0000037
 6,0.00001084,0.00000006,0.00000726,0.00000418,-0.00006047,0.00004227,-
 0.00000827,0.00005686,-0.00005879,0.00001939,0.00002826,-0.00003933,0.
 00002116,0.00001035,0.00003769,-0.00004526,-0.00001161,-0.00007601,0.0
 0006161,0.00002426,0.00002162,0.00008538,-0.00150909,-0.00013814,0.000
 41922,0.00176369,-0.00803716,-0.01558979,0.00298475,0.00356829,-0.0010
 9829,0.03353075,-0.10272312,-0.25451267,0.00047117,-0.00013089,0.00028
 632,-0.00000711,-0.00000242,-0.00000035,0.00000456,0.00001785,0.000003
 83,0.00000634,0.00000007,0.00000885,0.00001124,-0.00000286,0.00001001,
 0.00000509,0.00000644,-0.00000379,0.00000189,0.00000050,0.00001078,0.0
 0000211,0.00000053,0.00000182,-0.00000940,0.00000443,0.00002466,-0.000
 00207,0.00002072,0.00000842,0.00000612,-0.00000708,-0.00000338,0.00000
 455,0.00000749,0.00000066,-0.00001260,0.00000021,-0.00000213,0.0000009
 8,-0.00000677,0.00000418,-0.00001061,0.00000038,-0.00000374,0.00000415
 ,0.00000375,0.00000825,0.00003612,-0.00042273,0.00033619,-0.00002503,0
 .00003370,-0.00000151,0.00000442,0.00001979,0.00000806,-0.00000030,-0.
 00000103,-0.00000281,0.00000208,0.00000217,-0.00000216,0.00000003,0.00
 000221,-0.00000399,0.00000038,0.00000205,-0.00000246,0.00000147,0.0000
 0245,0.00000082,-0.00000262,0.00000195,-0.00000066,0.00000145,-0.00000
 413,0.00000406,0.00000151,0.00000239,-0.00000009,0.00000193,-0.0000056
 2,0.00000002,-0.00000283,0.00000174,0.00000430,0.00000704,-0.00000073,
 0.00000161,0.00000470,0.00000199,0.00000229,0.00000564,0.00000473,-0.0
 0000165,-0.00000279,-0.00000086,0.00000202,-0.00000032,-0.00000425,0.0
 0000098,0.00000375,0.00000649,0.00000228,-0.00000071,-0.00000391,-0.00
 000115,-0.00000029,-0.00000406,0.00000159,-0.00001002,-0.00000457,-0.0
 0000304,-0.00002509,0.00003084,0.00000689,-0.00002298,-0.00005110,-0.0
 0003097,0.00013925,0.00001699,0.00000447,0.00007132,-0.00017720,0.0001
 3278,0.00000473,0.00001188,-0.00000191,0.00000425,-0.00000542,0.000021
 49,0.00001142,-0.00000293,-0.00001253,-0.00000593,0.00000431,-0.000020
 25,-0.00000327,0.00000320,-0.00002232,-0.00001147,0.00001142,-0.000006
 32,0.00000208,-0.00000504,0.00000091,-0.00001392,-0.00000890,0.0000097
 7,-0.00002943,-0.00003303,0.00002726,-0.00048502,-0.00013837,0.0003099
 1,-0.00005843,0.00005089,0.00045821,-0.00004327,-0.00010683,0.00018013
 ,0.00033676,-0.00058774,-0.00112261,-0.00089468,0.00267364,0.00661804,
 0.00244771,-0.00502141,-0.01023159,-0.03864651,0.11110167,0.27415697,-
 0.00069455,-0.00006773,-0.00028856,0.00027262,-0.00119863,0.00127399,-
 0.00031947,-0.00001712,-0.00026383,-0.00161571,-0.02574480,-0.01080525
 ,-0.00348273,0.00127605,-0.00425287,-0.00098435,0.00040510,0.00014967,
 -0.00007662,-0.00012161,0.00027393,-0.00003134,-0.00001388,-0.00002168
 ,-0.00003610,-0.00000415,-0.00002035,-0.00137430,0.00349566,-0.0026349
 0,0.00050482,0.00070784,0.00038400,0.00003859,0.00003453,-0.00009100,-
 0.00007248,0.00001596,-0.00002600,0.00000628,-0.00000887,0.00003293,-0
 .00000623,0.00002676,-0.00001741,0.00000393,-0.00000666,-0.00000794,0.
 00001058,0.00000977,0.00000198,-0.00001523,-0.00001308,0.00000182,-0.0
 0000334,-0.00000327,0.00000034,-0.00000169,0.00000272,0.00000448,0.000
 00042,-0.00000195,-0.00000244,0.00000205,-0.00000017,0.00000075,-0.000
 00337,-0.00000324,-0.00000124,0.00000783,0.00000337,0.00000128,-0.0000
 0234,0.00000177,-0.00000062,0.00000094,0.00000258,-0.00000075,-0.00000
 082,-0.00000100,0.00000025,-0.00000066,-0.00000066,0.00000147,0.000002
 83,-0.00000120,0.00000132,-0.00000438,-0.00000239,-0.00000176,-0.00000
 237,-0.00000114,0.00000062,-0.00000042,0.00000087,0.00000060,-0.000000
 45,0.00000084,-0.00000115,0.00000772,-0.00000195,0.00000176,-0.0000094
 2,-0.00000200,-0.00001421,-0.00000244,0.00001210,0.00000960,-0.0000044
 1,-0.00000557,-0.00000941,0.00000463,-0.00000734,-0.00000261,0.0000029
 7,0.00000249,0.00000763,-0.00000038,-0.00000750,-0.00000022,0.00000644
 ,0.00001373,0.00000700,0.00000437,-0.00001822,0.00001900,-0.00002632,0
 .00001947,-0.00000173,0.00000353,0.00000152,0.00000240,-0.00001657,0.0
 0001507,0.00000078,-0.00002894,-0.00004132,-0.00007890,-0.00018499,0.0
 0005653,-0.00001516,0.00898894,0.01811341,0.00852804,-0.00029165,-0.00
 042829,0.00141610,-0.00071127,0.00050771,-0.00062124,-0.00044859,0.000
 28571,-0.00008775,-0.06923890,-0.05328449,-0.03260226,0.00010563,0.000
 04603,-0.00004416,-0.00070280,0.00070585,0.00072356,0.00033558,0.00014
 979,0.00024949,0.00020051,-0.00001663,0.00021162,0.00005676,0.00048652
 ,-0.00039139,0.00011254,-0.00001235,0.00015156,0.00008306,0.00005712,0
 .00006699,-0.00028718,-0.00119896,-0.00065721,-0.00000373,-0.00004936,
 -0.00002099,0.00000988,-0.00000698,0.00000285,-0.00001206,-0.00001328,
 0.00000090,0.00002114,0.00001354,-0.00001028,0.00000611,0.00000778,-0.
 00000430,0.00006525,-0.00000285,0.00004701,0.00003910,-0.00003060,0.00
 000052,0.00001059,0.00000007,0.00004444,-0.00001039,0.00000770,0.00000
 074,0.00000240,-0.00000062,-0.00000651,-0.00000085,-0.00000024,-0.0000
 0019,0.00000026,0.00000041,-0.00000042,-0.00000034,0.00000017,-0.00000
 091,0.00000005,-0.00000017,0.00000030,0.00000024,0.00000075,-0.0000004
 3,0.00000017,0.,-0.00000126,0.00000044,-0.00000172,0.00000114,0.000000
 15,0.00000073,-0.00000009,0.00000098,-0.00000211,0.00000036,-0.0000005
 1,0.00000049,0.,0.00000139,-0.00000017,0.00000095,0.00000181,-0.000000
 43,0.00000035,0.00000150,0.00000171,-0.00000015,-0.00000022,-0.0000008
 8,-0.00000030,-0.00000009,-0.00000091,0.00000062,0.00000195,0.00000161
 ,0.00000015,0.00000002,-0.00000172,0.00000170,-0.00000114,-0.00000019,
 -0.00000145,-0.00000334,-0.00000208,0.00000095,-0.00000063,0.00000049,
 -0.00000244,-0.00001067,0.00000833,-0.00001008,0.00000380,0.00000061,-
 0.00000016,0.00000642,-0.00000709,0.00002280,-0.00000125,0.00000183,0.
 00000100,0.00000044,0.00000083,0.00000552,0.00000415,-0.00000124,-0.00
 000557,-0.00000645,-0.00000136,-0.00000555,0.00000160,0.00000953,0.000
 00035,0.00000473,0.00000454,-0.00000639,-0.00000089,0.00000238,-0.0000
 0008,0.00000139,-0.00000078,-0.00000115,0.00003110,0.00002629,0.000013
 62,0.00029733,-0.00008639,0.00013245,0.00000002,-0.00008402,0.00013174
 ,-0.00065966,0.00021396,-0.00118628,0.00010368,-0.00017050,0.00010188,
 -0.00065005,-0.00014706,0.00022482,0.00010499,-0.00023646,0.00004153,0
 .00007774,-0.00002928,-0.00008861,0.07048074,0.00018654,-0.00028506,-0
 .00031884,0.00025278,-0.00117958,0.00082694,0.00020331,-0.00040962,0.0
 0023286,-0.00081870,-0.00066807,-0.00184346,-0.00010553,0.00195487,-0.
 00157144,0.00042781,0.00034237,0.00063830,-0.00008653,-0.00002203,0.00
 020030,-0.00002107,-0.00001077,-0.00003255,-0.00002051,-0.00002299,0.0
 0001380,0.00454859,-0.00104008,-0.00043892,-0.00077124,-0.00050870,-0.
 00048765,0.00008522,-0.00012830,0.00013143,0.00007160,0.00002173,0.000
 01141,-0.00002657,0.00000899,-0.00001728,-0.00000805,-0.00005192,0.000
 04753,-0.00000780,0.00001381,0.00002264,-0.00001693,-0.00001027,0.0000
 0185,0.00003386,0.00001101,-0.00001046,0.00000422,0.00000621,0.0000032
 0,0.00000664,-0.00000088,-0.00000554,0.00000195,0.00000005,-0.00000122
 ,0.00000142,0.00000406,0.00000084,0.00000192,-0.00000212,-0.00000178,-
 0.00001409,-0.00001241,-0.00000205,0.00000200,0.00000296,-0.00000037,-
 0.00000420,-0.00000421,0.00000002,0.00000184,0.00000085,-0.00000188,0.
 00000044,0.00000125,-0.00000165,0.00000006,0.00000308,-0.00000021,0.00
 000142,-0.00000024,0.00000172,-0.00000114,-0.00000180,-0.00000190,0.00
 000111,0.00000134,0.00000113,0.00000269,0.00000043,-0.00000049,-0.0000
 0333,0.00000331,0.00000006,0.00000988,0.00000374,0.00001218,0.00000005
 ,-0.00001532,-0.00000818,0.00000364,0.00000512,0.00000608,-0.00000448,
 0.00000672,0.00000309,-0.00000457,-0.00000672,-0.00000654,0.00000289,0
 .00001356,0.00001128,-0.00001155,-0.00003430,-0.00002172,-0.00008505,0
 .00007329,-0.00002224,0.00012391,-0.00010091,0.00001072,0.00004545,-0.
 00002532,-0.00001159,0.00003820,0.00002888,-0.00004057,0.00004833,-0.0
 0001177,0.00010121,0.00016641,-0.00005088,-0.00011764,-0.00628859,-0.0
 1780225,-0.01037231,-0.00186115,-0.00073857,-0.00008437,-0.00034031,-0
 .00052873,-0.00041964,0.00007641,-0.00026309,0.00010608,-0.05321567,-0
 .27051566,-0.10079079,-0.00001170,0.00002470,-0.00002504,0.00067639,0.
 00035614,0.00023261,0.00010075,0.00010071,0.00026034,-0.00021338,0.000
 17542,0.00004899,0.00067551,-0.00013315,0.00060694,0.00002503,0.000010
 00,0.00003692,0.00002213,0.00010865,-0.00009784,0.00013945,-0.00013899
 ,-0.00006418,0.00000901,-0.00000898,0.00000830,0.00001469,0.00000410,-
 0.00001208,-0.00002590,-0.00002045,-0.00000133,-0.00000885,0.00000405,
 0.00000211,0.00000412,0.00000973,-0.00000037,0.00001718,0.00000437,0.0
 0000754,0.00000885,-0.00002023,-0.00001663,-0.00003192,-0.00000095,-0.
 00003580,0.00001742,-0.00001786,-0.00000907,-0.00001054,0.00001659,0.0
 0002110,0.00000107,-0.00000007,-0.00000195,0.00000180,0.00000063,-0.00
 000108,0.00000199,0.00000002,-0.00000200,0.00000061,0.00000291,-0.0000
 0225,0.00000176,0.00000046,0.00000091,-0.00000129,-0.00000020,0.000000
 90,-0.00000071,0.00000068,-0.00000049,0.00000175,0.00000050,0.00000028
 ,-0.00000122,0.00000079,-0.00000039,-0.00000093,-0.00000051,0.00000222
 ,0.00000093,0.00000017,-0.00000027,-0.00000056,0.00000087,0.00000021,0
 .00000067,0.00000032,-0.00000058,-0.00000082,0.00000058,0.00000093,-0.
 00000027,-0.00000037,-0.00000049,-0.00000031,0.00000109,0.00000051,-0.
 00000052,0.00000050,-0.00000171,0.00000063,-0.00000105,0.00000133,0.00
 000206,0.00000303,-0.00000199,0.00000164,0.00000257,0.00000435,0.00000
 694,-0.00000914,0.00000456,0.00000035,0.00000342,-0.00000051,-0.000004
 27,0.00000161,-0.00001559,0.00000295,0.00000150,-0.00000089,-0.0000001
 6,-0.00000277,-0.00000398,-0.00000413,0.00000035,0.00000463,0.00000454
 ,0.00000313,0.00000586,-0.00000546,-0.00001213,-0.00000932,-0.00002301
 ,-0.00000275,0.00001634,0.00000401,-0.00000962,-0.00000039,-0.00000915
 ,0.00000147,-0.00000039,-0.00004522,-0.00001917,-0.00002810,0.00006664
 ,0.00015126,0.00016517,-0.00030333,0.00049547,0.00009251,-0.00008704,0
 .00121421,0.00027229,0.00006589,-0.00000005,-0.00002720,-0.00000478,0.
 00035725,-0.00014264,0.00005253,0.00010720,-0.00006752,-0.00012130,0.0
 0009021,0.00005443,0.05635397,0.28908668,0.00016172,-0.00011981,0.0000
 3559,0.00171296,0.00018040,-0.00245365,-0.00057151,-0.00018659,-0.0002
 0381,-0.00262777,-0.01315223,-0.00180142,-0.00456954,-0.00109477,0.004
 02855,0.00000543,0.00059438,-0.00071807,0.00031539,0.00024404,-0.00057
 419,0.00002840,0.00005267,0.00003064,-0.00005666,-0.00000927,0.0000020
 7,-0.00238011,-0.00074117,0.00540901,0.00002898,0.00001605,0.00019225,
 -0.00017928,-0.00002088,-0.00000057,0.00005093,-0.00008362,0.00002769,
 0.00000282,0.00005886,-0.00006484,0.00001280,-0.00003802,0.00002045,-0
 .00000301,0.00000386,0.00000642,-0.00000441,-0.00000174,0.00000091,0.0
 0000876,0.00000132,-0.00000472,0.00000046,0.00000118,0.00000028,0.0000
 0179,0.00000101,-0.00000094,0.00000049,-0.00000105,-0.00000199,0.00000
 232,0.00000266,-0.00000127,-0.00000169,-0.00000396,-0.00000167,-0.0000
 0568,-0.00000483,-0.00000199,0.00000065,0.00000081,-0.00000058,-0.0000
 0166,-0.00000205,0.00000117,-0.00000040,0.00000141,0.00000022,-0.00000
 019,0.00000083,-0.00000114,-0.00000020,0.00000185,-0.00000116,0.000000
 70,-0.00000066,0.00000029,-0.00000113,-0.00000023,-0.00000024,0.000001
 19,-0.00000004,0.00000100,0.00000155,-0.00000039,0.00000094,-0.0000014
 7,-0.00000021,-0.00000088,0.00000607,0.00000104,0.00000354,-0.00000203
 ,-0.00000247,-0.00000155,0.00000561,-0.00000241,0.00000544,0.00000267,
 -0.00000011,0.00000290,-0.00000083,0.00000226,0.00000126,-0.00000227,0
 .00000176,0.00000402,0.00000016,-0.00000720,-0.00000570,0.00000118,0.0
 0002917,-0.00003318,0.00001980,-0.00001762,0.00000275,-0.00002300,0.00
 000956,0.00000802,0.00000641,-0.00003287,0.00001047,-0.00003531,0.0000
 5489,-0.00000034,0.00011047,-0.00006736,0.00004686,0.00030727,0.001131
 47,0.00411021,0.00096682,0.00071422,-0.00281595,-0.00101371,0.00044502
 ,-0.00052512,0.00015157,-0.00033323,0.00020523,-0.03266377,-0.10166855
 ,-0.08449399,0.00015455,0.00002275,0.00002398,0.00044904,-0.00024316,0
 .00009959,-0.00016309,-0.00002152,-0.00007804,0.00014984,0.00013351,-0
 .00015410,-0.00006516,0.00100366,-0.00018477,-0.00005407,0.00000504,0.
 00003684,0.00045218,0.00022739,0.00016013,-0.00020387,-0.00068386,-0.0
 0008761,0.00000096,-0.00004416,-0.00001371,-0.00000849,-0.00000637,0.0
 0002677,0.00004481,-0.00001150,-0.00000193,0.00004280,0.00001694,-0.00
 001334,0.00001003,-0.00001214,0.00001180,-0.00000105,-0.00000049,-0.00
 000197,-0.00002476,-0.00000039,-0.00000818,-0.00000699,-0.00000547,-0.
 00000795,0.00000897,0.00000593,0.00001028,-0.00000293,0.00000530,0.000
 00672,0.00000039,-0.00000054,-0.00000044,0.00000118,-0.00000011,-0.000
 00044,0.00000132,-0.00000072,-0.00000098,0.00000039,0.00000141,-0.0000
 0067,0.00000100,0.00000016,0.00000012,0.00000006,-0.00000088,-0.000000
 11,-0.00000063,0.00000055,-0.00000048,0.00000099,0.00000020,0.00000023
 ,-0.00000056,0.00000058,0.00000002,-0.00000040,-0.00000049,0.00000017,
 -0.00000018,0.00000006,0.00000018,-0.00000042,0.00000053,-0.00000031,0
 .00000053,0.00000038,-0.00000029,-0.00000014,0.00000005,0.00000006,-0.
 00000074,0.00000004,-0.00000036,0.00000031,0.00000052,0.00000029,-0.00
 000075,-0.00000009,-0.00000037,-0.00000005,0.00000014,-0.00000068,0.00
 000093,0.00000198,-0.00000005,0.00000095,0.00000072,0.00000158,-0.0000
 0127,0.00000180,-0.00000307,0.00000192,0.00000138,0.00000121,-0.000003
 85,-0.00000195,-0.00000309,0.00000242,0.00000122,-0.00000015,-0.000002
 84,-0.00000197,-0.00000318,-0.00000165,0.00000098,0.00000003,-0.000001
 66,-0.00000094,0.00000220,-0.00000022,0.00000015,-0.00000177,-0.000005
 06,0.00000015,0.00000392,0.00000099,0.00000063,0.00000162,0.00000113,0
 .00000246,-0.00000089,0.00001038,0.00000216,-0.00000754,0.00016367,-0.
 00000597,-0.00022716,0.00019676,-0.00020478,0.00012032,-0.00122800,0.0
 0009586,-0.00102797,-0.00000330,0.00005059,-0.00004957,0.00031859,0.00
 039677,-0.00002234,-0.00005613,0.00035874,-0.00011991,0.00003749,-0.00
 001903,0.00004378,0.04001390,0.11296842,0.08102239\\-0.00000033,0.0000
 0020,0.00000066,0.00000167,-0.00000069,0.00000005,0.00000017,0.0000002
 8,-0.00000039,-0.00000317,-0.00000304,-0.00000240,-0.00000131,0.000003
 96,0.00000094,0.00000450,-0.00000226,0.00000162,0.00000073,0.00000167,
 0.00000064,-0.00000075,-0.00000007,0.00000042,0.00000066,0.00000064,-0
 .00000046,-0.00000171,-0.00000372,-0.00000314,-0.00000242,-0.00000118,
 0.00000312,0.00000167,-0.00000088,-0.00000071,-0.00000112,0.00000156,-
 0.00000040,0.00000379,-0.00000316,-0.00000039,-0.00000339,0.00000447,-
 0.00000169,0.00000333,0.00000449,0.00000173,0.00000060,-0.00000352,-0.
 00000241,0.00000003,0.00000189,-0.00000109,-0.00000337,-0.00000154,0.0
 0000166,0.00000089,0.00000365,0.00000256,0.00000168,-0.00000148,-0.000
 00287,-0.00000129,0.00000132,0.00000208,0.00000205,-0.00000114,-0.0000
 0266,0.00000170,-0.00000366,0.00000252,-0.00000389,-0.00000204,-0.0000
 0112,-0.00000136,0.00000208,-0.00000010,-0.00000053,0.00000035,-0.0000
 0004,0.00000084,-0.00000037,-0.00000097,0.00000105,0.00000371,-0.00000
 047,0.00000294,-0.00000293,0.00000228,-0.00000151,-0.00000076,-0.00000
 013,0.00000035,0.00000017,-0.00000059,-0.00000014,0.00000025,0.0000004
 5,-0.00000423,-0.00000231,-0.00000098,0.00000135,0.00000549,-0.0000019
 6,0.00000137,-0.00000241,0.00000238,-0.00000059,0.00000042,0.00000033,
 0.00000067,-0.00000002,-0.00000155,-0.00000135,-0.00000085,0.00000064,
 0.00000104,0.00000144,0.00000033,-0.00000379,-0.00000316,0.00000045,-0
 .00000048,-0.00000380,0.00000243,-0.00000014,0.00000226,0.00000113,0.0
 0000331,-0.00000160,-0.00000172,-0.00000096,0.00000371,-0.00000260,-0.
 00000165,-0.00000150,0.00000285,0.00000108,0.00000122,-0.00000243,-0.0
 0000128,0.00000606,0.00000159,-0.00000119,-0.00000237,-0.00000247,-0.0
 0000081,-0.00000008,0.00000166,0.00000049,0.00000045,-0.00000011,0.000
 00467,-0.00000226,0.00000093,-0.00000041,-0.00000070,0.00000030,0.0000
 0073,0.00000038,0.00000006,-0.00000070,0.00000065,-0.00000032,-0.00000
 003,-0.00000004,-0.00000010,0.00000054,0.00000017,0.00000057,0.0000001
 1,-0.00000025,-0.00000079,-0.00000077,0.00000061,-0.00000009,-0.000000
 54,-0.00000044,-0.00000063,0.00000002,-0.00000027,0.00000066,0.0000004
 4,-0.00000012,0.00000072,0.00000002,-0.00000064,-0.00000075,-0.0000007
 0,0.00000031,-0.00000041,0.00000049,0.00000033,-0.00000065,-0.00000122
 ,0.00000087,0.00000072,0.00000012,-0.00000098,-0.00000028,-0.00000003,
 0.00000068,-0.00000052,0.00000063,-0.00000024,-0.00000029,-0.00000040,
 -0.00000033,0.00000055,0.00000097,-0.00000023,-0.00000081,0.00000042,-
 0.00000076,-0.00000089,0.00000062,-0.00000002,-0.00000087,-0.00000017,
 -0.00000026,-0.00000042,0.00000139,0.00000065,-0.00000065,-0.00000040,
 0.00000030,0.00000072,-0.00000013,-0.00000103,0.00000017,0.00000058,0.
 00000050,0.00000052,-0.00000010,-0.00000072,0.00000073,-0.00000038,-0.
 00000024,-0.00000054,0.00000048,-0.00000049,0.00000069,0.00000008,-0.0
 0000014,0.00000008,0.00000073,0.00000058,0.00000034,0.00000044,-0.0000
 0078,-0.00000028,-0.00000067,0.00000033,-0.00000006,0.00000082,0.00000
 054,0.00000012,-0.00000052,0.00000007,-0.00000055,-0.00000008,-0.00000
 032,0.00000082,0.00000005,0.00000080,-0.00000046,-0.00000008,-0.000000
 04,0.00000064,-0.00000038,-0.00000056,0.00000063,0.00000065,0.00000076
 ,-0.00000037,-0.00000059,-0.00000004,-0.00000057,0.00000031,0.00000140
 ,0.00000107,-0.00000088,-0.00000028,-0.00000019,0.00000056,-0.00000020
 ,-0.00000048,0.00000002,0.00000065,0.00000052,-0.00000063,-0.00000026,
 0.00000026,0.00000024,-0.00000048,-0.00000065,-0.00000102,-0.00000022,
 0.00000076,-0.00000044,-0.00000073,0.00000086,-0.00000069,-0.00000002,
 0.00000083,0.00000014,0.00000015,-0.00000065,0.00000091,-0.00000027,0.
 00000021,-0.00000037,0.00000144,-0.00000115,-0.00000051,-0.00000019,0.
 00000044,-0.00000054,0.00000080,0.00000036,0.00000062,-0.00000001,0.00
 000058,0.00000042,-0.00000050,-0.00000063,0.,0.00000088,0.00000051\\\@
 The archive entry for this job was punched.


 GARBAGE IN, GARBAGE OUT
 Job cpu time:       0 days 21 hours 26 minutes 11.2 seconds.
 Elapsed time:       0 days  0 hours 40 minutes 23.0 seconds.
 File lengths (MBytes):  RWF=   8453 Int=      0 D2E=      0 Chk=     65 Scr=      1
 Normal termination of Gaussian 16 at Mon Mar 24 18:24:22 2025.
