 Entering Gaussian System, Link 0=g16
 Initial command:
 /public/software/apps/Gaussian/g16/l1.exe "/tmp/Gau-35460.inp" -scrdir="/tmp/"
 Entering Link 1 = /public/software/apps/Gaussian/g16/l1.exe PID=     35461.
  
 Copyright (c) 1988-2019, Gaussian, Inc.  All Rights Reserved.
  
 This is part of the Gaussian(R) 16 program.  It is based on
 the Gaussian(R) 09 system (copyright 2009, Gaussian, Inc.),
 the Gaussian(R) 03 system (copyright 2003, Gaussian, Inc.),
 the Gaussian(R) 98 system (copyright 1998, Gaussian, Inc.),
 the Gaussian(R) 94 system (copyright 1995, Gaussian, Inc.),
 the Gaussian 92(TM) system (copyright 1992, Gaussian, Inc.),
 the Gaussian 90(TM) system (copyright 1990, Gaussian, Inc.),
 the Gaussian 88(TM) system (copyright 1988, Gaussian, Inc.),
 the Gaussian 86(TM) system (copyright 1986, Carnegie Mellon
 University), and the Gaussian 82(TM) system (copyright 1983,
 Carnegie Mellon University). Gaussian is a federally registered
 trademark of Gaussian, Inc.
  
 This software contains proprietary and confidential information,
 including trade secrets, belonging to Gaussian, Inc.
  
 This software is provided under written license and may be
 used, copied, transmitted, or stored only in accord with that
 written license.
  
 The following legend is applicable only to US Government
 contracts under FAR:
  
                    RESTRICTED RIGHTS LEGEND
  
 Use, reproduction and disclosure by the US Government is
 subject to restrictions as set forth in subparagraphs (a)
 and (c) of the Commercial Computer Software - Restricted
 Rights clause in FAR 52.227-19.
  
 Gaussian, Inc.
 340 Quinnipiac St., Bldg. 40, Wallingford CT 06492
  
  
 ---------------------------------------------------------------
 Warning -- This program may not be used in any manner that
 competes with the business of Gaussian, Inc. or will provide
 assistance to any competitor of Gaussian, Inc.  The licensee
 of this program is prohibited from giving any competitor of
 Gaussian, Inc. access to this program.  By using this program,
 the user acknowledges that Gaussian, Inc. is engaged in the
 business of creating and licensing software in the field of
 computational chemistry and represents and warrants to the
 licensee that it is not a competitor of Gaussian, Inc. and that
 it will not use this program in any manner prohibited above.
 ---------------------------------------------------------------
  

 Cite this work as:
 Gaussian 16, Revision C.01,
 M. J. Frisch, G. W. Trucks, H. B. Schlegel, G. E. Scuseria, 
 M. A. Robb, J. R. Cheeseman, G. Scalmani, V. Barone, 
 G. A. Petersson, H. Nakatsuji, X. Li, M. Caricato, A. V. Marenich, 
 J. Bloino, B. G. Janesko, R. Gomperts, B. Mennucci, H. P. Hratchian, 
 J. V. Ortiz, A. F. Izmaylov, J. L. Sonnenberg, D. Williams-Young, 
 F. Ding, F. Lipparini, F. Egidi, J. Goings, B. Peng, A. Petrone, 
 T. Henderson, D. Ranasinghe, V. G. Zakrzewski, J. Gao, N. Rega, 
 G. Zheng, W. Liang, M. Hada, M. Ehara, K. Toyota, R. Fukuda, 
 J. Hasegawa, M. Ishida, T. Nakajima, Y. Honda, O. Kitao, H. Nakai, 
 T. Vreven, K. Throssell, J. A. Montgomery, Jr., J. E. Peralta, 
 F. Ogliaro, M. J. Bearpark, J. J. Heyd, E. N. Brothers, K. N. Kudin, 
 V. N. Staroverov, T. A. Keith, R. Kobayashi, J. Normand, 
 K. Raghavachari, A. P. Rendell, J. C. Burant, S. S. Iyengar, 
 J. Tomasi, M. Cossi, J. M. Millam, M. Klene, C. Adamo, R. Cammi, 
 J. W. Ochterski, R. L. Martin, K. Morokuma, O. Farkas, 
 J. B. Foresman, and D. J. Fox, Gaussian, Inc., Wallingford CT, 2019.
 
 ******************************************
 Gaussian 16:  ES64L-G16RevC.01  3-Jul-2019
                24-Mar-2025 
 ******************************************
 %nprocshared=32
 Will use up to   32 processors via shared memory.
 %mem=100GB
 ------------------------------------------
 #p opt freq b3lyp/def2svpp em=gd3bj nosymm
 ------------------------------------------
 1/18=20,19=15,26=3,38=1/1,3;
 2/9=110,12=2,15=1,17=6,18=5,40=1/2;
 3/5=43,7=202,11=2,25=1,30=1,71=1,74=-5,124=41/1,2,3;
 4//1;
 5/5=2,38=5/2;
 6/7=2,8=2,9=2,10=2,28=1/1;
 7/30=1/1,2,3,16;
 1/18=20,19=15,26=3/3(2);
 2/9=110,15=1/2;
 99//99;
 2/9=110,15=1/2;
 3/5=43,7=202,11=2,25=1,30=1,71=1,74=-5,124=41/1,2,3;
 4/5=5,16=3,69=1/1;
 5/5=2,38=5/2;
 7/30=1/1,2,3,16;
 1/18=20,19=15,26=3/3(-5);
 2/9=110,15=1/2;
 6/7=2,8=2,9=2,10=2,19=2,28=1/1;
 99/9=1/99;
 Leave Link    1 at Mon Mar 24 21:22:49 2025, MaxMem= 13421772800 cpu:               1.3 elap:               0.0
 (Enter /public/software/apps/Gaussian/g16/l101.exe)
 ----------------------
 $$$$Singlemol####0????
 ----------------------
 Symbolic Z-matrix:
 Charge =  0 Multiplicity = 1
 C                    -9.44538   0.66103  -0.50085 
 C                    -8.96705  -0.39268   0.50303 
 C                    -9.15067   0.11162   1.93753 
 C                    -9.67894  -1.70999   0.2903 
 C                    -11.02359  -1.99242   0.39412 
 C                    -11.45658  -3.28913   0.14984 
 C                    -10.55579  -4.28538  -0.19291 
 C                    -9.20225  -4.01012  -0.3 
 C                    -8.76716  -2.71782  -0.0569 
 C                    -7.43419  -2.14039  -0.09104 
 C                    -6.20317  -2.70506  -0.38185 
 C                    -5.07661  -1.90349  -0.34509 
 C                    -5.15946  -0.55157  -0.01291 
 C                    -3.95      0.28138   0.02548 
 C                    -2.97205   0.16138  -0.98497 
 C                    -1.85165   0.94008  -0.97828 
 C                    -1.62984   1.88568   0.04736 
 C                    -0.47563   2.70987   0.07611 
 C                     0.51058   2.67636  -1.03527 
 C                     0.17173   3.22681  -2.25811 
 O                    -1.04675   3.77656  -2.49796 
 C                     1.10396   3.25224  -3.31368 
 C                     2.35258   2.73211  -3.14533 
 C                     2.73659   2.15002  -1.91814 
 C                     4.01579   1.59727  -1.72826 
 C                     4.37913   1.01351  -0.53696 
 C                     5.71374   0.42788  -0.35472 
 C                     6.84285   1.07443  -0.85755 
 C                     8.1082    0.53829  -0.70289 
 C                     8.24472  -0.66909  -0.03761 
 C                     7.11606  -1.32814   0.47142 
 C                     5.86096  -0.78707   0.31973 
 C                     7.5114   -2.6208    1.1497 
 C                     6.87312  -3.8273    0.45459 
 C                     7.13961  -2.59987   2.63559 
 C                     9.01211  -2.61347   0.9622 
 C                     9.93906  -3.54676   1.37255 
 C                     11.28034  -3.33006   1.08514 
 C                     11.6847  -2.19614   0.398 
 C                     10.75958  -1.25252  -0.01795 
 C                     9.42101  -1.4658    0.26702 
 C                     3.43598   0.97367   0.5125 
 C                     2.18995   1.50928   0.36328 
 C                     1.80118   2.11802  -0.85053 
 C                    -0.28596   3.58518   1.12988 
 O                     0.79747   4.39957   1.21547 
 C                    -1.23911   3.67697   2.16298 
 C                    -2.36409   2.90765   2.13587 
 C                    -2.5927    1.99333   1.08514 
 C                    -3.74463   1.18742   1.03959 
 C                    -6.40427   0.00923   0.28399 
 C                    -7.52922  -0.78036   0.23906 
 H                    -8.8773    1.58093  -0.38293 
 H                    -10.49929   0.87978  -0.34554 
 H                    -9.31199   0.29851  -1.51802 
 H                    -10.19966   0.32167   2.13279 
 H                    -8.57854   1.02333   2.09335 
 H                    -8.80892  -0.63959   2.64662 
 H                    -11.73517  -1.22404   0.66028 
 H                    -12.50811  -3.5243    0.22799 
 H                    -10.91466  -5.28749  -0.37821 
 H                    -8.50217  -4.78791  -0.56706 
 H                    -6.12082  -3.75235  -0.63249 
 H                    -4.10847  -2.33509  -0.55476 
 H                    -3.13095  -0.54692  -1.78463 
 H                    -1.11378   0.83449  -1.76076 
 H                    -1.61033   3.66948  -1.71893 
 H                     0.79307   3.69725  -4.24547 
 H                     3.06658   2.75619  -3.95521 
 H                     4.71002   1.61551  -2.55629 
 H                     6.72391   2.02382  -1.35944 
 H                     8.97245   1.0551   -1.09326 
 H                     4.98747  -1.30163   0.69355 
 H                     5.78966  -3.78194   0.53759 
 H                     7.14057  -3.83806  -0.60003 
 H                     7.21897  -4.75227   0.91013 
 H                     6.06018  -2.53952   2.75413 
 H                     7.49351  -3.50344   3.1265 
 H                     7.59212  -1.73924   3.12396 
 H                     9.63576  -4.4345    1.90876 
 H                     12.01751  -4.05401   1.40074 
 H                     12.73349  -2.04793   0.18489 
 H                     11.07678  -0.36981  -0.55329 
 H                     3.71939   0.52699   1.45412 
 H                     1.4806    1.46568   1.17747 
 H                     1.39337   4.2265    0.47325 
 H                    -1.04694   4.3768    2.96065 
 H                    -3.09693   2.98646   2.92527 
 H                    -4.46447   1.27515   1.84112 
 H                    -6.47248   1.06087   0.52286 
 
 ITRead=  0  0  0  0  0  0  0  0  0  0  0  0  0  0  0  0  0  0  0  0
 ITRead=  0  0  0  0  0  0  0  0  0  0  0  0  0  0  0  0  0  0  0  0
 ITRead=  0  0  0  0  0  0  0  0  0  0  0  0  0  0  0  0  0  0  0  0
 ITRead=  0  0  0  0  0  0  0  0  0  0  0  0  0  0  0  0  0  0  0  0
 ITRead=  0  0  0  0  0  0  0  0  0  0
 MicOpt= -1 -1 -1 -1 -1 -1 -1 -1 -1 -1 -1 -1 -1 -1 -1 -1 -1 -1 -1 -1
 MicOpt= -1 -1 -1 -1 -1 -1 -1 -1 -1 -1 -1 -1 -1 -1 -1 -1 -1 -1 -1 -1
 MicOpt= -1 -1 -1 -1 -1 -1 -1 -1 -1 -1 -1 -1 -1 -1 -1 -1 -1 -1 -1 -1
 MicOpt= -1 -1 -1 -1 -1 -1 -1 -1 -1 -1 -1 -1 -1 -1 -1 -1 -1 -1 -1 -1
 MicOpt= -1 -1 -1 -1 -1 -1 -1 -1 -1 -1
 NAtoms=     90 NQM=       90 NQMF=       0 NMMI=      0 NMMIF=      0
                NMic=       0 NMicF=      0.
                    Isotopes and Nuclear Properties:
 (Nuclear quadrupole moments (NQMom) in fm**2, nuclear magnetic moments (NMagM)
  in nuclear magnetons)

  Atom         1           2           3           4           5           6           7           8           9          10
 IAtWgt=          12          12          12          12          12          12          12          12          12          12
 AtmWgt=  12.0000000  12.0000000  12.0000000  12.0000000  12.0000000  12.0000000  12.0000000  12.0000000  12.0000000  12.0000000
 NucSpn=           0           0           0           0           0           0           0           0           0           0
 AtZEff=  -0.0000000  -0.0000000  -0.0000000  -0.0000000  -0.0000000  -0.0000000  -0.0000000  -0.0000000  -0.0000000  -0.0000000
 NQMom=    0.0000000   0.0000000   0.0000000   0.0000000   0.0000000   0.0000000   0.0000000   0.0000000   0.0000000   0.0000000
 NMagM=    0.0000000   0.0000000   0.0000000   0.0000000   0.0000000   0.0000000   0.0000000   0.0000000   0.0000000   0.0000000
 AtZNuc=   6.0000000   6.0000000   6.0000000   6.0000000   6.0000000   6.0000000   6.0000000   6.0000000   6.0000000   6.0000000

  Atom        11          12          13          14          15          16          17          18          19          20
 IAtWgt=          12          12          12          12          12          12          12          12          12          12
 AtmWgt=  12.0000000  12.0000000  12.0000000  12.0000000  12.0000000  12.0000000  12.0000000  12.0000000  12.0000000  12.0000000
 NucSpn=           0           0           0           0           0           0           0           0           0           0
 AtZEff=  -0.0000000  -0.0000000  -0.0000000  -0.0000000  -0.0000000  -0.0000000  -0.0000000  -0.0000000  -0.0000000  -0.0000000
 NQMom=    0.0000000   0.0000000   0.0000000   0.0000000   0.0000000   0.0000000   0.0000000   0.0000000   0.0000000   0.0000000
 NMagM=    0.0000000   0.0000000   0.0000000   0.0000000   0.0000000   0.0000000   0.0000000   0.0000000   0.0000000   0.0000000
 AtZNuc=   6.0000000   6.0000000   6.0000000   6.0000000   6.0000000   6.0000000   6.0000000   6.0000000   6.0000000   6.0000000

  Atom        21          22          23          24          25          26          27          28          29          30
 IAtWgt=          16          12          12          12          12          12          12          12          12          12
 AtmWgt=  15.9949146  12.0000000  12.0000000  12.0000000  12.0000000  12.0000000  12.0000000  12.0000000  12.0000000  12.0000000
 NucSpn=           0           0           0           0           0           0           0           0           0           0
 AtZEff=  -0.0000000  -0.0000000  -0.0000000  -0.0000000  -0.0000000  -0.0000000  -0.0000000  -0.0000000  -0.0000000  -0.0000000
 NQMom=    0.0000000   0.0000000   0.0000000   0.0000000   0.0000000   0.0000000   0.0000000   0.0000000   0.0000000   0.0000000
 NMagM=    0.0000000   0.0000000   0.0000000   0.0000000   0.0000000   0.0000000   0.0000000   0.0000000   0.0000000   0.0000000
 AtZNuc=   8.0000000   6.0000000   6.0000000   6.0000000   6.0000000   6.0000000   6.0000000   6.0000000   6.0000000   6.0000000

  Atom        31          32          33          34          35          36          37          38          39          40
 IAtWgt=          12          12          12          12          12          12          12          12          12          12
 AtmWgt=  12.0000000  12.0000000  12.0000000  12.0000000  12.0000000  12.0000000  12.0000000  12.0000000  12.0000000  12.0000000
 NucSpn=           0           0           0           0           0           0           0           0           0           0
 AtZEff=  -0.0000000  -0.0000000  -0.0000000  -0.0000000  -0.0000000  -0.0000000  -0.0000000  -0.0000000  -0.0000000  -0.0000000
 NQMom=    0.0000000   0.0000000   0.0000000   0.0000000   0.0000000   0.0000000   0.0000000   0.0000000   0.0000000   0.0000000
 NMagM=    0.0000000   0.0000000   0.0000000   0.0000000   0.0000000   0.0000000   0.0000000   0.0000000   0.0000000   0.0000000
 AtZNuc=   6.0000000   6.0000000   6.0000000   6.0000000   6.0000000   6.0000000   6.0000000   6.0000000   6.0000000   6.0000000

  Atom        41          42          43          44          45          46          47          48          49          50
 IAtWgt=          12          12          12          12          12          16          12          12          12          12
 AtmWgt=  12.0000000  12.0000000  12.0000000  12.0000000  12.0000000  15.9949146  12.0000000  12.0000000  12.0000000  12.0000000
 NucSpn=           0           0           0           0           0           0           0           0           0           0
 AtZEff=  -0.0000000  -0.0000000  -0.0000000  -0.0000000  -0.0000000  -0.0000000  -0.0000000  -0.0000000  -0.0000000  -0.0000000
 NQMom=    0.0000000   0.0000000   0.0000000   0.0000000   0.0000000   0.0000000   0.0000000   0.0000000   0.0000000   0.0000000
 NMagM=    0.0000000   0.0000000   0.0000000   0.0000000   0.0000000   0.0000000   0.0000000   0.0000000   0.0000000   0.0000000
 AtZNuc=   6.0000000   6.0000000   6.0000000   6.0000000   6.0000000   8.0000000   6.0000000   6.0000000   6.0000000   6.0000000

  Atom        51          52          53          54          55          56          57          58          59          60
 IAtWgt=          12          12           1           1           1           1           1           1           1           1
 AtmWgt=  12.0000000  12.0000000   1.0078250   1.0078250   1.0078250   1.0078250   1.0078250   1.0078250   1.0078250   1.0078250
 NucSpn=           0           0           1           1           1           1           1           1           1           1
 AtZEff=  -0.0000000  -0.0000000  -0.0000000  -0.0000000  -0.0000000  -0.0000000  -0.0000000  -0.0000000  -0.0000000  -0.0000000
 NQMom=    0.0000000   0.0000000   0.0000000   0.0000000   0.0000000   0.0000000   0.0000000   0.0000000   0.0000000   0.0000000
 NMagM=    0.0000000   0.0000000   2.7928460   2.7928460   2.7928460   2.7928460   2.7928460   2.7928460   2.7928460   2.7928460
 AtZNuc=   6.0000000   6.0000000   1.0000000   1.0000000   1.0000000   1.0000000   1.0000000   1.0000000   1.0000000   1.0000000

  Atom        61          62          63          64          65          66          67          68          69          70
 IAtWgt=           1           1           1           1           1           1           1           1           1           1
 AtmWgt=   1.0078250   1.0078250   1.0078250   1.0078250   1.0078250   1.0078250   1.0078250   1.0078250   1.0078250   1.0078250
 NucSpn=           1           1           1           1           1           1           1           1           1           1
 AtZEff=  -0.0000000  -0.0000000  -0.0000000  -0.0000000  -0.0000000  -0.0000000  -0.0000000  -0.0000000  -0.0000000  -0.0000000
 NQMom=    0.0000000   0.0000000   0.0000000   0.0000000   0.0000000   0.0000000   0.0000000   0.0000000   0.0000000   0.0000000
 NMagM=    2.7928460   2.7928460   2.7928460   2.7928460   2.7928460   2.7928460   2.7928460   2.7928460   2.7928460   2.7928460
 AtZNuc=   1.0000000   1.0000000   1.0000000   1.0000000   1.0000000   1.0000000   1.0000000   1.0000000   1.0000000   1.0000000

  Atom        71          72          73          74          75          76          77          78          79          80
 IAtWgt=           1           1           1           1           1           1           1           1           1           1
 AtmWgt=   1.0078250   1.0078250   1.0078250   1.0078250   1.0078250   1.0078250   1.0078250   1.0078250   1.0078250   1.0078250
 NucSpn=           1           1           1           1           1           1           1           1           1           1
 AtZEff=  -0.0000000  -0.0000000  -0.0000000  -0.0000000  -0.0000000  -0.0000000  -0.0000000  -0.0000000  -0.0000000  -0.0000000
 NQMom=    0.0000000   0.0000000   0.0000000   0.0000000   0.0000000   0.0000000   0.0000000   0.0000000   0.0000000   0.0000000
 NMagM=    2.7928460   2.7928460   2.7928460   2.7928460   2.7928460   2.7928460   2.7928460   2.7928460   2.7928460   2.7928460
 AtZNuc=   1.0000000   1.0000000   1.0000000   1.0000000   1.0000000   1.0000000   1.0000000   1.0000000   1.0000000   1.0000000

  Atom        81          82          83          84          85          86          87          88          89          90
 IAtWgt=           1           1           1           1           1           1           1           1           1           1
 AtmWgt=   1.0078250   1.0078250   1.0078250   1.0078250   1.0078250   1.0078250   1.0078250   1.0078250   1.0078250   1.0078250
 NucSpn=           1           1           1           1           1           1           1           1           1           1
 AtZEff=  -0.0000000  -0.0000000  -0.0000000  -0.0000000  -0.0000000  -0.0000000  -0.0000000  -0.0000000  -0.0000000  -0.0000000
 NQMom=    0.0000000   0.0000000   0.0000000   0.0000000   0.0000000   0.0000000   0.0000000   0.0000000   0.0000000   0.0000000
 NMagM=    2.7928460   2.7928460   2.7928460   2.7928460   2.7928460   2.7928460   2.7928460   2.7928460   2.7928460   2.7928460
 AtZNuc=   1.0000000   1.0000000   1.0000000   1.0000000   1.0000000   1.0000000   1.0000000   1.0000000   1.0000000   1.0000000
 Leave Link  101 at Mon Mar 24 21:22:49 2025, MaxMem= 13421772800 cpu:              16.5 elap:               0.5
 (Enter /public/software/apps/Gaussian/g16/l103.exe)

 GradGradGradGradGradGradGradGradGradGradGradGradGradGradGradGradGradGrad
 Berny optimization.
 Initialization pass.
                           ----------------------------
                           !    Initial Parameters    !
                           ! (Angstroms and Degrees)  !
 --------------------------                            --------------------------
 ! Name  Definition              Value          Derivative Info.                !
 --------------------------------------------------------------------------------
 ! R1    R(1,2)                  1.532          estimate D2E/DX2                !
 ! R2    R(1,53)                 1.0876         estimate D2E/DX2                !
 ! R3    R(1,54)                 1.0875         estimate D2E/DX2                !
 ! R4    R(1,55)                 1.088          estimate D2E/DX2                !
 ! R5    R(2,3)                  1.5316         estimate D2E/DX2                !
 ! R6    R(2,4)                  1.5124         estimate D2E/DX2                !
 ! R7    R(2,52)                 1.5124         estimate D2E/DX2                !
 ! R8    R(3,56)                 1.0875         estimate D2E/DX2                !
 ! R9    R(3,57)                 1.0876         estimate D2E/DX2                !
 ! R10   R(3,58)                 1.0881         estimate D2E/DX2                !
 ! R11   R(4,5)                  1.3779         estimate D2E/DX2                !
 ! R12   R(4,9)                  1.4027         estimate D2E/DX2                !
 ! R13   R(5,6)                  1.3887         estimate D2E/DX2                !
 ! R14   R(5,59)                 1.0806         estimate D2E/DX2                !
 ! R15   R(6,7)                  1.3861         estimate D2E/DX2                !
 ! R16   R(6,60)                 1.0803         estimate D2E/DX2                !
 ! R17   R(7,8)                  1.3854         estimate D2E/DX2                !
 ! R18   R(7,61)                 1.0804         estimate D2E/DX2                !
 ! R19   R(8,9)                  1.3851         estimate D2E/DX2                !
 ! R20   R(8,62)                 1.08           estimate D2E/DX2                !
 ! R21   R(9,10)                 1.4531         estimate D2E/DX2                !
 ! R22   R(10,11)                1.3852         estimate D2E/DX2                !
 ! R23   R(10,52)                1.4027         estimate D2E/DX2                !
 ! R24   R(11,12)                1.3831         estimate D2E/DX2                !
 ! R25   R(11,63)                1.08           estimate D2E/DX2                !
 ! R26   R(12,13)                1.3946         estimate D2E/DX2                !
 ! R27   R(12,64)                1.0805         estimate D2E/DX2                !
 ! R28   R(13,14)                1.469          estimate D2E/DX2                !
 ! R29   R(13,51)                1.3972         estimate D2E/DX2                !
 ! R30   R(14,15)                1.4113         estimate D2E/DX2                !
 ! R31   R(14,50)                1.3753         estimate D2E/DX2                !
 ! R32   R(15,16)                1.3644         estimate D2E/DX2                !
 ! R33   R(15,65)                1.08           estimate D2E/DX2                !
 ! R34   R(16,17)                1.4126         estimate D2E/DX2                !
 ! R35   R(16,66)                1.0807         estimate D2E/DX2                !
 ! R36   R(17,18)                1.4186         estimate D2E/DX2                !
 ! R37   R(17,49)                1.4198         estimate D2E/DX2                !
 ! R38   R(18,19)                1.4862         estimate D2E/DX2                !
 ! R39   R(18,45)                1.383          estimate D2E/DX2                !
 ! R40   R(19,20)                1.3832         estimate D2E/DX2                !
 ! R41   R(19,44)                1.4183         estimate D2E/DX2                !
 ! R42   R(20,21)                1.3581         estimate D2E/DX2                !
 ! R43   R(20,22)                1.4085         estimate D2E/DX2                !
 ! R44   R(21,67)                0.9675         estimate D2E/DX2                !
 ! R45   R(22,23)                1.3631         estimate D2E/DX2                !
 ! R46   R(22,68)                1.0784         estimate D2E/DX2                !
 ! R47   R(23,24)                1.4115         estimate D2E/DX2                !
 ! R48   R(23,69)                1.0799         estimate D2E/DX2                !
 ! R49   R(24,25)                1.4064         estimate D2E/DX2                !
 ! R50   R(24,44)                1.4198         estimate D2E/DX2                !
 ! R51   R(25,26)                1.3755         estimate D2E/DX2                !
 ! R52   R(25,70)                1.0807         estimate D2E/DX2                !
 ! R53   R(26,27)                1.4688         estimate D2E/DX2                !
 ! R54   R(26,42)                1.4116         estimate D2E/DX2                !
 ! R55   R(27,28)                1.3949         estimate D2E/DX2                !
 ! R56   R(27,32)                1.3974         estimate D2E/DX2                !
 ! R57   R(28,29)                1.3829         estimate D2E/DX2                !
 ! R58   R(28,71)                1.0805         estimate D2E/DX2                !
 ! R59   R(29,30)                1.3853         estimate D2E/DX2                !
 ! R60   R(29,72)                1.08           estimate D2E/DX2                !
 ! R61   R(30,31)                1.4026         estimate D2E/DX2                !
 ! R62   R(30,41)                1.453          estimate D2E/DX2                !
 ! R63   R(31,32)                1.3752         estimate D2E/DX2                !
 ! R64   R(31,33)                1.5124         estimate D2E/DX2                !
 ! R65   R(32,73)                1.0805         estimate D2E/DX2                !
 ! R66   R(33,34)                1.5317         estimate D2E/DX2                !
 ! R67   R(33,35)                1.5318         estimate D2E/DX2                !
 ! R68   R(33,36)                1.5124         estimate D2E/DX2                !
 ! R69   R(34,74)                1.0876         estimate D2E/DX2                !
 ! R70   R(34,75)                1.088          estimate D2E/DX2                !
 ! R71   R(34,76)                1.0875         estimate D2E/DX2                !
 ! R72   R(35,77)                1.0876         estimate D2E/DX2                !
 ! R73   R(35,78)                1.0875         estimate D2E/DX2                !
 ! R74   R(35,79)                1.0881         estimate D2E/DX2                !
 ! R75   R(36,37)                1.3779         estimate D2E/DX2                !
 ! R76   R(36,41)                1.4027         estimate D2E/DX2                !
 ! R77   R(37,38)                1.3887         estimate D2E/DX2                !
 ! R78   R(37,80)                1.0805         estimate D2E/DX2                !
 ! R79   R(38,39)                1.3862         estimate D2E/DX2                !
 ! R80   R(38,81)                1.0803         estimate D2E/DX2                !
 ! R81   R(39,40)                1.3854         estimate D2E/DX2                !
 ! R82   R(39,82)                1.0804         estimate D2E/DX2                !
 ! R83   R(40,41)                1.3851         estimate D2E/DX2                !
 ! R84   R(40,83)                1.08           estimate D2E/DX2                !
 ! R85   R(42,43)                1.3644         estimate D2E/DX2                !
 ! R86   R(42,84)                1.08           estimate D2E/DX2                !
 ! R87   R(43,44)                1.4125         estimate D2E/DX2                !
 ! R88   R(43,85)                1.0807         estimate D2E/DX2                !
 ! R89   R(45,46)                1.3581         estimate D2E/DX2                !
 ! R90   R(45,47)                1.4086         estimate D2E/DX2                !
 ! R91   R(46,86)                0.9674         estimate D2E/DX2                !
 ! R92   R(47,48)                1.3632         estimate D2E/DX2                !
 ! R93   R(47,87)                1.0784         estimate D2E/DX2                !
 ! R94   R(48,49)                1.4115         estimate D2E/DX2                !
 ! R95   R(48,88)                1.08           estimate D2E/DX2                !
 ! R96   R(49,50)                1.4066         estimate D2E/DX2                !
 ! R97   R(50,89)                1.0809         estimate D2E/DX2                !
 ! R98   R(51,52)                1.3751         estimate D2E/DX2                !
 ! R99   R(51,90)                1.0806         estimate D2E/DX2                !
 ! A1    A(2,1,53)             110.343          estimate D2E/DX2                !
 ! A2    A(2,1,54)             110.3251         estimate D2E/DX2                !
 ! A3    A(2,1,55)             110.192          estimate D2E/DX2                !
 ! A4    A(53,1,54)            108.6969         estimate D2E/DX2                !
 ! A5    A(53,1,55)            108.611          estimate D2E/DX2                !
 ! A6    A(54,1,55)            108.6227         estimate D2E/DX2                !
 ! A7    A(1,2,3)              110.478          estimate D2E/DX2                !
 ! A8    A(1,2,4)              111.0976         estimate D2E/DX2                !
 ! A9    A(1,2,52)             111.0247         estimate D2E/DX2                !
 ! A10   A(3,2,4)              111.2291         estimate D2E/DX2                !
 ! A11   A(3,2,52)             111.2139         estimate D2E/DX2                !
 ! A12   A(4,2,52)             101.5179         estimate D2E/DX2                !
 ! A13   A(2,3,56)             110.3289         estimate D2E/DX2                !
 ! A14   A(2,3,57)             110.3125         estimate D2E/DX2                !
 ! A15   A(2,3,58)             110.2062         estimate D2E/DX2                !
 ! A16   A(56,3,57)            108.6497         estimate D2E/DX2                !
 ! A17   A(56,3,58)            108.6212         estimate D2E/DX2                !
 ! A18   A(57,3,58)            108.6727         estimate D2E/DX2                !
 ! A19   A(2,4,5)              128.8491         estimate D2E/DX2                !
 ! A20   A(2,4,9)              110.7731         estimate D2E/DX2                !
 ! A21   A(5,4,9)              120.3777         estimate D2E/DX2                !
 ! A22   A(4,5,6)              118.8419         estimate D2E/DX2                !
 ! A23   A(4,5,59)             121.027          estimate D2E/DX2                !
 ! A24   A(6,5,59)             120.1311         estimate D2E/DX2                !
 ! A25   A(5,6,7)              120.7949         estimate D2E/DX2                !
 ! A26   A(5,6,60)             119.604          estimate D2E/DX2                !
 ! A27   A(7,6,60)             119.6011         estimate D2E/DX2                !
 ! A28   A(6,7,8)              120.7454         estimate D2E/DX2                !
 ! A29   A(6,7,61)             119.5495         estimate D2E/DX2                !
 ! A30   A(8,7,61)             119.7051         estimate D2E/DX2                !
 ! A31   A(7,8,9)              118.6018         estimate D2E/DX2                !
 ! A32   A(7,8,62)             120.6205         estimate D2E/DX2                !
 ! A33   A(9,8,62)             120.7777         estimate D2E/DX2                !
 ! A34   A(4,9,8)              120.6383         estimate D2E/DX2                !
 ! A35   A(4,9,10)             108.4561         estimate D2E/DX2                !
 ! A36   A(8,9,10)             130.9057         estimate D2E/DX2                !
 ! A37   A(9,10,11)            131.1604         estimate D2E/DX2                !
 ! A38   A(9,10,52)            108.5189         estimate D2E/DX2                !
 ! A39   A(11,10,52)           120.3206         estimate D2E/DX2                !
 ! A40   A(10,11,12)           118.8173         estimate D2E/DX2                !
 ! A41   A(10,11,63)           120.7825         estimate D2E/DX2                !
 ! A42   A(12,11,63)           120.4002         estimate D2E/DX2                !
 ! A43   A(11,12,13)           121.3154         estimate D2E/DX2                !
 ! A44   A(11,12,64)           119.5478         estimate D2E/DX2                !
 ! A45   A(13,12,64)           119.1212         estimate D2E/DX2                !
 ! A46   A(12,13,14)           120.4622         estimate D2E/DX2                !
 ! A47   A(12,13,51)           119.5137         estimate D2E/DX2                !
 ! A48   A(14,13,51)           120.0241         estimate D2E/DX2                !
 ! A49   A(13,14,15)           120.2368         estimate D2E/DX2                !
 ! A50   A(13,14,50)           121.0472         estimate D2E/DX2                !
 ! A51   A(15,14,50)           118.7159         estimate D2E/DX2                !
 ! A52   A(14,15,16)           121.1288         estimate D2E/DX2                !
 ! A53   A(14,15,65)           118.9424         estimate D2E/DX2                !
 ! A54   A(16,15,65)           119.9164         estimate D2E/DX2                !
 ! A55   A(15,16,17)           120.9672         estimate D2E/DX2                !
 ! A56   A(15,16,66)           120.0892         estimate D2E/DX2                !
 ! A57   A(17,16,66)           118.9421         estimate D2E/DX2                !
 ! A58   A(16,17,18)           122.1019         estimate D2E/DX2                !
 ! A59   A(16,17,49)           118.3599         estimate D2E/DX2                !
 ! A60   A(18,17,49)           119.5339         estimate D2E/DX2                !
 ! A61   A(17,18,19)           120.7736         estimate D2E/DX2                !
 ! A62   A(17,18,45)           119.6549         estimate D2E/DX2                !
 ! A63   A(19,18,45)           119.5409         estimate D2E/DX2                !
 ! A64   A(18,19,20)           119.3128         estimate D2E/DX2                !
 ! A65   A(18,19,44)           121.0172         estimate D2E/DX2                !
 ! A66   A(20,19,44)           119.6531         estimate D2E/DX2                !
 ! A67   A(19,20,21)           122.4811         estimate D2E/DX2                !
 ! A68   A(19,20,22)           120.5042         estimate D2E/DX2                !
 ! A69   A(21,20,22)           117.0097         estimate D2E/DX2                !
 ! A70   A(20,21,67)           109.611          estimate D2E/DX2                !
 ! A71   A(20,22,23)           120.4529         estimate D2E/DX2                !
 ! A72   A(20,22,68)           117.6577         estimate D2E/DX2                !
 ! A73   A(23,22,68)           121.8891         estimate D2E/DX2                !
 ! A74   A(22,23,24)           120.9289         estimate D2E/DX2                !
 ! A75   A(22,23,69)           120.2985         estimate D2E/DX2                !
 ! A76   A(24,23,69)           118.7723         estimate D2E/DX2                !
 ! A77   A(23,24,25)           121.7982         estimate D2E/DX2                !
 ! A78   A(23,24,44)           118.9351         estimate D2E/DX2                !
 ! A79   A(25,24,44)           119.2661         estimate D2E/DX2                !
 ! A80   A(24,25,26)           121.6008         estimate D2E/DX2                !
 ! A81   A(24,25,70)           118.3076         estimate D2E/DX2                !
 ! A82   A(26,25,70)           120.0709         estimate D2E/DX2                !
 ! A83   A(25,26,27)           121.111          estimate D2E/DX2                !
 ! A84   A(25,26,42)           118.6462         estimate D2E/DX2                !
 ! A85   A(27,26,42)           120.2397         estimate D2E/DX2                !
 ! A86   A(26,27,28)           120.3956         estimate D2E/DX2                !
 ! A87   A(26,27,32)           120.1512         estimate D2E/DX2                !
 ! A88   A(28,27,32)           119.4525         estimate D2E/DX2                !
 ! A89   A(27,28,29)           121.3746         estimate D2E/DX2                !
 ! A90   A(27,28,71)           119.0534         estimate D2E/DX2                !
 ! A91   A(29,28,71)           119.5594         estimate D2E/DX2                !
 ! A92   A(28,29,30)           118.801          estimate D2E/DX2                !
 ! A93   A(28,29,72)           120.4148         estimate D2E/DX2                !
 ! A94   A(30,29,72)           120.784          estimate D2E/DX2                !
 ! A95   A(29,30,31)           120.2997         estimate D2E/DX2                !
 ! A96   A(29,30,41)           131.1756         estimate D2E/DX2                !
 ! A97   A(31,30,41)           108.5246         estimate D2E/DX2                !
 ! A98   A(30,31,32)           120.6324         estimate D2E/DX2                !
 ! A99   A(30,31,33)           110.7336         estimate D2E/DX2                !
 ! A100  A(32,31,33)           128.634          estimate D2E/DX2                !
 ! A101  A(27,32,31)           119.4386         estimate D2E/DX2                !
 ! A102  A(27,32,73)           119.7267         estimate D2E/DX2                !
 ! A103  A(31,32,73)           120.8171         estimate D2E/DX2                !
 ! A104  A(31,33,34)           111.1478         estimate D2E/DX2                !
 ! A105  A(31,33,35)           111.0944         estimate D2E/DX2                !
 ! A106  A(31,33,36)           101.5155         estimate D2E/DX2                !
 ! A107  A(34,33,35)           110.4763         estimate D2E/DX2                !
 ! A108  A(34,33,36)           111.1645         estimate D2E/DX2                !
 ! A109  A(35,33,36)           111.1631         estimate D2E/DX2                !
 ! A110  A(33,34,74)           110.3431         estimate D2E/DX2                !
 ! A111  A(33,34,75)           110.1956         estimate D2E/DX2                !
 ! A112  A(33,34,76)           110.3235         estimate D2E/DX2                !
 ! A113  A(74,34,75)           108.6182         estimate D2E/DX2                !
 ! A114  A(74,34,76)           108.6822         estimate D2E/DX2                !
 ! A115  A(75,34,76)           108.6281         estimate D2E/DX2                !
 ! A116  A(33,35,77)           110.3261         estimate D2E/DX2                !
 ! A117  A(33,35,78)           110.3363         estimate D2E/DX2                !
 ! A118  A(33,35,79)           110.1962         estimate D2E/DX2                !
 ! A119  A(77,35,78)           108.6562         estimate D2E/DX2                !
 ! A120  A(77,35,79)           108.6593         estimate D2E/DX2                !
 ! A121  A(78,35,79)           108.6167         estimate D2E/DX2                !
 ! A122  A(33,36,37)           128.8524         estimate D2E/DX2                !
 ! A123  A(33,36,41)           110.773          estimate D2E/DX2                !
 ! A124  A(37,36,41)           120.3746         estimate D2E/DX2                !
 ! A125  A(36,37,38)           118.8425         estimate D2E/DX2                !
 ! A126  A(36,37,80)           121.025          estimate D2E/DX2                !
 ! A127  A(38,37,80)           120.1326         estimate D2E/DX2                !
 ! A128  A(37,38,39)           120.7965         estimate D2E/DX2                !
 ! A129  A(37,38,81)           119.6041         estimate D2E/DX2                !
 ! A130  A(39,38,81)           119.5994         estimate D2E/DX2                !
 ! A131  A(38,39,40)           120.7444         estimate D2E/DX2                !
 ! A132  A(38,39,82)           119.549          estimate D2E/DX2                !
 ! A133  A(40,39,82)           119.7066         estimate D2E/DX2                !
 ! A134  A(39,40,41)           118.6004         estimate D2E/DX2                !
 ! A135  A(39,40,83)           120.6238         estimate D2E/DX2                !
 ! A136  A(41,40,83)           120.7758         estimate D2E/DX2                !
 ! A137  A(30,41,36)           108.4533         estimate D2E/DX2                !
 ! A138  A(30,41,40)           130.9051         estimate D2E/DX2                !
 ! A139  A(36,41,40)           120.6416         estimate D2E/DX2                !
 ! A140  A(26,42,43)           121.1838         estimate D2E/DX2                !
 ! A141  A(26,42,84)           118.9816         estimate D2E/DX2                !
 ! A142  A(43,42,84)           119.8235         estimate D2E/DX2                !
 ! A143  A(42,43,44)           120.965          estimate D2E/DX2                !
 ! A144  A(42,43,85)           120.0775         estimate D2E/DX2                !
 ! A145  A(44,43,85)           118.9561         estimate D2E/DX2                !
 ! A146  A(19,44,24)           119.5185         estimate D2E/DX2                !
 ! A147  A(19,44,43)           122.1452         estimate D2E/DX2                !
 ! A148  A(24,44,43)           118.3313         estimate D2E/DX2                !
 ! A149  A(18,45,46)           122.4784         estimate D2E/DX2                !
 ! A150  A(18,45,47)           120.4826         estimate D2E/DX2                !
 ! A151  A(46,45,47)           117.0334         estimate D2E/DX2                !
 ! A152  A(45,46,86)           109.6186         estimate D2E/DX2                !
 ! A153  A(45,47,48)           120.4688         estimate D2E/DX2                !
 ! A154  A(45,47,87)           117.6582         estimate D2E/DX2                !
 ! A155  A(48,47,87)           121.8716         estimate D2E/DX2                !
 ! A156  A(47,48,49)           120.9342         estimate D2E/DX2                !
 ! A157  A(47,48,88)           120.2833         estimate D2E/DX2                !
 ! A158  A(49,48,88)           118.7822         estimate D2E/DX2                !
 ! A159  A(17,49,48)           118.9086         estimate D2E/DX2                !
 ! A160  A(17,49,50)           119.2285         estimate D2E/DX2                !
 ! A161  A(48,49,50)           121.8629         estimate D2E/DX2                !
 ! A162  A(14,50,49)           121.5754         estimate D2E/DX2                !
 ! A163  A(14,50,89)           120.0534         estimate D2E/DX2                !
 ! A164  A(49,50,89)           118.352          estimate D2E/DX2                !
 ! A165  A(13,51,52)           119.4344         estimate D2E/DX2                !
 ! A166  A(13,51,90)           119.593          estimate D2E/DX2                !
 ! A167  A(52,51,90)           120.9571         estimate D2E/DX2                !
 ! A168  A(2,52,10)            110.7326         estimate D2E/DX2                !
 ! A169  A(2,52,51)            128.6711         estimate D2E/DX2                !
 ! A170  A(10,52,51)           120.5959         estimate D2E/DX2                !
 ! D1    D(53,1,2,3)            60.0106         estimate D2E/DX2                !
 ! D2    D(53,1,2,4)          -176.0457         estimate D2E/DX2                !
 ! D3    D(53,1,2,52)          -63.8619         estimate D2E/DX2                !
 ! D4    D(54,1,2,3)           -60.1166         estimate D2E/DX2                !
 ! D5    D(54,1,2,4)            63.8272         estimate D2E/DX2                !
 ! D6    D(54,1,2,52)          176.0109         estimate D2E/DX2                !
 ! D7    D(55,1,2,3)           179.9455         estimate D2E/DX2                !
 ! D8    D(55,1,2,4)           -56.1108         estimate D2E/DX2                !
 ! D9    D(55,1,2,52)           56.0729         estimate D2E/DX2                !
 ! D10   D(1,2,3,56)            60.0988         estimate D2E/DX2                !
 ! D11   D(1,2,3,57)           -59.9525         estimate D2E/DX2                !
 ! D12   D(1,2,3,58)          -179.9537         estimate D2E/DX2                !
 ! D13   D(4,2,3,56)           -63.7691         estimate D2E/DX2                !
 ! D14   D(4,2,3,57)           176.1796         estimate D2E/DX2                !
 ! D15   D(4,2,3,58)            56.1784         estimate D2E/DX2                !
 ! D16   D(52,2,3,56)         -176.1378         estimate D2E/DX2                !
 ! D17   D(52,2,3,57)           63.8109         estimate D2E/DX2                !
 ! D18   D(52,2,3,58)          -56.1902         estimate D2E/DX2                !
 ! D19   D(1,2,4,5)            -62.0876         estimate D2E/DX2                !
 ! D20   D(1,2,4,9)            117.8324         estimate D2E/DX2                !
 ! D21   D(3,2,4,5)             61.4275         estimate D2E/DX2                !
 ! D22   D(3,2,4,9)           -118.6524         estimate D2E/DX2                !
 ! D23   D(52,2,4,5)           179.8085         estimate D2E/DX2                !
 ! D24   D(52,2,4,9)            -0.2715         estimate D2E/DX2                !
 ! D25   D(1,2,52,10)         -117.7755         estimate D2E/DX2                !
 ! D26   D(1,2,52,51)           61.9872         estimate D2E/DX2                !
 ! D27   D(3,2,52,10)          118.7728         estimate D2E/DX2                !
 ! D28   D(3,2,52,51)          -61.4645         estimate D2E/DX2                !
 ! D29   D(4,2,52,10)            0.3809         estimate D2E/DX2                !
 ! D30   D(4,2,52,51)         -179.8564         estimate D2E/DX2                !
 ! D31   D(2,4,5,6)            179.9405         estimate D2E/DX2                !
 ! D32   D(2,4,5,59)            -0.0502         estimate D2E/DX2                !
 ! D33   D(9,4,5,6)              0.0271         estimate D2E/DX2                !
 ! D34   D(9,4,5,59)          -179.9636         estimate D2E/DX2                !
 ! D35   D(2,4,9,8)           -179.9506         estimate D2E/DX2                !
 ! D36   D(2,4,9,10)             0.0768         estimate D2E/DX2                !
 ! D37   D(5,4,9,8)             -0.0228         estimate D2E/DX2                !
 ! D38   D(5,4,9,10)          -179.9954         estimate D2E/DX2                !
 ! D39   D(4,5,6,7)             -0.0085         estimate D2E/DX2                !
 ! D40   D(4,5,6,60)           179.9843         estimate D2E/DX2                !
 ! D41   D(59,5,6,7)           179.9823         estimate D2E/DX2                !
 ! D42   D(59,5,6,60)           -0.0249         estimate D2E/DX2                !
 ! D43   D(5,6,7,8)             -0.0151         estimate D2E/DX2                !
 ! D44   D(5,6,7,61)           179.9751         estimate D2E/DX2                !
 ! D45   D(60,6,7,8)           179.9921         estimate D2E/DX2                !
 ! D46   D(60,6,7,61)           -0.0177         estimate D2E/DX2                !
 ! D47   D(6,7,8,9)              0.0195         estimate D2E/DX2                !
 ! D48   D(6,7,8,62)           179.9927         estimate D2E/DX2                !
 ! D49   D(61,7,8,9)          -179.9707         estimate D2E/DX2                !
 ! D50   D(61,7,8,62)            0.0025         estimate D2E/DX2                !
 ! D51   D(7,8,9,4)             -0.0008         estimate D2E/DX2                !
 ! D52   D(7,8,9,10)           179.9648         estimate D2E/DX2                !
 ! D53   D(62,8,9,4)          -179.974          estimate D2E/DX2                !
 ! D54   D(62,8,9,10)           -0.0084         estimate D2E/DX2                !
 ! D55   D(4,9,10,11)         -179.6912         estimate D2E/DX2                !
 ! D56   D(4,9,10,52)            0.1742         estimate D2E/DX2                !
 ! D57   D(8,9,10,11)            0.34           estimate D2E/DX2                !
 ! D58   D(8,9,10,52)         -179.7946         estimate D2E/DX2                !
 ! D59   D(9,10,11,12)         179.615          estimate D2E/DX2                !
 ! D60   D(9,10,11,63)          -0.4305         estimate D2E/DX2                !
 ! D61   D(52,10,11,12)         -0.2371         estimate D2E/DX2                !
 ! D62   D(52,10,11,63)        179.7173         estimate D2E/DX2                !
 ! D63   D(9,10,52,2)           -0.3584         estimate D2E/DX2                !
 ! D64   D(9,10,52,51)         179.8569         estimate D2E/DX2                !
 ! D65   D(11,10,52,2)         179.5242         estimate D2E/DX2                !
 ! D66   D(11,10,52,51)         -0.2606         estimate D2E/DX2                !
 ! D67   D(10,11,12,13)          0.4984         estimate D2E/DX2                !
 ! D68   D(10,11,12,64)        179.0473         estimate D2E/DX2                !
 ! D69   D(63,11,12,13)       -179.4562         estimate D2E/DX2                !
 ! D70   D(63,11,12,64)         -0.9073         estimate D2E/DX2                !
 ! D71   D(11,12,13,14)        179.7611         estimate D2E/DX2                !
 ! D72   D(11,12,13,51)         -0.2644         estimate D2E/DX2                !
 ! D73   D(64,12,13,14)          1.2062         estimate D2E/DX2                !
 ! D74   D(64,12,13,51)       -178.8193         estimate D2E/DX2                !
 ! D75   D(12,13,14,15)         42.4573         estimate D2E/DX2                !
 ! D76   D(12,13,14,50)       -137.4374         estimate D2E/DX2                !
 ! D77   D(51,13,14,15)       -137.5171         estimate D2E/DX2                !
 ! D78   D(51,13,14,50)         42.5882         estimate D2E/DX2                !
 ! D79   D(12,13,51,52)         -0.238          estimate D2E/DX2                !
 ! D80   D(12,13,51,90)       -178.8219         estimate D2E/DX2                !
 ! D81   D(14,13,51,52)        179.7366         estimate D2E/DX2                !
 ! D82   D(14,13,51,90)          1.1527         estimate D2E/DX2                !
 ! D83   D(13,14,15,16)        178.9967         estimate D2E/DX2                !
 ! D84   D(13,14,15,65)          0.2794         estimate D2E/DX2                !
 ! D85   D(50,14,15,16)         -1.1061         estimate D2E/DX2                !
 ! D86   D(50,14,15,65)       -179.8235         estimate D2E/DX2                !
 ! D87   D(13,14,50,49)       -179.8058         estimate D2E/DX2                !
 ! D88   D(13,14,50,89)          1.8152         estimate D2E/DX2                !
 ! D89   D(15,14,50,49)          0.2979         estimate D2E/DX2                !
 ! D90   D(15,14,50,89)       -178.0811         estimate D2E/DX2                !
 ! D91   D(14,15,16,17)          0.476          estimate D2E/DX2                !
 ! D92   D(14,15,16,66)       -179.9675         estimate D2E/DX2                !
 ! D93   D(65,15,16,17)        179.181          estimate D2E/DX2                !
 ! D94   D(65,15,16,66)         -1.2626         estimate D2E/DX2                !
 ! D95   D(15,16,17,18)       -179.831          estimate D2E/DX2                !
 ! D96   D(15,16,17,49)          0.9372         estimate D2E/DX2                !
 ! D97   D(66,16,17,18)          0.6075         estimate D2E/DX2                !
 ! D98   D(66,16,17,49)       -178.6243         estimate D2E/DX2                !
 ! D99   D(16,17,18,19)          4.3262         estimate D2E/DX2                !
 ! D100  D(16,17,18,45)       -177.6955         estimate D2E/DX2                !
 ! D101  D(49,17,18,19)       -176.4507         estimate D2E/DX2                !
 ! D102  D(49,17,18,45)          1.5276         estimate D2E/DX2                !
 ! D103  D(16,17,49,48)        178.227          estimate D2E/DX2                !
 ! D104  D(16,17,49,50)         -1.7034         estimate D2E/DX2                !
 ! D105  D(18,17,49,48)         -1.0251         estimate D2E/DX2                !
 ! D106  D(18,17,49,50)        179.0445         estimate D2E/DX2                !
 ! D107  D(17,18,19,20)         71.5968         estimate D2E/DX2                !
 ! D108  D(17,18,19,44)       -109.9022         estimate D2E/DX2                !
 ! D109  D(45,18,19,20)       -106.3839         estimate D2E/DX2                !
 ! D110  D(45,18,19,44)         72.1172         estimate D2E/DX2                !
 ! D111  D(17,18,45,46)        179.9794         estimate D2E/DX2                !
 ! D112  D(17,18,45,47)         -0.9065         estimate D2E/DX2                !
 ! D113  D(19,18,45,46)         -2.0171         estimate D2E/DX2                !
 ! D114  D(19,18,45,47)        177.097          estimate D2E/DX2                !
 ! D115  D(18,19,20,21)         -1.4732         estimate D2E/DX2                !
 ! D116  D(18,19,20,22)        177.6894         estimate D2E/DX2                !
 ! D117  D(44,19,20,21)       -179.995          estimate D2E/DX2                !
 ! D118  D(44,19,20,22)         -0.8324         estimate D2E/DX2                !
 ! D119  D(18,19,44,24)       -177.5279         estimate D2E/DX2                !
 ! D120  D(18,19,44,43)          3.3042         estimate D2E/DX2                !
 ! D121  D(20,19,44,24)          0.968          estimate D2E/DX2                !
 ! D122  D(20,19,44,43)       -178.1998         estimate D2E/DX2                !
 ! D123  D(19,20,21,67)         -3.0939         estimate D2E/DX2                !
 ! D124  D(22,20,21,67)        177.7159         estimate D2E/DX2                !
 ! D125  D(19,20,22,23)          0.1297         estimate D2E/DX2                !
 ! D126  D(19,20,22,68)       -179.6667         estimate D2E/DX2                !
 ! D127  D(21,20,22,23)        179.3368         estimate D2E/DX2                !
 ! D128  D(21,20,22,68)         -0.4596         estimate D2E/DX2                !
 ! D129  D(20,22,23,24)          0.4391         estimate D2E/DX2                !
 ! D130  D(20,22,23,69)       -179.7752         estimate D2E/DX2                !
 ! D131  D(68,22,23,24)       -179.7732         estimate D2E/DX2                !
 ! D132  D(68,22,23,69)          0.0125         estimate D2E/DX2                !
 ! D133  D(22,23,24,25)        179.4189         estimate D2E/DX2                !
 ! D134  D(22,23,24,44)         -0.289          estimate D2E/DX2                !
 ! D135  D(69,23,24,25)         -0.37           estimate D2E/DX2                !
 ! D136  D(69,23,24,44)        179.9221         estimate D2E/DX2                !
 ! D137  D(23,24,25,26)       -179.0337         estimate D2E/DX2                !
 ! D138  D(23,24,25,70)         -0.6889         estimate D2E/DX2                !
 ! D139  D(44,24,25,26)          0.6733         estimate D2E/DX2                !
 ! D140  D(44,24,25,70)        179.0181         estimate D2E/DX2                !
 ! D141  D(23,24,44,19)         -0.4135         estimate D2E/DX2                !
 ! D142  D(23,24,44,43)        178.786          estimate D2E/DX2                !
 ! D143  D(25,24,44,19)        179.8711         estimate D2E/DX2                !
 ! D144  D(25,24,44,43)         -0.9294         estimate D2E/DX2                !
 ! D145  D(24,25,26,27)        179.4007         estimate D2E/DX2                !
 ! D146  D(24,25,26,42)          0.0443         estimate D2E/DX2                !
 ! D147  D(70,25,26,27)          1.0847         estimate D2E/DX2                !
 ! D148  D(70,25,26,42)       -178.2718         estimate D2E/DX2                !
 ! D149  D(25,26,27,28)         41.0964         estimate D2E/DX2                !
 ! D150  D(25,26,27,32)       -138.5982         estimate D2E/DX2                !
 ! D151  D(42,26,27,28)       -139.5573         estimate D2E/DX2                !
 ! D152  D(42,26,27,32)         40.7481         estimate D2E/DX2                !
 ! D153  D(25,26,42,43)         -0.5041         estimate D2E/DX2                !
 ! D154  D(25,26,42,84)       -179.2874         estimate D2E/DX2                !
 ! D155  D(27,26,42,43)       -179.8663         estimate D2E/DX2                !
 ! D156  D(27,26,42,84)          1.3503         estimate D2E/DX2                !
 ! D157  D(26,27,28,29)       -179.7012         estimate D2E/DX2                !
 ! D158  D(26,27,28,71)          1.597          estimate D2E/DX2                !
 ! D159  D(32,27,28,29)         -0.0045         estimate D2E/DX2                !
 ! D160  D(32,27,28,71)       -178.7063         estimate D2E/DX2                !
 ! D161  D(26,27,32,31)        179.4126         estimate D2E/DX2                !
 ! D162  D(26,27,32,73)          0.9309         estimate D2E/DX2                !
 ! D163  D(28,27,32,31)         -0.2849         estimate D2E/DX2                !
 ! D164  D(28,27,32,73)       -178.7666         estimate D2E/DX2                !
 ! D165  D(27,28,29,30)          0.2546         estimate D2E/DX2                !
 ! D166  D(27,28,29,72)       -179.6275         estimate D2E/DX2                !
 ! D167  D(71,28,29,30)        178.95           estimate D2E/DX2                !
 ! D168  D(71,28,29,72)         -0.9322         estimate D2E/DX2                !
 ! D169  D(28,29,30,31)         -0.2176         estimate D2E/DX2                !
 ! D170  D(28,29,30,41)        179.6617         estimate D2E/DX2                !
 ! D171  D(72,29,30,31)        179.6641         estimate D2E/DX2                !
 ! D172  D(72,29,30,41)         -0.4566         estimate D2E/DX2                !
 ! D173  D(29,30,31,32)         -0.0704         estimate D2E/DX2                !
 ! D174  D(29,30,31,33)        179.8674         estimate D2E/DX2                !
 ! D175  D(41,30,31,32)       -179.9746         estimate D2E/DX2                !
 ! D176  D(41,30,31,33)         -0.0367         estimate D2E/DX2                !
 ! D177  D(29,30,41,36)       -179.8573         estimate D2E/DX2                !
 ! D178  D(29,30,41,40)          0.053          estimate D2E/DX2                !
 ! D179  D(31,30,41,36)          0.0328         estimate D2E/DX2                !
 ! D180  D(31,30,41,40)        179.9431         estimate D2E/DX2                !
 ! D181  D(30,31,32,27)          0.3224         estimate D2E/DX2                !
 ! D182  D(30,31,32,73)        178.7872         estimate D2E/DX2                !
 ! D183  D(33,31,32,27)       -179.6031         estimate D2E/DX2                !
 ! D184  D(33,31,32,73)         -1.1384         estimate D2E/DX2                !
 ! D185  D(30,31,33,34)       -118.2609         estimate D2E/DX2                !
 ! D186  D(30,31,33,35)        118.287          estimate D2E/DX2                !
 ! D187  D(30,31,33,36)          0.0256         estimate D2E/DX2                !
 ! D188  D(32,31,33,34)         61.6707         estimate D2E/DX2                !
 ! D189  D(32,31,33,35)        -61.7815         estimate D2E/DX2                !
 ! D190  D(32,31,33,36)        179.9571         estimate D2E/DX2                !
 ! D191  D(31,33,34,74)        -63.7153         estimate D2E/DX2                !
 ! D192  D(31,33,34,75)         56.231          estimate D2E/DX2                !
 ! D193  D(31,33,34,76)        176.1769         estimate D2E/DX2                !
 ! D194  D(35,33,34,74)         60.0897         estimate D2E/DX2                !
 ! D195  D(35,33,34,75)       -179.9641         estimate D2E/DX2                !
 ! D196  D(35,33,34,76)        -60.0181         estimate D2E/DX2                !
 ! D197  D(36,33,34,74)       -176.0053         estimate D2E/DX2                !
 ! D198  D(36,33,34,75)        -56.0591         estimate D2E/DX2                !
 ! D199  D(36,33,34,76)         63.8869         estimate D2E/DX2                !
 ! D200  D(31,33,35,77)         64.0381         estimate D2E/DX2                !
 ! D201  D(31,33,35,78)       -175.8891         estimate D2E/DX2                !
 ! D202  D(31,33,35,79)        -55.9487         estimate D2E/DX2                !
 ! D203  D(34,33,35,77)        -59.7976         estimate D2E/DX2                !
 ! D204  D(34,33,35,78)         60.2752         estimate D2E/DX2                !
 ! D205  D(34,33,35,79)       -179.7844         estimate D2E/DX2                !
 ! D206  D(36,33,35,77)        176.2966         estimate D2E/DX2                !
 ! D207  D(36,33,35,78)        -63.6306         estimate D2E/DX2                !
 ! D208  D(36,33,35,79)         56.3098         estimate D2E/DX2                !
 ! D209  D(31,33,36,37)       -179.9551         estimate D2E/DX2                !
 ! D210  D(31,33,36,41)         -0.0049         estimate D2E/DX2                !
 ! D211  D(34,33,36,37)        -61.6807         estimate D2E/DX2                !
 ! D212  D(34,33,36,41)        118.2695         estimate D2E/DX2                !
 ! D213  D(35,33,36,37)         61.8329         estimate D2E/DX2                !
 ! D214  D(35,33,36,41)       -118.2169         estimate D2E/DX2                !
 ! D215  D(33,36,37,38)        179.9212         estimate D2E/DX2                !
 ! D216  D(33,36,37,80)         -0.0577         estimate D2E/DX2                !
 ! D217  D(41,36,37,38)         -0.0248         estimate D2E/DX2                !
 ! D218  D(41,36,37,80)        179.9963         estimate D2E/DX2                !
 ! D219  D(33,36,41,30)         -0.0163         estimate D2E/DX2                !
 ! D220  D(33,36,41,40)       -179.9375         estimate D2E/DX2                !
 ! D221  D(37,36,41,30)        179.9387         estimate D2E/DX2                !
 ! D222  D(37,36,41,40)          0.0175         estimate D2E/DX2                !
 ! D223  D(36,37,38,39)          0.015          estimate D2E/DX2                !
 ! D224  D(36,37,38,81)       -179.9753         estimate D2E/DX2                !
 ! D225  D(80,37,38,39)        179.9941         estimate D2E/DX2                !
 ! D226  D(80,37,38,81)          0.0037         estimate D2E/DX2                !
 ! D227  D(37,38,39,40)          0.0026         estimate D2E/DX2                !
 ! D228  D(37,38,39,82)       -179.9834         estimate D2E/DX2                !
 ! D229  D(81,38,39,40)        179.9929         estimate D2E/DX2                !
 ! D230  D(81,38,39,82)          0.0069         estimate D2E/DX2                !
 ! D231  D(38,39,40,41)         -0.0102         estimate D2E/DX2                !
 ! D232  D(38,39,40,83)       -179.9932         estimate D2E/DX2                !
 ! D233  D(82,39,40,41)        179.9758         estimate D2E/DX2                !
 ! D234  D(82,39,40,83)         -0.0072         estimate D2E/DX2                !
 ! D235  D(39,40,41,30)       -179.9008         estimate D2E/DX2                !
 ! D236  D(39,40,41,36)          0.0003         estimate D2E/DX2                !
 ! D237  D(83,40,41,30)          0.0822         estimate D2E/DX2                !
 ! D238  D(83,40,41,36)        179.9833         estimate D2E/DX2                !
 ! D239  D(26,42,43,44)          0.2279         estimate D2E/DX2                !
 ! D240  D(26,42,43,85)        179.7794         estimate D2E/DX2                !
 ! D241  D(84,42,43,44)        179.0012         estimate D2E/DX2                !
 ! D242  D(84,42,43,85)         -1.4474         estimate D2E/DX2                !
 ! D243  D(42,43,44,19)        179.6707         estimate D2E/DX2                !
 ! D244  D(42,43,44,24)          0.4934         estimate D2E/DX2                !
 ! D245  D(85,43,44,19)          0.1143         estimate D2E/DX2                !
 ! D246  D(85,43,44,24)       -179.063          estimate D2E/DX2                !
 ! D247  D(18,45,46,86)         -2.8711         estimate D2E/DX2                !
 ! D248  D(47,45,46,86)        177.986          estimate D2E/DX2                !
 ! D249  D(18,45,47,48)         -0.2359         estimate D2E/DX2                !
 ! D250  D(18,45,47,87)       -179.8048         estimate D2E/DX2                !
 ! D251  D(46,45,47,48)        178.9251         estimate D2E/DX2                !
 ! D252  D(46,45,47,87)         -0.6438         estimate D2E/DX2                !
 ! D253  D(45,47,48,49)          0.748          estimate D2E/DX2                !
 ! D254  D(45,47,48,88)       -179.4842         estimate D2E/DX2                !
 ! D255  D(87,47,48,49)       -179.7017         estimate D2E/DX2                !
 ! D256  D(87,47,48,88)          0.0661         estimate D2E/DX2                !
 ! D257  D(47,48,49,17)         -0.1085         estimate D2E/DX2                !
 ! D258  D(47,48,49,50)        179.82           estimate D2E/DX2                !
 ! D259  D(88,48,49,17)       -179.8798         estimate D2E/DX2                !
 ! D260  D(88,48,49,50)          0.0487         estimate D2E/DX2                !
 ! D261  D(17,49,50,14)          1.1059         estimate D2E/DX2                !
 ! D262  D(17,49,50,89)        179.5115         estimate D2E/DX2                !
 ! D263  D(48,49,50,14)       -178.8224         estimate D2E/DX2                !
 ! D264  D(48,49,50,89)         -0.4168         estimate D2E/DX2                !
 ! D265  D(13,51,52,2)        -179.2458         estimate D2E/DX2                !
 ! D266  D(13,51,52,10)          0.4964         estimate D2E/DX2                !
 ! D267  D(90,51,52,2)          -0.6817         estimate D2E/DX2                !
 ! D268  D(90,51,52,10)        179.0605         estimate D2E/DX2                !
 --------------------------------------------------------------------------------
 Trust Radius=3.00D-01 FncErr=1.00D-07 GrdErr=1.00D-06 EigMax=2.50D+02 EigMin=1.00D-04
 Number of steps in this run=    540 maximum allowed number of steps=    540.
 GradGradGradGradGradGradGradGradGradGradGradGradGradGradGradGradGradGrad

 Leave Link  103 at Mon Mar 24 21:22:49 2025, MaxMem= 13421772800 cpu:               0.5 elap:               0.0
 (Enter /public/software/apps/Gaussian/g16/l202.exe)
 Symmetry turned off by external request.
 Stoichiometry    C50H38O2
 Framework group  C1[X(C50H38O2)]
 Deg. of freedom   264
 Full point group                 C1      NOp   1
                          Input orientation:                          
 ---------------------------------------------------------------------
 Center     Atomic      Atomic             Coordinates (Angstroms)
 Number     Number       Type             X           Y           Z
 ---------------------------------------------------------------------
      1          6           0       -9.445377    0.661025   -0.500852
      2          6           0       -8.967054   -0.392680    0.503034
      3          6           0       -9.150671    0.111615    1.937525
      4          6           0       -9.678936   -1.709989    0.290304
      5          6           0      -11.023593   -1.992419    0.394115
      6          6           0      -11.456583   -3.289129    0.149842
      7          6           0      -10.555795   -4.285376   -0.192906
      8          6           0       -9.202254   -4.010117   -0.299996
      9          6           0       -8.767161   -2.717823   -0.056901
     10          6           0       -7.434187   -2.140385   -0.091039
     11          6           0       -6.203173   -2.705057   -0.381849
     12          6           0       -5.076610   -1.903492   -0.345087
     13          6           0       -5.159456   -0.551570   -0.012911
     14          6           0       -3.949999    0.281378    0.025479
     15          6           0       -2.972048    0.161379   -0.984972
     16          6           0       -1.851646    0.940077   -0.978283
     17          6           0       -1.629837    1.885678    0.047357
     18          6           0       -0.475634    2.709867    0.076114
     19          6           0        0.510577    2.676360   -1.035270
     20          6           0        0.171734    3.226806   -2.258111
     21          8           0       -1.046746    3.776563   -2.497964
     22          6           0        1.103962    3.252238   -3.313683
     23          6           0        2.352577    2.732110   -3.145329
     24          6           0        2.736591    2.150018   -1.918141
     25          6           0        4.015792    1.597266   -1.728256
     26          6           0        4.379130    1.013513   -0.536961
     27          6           0        5.713736    0.427878   -0.354716
     28          6           0        6.842848    1.074427   -0.857548
     29          6           0        8.108205    0.538291   -0.702893
     30          6           0        8.244717   -0.669089   -0.037612
     31          6           0        7.116064   -1.328135    0.471418
     32          6           0        5.860958   -0.787070    0.319731
     33          6           0        7.511404   -2.620804    1.149701
     34          6           0        6.873119   -3.827296    0.454586
     35          6           0        7.139613   -2.599874    2.635591
     36          6           0        9.012109   -2.613469    0.962202
     37          6           0        9.939064   -3.546760    1.372554
     38          6           0       11.280336   -3.330055    1.085140
     39          6           0       11.684703   -2.196139    0.398004
     40          6           0       10.759577   -1.252524   -0.017948
     41          6           0        9.421014   -1.465801    0.267018
     42          6           0        3.435976    0.973671    0.512502
     43          6           0        2.189951    1.509275    0.363282
     44          6           0        1.801182    2.118017   -0.850529
     45          6           0       -0.285958    3.585176    1.129880
     46          8           0        0.797468    4.399572    1.215470
     47          6           0       -1.239107    3.676969    2.162982
     48          6           0       -2.364093    2.907649    2.135874
     49          6           0       -2.592704    1.993330    1.085139
     50          6           0       -3.744626    1.187422    1.039593
     51          6           0       -6.404265    0.009234    0.283989
     52          6           0       -7.529216   -0.780357    0.239056
     53          1           0       -8.877304    1.580933   -0.382933
     54          1           0      -10.499285    0.879776   -0.345536
     55          1           0       -9.311992    0.298508   -1.518024
     56          1           0      -10.199664    0.321673    2.132785
     57          1           0       -8.578544    1.023332    2.093346
     58          1           0       -8.808924   -0.639587    2.646615
     59          1           0      -11.735169   -1.224041    0.660283
     60          1           0      -12.508111   -3.524298    0.227994
     61          1           0      -10.914661   -5.287491   -0.378213
     62          1           0       -8.502170   -4.787906   -0.567063
     63          1           0       -6.120816   -3.752348   -0.632486
     64          1           0       -4.108472   -2.335092   -0.554760
     65          1           0       -3.130952   -0.546918   -1.784630
     66          1           0       -1.113783    0.834493   -1.760762
     67          1           0       -1.610334    3.669476   -1.718931
     68          1           0        0.793072    3.697249   -4.245475
     69          1           0        3.066579    2.756187   -3.955210
     70          1           0        4.710024    1.615514   -2.556289
     71          1           0        6.723909    2.023819   -1.359442
     72          1           0        8.972448    1.055101   -1.093257
     73          1           0        4.987475   -1.301627    0.693549
     74          1           0        5.789659   -3.781935    0.537591
     75          1           0        7.140566   -3.838060   -0.600027
     76          1           0        7.218971   -4.752268    0.910128
     77          1           0        6.060177   -2.539523    2.754126
     78          1           0        7.493514   -3.503442    3.126498
     79          1           0        7.592118   -1.739241    3.123958
     80          1           0        9.635761   -4.434498    1.908759
     81          1           0       12.017507   -4.054006    1.400743
     82          1           0       12.733493   -2.047928    0.184886
     83          1           0       11.076780   -0.369807   -0.553287
     84          1           0        3.719390    0.526986    1.454119
     85          1           0        1.480602    1.465682    1.177468
     86          1           0        1.393370    4.226496    0.473254
     87          1           0       -1.046936    4.376795    2.960652
     88          1           0       -3.096926    2.986462    2.925267
     89          1           0       -4.464472    1.275146    1.841123
     90          1           0       -6.472476    1.060869    0.522859
 ---------------------------------------------------------------------
 Rotational constants (GHZ):           0.1021030           0.0161327           0.0147097
 Leave Link  202 at Mon Mar 24 21:22:49 2025, MaxMem= 13421772800 cpu:               0.4 elap:               0.0
 (Enter /public/software/apps/Gaussian/g16/l301.exe)
 Standard basis: def2SVPP (5D, 7F)
 Ernie: Thresh=  0.10000D-02 Tol=  0.10000D-05 Strict=F.
   804 basis functions,  1452 primitive gaussians,   856 cartesian basis functions
   177 alpha electrons      177 beta electrons
       nuclear repulsion energy      5733.7833740170 Hartrees.
 IExCor=  402 DFT=T Ex+Corr=B3LYP ExCW=0 ScaHFX=  0.200000
 ScaDFX=  0.800000  0.720000  1.000000  0.810000 ScalE2=  1.000000  1.000000
 IRadAn=      5 IRanWt=     -1 IRanGd=            0 ICorTp=0 IEmpDi=141
 NAtoms=   90 NActive=   90 NUniq=   90 SFac= 1.00D+00 NAtFMM=   60 NAOKFM=T Big=T
 Integral buffers will be    131072 words long.
 Raffenetti 2 integral format.
 Two-electron integral symmetry is turned off.
 R6Disp:  Grimme-D3(BJ) Dispersion energy=       -0.2402339157 Hartrees.
 Nuclear repulsion after empirical dispersion term =     5733.5431401013 Hartrees.
 Leave Link  301 at Mon Mar 24 21:22:49 2025, MaxMem= 13421772800 cpu:               0.8 elap:               0.0
 (Enter /public/software/apps/Gaussian/g16/l302.exe)
 NPDir=0 NMtPBC=     1 NCelOv=     1 NCel=       1 NClECP=     1 NCelD=      1
         NCelK=      1 NCelE2=     1 NClLst=     1 CellRange=     0.0.
 One-electron integrals computed using PRISM.
   1 Symmetry operations used in ECPInt.
 ECPInt:  NShTT=   75466 NPrTT=  302266 LenC2=   45123 LenP2D=  110587.
 LDataN:  DoStor=T MaxTD1= 4 Len=   56
 NBasis=   804 RedAO= T EigKep=  1.76D-04  NBF=   804
 NBsUse=   804 1.00D-06 EigRej= -1.00D+00 NBFU=   804
 Precomputing XC quadrature grid using
 IXCGrd= 4 IRadAn=           5 IRanWt=          -1 IRanGd=           0 AccXCQ= 0.00D+00.
 Generated NRdTot=       0 NPtTot=           0 NUsed=           0 NTot=          32
 NSgBfM=   715   714   715   715   715 MxSgAt=    90 MxSgA2=    90.
 Leave Link  302 at Mon Mar 24 21:22:51 2025, MaxMem= 13421772800 cpu:              41.5 elap:               1.3
 (Enter /public/software/apps/Gaussian/g16/l303.exe)
 DipDrv:  MaxL=1.
 Leave Link  303 at Mon Mar 24 21:22:51 2025, MaxMem= 13421772800 cpu:               3.9 elap:               0.1
 (Enter /public/software/apps/Gaussian/g16/l401.exe)
 ExpMin= 1.22D-01 ExpMax= 2.27D+03 ExpMxC= 3.41D+02 IAcc=3 IRadAn=         5 AccDes= 0.00D+00
 Harris functional with IExCor=  402 and IRadAn=       5 diagonalized for initial guess.
 HarFok:  IExCor=  402 AccDes= 0.00D+00 IRadAn=         5 IDoV= 1 UseB2=F ITyADJ=14
 ICtDFT=  3500011 ScaDFX=  1.000000  1.000000  1.000000  1.000000
 FoFCou: FMM=F IPFlag=           0 FMFlag=      100000 FMFlg1=        2001
         NFxFlg=           0 DoJE=T BraDBF=F KetDBF=T FulRan=T
         wScrn=  0.000000 ICntrl=       500 IOpCl=  0 I1Cent=   200000004 NGrid=           0
         NMat0=    1 NMatS0=      1 NMatT0=    0 NMatD0=    1 NMtDS0=    0 NMtDT0=    0
 Symmetry not used in FoFCou.
 Harris En= -2077.37509965433    
 JPrj=0 DoOrth=F DoCkMO=F.
 Leave Link  401 at Mon Mar 24 21:22:53 2025, MaxMem= 13421772800 cpu:              79.1 elap:               2.5
 (Enter /public/software/apps/Gaussian/g16/l502.exe)
 Two-electron integral symmetry not used.
 Closed shell SCF:
 Using DIIS extrapolation, IDIIS=  1040.
 NGot= 13421772800 LenX= 13420270630 LenY= 13419537038
 Requested convergence on RMS density matrix=1.00D-08 within 128 cycles.
 Requested convergence on MAX density matrix=1.00D-06.
 Requested convergence on             energy=1.00D-06.
 No special actions if energy rises.
 Fock matrices will be formed incrementally for  20 cycles.
 Integral accuracy reduced to 1.0D-05 until final iterations.

 Cycle   1  Pass 0  IDiag  1:
 FoFJK:  IHMeth= 1 ICntrl=       0 DoSepK=F KAlg= 0 I1Cent=           0 FoldK=F
 IRaf= 670000000 NMat=       1 IRICut=       1 DoRegI=T DoRafI=F ISym2E= 0 IDoP0=0 IntGTp=1.
 FoFCou: FMM=T IPFlag=           0 FMFlag=      100000 FMFlg1=        2001
         NFxFlg=           0 DoJE=F BraDBF=F KetDBF=F FulRan=T
         wScrn=  0.000000 ICntrl=         0 IOpCl=  0 I1Cent=           0 NGrid=           0
         NMat0=    1 NMatS0=      1 NMatT0=    0 NMatD0=    1 NMtDS0=    0 NMtDT0=    0
 Symmetry not used in FoFCou.
 FMM levels:  10  Number of levels for PrismC:   9
 E= -2076.33513097615    
 DIIS: error= 4.29D-02 at cycle   1 NSaved=   1.
 NSaved= 1 IEnMin= 1 EnMin= -2076.33513097615     IErMin= 1 ErrMin= 4.29D-02
 ErrMax= 4.29D-02  0.00D+00 EMaxC= 1.00D-01 BMatC= 8.99D-01 BMatP= 8.99D-01
 IDIUse=3 WtCom= 5.71D-01 WtEn= 4.29D-01
 Coeff-Com:  0.100D+01
 Coeff-En:   0.100D+01
 Coeff:      0.100D+01
 Gap=     0.168 Goal=   None    Shift=    0.000
 GapD=    0.168 DampG=1.000 DampE=0.500 DampFc=0.5000 IDamp=-1.
 Damping current iteration by 5.00D-01
 RMSDP=4.49D-03 MaxDP=1.71D-01              OVMax= 1.42D-01

 Cycle   2  Pass 0  IDiag  1:
 RMSU=  1.96D-03    CP:  9.29D-01
 E= -2076.84703221230     Delta-E=       -0.511901236149 Rises=F Damp=T
 DIIS: error= 3.49D-03 at cycle   2 NSaved=   2.
 NSaved= 2 IEnMin= 2 EnMin= -2076.84703221230     IErMin= 2 ErrMin= 3.49D-03
 ErrMax= 3.49D-03  0.00D+00 EMaxC= 1.00D-01 BMatC= 3.80D-02 BMatP= 8.99D-01
 IDIUse=3 WtCom= 9.65D-01 WtEn= 3.49D-02
 Coeff-Com: -0.591D-02 0.101D+01
 Coeff-En:   0.000D+00 0.100D+01
 Coeff:     -0.570D-02 0.101D+01
 Gap=     0.172 Goal=   None    Shift=    0.000
 RMSDP=1.56D-03 MaxDP=1.12D-01 DE=-5.12D-01 OVMax= 1.29D-01

 Cycle   3  Pass 0  IDiag  1:
 RMSU=  1.34D-03    CP:  8.81D-01  1.16D+00
 E= -2077.35697730544     Delta-E=       -0.509945093148 Rises=F Damp=F
 DIIS: error= 4.90D-03 at cycle   3 NSaved=   3.
 NSaved= 3 IEnMin= 3 EnMin= -2077.35697730544     IErMin= 2 ErrMin= 3.49D-03
 ErrMax= 4.90D-03  0.00D+00 EMaxC= 1.00D-01 BMatC= 3.09D-02 BMatP= 3.80D-02
 IDIUse=3 WtCom= 9.51D-01 WtEn= 4.90D-02
 Coeff-Com: -0.392D-01 0.487D+00 0.552D+00
 Coeff-En:   0.000D+00 0.000D+00 0.100D+01
 Coeff:     -0.373D-01 0.463D+00 0.574D+00
 Gap=     0.160 Goal=   None    Shift=    0.000
 RMSDP=5.57D-04 MaxDP=4.90D-02 DE=-5.10D-01 OVMax= 6.99D-02

 Cycle   4  Pass 0  IDiag  1:
 RMSU=  4.62D-04    CP:  8.82D-01  1.23D+00  7.89D-01
 E= -2077.37443473941     Delta-E=       -0.017457433967 Rises=F Damp=F
 DIIS: error= 3.82D-03 at cycle   4 NSaved=   4.
 NSaved= 4 IEnMin= 4 EnMin= -2077.37443473941     IErMin= 2 ErrMin= 3.49D-03
 ErrMax= 3.82D-03  0.00D+00 EMaxC= 1.00D-01 BMatC= 1.43D-02 BMatP= 3.09D-02
 IDIUse=3 WtCom= 9.62D-01 WtEn= 3.82D-02
 Coeff-Com: -0.242D-01 0.159D+00 0.406D+00 0.459D+00
 Coeff-En:   0.000D+00 0.000D+00 0.354D+00 0.646D+00
 Coeff:     -0.233D-01 0.153D+00 0.404D+00 0.466D+00
 Gap=     0.148 Goal=   None    Shift=    0.000
 RMSDP=2.86D-04 MaxDP=2.84D-02 DE=-1.75D-02 OVMax= 3.66D-02

 Cycle   5  Pass 0  IDiag  1:
 RMSU=  1.62D-04    CP:  8.80D-01  1.22D+00  8.43D-01  5.21D-01
 E= -2077.38946716565     Delta-E=       -0.015032426236 Rises=F Damp=F
 DIIS: error= 1.14D-03 at cycle   5 NSaved=   5.
 NSaved= 5 IEnMin= 5 EnMin= -2077.38946716565     IErMin= 5 ErrMin= 1.14D-03
 ErrMax= 1.14D-03  0.00D+00 EMaxC= 1.00D-01 BMatC= 1.06D-03 BMatP= 1.43D-02
 IDIUse=3 WtCom= 9.89D-01 WtEn= 1.14D-02
 Coeff-Com: -0.107D-01 0.477D-01 0.193D+00 0.285D+00 0.485D+00
 Coeff-En:   0.000D+00 0.000D+00 0.000D+00 0.151D-01 0.985D+00
 Coeff:     -0.105D-01 0.471D-01 0.191D+00 0.282D+00 0.491D+00
 Gap=     0.147 Goal=   None    Shift=    0.000
 RMSDP=7.99D-05 MaxDP=3.39D-03 DE=-1.50D-02 OVMax= 1.17D-02

 Cycle   6  Pass 0  IDiag  1:
 RMSU=  6.10D-05    CP:  8.79D-01  1.22D+00  8.44D-01  5.71D-01  7.20D-01
 E= -2077.39053292055     Delta-E=       -0.001065754899 Rises=F Damp=F
 DIIS: error= 3.60D-04 at cycle   6 NSaved=   6.
 NSaved= 6 IEnMin= 6 EnMin= -2077.39053292055     IErMin= 6 ErrMin= 3.60D-04
 ErrMax= 3.60D-04  0.00D+00 EMaxC= 1.00D-01 BMatC= 1.44D-04 BMatP= 1.06D-03
 IDIUse=3 WtCom= 9.96D-01 WtEn= 3.60D-03
 Coeff-Com: -0.306D-02 0.622D-02 0.585D-01 0.104D+00 0.309D+00 0.526D+00
 Coeff-En:   0.000D+00 0.000D+00 0.000D+00 0.000D+00 0.113D+00 0.887D+00
 Coeff:     -0.305D-02 0.619D-02 0.583D-01 0.103D+00 0.308D+00 0.527D+00
 Gap=     0.147 Goal=   None    Shift=    0.000
 RMSDP=2.88D-05 MaxDP=1.32D-03 DE=-1.07D-03 OVMax= 3.25D-03

 Cycle   7  Pass 0  IDiag  1:
[...]
 00160,0.00000006,-0.00000045,0.00000072,0.00000022,0.00000101,-0.00000
 047,-0.00000065,0.00000049,-0.00000009,-0.00000081,0.00000017,0.000000
 16,0.00000081,-0.00000007,0.00000014,-0.00000508,0.00000272,-0.0000033
 0,0.00000755,-0.00000792,0.00000784,0.00004427,0.00001478,-0.00001753,
 0.00001788,-0.00008550,0.00004092,0.00011989,-0.00067933,-0.00091594,0
 .17934005,0.00002093,0.00004231,-0.00001550,-0.00001349,-0.00001015,-0
 .00004690,0.00003147,0.00001248,0.00000751,0.00003975,0.00000398,0.000
 00947,-0.00001176,0.00000144,0.00001593,0.00001819,0.00001421,0.000001
 26,0.00000733,-0.00001299,0.00000527,0.00001905,-0.00000535,-0.0000088
 1,-0.00005468,0.00001103,-0.00004115,-0.00027184,0.00039456,0.00024170
 ,0.00052644,0.00010667,-0.00023873,-0.00049299,-0.00078924,-0.00022095
 ,0.00321286,-0.00108258,0.00150028,0.01212002,0.00235539,-0.01534009,-
 0.00363870,0.00138905,-0.00491299,-0.00015302,-0.00068216,0.00002920,-
 0.00398896,0.00097779,-0.00249317,-0.00044649,0.00035253,0.00061142,-0
 .00021716,-0.00004472,-0.00012590,-0.00001666,0.00005771,-0.00004579,0
 .00005295,-0.00007498,0.00002388,-0.00000423,-0.00000247,-0.00000064,-
 0.00000256,-0.00000155,0.00000170,-0.00000909,0.00001846,-0.00000360,-
 0.00000048,-0.00000218,0.00000876,0.00000054,0.00000140,-0.00000154,-0
 .00000293,0.00000104,-0.00000051,0.00000142,-0.00000040,0.00000019,-0.
 00000029,-0.00000061,0.00000004,-0.00000040,-0.00000014,0.00000020,0.0
 0000004,0.00000140,-0.00000073,0.00000216,-0.00000033,-0.00000051,-0.0
 0000053,0.00000073,-0.00000030,0.00000112,0.00000016,0.00000056,0.0000
 0102,-0.00000052,-0.00000053,0.00000174,-0.00000147,0.00000064,-0.0000
 0060,0.00000079,-0.00000053,0.00000109,-0.00000023,-0.00000008,-0.0000
 0028,-0.00000074,0.00000047,-0.00000015,-0.00000014,0.00000006,-0.0000
 0097,0.00000066,-0.00000024,-0.00000307,0.00000139,-0.00000213,0.00000
 449,-0.00000992,0.00000052,-0.00002581,-0.00002051,0.00005600,0.000002
 53,0.00002873,0.00028126,0.00002287,-0.00002183,-0.00008260,0.00031556
 ,0.00005863,-0.00016700,0.00070319,-0.00132958,0.00246960,-0.01157176,
 0.00463318,0.01257712,0.00399891,-0.04777262,-0.01954828,0.00008787,0.
 00047137,0.00031743,-0.00037881,-0.00057436,0.00006507,-0.00000398,-0.
 00001350,-0.00000459,0.00000947,-0.00001499,0.00000462,-0.00000216,-0.
 00000002,0.00000252,0.00002062,-0.00000273,-0.00000191,-0.00001640,0.0
 0002254,-0.00000303,-0.00001790,-0.00002445,0.00000938,0.00000385,-0.0
 0000274,-0.00000320,0.00000368,0.00000334,-0.00000376,0.00000392,0.000
 00453,0.00000054,-0.00000507,-0.00000057,-0.00000586,-0.00000839,-0.00
 000717,0.00000927,-0.00001140,0.00003326,0.00005131,0.00066678,0.00004
 455,-0.00080690,0.00035431,-0.00049078,0.00037748,-0.00001749,0.000035
 30,-0.00000300,-0.00000034,0.00000127,0.00000214,-0.00000031,-0.000000
 41,0.00000049,-0.00000190,0.00000107,-0.00000029,-0.00000033,-0.000000
 42,0.00000052,-0.00000003,0.00000005,0.00000002,-0.00000042,0.00000057
 ,-0.00000032,-0.00000066,0.00000056,-0.00000043,-0.00000025,0.00000020
 ,0.00000018,0.00000048,-0.00000077,0.00000015,-0.00000061,0.00000075,-
 0.00000021,0.00000054,-0.00000048,0.00000054,-0.00000040,-0.00000015,-
 0.00000021,0.00000002,-0.00000033,0.00000027,0.00000018,-0.00000003,0.
 00000006,0.00000004,0.00000002,0.00000003,-0.00000025,-0.00000010,0.00
 000017,0.00000071,-0.00000006,0.00000051,0.00000114,0.00000471,-0.0000
 0228,0.00000797,0.00001461,0.00000737,-0.00005283,0.00010830,-0.000069
 29,0.00012799,-0.00012983,-0.00058731,-0.00075151,0.04167901,0.0000056
 9,-0.00002869,-0.00002863,-0.00006774,-0.00004303,0.00002240,0.0000191
 6,-0.00002624,-0.00000570,-0.00000136,-0.00003866,-0.00002386,0.000004
 43,0.00002253,-0.00000012,0.00000121,-0.00000251,-0.00000180,0.0000000
 9,0.00001234,0.00000249,0.00002672,-0.00000242,-0.00000511,-0.00003411
 ,0.00004679,0.00003497,0.00002920,0.00003614,-0.00007564,-0.00000913,0
 .00012955,0.00013138,0.00009743,-0.00006286,0.00019561,-0.00026363,0.0
 0233150,-0.00059214,0.01779053,-0.00059959,-0.01282919,-0.00086546,-0.
 00548703,-0.00054983,-0.00064278,0.00009736,0.00007309,0.00027004,-0.0
 0187278,0.00210152,-0.00015685,-0.00015939,0.00008089,0.00004817,-0.00
 007329,0.00004792,-0.00002412,-0.00001937,0.00003724,0.00001990,0.0000
 5620,-0.00002830,0.00001077,0.00000780,0.00000641,0.00000143,-0.000000
 17,-0.00000228,0.00000934,-0.00000622,-0.00000244,0.00000497,0.0000025
 8,-0.00000040,-0.00000505,0.00000338,-0.00000205,-0.00001511,0.0000038
 7,-0.00000364,0.00000961,-0.00000227,0.00000198,-0.00000172,-0.0000023
 3,0.00000052,0.,-0.00000106,0.00000080,0.00000368,0.00000551,-0.000003
 03,0.00000423,-0.00000377,0.00000034,-0.00000092,0.00000306,-0.0000015
 6,0.00000035,-0.00000008,0.00000202,-0.00000021,-0.00000190,-0.0000008
 1,0.00000314,-0.00000629,0.00000357,-0.00000123,0.00000317,-0.00000216
 ,0.00000506,-0.00000049,-0.00000047,-0.00000077,-0.00000328,0.00000228
 ,-0.00000032,-0.00000200,0.00000137,-0.00000421,0.00000530,-0.00000270
 ,-0.00000543,0.00000050,-0.00000140,0.00000520,-0.00000621,0.00001162,
 -0.00002345,0.00003192,-0.00004935,-0.00031679,-0.00002409,0.00014077,
 0.00017783,0.00010460,-0.00000613,0.00026617,0.00024840,0.00010118,-0.
 00234188,0.00053658,-0.00029152,-0.00111603,-0.00118016,0.00321288,0.1
 4061327,-0.02102707,-0.21066777,0.00023969,-0.00102840,-0.00003625,-0.
 00037262,0.00035389,0.00030604,-0.00001411,0.00003545,0.00000129,0.000
 02466,-0.00000224,0.00000150,-0.00000144,0.00000663,0.00000283,0.00001
 972,0.00000389,-0.00001191,-0.00000622,0.00001543,0.00002969,-0.000003
 14,0.00001087,0.00000323,-0.00000275,-0.00000415,-0.00000070,0.0000068
 4,0.00000275,0.00000215,0.00000527,0.00000607,0.00000092,-0.00000482,0
 .00000035,0.00000236,-0.00000756,0.00001870,-0.00001966,-0.00002769,0.
 00015033,-0.00002312,0.00098388,-0.00003388,-0.00067496,-0.00016224,0.
 00036437,-0.00027954,0.00001510,-0.00006927,0.00002222,0.00000006,-0.0
 0000290,-0.00000376,0.00000322,-0.00000168,-0.00000258,0.00000336,0.00
 000003,-0.00000315,-0.00000296,-0.00000137,0.00000097,0.00000207,0.000
 00036,-0.00000071,-0.00000129,0.00000365,-0.00000193,0.00000060,0.0000
 0131,-0.00000095,-0.00000038,0.00000095,-0.00000016,0.00000076,-0.0000
 0219,0.00000093,0.00000069,0.00000140,-0.00000087,0.00000086,-0.000001
 77,0.00000147,-0.00000055,0.00000049,-0.00000073,-0.00000077,-0.000000
 65,0.00000059,0.00000112,-0.00000079,0.00000043,0.00000157,-0.00000004
 ,-0.00000019,-0.00000096,0.00000055,-0.00000024,0.00000024,-0.00000035
 ,0.00000304,-0.00000563,0.00000591,-0.00000802,-0.00002699,-0.00000200
 ,0.00001915,0.00008272,-0.00004707,0.00004739,0.00025637,0.00023769,0.
 00027432,-0.15357367,0.02647406,0.21930776,-0.00032713,-0.00038094,-0.
 00000958,0.00061863,0.00070539,-0.00070225,-0.00014264,-0.00021777,-0.
 00005294,0.00010959,-0.00018621,-0.00014616,0.00003975,0.00012493,0.00
 003870,-0.00002559,-0.00002166,-0.00000390,0.00001109,-0.00008150,-0.0
 0003244,-0.00041212,0.00005326,0.00007581,0.00041049,-0.00109486,-0.00
 047509,-0.00366549,-0.00233505,0.00154899,-0.00087127,-0.00008902,0.00
 004288,-0.00440178,0.00050590,0.00239603,0.00354846,0.02485233,0.00933
 529,0.00091037,0.00081835,-0.00082509,-0.00000132,-0.00002160,0.000259
 41,0.00019270,0.00008898,-0.00006892,0.00002277,-0.00010258,-0.0001657
 9,0.00004528,0.00006602,0.00003049,0.00000884,-0.00000065,0.00004437,-
 0.00002066,0.00000529,-0.00000564,0.00004410,0.00001313,-0.00001778,-0
 .00000123,-0.00000435,0.00000791,0.00001292,-0.00000457,-0.00000335,0.
 00000645,-0.00000069,-0.00001440,0.00000668,-0.00000090,0.00000400,-0.
 00000313,0.00000543,-0.00000533,-0.00001645,0.00000457,-0.00000400,0.0
 0001031,-0.00000244,0.00000180,-0.00000188,-0.00000257,0.00000040,0.00
 000012,-0.00000117,0.00000091,0.00000368,0.00000552,-0.00000340,0.0000
 0512,-0.00000408,-0.00000010,-0.00000093,0.00000355,-0.00000137,0.0000
 0085,-0.00000005,0.00000225,-0.00000018,-0.00000216,-0.00000088,0.0000
 0365,-0.00000684,0.00000341,-0.00000146,0.00000324,-0.00000230,0.00000
 535,-0.00000060,-0.00000054,-0.00000084,-0.00000350,0.00000233,-0.0000
 0037,-0.00000203,0.00000133,-0.00000447,0.00000544,-0.00000271,-0.0000
 0897,-0.00000010,0.00000103,0.00001097,-0.00001151,0.00001767,-0.00003
 129,0.00002301,-0.00003624,-0.00008983,-0.00009321,-0.00006058,0.00012
 187,0.00007758,-0.00000012,-0.00003720,0.00001180,0.00003784,0.0000189
 0,0.00005879,0.00002732,-0.00007504,-0.00041791,-0.00022932,-0.0009916
 0,0.00010493,0.00026817,-0.05760594,0.00851081,0.00797466,0.00695537,-
 0.02449783,-0.00967253,-0.00053535,0.00046813,-0.00016233,0.00017014,0
 .00024873,0.00004840,0.00004564,0.00001394,0.00005594,0.00008664,0.000
 12873,-0.00001315,-0.00026499,0.00003498,0.00048596,0.00006224,0.00008
 053,-0.00005080,-0.00004683,-0.00000725,0.00000774,0.00000291,0.000010
 90,0.00000421,-0.00003899,-0.00000820,0.00001003,0.00001347,0.00001216
 ,0.00000246,0.00002477,0.00004885,-0.00024124,0.00010373,0.00133295,0.
 00052595,0.00005518,0.00001761,-0.00011827,0.00000885,0.00000973,-0.00
 000946,-0.00001315,-0.00003968,0.00003107,0.00000080,0.00000131,-0.000
 00360,0.00000465,-0.00000046,-0.00000184,0.00000325,0.00000047,-0.0000
 0354,-0.00000313,-0.00000141,0.00000129,0.00000211,0.00000043,-0.00000
 061,-0.00000137,0.00000402,-0.00000147,0.00000027,0.00000146,-0.000000
 62,-0.00000009,0.00000099,-0.00000036,0.00000070,-0.00000234,0.0000008
 9,0.00000065,0.00000163,-0.00000076,0.00000095,-0.00000179,0.00000158,
 -0.00000073,0.00000034,-0.00000089,-0.00000072,-0.00000068,0.00000072,
 0.00000113,-0.00000075,0.00000049,0.00000158,-0.00000001,-0.00000013,-
 0.00000099,0.00000058,-0.00000013,0.00000015,-0.00000080,0.00000322,-0
 .00000611,0.00000724,-0.00000881,-0.00002301,-0.00000213,0.00001435,0.
 00001128,0.00000272,0.00000494,-0.00000995,-0.00001202,-0.00001801,-0.
 00138839,-0.00019489,-0.00096236,0.05734720,0.00002236,-0.00020648,-0.
 00003540,0.00153447,-0.00054431,0.00088980,-0.00032136,-0.00032237,-0.
 00020112,-0.00023439,-0.00005268,0.00011304,0.00006531,0.00005482,-0.0
 0002117,-0.00007353,-0.00006473,-0.00000305,-0.00002193,-0.00002344,-0
 .00002316,-0.00026657,0.00004517,0.00014737,0.00050343,-0.00067883,-0.
 00033053,-0.00319848,0.00138053,-0.00164983,-0.00022399,0.00035318,0.0
 0047198,0.00180083,0.00181883,-0.00189679,-0.00170380,-0.00801672,-0.0
 0420780,-0.00074086,-0.00030315,0.00139814,0.00009059,0.00019483,-0.00
 016369,-0.00010046,-0.00000341,0.00002828,-0.00003886,-0.00006869,0.00
 003299,-0.00001229,0.00001442,0.00004761,-0.00000604,-0.00000641,-0.00
 000997,0.00000193,-0.00000260,0.00000210,-0.00000875,-0.00000095,0.000
 00419,0.00000209,0.00000203,-0.00000106,-0.00000385,0.00000191,0.00000
 073,-0.00000189,0.00000020,0.00000457,-0.00000171,0.00000075,-0.000000
 78,0.00000041,-0.00000121,0.00000173,0.00000348,-0.00000106,0.00000094
 ,-0.00000207,0.00000058,-0.00000014,0.00000037,0.00000060,0.00000005,-
 0.00000006,0.00000025,-0.00000022,-0.00000054,-0.00000089,0.00000105,-
 0.00000133,0.00000101,0.00000043,0.00000012,-0.00000109,-0.00000020,-0
 .00000054,-0.00000003,-0.00000047,0.00000014,0.00000054,0.00000020,-0.
 00000090,0.00000169,-0.00000024,0.00000040,-0.00000057,0.00000058,-0.0
 0000108,0.00000024,0.00000022,0.00000018,0.00000077,-0.00000035,0.0000
 0010,0.00000040,-0.00000015,0.00000090,-0.00000103,0.00000045,0.000002
 16,0.00000083,-0.00000111,-0.00000206,0.00000299,-0.00000453,0.0000071
 3,-0.00000578,0.00001009,0.00000989,0.00000312,-0.00001177,0.00000851,
 0.00000885,0.00000551,0.00000897,-0.00001391,-0.00001092,0.00002212,0.
 00004830,-0.00004257,-0.00012464,0.00018716,0.00038950,-0.00042488,0.0
 0020208,-0.00093152,0.01109643,-0.29795813,-0.09465811,0.00149185,-0.0
 1280545,-0.00676137,0.00010336,0.00036716,0.00003274,-0.00003302,0.000
 10222,-0.00006172,0.00005540,0.00003022,0.00003145,0.00011790,0.000201
 09,0.00024134,-0.00005485,0.00048955,0.00037232,-0.00001316,0.00001677
 ,-0.00002777,-0.00004847,0.00000824,0.00001379,-0.00000901,-0.00000298
 ,0.00000598,-0.00003799,-0.00000830,-0.00000432,0.00002212,0.00001418,
 0.00000461,0.00009516,-0.00025471,0.00032644,-0.00015204,-0.00037597,-
 0.00031213,-0.00003975,-0.00001646,0.00007673,0.00002438,-0.00001672,0
 .00001795,0.00000098,0.00000796,-0.00000643,-0.00000043,-0.00000102,0.
 00000085,-0.00000133,-0.00000035,0.00000033,-0.00000098,-0.00000039,0.
 00000076,0.00000061,0.00000022,-0.00000048,-0.00000039,-0.00000015,-0.
 00000003,0.00000027,-0.00000106,-0.00000018,0.00000025,-0.00000048,-0.
 00000022,-0.00000026,-0.00000022,0.00000036,-0.00000014,0.00000052,-0.
 00000024,-0.00000021,-0.00000056,-0.00000006,-0.00000027,0.00000026,-0
 .00000037,0.00000041,0.00000021,0.00000028,0.00000008,0.00000008,-0.00
 000032,-0.00000022,0.00000004,-0.00000019,-0.00000027,-0.00000006,-0.0
 0000008,0.00000018,-0.00000015,-0.00000011,0.00000014,-0.00000027,-0.0
 0000091,0.00000101,-0.00000120,0.00000118,0.00000143,0.00000090,0.0000
 0102,0.00000107,-0.00000202,0.00000109,0.00000521,0.00001726,0.0000118
 0,-0.00057857,0.00023961,0.00049776,-0.00861590,0.31594440,-0.00031515
 ,-0.00028595,0.00011156,-0.00045865,0.00110307,-0.00342094,0.00039745,
 0.00015618,0.00009759,-0.00017067,0.00007975,-0.00014310,0.00003690,-0
 .00002013,0.00003389,-0.00002450,-0.00002824,-0.00001863,-0.00002263,0
 .00000630,0.00003066,-0.00003492,0.00009518,-0.00015301,0.00005551,-0.
 00005919,0.00005632,0.00106047,-0.00173633,0.00705136,0.00028608,0.000
 46752,-0.00042899,0.00291089,-0.00207507,0.00475282,0.00119386,-0.0095
 9311,-0.00030350,-0.00237016,-0.00005018,-0.00307198,0.00086184,0.0002
 8930,-0.00028778,-0.00020666,-0.00041823,-0.00019130,-0.00000467,0.000
 23681,0.00028178,-0.00005933,-0.00012751,-0.00007272,0.00000192,0.0000
 0301,-0.00001599,0.00005297,-0.00002264,0.00001609,-0.00006398,0.00001
 545,-0.00001217,-0.00000929,0.00000408,0.00000233,0.00000148,-0.000001
 58,0.00000310,-0.00000352,0.00000171,0.00000151,0.00000143,-0.00000056
 ,-0.00000158,-0.00000024,-0.00000028,-0.00000122,0.00000554,-0.0000015
 8,0.00000093,-0.00000292,0.00000062,-0.00000062,0.00000047,0.00000083,
 -0.00000017,0.00000006,0.00000040,-0.00000034,-0.00000063,-0.00000194,
 0.00000085,-0.00000294,0.00000093,0.00000036,0.00000045,-0.00000113,0.
 00000062,-0.00000096,-0.00000007,-0.00000085,-0.00000064,0.00000088,0.
 00000060,-0.00000204,0.00000212,-0.00000108,0.00000075,-0.00000111,0.0
 0000068,-0.00000171,0.00000026,0.00000006,0.00000029,0.00000106,-0.000
 00077,0.00000017,0.00000035,-0.00000029,0.00000144,-0.00000128,0.00000
 058,0.00000097,0.00000101,0.00000076,-0.00000558,0.00000394,-0.0000023
 5,0.00001124,-0.00000494,0.00000304,-0.00002819,0.00009012,0.00014373,
 -0.00003473,-0.00003110,-0.00001926,0.00010446,0.00004550,-0.00007134,
 -0.00010303,-0.00011155,-0.00004206,0.00039533,0.00025895,-0.00010680,
 -0.00133911,0.00039502,0.00035774,0.00844288,-0.09314593,-0.07260878,-
 0.00052208,-0.00147448,0.00368778,-0.00016097,0.00039284,0.00015438,0.
 00010325,0.00033812,-0.00006185,-0.00009194,-0.00006299,-0.00000279,-0
 .00016966,-0.00024847,-0.00012045,0.00031799,-0.00012577,-0.00025561,0
 .00007950,0.00005004,0.00000962,-0.00000771,0.00000494,0.00000296,-0.0
 0000482,-0.00000043,-0.00000598,0.00000012,-0.00001057,0.00002055,0.00
 000503,-0.00000106,0.00000027,-0.00023785,0.00033277,-0.00100441,0.000
 03300,-0.00056822,0.00003731,-0.00001577,0.00002313,-0.00000011,0.0000
 1767,0.00001256,-0.00000225,0.00003156,0.00000104,0.00000891,0.0000015
 7,-0.00000024,-0.00000098,-0.00000103,-0.00000011,0.00000029,-0.000000
 50,-0.00000040,0.00000085,0.00000080,0.00000063,-0.00000039,-0.0000003
 2,-0.00000003,0.00000018,0.00000064,-0.00000094,0.00000045,0.00000050,
 -0.00000061,0.00000033,0.00000010,-0.00000032,-0.00000015,-0.00000041,
 0.00000091,-0.00000016,0.00000048,-0.00000068,0.00000029,-0.00000051,0
 .00000060,-0.00000065,0.00000019,-0.00000003,0.00000034,0.00000007,0.0
 0000042,-0.00000027,-0.00000028,0.00000015,-0.00000005,-0.00000022,0.0
 0000003,0.00000004,0.00000032,0.00000004,-0.00000004,-0.00000133,0.000
 00037,-0.00000132,0.00000206,-0.00000333,0.00000222,0.00000915,-0.0000
 0116,-0.00000194,0.00000043,-0.00000456,0.00000085,0.00000193,-0.00001
 281,-0.00001290,-0.00076781,-0.00037537,0.00000592,-0.00918114,0.10619
 328,0.06556744\\0.00000180,-0.00000408,-0.00000031,-0.00000434,0.00001
 066,0.00001179,0.00000136,-0.00000342,-0.00000934,0.00000531,-0.000004
 32,-0.00000402,-0.00000838,0.00000296,0.00000262,-0.00000446,-0.000000
 18,0.00000041,-0.00000301,-0.00000498,-0.00000188,0.00000533,-0.000003
 87,-0.00000262,-0.00000608,-0.00000528,-0.00000033,0.00000622,0.000018
 38,0.00000386,0.00000775,-0.00000804,-0.00000514,0.00000403,-0.0000119
 3,-0.00000495,-0.00000741,0.00001035,0.00000604,0.00000110,-0.00000490
 ,-0.00000735,-0.00000412,-0.00000528,-0.00000231,0.00000606,0.00000139
 ,-0.00000469,-0.00001047,-0.00000147,0.00000848,0.00000869,-0.00000369
 ,-0.00000772,-0.00000437,-0.00000003,0.00001177,-0.00000910,0.00001292
 ,-0.00000297,0.00000041,-0.00000506,0.00000363,0.00000942,-0.00000103,
 -0.00000312,-0.00000475,0.00000370,-0.00000890,0.00000275,-0.00000266,
 0.00000564,-0.00000123,0.00000499,-0.00000719,0.00000278,-0.00000395,0
 .00000651,-0.00000278,0.00000218,0.00000154,-0.00000259,0.00000641,-0.
 00000558,0.00000947,0.00000210,-0.00000100,-0.00000959,0.00000489,-0.0
 0000168,0.00000167,0.00000106,0.00000383,-0.00000289,-0.00000328,0.000
 00185,-0.00000965,-0.00001769,-0.00000245,0.00000465,0.00000943,0.0000
 0427,0.00000287,0.00000349,-0.00000252,0.00000234,0.00000851,-0.000003
 70,0.00000247,-0.00000834,0.00000488,0.00000159,-0.00000405,0.00000217
 ,0.00000541,0.00000115,-0.00000173,0.00000256,0.00000559,-0.00000325,0
 .00000254,-0.00000411,0.00000171,0.00000601,-0.00000297,0.00000304,-0.
 00000751,0.00000549,0.00000240,0.00000822,-0.00000199,-0.00000266,0.00
 000911,0.00001579,-0.00000117,0.00000015,-0.00001130,-0.00000227,-0.00
 000997,-0.00000535,0.00000521,0.00000288,0.00000772,0.00000807,-0.0000
 0110,-0.00000478,-0.00000360,-0.00000099,0.00000313,0.00000651,0.00001
 045,0.00000573,0.00000155,-0.00000850,-0.00001083,-0.00000160,-0.00000
 359,-0.00000241,-0.00000135,0.00000375,0.00000087,-0.00000220,-0.00000
 104,0.00000262,0.00000449,0.00000430,-0.00000083,0.00000073,-0.0000025
 8,-0.00000368,0.00000126,-0.00000197,0.00000383,-0.00000044,0.00000234
 ,-0.00000187,-0.00000097,0.00000231,-0.00000003,-0.00000086,0.00000121
 ,0.00000195,-0.00000041,-0.00000262,0.00000096,0.00000040,-0.00000355,
 0.00000291,0.00000086,-0.00000289,0.00000250,0.00000151,0.00000136,0.0
 0000393,0.00000135,-0.00000166,-0.00000068,0.00000333,0.00000282,0.000
 00177,-0.00000223,-0.00000153,-0.00000007,0.00000268,-0.00000129,0.000
 00071,0.00000291,-0.00000245,-0.00000035,0.00000213,0.00000049,-0.0000
 0262,0.00000208,-0.00000193,-0.00000208,0.00000165,0.00000309,0.000000
 92,-0.00000244,0.00000352,-0.00000296,-0.00000188,-0.00000222,-0.00000
 165,0.00000340,-0.00000318,0.00000144,-0.00000413,0.00000425,-0.000000
 59,0.00000042,-0.00000181,0.00000340,-0.00000135,-0.00000260,-0.000004
 63,-0.00000077,-0.00000003,0.00000227,-0.00000274,-0.00000122,0.000001
 63,-0.00000171,-0.00000229,0.00000026,0.,0.00000032,-0.00000225,0.0000
 0134,-0.00000350,0.00000136,-0.00000247,-0.00000019,-0.00000001,-0.000
 00163,-0.00000291,0.00000048,0.00000229,0.00000160,-0.00000081,-0.0000
 0179,0.00000133,-0.00000152,-0.00000174,0.00000253,-0.00000051,-0.0000
 0192,-0.00000029,-0.00000342,-0.00000149\\\@
 The archive entry for this job was punched.


 AND THIS OUR LIFE, EXEMPT FROM PUBLIC HAUNT,
 FINDS TONGUES IN TREES, BOOKS IN THE RUNNING BROOKS,
 SERMONS IN STONES, AND GOOD IN EVERYTHING.
 I WOULD NOT CHANGE IT. -- W. SHAKESPEARE
 AS YOU LIKE IT, ACT II, SCENE 1.
 Job cpu time:       1 days  1 hours 43 minutes 10.8 seconds.
 Elapsed time:       0 days  0 hours 48 minutes 30.2 seconds.
 File lengths (MBytes):  RWF=   6150 Int=      0 D2E=      0 Chk=     57 Scr=      1
 Normal termination of Gaussian 16 at Mon Mar 24 22:27:45 2025.
