 Entering Gaussian System, Link 0=g16
 Initial command:
 /public/software/apps/Gaussian/g16/l1.exe "/tmp/Gau-11558.inp" -scrdir="/tmp/"
 Entering Link 1 = /public/software/apps/Gaussian/g16/l1.exe PID=     11559.
  
 Copyright (c) 1988-2019, Gaussian, Inc.  All Rights Reserved.
  
 This is part of the Gaussian(R) 16 program.  It is based on
 the Gaussian(R) 09 system (copyright 2009, Gaussian, Inc.),
 the Gaussian(R) 03 system (copyright 2003, Gaussian, Inc.),
 the Gaussian(R) 98 system (copyright 1998, Gaussian, Inc.),
 the Gaussian(R) 94 system (copyright 1995, Gaussian, Inc.),
 the Gaussian 92(TM) system (copyright 1992, Gaussian, Inc.),
 the Gaussian 90(TM) system (copyright 1990, Gaussian, Inc.),
 the Gaussian 88(TM) system (copyright 1988, Gaussian, Inc.),
 the Gaussian 86(TM) system (copyright 1986, Carnegie Mellon
 University), and the Gaussian 82(TM) system (copyright 1983,
 Carnegie Mellon University). Gaussian is a federally registered
 trademark of Gaussian, Inc.
  
 This software contains proprietary and confidential information,
 including trade secrets, belonging to Gaussian, Inc.
  
 This software is provided under written license and may be
 used, copied, transmitted, or stored only in accord with that
 written license.
  
 The following legend is applicable only to US Government
 contracts under FAR:
  
                    RESTRICTED RIGHTS LEGEND
  
 Use, reproduction and disclosure by the US Government is
 subject to restrictions as set forth in subparagraphs (a)
 and (c) of the Commercial Computer Software - Restricted
 Rights clause in FAR 52.227-19.
  
 Gaussian, Inc.
 340 Quinnipiac St., Bldg. 40, Wallingford CT 06492
  
  
 ---------------------------------------------------------------
 Warning -- This program may not be used in any manner that
 competes with the business of Gaussian, Inc. or will provide
 assistance to any competitor of Gaussian, Inc.  The licensee
 of this program is prohibited from giving any competitor of
 Gaussian, Inc. access to this program.  By using this program,
 the user acknowledges that Gaussian, Inc. is engaged in the
 business of creating and licensing software in the field of
 computational chemistry and represents and warrants to the
 licensee that it is not a competitor of Gaussian, Inc. and that
 it will not use this program in any manner prohibited above.
 ---------------------------------------------------------------
  

 Cite this work as:
 Gaussian 16, Revision C.01,
 M. J. Frisch, G. W. Trucks, H. B. Schlegel, G. E. Scuseria, 
 M. A. Robb, J. R. Cheeseman, G. Scalmani, V. Barone, 
 G. A. Petersson, H. Nakatsuji, X. Li, M. Caricato, A. V. Marenich, 
 J. Bloino, B. G. Janesko, R. Gomperts, B. Mennucci, H. P. Hratchian, 
 J. V. Ortiz, A. F. Izmaylov, J. L. Sonnenberg, D. Williams-Young, 
 F. Ding, F. Lipparini, F. Egidi, J. Goings, B. Peng, A. Petrone, 
 T. Henderson, D. Ranasinghe, V. G. Zakrzewski, J. Gao, N. Rega, 
 G. Zheng, W. Liang, M. Hada, M. Ehara, K. Toyota, R. Fukuda, 
 J. Hasegawa, M. Ishida, T. Nakajima, Y. Honda, O. Kitao, H. Nakai, 
 T. Vreven, K. Throssell, J. A. Montgomery, Jr., J. E. Peralta, 
 F. Ogliaro, M. J. Bearpark, J. J. Heyd, E. N. Brothers, K. N. Kudin, 
 V. N. Staroverov, T. A. Keith, R. Kobayashi, J. Normand, 
 K. Raghavachari, A. P. Rendell, J. C. Burant, S. S. Iyengar, 
 J. Tomasi, M. Cossi, J. M. Millam, M. Klene, C. Adamo, R. Cammi, 
 J. W. Ochterski, R. L. Martin, K. Morokuma, O. Farkas, 
 J. B. Foresman, and D. J. Fox, Gaussian, Inc., Wallingford CT, 2019.
 
 ******************************************
 Gaussian 16:  ES64L-G16RevC.01  3-Jul-2019
                24-Mar-2025 
 ******************************************
 %nprocshared=32
 Will use up to   32 processors via shared memory.
 %mem=100GB
 ------------------------------------------
 #p opt freq b3lyp/def2svpp em=gd3bj nosymm
 ------------------------------------------
 1/18=20,19=15,26=3,38=1/1,3;
 2/9=110,12=2,15=1,17=6,18=5,40=1/2;
 3/5=43,7=202,11=2,25=1,30=1,71=1,74=-5,124=41/1,2,3;
 4//1;
 5/5=2,38=5/2;
 6/7=2,8=2,9=2,10=2,28=1/1;
 7/30=1/1,2,3,16;
 1/18=20,19=15,26=3/3(2);
 2/9=110,15=1/2;
 99//99;
 2/9=110,15=1/2;
 3/5=43,7=202,11=2,25=1,30=1,71=1,74=-5,124=41/1,2,3;
 4/5=5,16=3,69=1/1;
 5/5=2,38=5/2;
 7/30=1/1,2,3,16;
 1/18=20,19=15,26=3/3(-5);
 2/9=110,15=1/2;
 6/7=2,8=2,9=2,10=2,19=2,28=1/1;
 99/9=1/99;
 Leave Link    1 at Mon Mar 24 11:22:03 2025, MaxMem= 13421772800 cpu:               1.8 elap:               0.1
 (Enter /public/software/apps/Gaussian/g16/l101.exe)
 ----------------------
 $$$$Singlemol####0????
 ----------------------
 Symbolic Z-matrix:
 Charge =  0 Multiplicity = 1
 C                    -3.64882  -5.06739   2.02344 
 C                    -4.09923  -4.53436   0.65603 
 C                    -5.25775  -3.54373   0.83975 
 C                    -4.6098   -5.71675  -0.17189 
 C                    -2.93406  -3.81472  -0.00391 
 C                    -2.40349  -4.19631  -1.2303 
 C                    -1.34973  -3.50775  -1.80301 
 C                    -0.7767   -2.41356  -1.16491 
 C                     0.33449  -1.66964  -1.77192 
 C                     0.33721  -1.39549  -3.15627 
 C                     1.35474  -0.68335  -3.72168 
 C                     2.41474  -0.18093  -2.93932 
 C                     3.4615    0.58085  -3.49867 
 C                     4.4542    1.0869   -2.71375 
 C                     4.44739   0.86144  -1.32264 
 O                     5.45347   1.43589  -0.6072 
 C                     3.45166   0.10314  -0.73484 
 C                     3.45332  -0.11611   0.73364 
 C                     4.44844  -0.87707   1.31898 
 O                     5.45163  -1.4537    0.60126 
 C                     4.4575   -1.1031    2.71001 
 C                     3.4669   -0.59622   3.4971 
 C                     2.42038   0.16766   2.94014 
 C                     1.36133   0.66986   3.72394 
 C                     0.34417   1.38409   3.1604 
 C                     0.34158   1.66217   1.77679 
 C                    -0.76677   2.41087   1.17066 
 C                    -1.34282   3.50038   1.81411 
 C                    -2.39105   4.19592   1.23963 
 C                    -2.91245   3.82685   0.00553 
 C                    -4.06771   4.55771  -0.65944 
 C                    -4.58383   5.73249   0.17586 
 C                    -3.59853   5.1045   -2.01513 
 C                    -5.2277    3.57393  -0.86855 
 C                    -2.33215   2.73265  -0.633 
 C                    -1.2808    2.03962  -0.06994 
 C                     1.38077   1.20494   1.00088 
 C                     2.4208    0.42773   1.54549 
 C                     2.41617  -0.43886  -1.54422 
 C                     1.37443  -1.2123   -0.9972 
 C                    -1.29793  -2.0314    0.06927 
 C                    -2.3554   -2.71702   0.6301 
 H                    -4.46562  -5.60091   2.50518 
 H                    -3.33543  -4.26039   2.67977 
 H                    -2.81227  -5.75266   1.90262 
 H                    -5.57117  -3.14897  -0.12464 
 H                    -6.1075   -4.04228   1.30151 
 H                    -4.96858  -2.7082    1.47109 
 H                    -5.44066  -6.1905    0.34726 
 H                    -3.8312   -6.4635   -0.3099 
 H                    -4.96659  -5.38835  -1.14542 
 H                    -2.80556  -5.04274  -1.76322 
 H                    -0.95253  -3.84165  -2.7511 
 H                    -0.48673  -1.74324  -3.76188 
 H                     1.35664  -0.47891  -4.7831 
 H                     3.45983   0.767    -4.56254 
 H                     5.25694   1.68109  -3.12038 
 H                     5.32362   1.27106   0.33728 
 H                     5.32051  -1.28784  -0.34286 
 H                     5.26002  -1.69886   3.11477 
 H                     3.46673  -0.78341   4.56079 
 H                     1.36358   0.46354   4.78499 
 H                    -0.47921   1.73092   3.76728 
 H                    -0.95205   3.82566   2.76783 
 H                    -2.79562   5.03832   1.77703 
 H                    -5.40748   6.21454  -0.34714 
 H                    -3.80458   6.47526   0.33059 
 H                    -4.95224   5.39448   1.14175 
 H                    -2.76102   5.78518  -1.87622 
 H                    -4.40728   5.64653  -2.5009 
 H                    -3.27985   4.3037   -2.67654 
 H                    -5.55494   3.17001   0.08739 
 H                    -6.06947   4.08103  -1.33556 
 H                    -4.93403   2.74417  -1.50535 
 H                    -2.7047    2.40494  -1.59208 
 H                    -0.86677   1.18727  -0.59006 
 H                     1.40414   1.44696  -0.05093 
 H                     1.3969   -1.45143   0.0553 
 H                    -0.88513  -1.17598   0.58532 
 H                    -2.73461  -2.38014   1.58337 
 
 ITRead=  0  0  0  0  0  0  0  0  0  0  0  0  0  0  0  0  0  0  0  0
 ITRead=  0  0  0  0  0  0  0  0  0  0  0  0  0  0  0  0  0  0  0  0
 ITRead=  0  0  0  0  0  0  0  0  0  0  0  0  0  0  0  0  0  0  0  0
 ITRead=  0  0  0  0  0  0  0  0  0  0  0  0  0  0  0  0  0  0  0  0
 MicOpt= -1 -1 -1 -1 -1 -1 -1 -1 -1 -1 -1 -1 -1 -1 -1 -1 -1 -1 -1 -1
 MicOpt= -1 -1 -1 -1 -1 -1 -1 -1 -1 -1 -1 -1 -1 -1 -1 -1 -1 -1 -1 -1
 MicOpt= -1 -1 -1 -1 -1 -1 -1 -1 -1 -1 -1 -1 -1 -1 -1 -1 -1 -1 -1 -1
 MicOpt= -1 -1 -1 -1 -1 -1 -1 -1 -1 -1 -1 -1 -1 -1 -1 -1 -1 -1 -1 -1
 NAtoms=     80 NQM=       80 NQMF=       0 NMMI=      0 NMMIF=      0
                NMic=       0 NMicF=      0.
                    Isotopes and Nuclear Properties:
 (Nuclear quadrupole moments (NQMom) in fm**2, nuclear magnetic moments (NMagM)
  in nuclear magnetons)

  Atom         1           2           3           4           5           6           7           8           9          10
 IAtWgt=          12          12          12          12          12          12          12          12          12          12
 AtmWgt=  12.0000000  12.0000000  12.0000000  12.0000000  12.0000000  12.0000000  12.0000000  12.0000000  12.0000000  12.0000000
 NucSpn=           0           0           0           0           0           0           0           0           0           0
 AtZEff=  -0.0000000  -0.0000000  -0.0000000  -0.0000000  -0.0000000  -0.0000000  -0.0000000  -0.0000000  -0.0000000  -0.0000000
 NQMom=    0.0000000   0.0000000   0.0000000   0.0000000   0.0000000   0.0000000   0.0000000   0.0000000   0.0000000   0.0000000
 NMagM=    0.0000000   0.0000000   0.0000000   0.0000000   0.0000000   0.0000000   0.0000000   0.0000000   0.0000000   0.0000000
 AtZNuc=   6.0000000   6.0000000   6.0000000   6.0000000   6.0000000   6.0000000   6.0000000   6.0000000   6.0000000   6.0000000

  Atom        11          12          13          14          15          16          17          18          19          20
 IAtWgt=          12          12          12          12          12          16          12          12          12          16
 AtmWgt=  12.0000000  12.0000000  12.0000000  12.0000000  12.0000000  15.9949146  12.0000000  12.0000000  12.0000000  15.9949146
 NucSpn=           0           0           0           0           0           0           0           0           0           0
 AtZEff=  -0.0000000  -0.0000000  -0.0000000  -0.0000000  -0.0000000  -0.0000000  -0.0000000  -0.0000000  -0.0000000  -0.0000000
 NQMom=    0.0000000   0.0000000   0.0000000   0.0000000   0.0000000   0.0000000   0.0000000   0.0000000   0.0000000   0.0000000
 NMagM=    0.0000000   0.0000000   0.0000000   0.0000000   0.0000000   0.0000000   0.0000000   0.0000000   0.0000000   0.0000000
 AtZNuc=   6.0000000   6.0000000   6.0000000   6.0000000   6.0000000   8.0000000   6.0000000   6.0000000   6.0000000   8.0000000

  Atom        21          22          23          24          25          26          27          28          29          30
 IAtWgt=          12          12          12          12          12          12          12          12          12          12
 AtmWgt=  12.0000000  12.0000000  12.0000000  12.0000000  12.0000000  12.0000000  12.0000000  12.0000000  12.0000000  12.0000000
 NucSpn=           0           0           0           0           0           0           0           0           0           0
 AtZEff=  -0.0000000  -0.0000000  -0.0000000  -0.0000000  -0.0000000  -0.0000000  -0.0000000  -0.0000000  -0.0000000  -0.0000000
 NQMom=    0.0000000   0.0000000   0.0000000   0.0000000   0.0000000   0.0000000   0.0000000   0.0000000   0.0000000   0.0000000
 NMagM=    0.0000000   0.0000000   0.0000000   0.0000000   0.0000000   0.0000000   0.0000000   0.0000000   0.0000000   0.0000000
 AtZNuc=   6.0000000   6.0000000   6.0000000   6.0000000   6.0000000   6.0000000   6.0000000   6.0000000   6.0000000   6.0000000

  Atom        31          32          33          34          35          36          37          38          39          40
 IAtWgt=          12          12          12          12          12          12          12          12          12          12
 AtmWgt=  12.0000000  12.0000000  12.0000000  12.0000000  12.0000000  12.0000000  12.0000000  12.0000000  12.0000000  12.0000000
 NucSpn=           0           0           0           0           0           0           0           0           0           0
 AtZEff=  -0.0000000  -0.0000000  -0.0000000  -0.0000000  -0.0000000  -0.0000000  -0.0000000  -0.0000000  -0.0000000  -0.0000000
 NQMom=    0.0000000   0.0000000   0.0000000   0.0000000   0.0000000   0.0000000   0.0000000   0.0000000   0.0000000   0.0000000
 NMagM=    0.0000000   0.0000000   0.0000000   0.0000000   0.0000000   0.0000000   0.0000000   0.0000000   0.0000000   0.0000000
 AtZNuc=   6.0000000   6.0000000   6.0000000   6.0000000   6.0000000   6.0000000   6.0000000   6.0000000   6.0000000   6.0000000

  Atom        41          42          43          44          45          46          47          48          49          50
 IAtWgt=          12          12           1           1           1           1           1           1           1           1
 AtmWgt=  12.0000000  12.0000000   1.0078250   1.0078250   1.0078250   1.0078250   1.0078250   1.0078250   1.0078250   1.0078250
 NucSpn=           0           0           1           1           1           1           1           1           1           1
 AtZEff=  -0.0000000  -0.0000000  -0.0000000  -0.0000000  -0.0000000  -0.0000000  -0.0000000  -0.0000000  -0.0000000  -0.0000000
 NQMom=    0.0000000   0.0000000   0.0000000   0.0000000   0.0000000   0.0000000   0.0000000   0.0000000   0.0000000   0.0000000
 NMagM=    0.0000000   0.0000000   2.7928460   2.7928460   2.7928460   2.7928460   2.7928460   2.7928460   2.7928460   2.7928460
 AtZNuc=   6.0000000   6.0000000   1.0000000   1.0000000   1.0000000   1.0000000   1.0000000   1.0000000   1.0000000   1.0000000

  Atom        51          52          53          54          55          56          57          58          59          60
 IAtWgt=           1           1           1           1           1           1           1           1           1           1
 AtmWgt=   1.0078250   1.0078250   1.0078250   1.0078250   1.0078250   1.0078250   1.0078250   1.0078250   1.0078250   1.0078250
 NucSpn=           1           1           1           1           1           1           1           1           1           1
 AtZEff=  -0.0000000  -0.0000000  -0.0000000  -0.0000000  -0.0000000  -0.0000000  -0.0000000  -0.0000000  -0.0000000  -0.0000000
 NQMom=    0.0000000   0.0000000   0.0000000   0.0000000   0.0000000   0.0000000   0.0000000   0.0000000   0.0000000   0.0000000
 NMagM=    2.7928460   2.7928460   2.7928460   2.7928460   2.7928460   2.7928460   2.7928460   2.7928460   2.7928460   2.7928460
 AtZNuc=   1.0000000   1.0000000   1.0000000   1.0000000   1.0000000   1.0000000   1.0000000   1.0000000   1.0000000   1.0000000

  Atom        61          62          63          64          65          66          67          68          69          70
 IAtWgt=           1           1           1           1           1           1           1           1           1           1
 AtmWgt=   1.0078250   1.0078250   1.0078250   1.0078250   1.0078250   1.0078250   1.0078250   1.0078250   1.0078250   1.0078250
 NucSpn=           1           1           1           1           1           1           1           1           1           1
 AtZEff=  -0.0000000  -0.0000000  -0.0000000  -0.0000000  -0.0000000  -0.0000000  -0.0000000  -0.0000000  -0.0000000  -0.0000000
 NQMom=    0.0000000   0.0000000   0.0000000   0.0000000   0.0000000   0.0000000   0.0000000   0.0000000   0.0000000   0.0000000
 NMagM=    2.7928460   2.7928460   2.7928460   2.7928460   2.7928460   2.7928460   2.7928460   2.7928460   2.7928460   2.7928460
 AtZNuc=   1.0000000   1.0000000   1.0000000   1.0000000   1.0000000   1.0000000   1.0000000   1.0000000   1.0000000   1.0000000

  Atom        71          72          73          74          75          76          77          78          79          80
 IAtWgt=           1           1           1           1           1           1           1           1           1           1
 AtmWgt=   1.0078250   1.0078250   1.0078250   1.0078250   1.0078250   1.0078250   1.0078250   1.0078250   1.0078250   1.0078250
 NucSpn=           1           1           1           1           1           1           1           1           1           1
 AtZEff=  -0.0000000  -0.0000000  -0.0000000  -0.0000000  -0.0000000  -0.0000000  -0.0000000  -0.0000000  -0.0000000  -0.0000000
 NQMom=    0.0000000   0.0000000   0.0000000   0.0000000   0.0000000   0.0000000   0.0000000   0.0000000   0.0000000   0.0000000
 NMagM=    2.7928460   2.7928460   2.7928460   2.7928460   2.7928460   2.7928460   2.7928460   2.7928460   2.7928460   2.7928460
 AtZNuc=   1.0000000   1.0000000   1.0000000   1.0000000   1.0000000   1.0000000   1.0000000   1.0000000   1.0000000   1.0000000
 Leave Link  101 at Mon Mar 24 11:22:03 2025, MaxMem= 13421772800 cpu:               3.5 elap:               0.1
 (Enter /public/software/apps/Gaussian/g16/l103.exe)

 GradGradGradGradGradGradGradGradGradGradGradGradGradGradGradGradGradGrad
 Berny optimization.
 Initialization pass.
                           ----------------------------
                           !    Initial Parameters    !
                           ! (Angstroms and Degrees)  !
 --------------------------                            --------------------------
 ! Name  Definition              Value          Derivative Info.                !
 --------------------------------------------------------------------------------
 ! R1    R(1,2)                  1.5352         estimate D2E/DX2                !
 ! R2    R(1,43)                 1.0881         estimate D2E/DX2                !
 ! R3    R(1,44)                 1.0864         estimate D2E/DX2                !
 ! R4    R(1,45)                 1.0881         estimate D2E/DX2                !
 ! R5    R(2,3)                  1.5353         estimate D2E/DX2                !
 ! R6    R(2,4)                  1.5311         estimate D2E/DX2                !
 ! R7    R(2,5)                  1.5202         estimate D2E/DX2                !
 ! R8    R(3,46)                 1.0882         estimate D2E/DX2                !
 ! R9    R(3,47)                 1.0881         estimate D2E/DX2                !
 ! R10   R(3,48)                 1.0864         estimate D2E/DX2                !
 ! R11   R(4,49)                 1.0882         estimate D2E/DX2                !
 ! R12   R(4,50)                 1.0876         estimate D2E/DX2                !
 ! R13   R(4,51)                 1.0876         estimate D2E/DX2                !
 ! R14   R(5,6)                  1.3897         estimate D2E/DX2                !
 ! R15   R(5,42)                 1.3935         estimate D2E/DX2                !
 ! R16   R(6,7)                  1.3829         estimate D2E/DX2                !
 ! R17   R(6,52)                 1.078          estimate D2E/DX2                !
 ! R18   R(7,8)                  1.3903         estimate D2E/DX2                !
 ! R19   R(7,53)                 1.0808         estimate D2E/DX2                !
 ! R20   R(8,9)                  1.4685         estimate D2E/DX2                !
 ! R21   R(8,41)                 1.3932         estimate D2E/DX2                !
 ! R22   R(9,10)                 1.4112         estimate D2E/DX2                !
 ! R23   R(9,40)                 1.3751         estimate D2E/DX2                !
 ! R24   R(10,11)                1.3646         estimate D2E/DX2                !
 ! R25   R(10,54)                1.0801         estimate D2E/DX2                !
 ! R26   R(11,12)                1.41           estimate D2E/DX2                !
 ! R27   R(11,55)                1.0809         estimate D2E/DX2                !
 ! R28   R(12,13)                1.4103         estimate D2E/DX2                !
 ! R29   R(12,39)                1.4187         estimate D2E/DX2                !
 ! R30   R(13,14)                1.363          estimate D2E/DX2                !
 ! R31   R(13,56)                1.08           estimate D2E/DX2                !
 ! R32   R(14,15)                1.4093         estimate D2E/DX2                !
 ! R33   R(14,57)                1.0783         estimate D2E/DX2                !
 ! R34   R(15,16)                1.3616         estimate D2E/DX2                !
 ! R35   R(15,17)                1.3827         estimate D2E/DX2                !
 ! R36   R(16,58)                0.9675         estimate D2E/DX2                !
 ! R37   R(17,18)                1.4848         estimate D2E/DX2                !
 ! R38   R(17,39)                1.4217         estimate D2E/DX2                !
 ! R39   R(18,19)                1.3827         estimate D2E/DX2                !
 ! R40   R(18,38)                1.4216         estimate D2E/DX2                !
 ! R41   R(19,20)                1.3616         estimate D2E/DX2                !
 ! R42   R(19,21)                1.4093         estimate D2E/DX2                !
 ! R43   R(20,59)                0.9675         estimate D2E/DX2                !
 ! R44   R(21,22)                1.363          estimate D2E/DX2                !
 ! R45   R(21,60)                1.0783         estimate D2E/DX2                !
 ! R46   R(22,23)                1.4103         estimate D2E/DX2                !
 ! R47   R(22,61)                1.08           estimate D2E/DX2                !
 ! R48   R(23,24)                1.41           estimate D2E/DX2                !
 ! R49   R(23,38)                1.4187         estimate D2E/DX2                !
 ! R50   R(24,25)                1.3647         estimate D2E/DX2                !
 ! R51   R(24,62)                1.0809         estimate D2E/DX2                !
 ! R52   R(25,26)                1.4113         estimate D2E/DX2                !
 ! R53   R(25,63)                1.0801         estimate D2E/DX2                !
 ! R54   R(26,27)                1.4685         estimate D2E/DX2                !
 ! R55   R(26,37)                1.3751         estimate D2E/DX2                !
 ! R56   R(27,28)                1.3903         estimate D2E/DX2                !
 ! R57   R(27,36)                1.3933         estimate D2E/DX2                !
 ! R58   R(28,29)                1.383          estimate D2E/DX2                !
 ! R59   R(28,64)                1.0808         estimate D2E/DX2                !
 ! R60   R(29,30)                1.3896         estimate D2E/DX2                !
 ! R61   R(29,65)                1.078          estimate D2E/DX2                !
 ! R62   R(30,31)                1.5202         estimate D2E/DX2                !
 ! R63   R(30,35)                1.3935         estimate D2E/DX2                !
 ! R64   R(31,32)                1.5311         estimate D2E/DX2                !
 ! R65   R(31,33)                1.5353         estimate D2E/DX2                !
 ! R66   R(31,34)                1.5353         estimate D2E/DX2                !
 ! R67   R(32,66)                1.0883         estimate D2E/DX2                !
 ! R68   R(32,67)                1.0876         estimate D2E/DX2                !
 ! R69   R(32,68)                1.0876         estimate D2E/DX2                !
 ! R70   R(33,69)                1.0881         estimate D2E/DX2                !
 ! R71   R(33,70)                1.0881         estimate D2E/DX2                !
 ! R72   R(33,71)                1.0864         estimate D2E/DX2                !
 ! R73   R(34,72)                1.0881         estimate D2E/DX2                !
 ! R74   R(34,73)                1.088          estimate D2E/DX2                !
 ! R75   R(34,74)                1.0864         estimate D2E/DX2                !
 ! R76   R(35,36)                1.3794         estimate D2E/DX2                !
 ! R77   R(35,75)                1.0798         estimate D2E/DX2                !
 ! R78   R(36,76)                1.0809         estimate D2E/DX2                !
 ! R79   R(37,38)                1.408          estimate D2E/DX2                !
 ! R80   R(37,77)                1.0795         estimate D2E/DX2                !
 ! R81   R(39,40)                1.4081         estimate D2E/DX2                !
 ! R82   R(40,78)                1.0796         estimate D2E/DX2                !
 ! R83   R(41,42)                1.3794         estimate D2E/DX2                !
 ! R84   R(41,79)                1.081          estimate D2E/DX2                !
 ! R85   R(42,80)                1.0798         estimate D2E/DX2                !
 ! A1    A(2,1,43)             110.1433         estimate D2E/DX2                !
 ! A2    A(2,1,44)             111.3976         estimate D2E/DX2                !
 ! A3    A(2,1,45)             110.2017         estimate D2E/DX2                !
 ! A4    A(43,1,44)            108.2589         estimate D2E/DX2                !
 ! A5    A(43,1,45)            108.5108         estimate D2E/DX2                !
 ! A6    A(44,1,45)            108.247          estimate D2E/DX2                !
 ! A7    A(1,2,3)              109.8055         estimate D2E/DX2                !
 ! A8    A(1,2,4)              108.1408         estimate D2E/DX2                !
 ! A9    A(1,2,5)              109.0359         estimate D2E/DX2                !
 ! A10   A(3,2,4)              108.141          estimate D2E/DX2                !
 ! A11   A(3,2,5)              108.9567         estimate D2E/DX2                !
 ! A12   A(4,2,5)              112.7319         estimate D2E/DX2                !
 ! A13   A(2,3,46)             110.2039         estimate D2E/DX2                !
 ! A14   A(2,3,47)             110.1483         estimate D2E/DX2                !
 ! A15   A(2,3,48)             111.4017         estimate D2E/DX2                !
 ! A16   A(46,3,47)            108.5058         estimate D2E/DX2                !
 ! A17   A(46,3,48)            108.2207         estimate D2E/DX2                !
 ! A18   A(47,3,48)            108.2783         estimate D2E/DX2                !
 ! A19   A(2,4,49)             109.4401         estimate D2E/DX2                !
 ! A20   A(2,4,50)             111.1076         estimate D2E/DX2                !
 ! A21   A(2,4,51)             111.1145         estimate D2E/DX2                !
 ! A22   A(49,4,50)            107.951          estimate D2E/DX2                !
 ! A23   A(49,4,51)            107.939          estimate D2E/DX2                !
 ! A24   A(50,4,51)            109.1827         estimate D2E/DX2                !
 ! A25   A(2,5,6)              123.0765         estimate D2E/DX2                !
 ! A26   A(2,5,42)             119.5823         estimate D2E/DX2                !
 ! A27   A(6,5,42)             117.3412         estimate D2E/DX2                !
 ! A28   A(5,6,7)              121.3104         estimate D2E/DX2                !
 ! A29   A(5,6,52)             120.629          estimate D2E/DX2                !
 ! A30   A(7,6,52)             118.0606         estimate D2E/DX2                !
 ! A31   A(6,7,8)              121.0548         estimate D2E/DX2                !
 ! A32   A(6,7,53)             119.3061         estimate D2E/DX2                !
 ! A33   A(8,7,53)             119.624          estimate D2E/DX2                !
 ! A34   A(7,8,9)              121.3894         estimate D2E/DX2                !
 ! A35   A(7,8,41)             117.9231         estimate D2E/DX2                !
 ! A36   A(9,8,41)             120.6846         estimate D2E/DX2                !
 ! A37   A(8,9,10)             120.3538         estimate D2E/DX2                !
 ! A38   A(8,9,40)             120.5205         estimate D2E/DX2                !
 ! A39   A(10,9,40)            119.1173         estimate D2E/DX2                !
 ! A40   A(9,10,11)            120.6142         estimate D2E/DX2                !
 ! A41   A(9,10,54)            119.0785         estimate D2E/DX2                !
 ! A42   A(11,10,54)           120.2996         estimate D2E/DX2                !
 ! A43   A(10,11,12)           121.1049         estimate D2E/DX2                !
 ! A44   A(10,11,55)           120.4552         estimate D2E/DX2                !
 ! A45   A(12,11,55)           118.4335         estimate D2E/DX2                !
 ! A46   A(11,12,13)           122.0317         estimate D2E/DX2                !
 ! A47   A(11,12,39)           118.7894         estimate D2E/DX2                !
 ! A48   A(13,12,39)           119.1748         estimate D2E/DX2                !
 ! A49   A(12,13,14)           120.8464         estimate D2E/DX2                !
 ! A50   A(12,13,56)           118.8581         estimate D2E/DX2                !
 ! A51   A(14,13,56)           120.2925         estimate D2E/DX2                !
 ! A52   A(13,14,15)           120.3683         estimate D2E/DX2                !
 ! A53   A(13,14,57)           121.9799         estimate D2E/DX2                !
 ! A54   A(15,14,57)           117.6443         estimate D2E/DX2                !
 ! A55   A(14,15,16)           116.5891         estimate D2E/DX2                !
 ! A56   A(14,15,17)           120.719          estimate D2E/DX2                !
 ! A57   A(16,15,17)           122.6887         estimate D2E/DX2                !
 ! A58   A(15,16,58)           109.9918         estimate D2E/DX2                !
 ! A59   A(15,17,18)           120.0403         estimate D2E/DX2                !
 ! A60   A(15,17,39)           119.4435         estimate D2E/DX2                !
 ! A61   A(18,17,39)           120.5038         estimate D2E/DX2                !
 ! A62   A(17,18,19)           120.0494         estimate D2E/DX2                !
 ! A63   A(17,18,38)           120.4987         estimate D2E/DX2                !
 ! A64   A(19,18,38)           119.4384         estimate D2E/DX2                !
 ! A65   A(18,19,20)           122.6942         estimate D2E/DX2                !
 ! A66   A(18,19,21)           120.7118         estimate D2E/DX2                !
 ! A67   A(20,19,21)           116.5909         estimate D2E/DX2                !
 ! A68   A(19,20,59)           109.9938         estimate D2E/DX2                !
 ! A69   A(19,21,22)           120.3758         estimate D2E/DX2                !
 ! A70   A(19,21,60)           117.6379         estimate D2E/DX2                !
 ! A71   A(22,21,60)           121.9783         estimate D2E/DX2                !
 ! A72   A(21,22,23)           120.8437         estimate D2E/DX2                !
 ! A73   A(21,22,61)           120.291          estimate D2E/DX2                !
 ! A74   A(23,22,61)           118.8623         estimate D2E/DX2                !
 ! A75   A(22,23,24)           122.0561         estimate D2E/DX2                !
 ! A76   A(22,23,38)           119.1636         estimate D2E/DX2                !
 ! A77   A(24,23,38)           118.7759         estimate D2E/DX2                !
 ! A78   A(23,24,25)           121.1107         estimate D2E/DX2                !
 ! A79   A(23,24,62)           118.4314         estimate D2E/DX2                !
 ! A80   A(25,24,62)           120.4515         estimate D2E/DX2                !
 ! A81   A(24,25,26)           120.6202         estimate D2E/DX2                !
 ! A82   A(24,25,63)           120.281          estimate D2E/DX2                !
 ! A83   A(26,25,63)           119.0916         estimate D2E/DX2                !
 ! A84   A(25,26,27)           120.4319         estimate D2E/DX2                !
 ! A85   A(25,26,37)           119.0965         estimate D2E/DX2                !
 ! A86   A(27,26,37)           120.4642         estimate D2E/DX2                !
 ! A87   A(26,27,28)           121.4158         estimate D2E/DX2                !
 ! A88   A(26,27,36)           120.6738         estimate D2E/DX2                !
 ! A89   A(28,27,36)           117.9085         estimate D2E/DX2                !
 ! A90   A(27,28,29)           121.0593         estimate D2E/DX2                !
 ! A91   A(27,28,64)           119.6339         estimate D2E/DX2                !
 ! A92   A(29,28,64)           119.2909         estimate D2E/DX2                !
 ! A93   A(28,29,30)           121.3142         estimate D2E/DX2                !
 ! A94   A(28,29,65)           118.0592         estimate D2E/DX2                !
 ! A95   A(30,29,65)           120.6266         estimate D2E/DX2                !
 ! A96   A(29,30,31)           123.0879         estimate D2E/DX2                !
 ! A97   A(29,30,35)           117.3378         estimate D2E/DX2                !
 ! A98   A(31,30,35)           119.5743         estimate D2E/DX2                !
 ! A99   A(30,31,32)           112.732          estimate D2E/DX2                !
 ! A100  A(30,31,33)           108.981          estimate D2E/DX2                !
 ! A101  A(30,31,34)           109.007          estimate D2E/DX2                !
 ! A102  A(32,31,33)           108.1494         estimate D2E/DX2                !
 ! A103  A(32,31,34)           108.1359         estimate D2E/DX2                !
 ! A104  A(33,31,34)           109.8065         estimate D2E/DX2                !
 ! A105  A(31,32,66)           109.4404         estimate D2E/DX2                !
 ! A106  A(31,32,67)           111.1065         estimate D2E/DX2                !
 ! A107  A(31,32,68)           111.1142         estimate D2E/DX2                !
 ! A108  A(66,32,67)           107.9469         estimate D2E/DX2                !
 ! A109  A(66,32,68)           107.9438         estimate D2E/DX2                !
 ! A110  A(67,32,68)           109.1831         estimate D2E/DX2                !
 ! A111  A(31,33,69)           110.1986         estimate D2E/DX2                !
 ! A112  A(31,33,70)           110.1518         estimate D2E/DX2                !
 ! A113  A(31,33,71)           111.3901         estimate D2E/DX2                !
 ! A114  A(69,33,70)           108.5102         estimate D2E/DX2                !
 ! A115  A(69,33,71)           108.2426         estimate D2E/DX2                !
 ! A116  A(70,33,71)           108.266          estimate D2E/DX2                !
 ! A117  A(31,34,72)           110.2079         estimate D2E/DX2                !
 ! A118  A(31,34,73)           110.1419         estimate D2E/DX2                !
 ! A119  A(31,34,74)           111.4082         estimate D2E/DX2                !
 ! A120  A(72,34,73)           108.5068         estimate D2E/DX2                !
 ! A121  A(72,34,74)           108.2234         estimate D2E/DX2                !
 ! A122  A(73,34,74)           108.2705         estimate D2E/DX2                !
 ! A123  A(30,35,36)           121.6606         estimate D2E/DX2                !
 ! A124  A(30,35,75)           120.1075         estimate D2E/DX2                !
 ! A125  A(36,35,75)           118.2317         estimate D2E/DX2                !
 ! A126  A(27,36,35)           120.7175         estimate D2E/DX2                !
 ! A127  A(27,36,76)           119.818          estimate D2E/DX2                !
 ! A128  A(35,36,76)           119.4525         estimate D2E/DX2                !
 ! A129  A(26,37,38)           121.5677         estimate D2E/DX2                !
 ! A130  A(26,37,77)           119.4432         estimate D2E/DX2                !
 ! A131  A(38,37,77)           118.989          estimate D2E/DX2                !
 ! A132  A(18,38,23)           119.4384         estimate D2E/DX2                !
 ! A133  A(18,38,37)           121.7885         estimate D2E/DX2                !
 ! A134  A(23,38,37)           118.7661         estimate D2E/DX2                !
 ! A135  A(12,39,17)           119.4228         estimate D2E/DX2                !
 ! A136  A(12,39,40)           118.7597         estimate D2E/DX2                !
 ! A137  A(17,39,40)           121.8107         estimate D2E/DX2                !
 ! A138  A(9,40,39)            121.5564         estimate D2E/DX2                !
 ! A139  A(9,40,78)            119.4293         estimate D2E/DX2                !
 ! A140  A(39,40,78)           119.0143         estimate D2E/DX2                !
 ! A141  A(8,41,42)            120.7062         estimate D2E/DX2                !
 ! A142  A(8,41,79)            119.8094         estimate D2E/DX2                !
 ! A143  A(42,41,79)           119.4713         estimate D2E/DX2                !
 ! A144  A(5,42,41)            121.6611         estimate D2E/DX2                !
 ! A145  A(5,42,80)            120.1049         estimate D2E/DX2                !
 ! A146  A(41,42,80)           118.2337         estimate D2E/DX2                !
 ! D1    D(43,1,2,3)            61.6289         estimate D2E/DX2                !
 ! D2    D(43,1,2,4)           -56.1612         estimate D2E/DX2                !
 ! D3    D(43,1,2,5)          -179.0629         estimate D2E/DX2                !
 ! D4    D(44,1,2,3)           -58.5143         estimate D2E/DX2                !
 ! D5    D(44,1,2,4)          -176.3044         estimate D2E/DX2                !
 ! D6    D(44,1,2,5)            60.7939         estimate D2E/DX2                !
 ! D7    D(45,1,2,3)          -178.6813         estimate D2E/DX2                !
 ! D8    D(45,1,2,4)            63.5286         estimate D2E/DX2                !
 ! D9    D(45,1,2,5)           -59.3732         estimate D2E/DX2                !
 ! D10   D(1,2,3,46)           179.0497         estimate D2E/DX2                !
 ! D11   D(1,2,3,47)           -61.262          estimate D2E/DX2                !
 ! D12   D(1,2,3,48)            58.9115         estimate D2E/DX2                !
 ! D13   D(4,2,3,46)           -63.1602         estimate D2E/DX2                !
 ! D14   D(4,2,3,47)            56.528          estimate D2E/DX2                !
 ! D15   D(4,2,3,48)           176.7016         estimate D2E/DX2                !
 ! D16   D(5,2,3,46)            59.693          estimate D2E/DX2                !
 ! D17   D(5,2,3,47)           179.3812         estimate D2E/DX2                !
 ! D18   D(5,2,3,48)           -60.4452         estimate D2E/DX2                !
 ! D19   D(1,2,4,49)            59.4348         estimate D2E/DX2                !
 ! D20   D(1,2,4,50)           -59.6815         estimate D2E/DX2                !
 ! D21   D(1,2,4,51)           178.5407         estimate D2E/DX2                !
 ! D22   D(3,2,4,49)           -59.4173         estimate D2E/DX2                !
 ! D23   D(3,2,4,50)          -178.5336         estimate D2E/DX2                !
 ! D24   D(3,2,4,51)            59.6886         estimate D2E/DX2                !
 ! D25   D(5,2,4,49)          -179.9416         estimate D2E/DX2                !
 ! D26   D(5,2,4,50)            60.942          estimate D2E/DX2                !
 ! D27   D(5,2,4,51)           -60.8358         estimate D2E/DX2                !
 ! D28   D(1,2,5,6)            120.3888         estimate D2E/DX2                !
 ! D29   D(1,2,5,42)           -59.7135         estimate D2E/DX2                !
 ! D30   D(3,2,5,6)           -119.7767         estimate D2E/DX2                !
 ! D31   D(3,2,5,42)            60.121          estimate D2E/DX2                !
 ! D32   D(4,2,5,6)              0.2791         estimate D2E/DX2                !
 ! D33   D(4,2,5,42)          -179.8232         estimate D2E/DX2                !
 ! D34   D(2,5,6,7)            179.4314         estimate D2E/DX2                !
 ! D35   D(2,5,6,52)            -0.5798         estimate D2E/DX2                !
 ! D36   D(42,5,6,7)            -0.4685         estimate D2E/DX2                !
 ! D37   D(42,5,6,52)          179.5204         estimate D2E/DX2                !
 ! D38   D(2,5,42,41)         -179.9063         estimate D2E/DX2                !
 ! D39   D(2,5,42,80)           -0.0987         estimate D2E/DX2                !
 ! D40   D(6,5,42,41)           -0.0028         estimate D2E/DX2                !
 ! D41   D(6,5,42,80)          179.8048         estimate D2E/DX2                !
 ! D42   D(5,6,7,8)              0.5053         estimate D2E/DX2                !
 ! D43   D(5,6,7,53)           179.0865         estimate D2E/DX2                !
 ! D44   D(52,6,7,8)          -179.4838         estimate D2E/DX2                !
 ! D45   D(52,6,7,53)           -0.9026         estimate D2E/DX2                !
 ! D46   D(6,7,8,9)           -179.4393         estimate D2E/DX2                !
 ! D47   D(6,7,8,41)            -0.0552         estimate D2E/DX2                !
 ! D48   D(53,7,8,9)             1.984          estimate D2E/DX2                !
 ! D49   D(53,7,8,41)         -178.6319         estimate D2E/DX2                !
 ! D50   D(7,8,9,10)            40.5454         estimate D2E/DX2                !
 ! D51   D(7,8,9,40)          -140.5167         estimate D2E/DX2                !
 ! D52   D(41,8,9,10)         -138.8218         estimate D2E/DX2                !
 ! D53   D(41,8,9,40)           40.1161         estimate D2E/DX2                !
 ! D54   D(7,8,41,42)           -0.4117         estimate D2E/DX2                !
 ! D55   D(7,8,41,79)         -179.0939         estimate D2E/DX2                !
 ! D56   D(9,8,41,42)          178.9769         estimate D2E/DX2                !
 ! D57   D(9,8,41,79)            0.2947         estimate D2E/DX2                !
 ! D58   D(8,9,10,11)          178.7826         estimate D2E/DX2                !
 ! D59   D(8,9,10,54)           -0.2107         estimate D2E/DX2                !
 ! D60   D(40,9,10,11)          -0.1702         estimate D2E/DX2                !
 ! D61   D(40,9,10,54)        -179.1635         estimate D2E/DX2                !
 ! D62   D(8,9,40,39)         -176.7242         estimate D2E/DX2                !
 ! D63   D(8,9,40,78)            3.3864         estimate D2E/DX2                !
 ! D64   D(10,9,40,39)           2.2267         estimate D2E/DX2                !
 ! D65   D(10,9,40,78)        -177.6626         estimate D2E/DX2                !
 ! D66   D(9,10,11,12)          -1.2305         estimate D2E/DX2                !
 ! D67   D(9,10,11,55)         179.7053         estimate D2E/DX2                !
 ! D68   D(54,10,11,12)        177.7505         estimate D2E/DX2                !
 ! D69   D(54,10,11,55)         -1.3137         estimate D2E/DX2                !
 ! D70   D(10,11,12,13)       -178.6575         estimate D2E/DX2                !
 ! D71   D(10,11,12,39)          0.5935         estimate D2E/DX2                !
 ! D72   D(55,11,12,13)          0.4252         estimate D2E/DX2                !
 ! D73   D(55,11,12,39)        179.6761         estimate D2E/DX2                !
 ! D74   D(11,12,13,14)        178.1153         estimate D2E/DX2                !
 ! D75   D(11,12,13,56)         -1.2674         estimate D2E/DX2                !
 ! D76   D(39,12,13,14)         -1.1329         estimate D2E/DX2                !
 ! D77   D(39,12,13,56)        179.4844         estimate D2E/DX2                !
 ! D78   D(11,12,39,17)       -177.6764         estimate D2E/DX2                !
 ! D79   D(11,12,39,40)          1.3912         estimate D2E/DX2                !
 ! D80   D(13,12,39,17)          1.5963         estimate D2E/DX2                !
 ! D81   D(13,12,39,40)       -179.336          estimate D2E/DX2                !
 ! D82   D(12,13,14,15)         -0.3041         estimate D2E/DX2                !
 ! D83   D(12,13,14,57)       -179.2859         estimate D2E/DX2                !
 ! D84   D(56,13,14,15)        179.0697         estimate D2E/DX2                !
 ! D85   D(56,13,14,57)          0.088          estimate D2E/DX2                !
 ! D86   D(13,14,15,16)       -178.0768         estimate D2E/DX2                !
 ! D87   D(13,14,15,17)          1.2951         estimate D2E/DX2                !
 ! D88   D(57,14,15,16)          0.9482         estimate D2E/DX2                !
 ! D89   D(57,14,15,17)       -179.6799         estimate D2E/DX2                !
 ! D90   D(14,15,16,58)        176.1865         estimate D2E/DX2                !
 ! D91   D(17,15,16,58)         -3.1718         estimate D2E/DX2                !
 ! D92   D(14,15,17,18)       -179.5279         estimate D2E/DX2                !
 ! D93   D(14,15,17,39)         -0.8007         estimate D2E/DX2                !
 ! D94   D(16,15,17,18)         -0.1953         estimate D2E/DX2                !
 ! D95   D(16,15,17,39)        178.5319         estimate D2E/DX2                !
 ! D96   D(15,17,18,19)        -67.4657         estimate D2E/DX2                !
 ! D97   D(15,17,18,38)        113.8769         estimate D2E/DX2                !
 ! D98   D(39,17,18,19)        113.8208         estimate D2E/DX2                !
 ! D99   D(39,17,18,38)        -64.8366         estimate D2E/DX2                !
 ! D100  D(15,17,39,12)         -0.6407         estimate D2E/DX2                !
 ! D101  D(15,17,39,40)       -179.6788         estimate D2E/DX2                !
 ! D102  D(18,17,39,12)        178.0805         estimate D2E/DX2                !
 ! D103  D(18,17,39,40)         -0.9577         estimate D2E/DX2                !
 ! D104  D(17,18,19,20)         -0.1542         estimate D2E/DX2                !
 ! D105  D(17,18,19,21)       -179.4843         estimate D2E/DX2                !
 ! D106  D(38,18,19,20)        178.5175         estimate D2E/DX2                !
 ! D107  D(38,18,19,21)         -0.8126         estimate D2E/DX2                !
 ! D108  D(17,18,38,23)        177.9438         estimate D2E/DX2                !
 ! D109  D(17,18,38,37)         -1.0789         estimate D2E/DX2                !
 ! D110  D(19,18,38,23)         -0.7218         estimate D2E/DX2                !
 ! D111  D(19,18,38,37)       -179.7445         estimate D2E/DX2                !
 ! D112  D(18,19,20,59)         -3.1436         estimate D2E/DX2                !
 ! D113  D(21,19,20,59)        176.2123         estimate D2E/DX2                !
 ! D114  D(18,19,21,22)          1.3654         estimate D2E/DX2                !
 ! D115  D(18,19,21,60)       -179.6405         estimate D2E/DX2                !
 ! D116  D(20,19,21,22)       -178.0042         estimate D2E/DX2                !
 ! D117  D(20,19,21,60)          0.9899         estimate D2E/DX2                !
 ! D118  D(19,21,22,23)         -0.3373         estimate D2E/DX2                !
 ! D119  D(19,21,22,61)        179.0303         estimate D2E/DX2                !
 ! D120  D(60,21,22,23)       -179.2868         estimate D2E/DX2                !
 ! D121  D(60,21,22,61)          0.0808         estimate D2E/DX2                !
 ! D122  D(21,22,23,24)        178.034          estimate D2E/DX2                !
 ! D123  D(21,22,23,38)         -1.1929         estimate D2E/DX2                !
 ! D124  D(61,22,23,24)         -1.3425         estimate D2E/DX2                !
 ! D125  D(61,22,23,38)        179.4306         estimate D2E/DX2                !
 ! D126  D(22,23,24,25)       -178.6588         estimate D2E/DX2                !
 ! D127  D(22,23,24,62)          0.4203         estimate D2E/DX2                !
 ! D128  D(38,23,24,25)          0.571          estimate D2E/DX2                !
 ! D129  D(38,23,24,62)        179.6501         estimate D2E/DX2                !
 ! D130  D(22,23,38,18)          1.7131         estimate D2E/DX2                !
 ! D131  D(22,23,38,37)       -179.2346         estimate D2E/DX2                !
 ! D132  D(24,23,38,18)       -177.5393         estimate D2E/DX2                !
 ! D133  D(24,23,38,37)          1.513          estimate D2E/DX2                !
 ! D134  D(23,24,25,26)         -1.309          estimate D2E/DX2                !
 ! D135  D(23,24,25,63)        177.7095         estimate D2E/DX2                !
 ! D136  D(62,24,25,26)        179.6304         estimate D2E/DX2                !
 ! D137  D(62,24,25,63)         -1.3511         estimate D2E/DX2                !
 ! D138  D(24,25,26,27)        178.9264         estimate D2E/DX2                !
 ! D139  D(24,25,26,37)         -0.0927         estimate D2E/DX2                !
 ! D140  D(63,25,26,27)         -0.1037         estimate D2E/DX2                !
 ! D141  D(63,25,26,37)       -179.1227         estimate D2E/DX2                !
 ! D142  D(25,26,27,28)         40.1321         estimate D2E/DX2                !
 ! D143  D(25,26,27,36)       -139.3623         estimate D2E/DX2                !
 ! D144  D(37,26,27,28)       -140.8623         estimate D2E/DX2                !
 ! D145  D(37,26,27,36)         39.6433         estimate D2E/DX2                !
 ! D146  D(25,26,37,38)          2.2526         estimate D2E/DX2                !
 ! D147  D(25,26,37,77)       -177.6418         estimate D2E/DX2                !
 ! D148  D(27,26,37,38)       -176.7661         estimate D2E/DX2                !
 ! D149  D(27,26,37,77)          3.3394         estimate D2E/DX2                !
 ! D150  D(26,27,28,29)       -179.6563         estimate D2E/DX2                !
 ! D151  D(26,27,28,64)          1.8038         estimate D2E/DX2                !
 ! D152  D(36,27,28,29)         -0.1485         estimate D2E/DX2                !
 ! D153  D(36,27,28,64)       -178.6883         estimate D2E/DX2                !
 ! D154  D(26,27,36,35)        179.2388         estimate D2E/DX2                !
 ! D155  D(26,27,36,76)          0.5039         estimate D2E/DX2                !
 ! D156  D(28,27,36,35)         -0.2729         estimate D2E/DX2                !
 ! D157  D(28,27,36,76)       -179.0078         estimate D2E/DX2                !
 ! D158  D(27,28,29,30)          0.4627         estimate D2E/DX2                !
 ! D159  D(27,28,29,65)       -179.479          estimate D2E/DX2                !
 ! D160  D(64,28,29,30)        179.0075         estimate D2E/DX2                !
 ! D161  D(64,28,29,65)         -0.9342         estimate D2E/DX2                !
 ! D162  D(28,29,30,31)        179.6819         estimate D2E/DX2                !
 ! D163  D(28,29,30,35)         -0.3383         estimate D2E/DX2                !
 ! D164  D(65,29,30,31)         -0.3779         estimate D2E/DX2                !
 ! D165  D(65,29,30,35)        179.6019         estimate D2E/DX2                !
 ! D166  D(29,30,31,32)          0.0214         estimate D2E/DX2                !
 ! D167  D(29,30,31,33)        120.1046         estimate D2E/DX2                !
 ! D168  D(29,30,31,34)       -120.0625         estimate D2E/DX2                !
 ! D169  D(35,30,31,32)       -179.958          estimate D2E/DX2                !
 ! D170  D(35,30,31,33)        -59.8748         estimate D2E/DX2                !
 ! D171  D(35,30,31,34)         59.9581         estimate D2E/DX2                !
 ! D172  D(29,30,35,36)         -0.0868         estimate D2E/DX2                !
 ! D173  D(29,30,35,75)        179.7681         estimate D2E/DX2                !
 ! D174  D(31,30,35,36)        179.8937         estimate D2E/DX2                !
 ! D175  D(31,30,35,75)         -0.2514         estimate D2E/DX2                !
 ! D176  D(30,31,32,66)       -179.9184         estimate D2E/DX2                !
 ! D177  D(30,31,32,67)         60.9707         estimate D2E/DX2                !
 ! D178  D(30,31,32,68)        -60.8067         estimate D2E/DX2                !
 ! D179  D(33,31,32,66)         59.5209         estimate D2E/DX2                !
 ! D180  D(33,31,32,67)        -59.59           estimate D2E/DX2                !
 ! D181  D(33,31,32,68)        178.6326         estimate D2E/DX2                !
 ! D182  D(34,31,32,66)        -59.3344         estimate D2E/DX2                !
 ! D183  D(34,31,32,67)       -178.4452         estimate D2E/DX2                !
 ! D184  D(34,31,32,68)         59.7774         estimate D2E/DX2                !
 ! D185  D(30,31,33,69)        -59.3587         estimate D2E/DX2                !
 ! D186  D(30,31,33,70)       -179.0512         estimate D2E/DX2                !
 ! D187  D(30,31,33,71)         60.7959         estimate D2E/DX2                !
 ! D188  D(32,31,33,69)         63.5149         estimate D2E/DX2                !
 ! D189  D(32,31,33,70)        -56.1776         estimate D2E/DX2                !
 ! D190  D(32,31,33,71)       -176.3304         estimate D2E/DX2                !
 ! D191  D(34,31,33,69)       -178.6955         estimate D2E/DX2                !
 ! D192  D(34,31,33,70)         61.612          estimate D2E/DX2                !
 ! D193  D(34,31,33,71)        -58.5409         estimate D2E/DX2                !
 ! D194  D(30,31,34,72)         59.7714         estimate D2E/DX2                !
 ! D195  D(30,31,34,73)        179.4593         estimate D2E/DX2                !
 ! D196  D(30,31,34,74)        -60.3771         estimate D2E/DX2                !
 ! D197  D(32,31,34,72)        -63.1098         estimate D2E/DX2                !
 ! D198  D(32,31,34,73)         56.5781         estimate D2E/DX2                !
 ! D199  D(32,31,34,74)        176.7418         estimate D2E/DX2                !
 ! D200  D(33,31,34,72)        179.0923         estimate D2E/DX2                !
 ! D201  D(33,31,34,73)        -61.2199         estimate D2E/DX2                !
 ! D202  D(33,31,34,74)         58.9438         estimate D2E/DX2                !
 ! D203  D(30,35,36,27)          0.3962         estimate D2E/DX2                !
 ! D204  D(30,35,36,76)        179.1356         estimate D2E/DX2                !
 ! D205  D(75,35,36,27)       -179.4614         estimate D2E/DX2                !
 ! D206  D(75,35,36,76)         -0.7219         estimate D2E/DX2                !
 ! D207  D(26,37,38,18)        176.0729         estimate D2E/DX2                !
 ! D208  D(26,37,38,23)         -2.9561         estimate D2E/DX2                !
 ! D209  D(77,37,38,18)         -4.0322         estimate D2E/DX2                !
 ! D210  D(77,37,38,23)        176.9388         estimate D2E/DX2                !
 ! D211  D(12,39,40,9)          -2.8308         estimate D2E/DX2                !
 ! D212  D(12,39,40,78)        177.059          estimate D2E/DX2                !
 ! D213  D(17,39,40,9)         176.2136         estimate D2E/DX2                !
 ! D214  D(17,39,40,78)         -3.8967         estimate D2E/DX2                !
 ! D215  D(8,41,42,5)            0.447          estimate D2E/DX2                !
 ! D216  D(8,41,42,80)        -179.3641         estimate D2E/DX2                !
 ! D217  D(79,41,42,5)         179.1336         estimate D2E/DX2                !
 ! D218  D(79,41,42,80)         -0.6775         estimate D2E/DX2                !
 --------------------------------------------------------------------------------
 Trust Radius=3.00D-01 FncErr=1.00D-07 GrdErr=1.00D-06 EigMax=2.50D+02 EigMin=1.00D-04
 Number of steps in this run=    459 maximum allowed number of steps=    480.
 GradGradGradGradGradGradGradGradGradGradGradGradGradGradGradGradGradGrad

 Leave Link  103 at Mon Mar 24 11:22:03 2025, MaxMem= 13421772800 cpu:               0.4 elap:               0.0
 (Enter /public/software/apps/Gaussian/g16/l202.exe)
 Symmetry turned off by external request.
 Stoichiometry    C40H38O2
 Framework group  C1[X(C40H38O2)]
 Deg. of freedom   234
 Full point group                 C1      NOp   1
                          Input orientation:                          
 ---------------------------------------------------------------------
 Center     Atomic      Atomic             Coordinates (Angstroms)
 Number     Number       Type             X           Y           Z
 ---------------------------------------------------------------------
      1          6           0       -3.648824   -5.067389    2.023436
      2          6           0       -4.099232   -4.534364    0.656032
      3          6           0       -5.257750   -3.543734    0.839745
      4          6           0       -4.609800   -5.716754   -0.171893
      5          6           0       -2.934058   -3.814724   -0.003912
      6          6           0       -2.403491   -4.196307   -1.230299
      7          6           0       -1.349725   -3.507747   -1.803009
      8          6           0       -0.776696   -2.413555   -1.164905
      9          6           0        0.334486   -1.669636   -1.771922
     10          6           0        0.337208   -1.395488   -3.156272
     11          6           0        1.354740   -0.683345   -3.721683
     12          6           0        2.414742   -0.180927   -2.939319
     13          6           0        3.461502    0.580850   -3.498674
     14          6           0        4.454200    1.086900   -2.713746
     15          6           0        4.447389    0.861439   -1.322637
     16          8           0        5.453471    1.435890   -0.607195
     17          6           0        3.451664    0.103137   -0.734839
     18          6           0        3.453321   -0.116110    0.733643
     19          6           0        4.448440   -0.877071    1.318979
     20          8           0        5.451629   -1.453699    0.601261
     21          6           0        4.457498   -1.103098    2.710013
     22          6           0        3.466903   -0.596217    3.497096
     23          6           0        2.420384    0.167655    2.940143
     24          6           0        1.361329    0.669863    3.723937
     25          6           0        0.344165    1.384086    3.160397
     26          6           0        0.341581    1.662167    1.776791
     27          6           0       -0.766773    2.410869    1.170662
     28          6           0       -1.342818    3.500380    1.814111
     29          6           0       -2.391049    4.195915    1.239632
     30          6           0       -2.912453    3.826853    0.005530
     31          6           0       -4.067705    4.557714   -0.659440
     32          6           0       -4.583827    5.732493    0.175856
     33          6           0       -3.598527    5.104501   -2.015130
     34          6           0       -5.227698    3.573929   -0.868545
     35          6           0       -2.332149    2.732650   -0.633001
     36          6           0       -1.280804    2.039620   -0.069944
     37          6           0        1.380767    1.204938    1.000876
     38          6           0        2.420801    0.427725    1.545491
     39          6           0        2.416167   -0.438864   -1.544219
     40          6           0        1.374433   -1.212295   -0.997201
     41          6           0       -1.297928   -2.031402    0.069274
     42          6           0       -2.355396   -2.717018    0.630097
     43          1           0       -4.465619   -5.600913    2.505175
     44          1           0       -3.335428   -4.260387    2.679771
     45          1           0       -2.812271   -5.752664    1.902621
     46          1           0       -5.571169   -3.148972   -0.124635
     47          1           0       -6.107505   -4.042278    1.301511
     48          1           0       -4.968575   -2.708203    1.471089
     49          1           0       -5.440662   -6.190499    0.347261
     50          1           0       -3.831202   -6.463500   -0.309897
     51          1           0       -4.966585   -5.388347   -1.145422
     52          1           0       -2.805559   -5.042736   -1.763221
     53          1           0       -0.952534   -3.841654   -2.751097
     54          1           0       -0.486733   -1.743244   -3.761882
     55          1           0        1.356637   -0.478906   -4.783100
     56          1           0        3.459830    0.767002   -4.562543
     57          1           0        5.256945    1.681085   -3.120376
     58          1           0        5.323622    1.271064    0.337282
     59          1           0        5.320508   -1.287842   -0.342858
     60          1           0        5.260022   -1.698862    3.114775
     61          1           0        3.466730   -0.783412    4.560786
     62          1           0        1.363579    0.463537    4.784990
     63          1           0       -0.479209    1.730919    3.767282
     64          1           0       -0.952047    3.825663    2.767828
     65          1           0       -2.795617    5.038316    1.777034
     66          1           0       -5.407476    6.214544   -0.347135
     67          1           0       -3.804577    6.475256    0.330590
     68          1           0       -4.952238    5.394484    1.141752
     69          1           0       -2.761017    5.785176   -1.876218
     70          1           0       -4.407283    5.646533   -2.500899
     71          1           0       -3.279851    4.303703   -2.676540
     72          1           0       -5.554941    3.170010    0.087388
     73          1           0       -6.069469    4.081035   -1.335562
     74          1           0       -4.934033    2.744166   -1.505351
     75          1           0       -2.704700    2.404935   -1.592080
     76          1           0       -0.866771    1.187271   -0.590063
     77          1           0        1.404136    1.446964   -0.050926
     78          1           0        1.396902   -1.451426    0.055297
     79          1           0       -0.885134   -1.175976    0.585317
     80          1           0       -2.734613   -2.380139    1.583369
 ---------------------------------------------------------------------
 Rotational constants (GHZ):           0.0775389           0.0643406           0.0484070
 Leave Link  202 at Mon Mar 24 11:22:03 2025, MaxMem= 13421772800 cpu:               0.1 elap:               0.0
 (Enter /public/software/apps/Gaussian/g16/l301.exe)
 Standard basis: def2SVPP (5D, 7F)
 Ernie: Thresh=  0.10000D-02 Tol=  0.10000D-05 Strict=F.
   664 basis functions,  1202 primitive gaussians,   706 cartesian basis functions
   147 alpha electrons      147 beta electrons
       nuclear repulsion energy      4700.6246499084 Hartrees.
 IExCor=  402 DFT=T Ex+Corr=B3LYP ExCW=0 ScaHFX=  0.200000
 ScaDFX=  0.800000  0.720000  1.000000  0.810000 ScalE2=  1.000000  1.000000
 IRadAn=      5 IRanWt=     -1 IRanGd=            0 ICorTp=0 IEmpDi=141
 NAtoms=   80 NActive=   80 NUniq=   80 SFac= 1.00D+00 NAtFMM=   60 NAOKFM=T Big=T
 Integral buffers will be    131072 words long.
 Raffenetti 2 integral format.
 Two-electron integral symmetry is turned off.
 R6Disp:  Grimme-D3(BJ) Dispersion energy=       -0.2046924166 Hartrees.
 Nuclear repulsion after empirical dispersion term =     4700.4199574918 Hartrees.
 Leave Link  301 at Mon Mar 24 11:22:03 2025, MaxMem= 13421772800 cpu:               0.7 elap:               0.0
 (Enter /public/software/apps/Gaussian/g16/l302.exe)
 NPDir=0 NMtPBC=     1 NCelOv=     1 NCel=       1 NClECP=     1 NCelD=      1
         NCelK=      1 NCelE2=     1 NClLst=     1 CellRange=     0.0.
 One-electron integrals computed using PRISM.
   1 Symmetry operations used in ECPInt.
 ECPInt:  NShTT=   53956 NPrTT=  216156 LenC2=   44008 LenP2D=  108483.
 LDataN:  DoStor=T MaxTD1= 4 Len=   56
 NBasis=   664 RedAO= T EigKep=  1.71D-04  NBF=   664
 NBsUse=   664 1.00D-06 EigRej= -1.00D+00 NBFU=   664
 Precomputing XC quadrature grid using
 IXCGrd= 4 IRadAn=           5 IRanWt=          -1 IRanGd=           0 AccXCQ= 0.00D+00.
 Generated NRdTot=       0 NPtTot=           0 NUsed=           0 NTot=          32
 NSgBfM=   694   694   694   694   694 MxSgAt=    80 MxSgA2=    80.
 Leave Link  302 at Mon Mar 24 11:22:04 2025, MaxMem= 13421772800 cpu:              29.8 elap:               0.9
 (Enter /public/software/apps/Gaussian/g16/l303.exe)
 DipDrv:  MaxL=1.
 Leave Link  303 at Mon Mar 24 11:22:04 2025, MaxMem= 13421772800 cpu:               3.3 elap:               0.1
 (Enter /public/software/apps/Gaussian/g16/l401.exe)
 ExpMin= 1.22D-01 ExpMax= 2.27D+03 ExpMxC= 3.41D+02 IAcc=3 IRadAn=         5 AccDes= 0.00D+00
 Harris functional with IExCor=  402 and IRadAn=       5 diagonalized for initial guess.
 HarFok:  IExCor=  402 AccDes= 0.00D+00 IRadAn=         5 IDoV= 1 UseB2=F ITyADJ=14
 ICtDFT=  3500011 ScaDFX=  1.000000  1.000000  1.000000  1.000000
 FoFCou: FMM=F IPFlag=           0 FMFlag=      100000 FMFlg1=        2001
         NFxFlg=           0 DoJE=T BraDBF=F KetDBF=T FulRan=T
         wScrn=  0.000000 ICntrl=       500 IOpCl=  0 I1Cent=   200000004 NGrid=           0
         NMat0=    1 NMatS0=      1 NMatT0=    0 NMatD0=    1 NMtDS0=    0 NMtDT0=    0
 Symmetry not used in FoFCou.
 Harris En= -1696.56520066331    
 JPrj=0 DoOrth=F DoCkMO=F.
 Leave Link  401 at Mon Mar 24 11:22:06 2025, MaxMem= 13421772800 cpu:              64.2 elap:               2.0
 (Enter /public/software/apps/Gaussian/g16/l502.exe)
 Two-electron integral symmetry not used.
 Closed shell SCF:
 Using DIIS extrapolation, IDIIS=  1040.
 NGot= 13421772800 LenX= 13420745320 LenY= 13420246178
 Requested convergence on RMS density matrix=1.00D-08 within 128 cycles.
 Requested convergence on MAX density matrix=1.00D-06.
 Requested convergence on             energy=1.00D-06.
 No special actions if energy rises.
 Fock matrices will be formed incrementally for  20 cycles.
 Integral accuracy reduced to 1.0D-05 until final iterations.

 Cycle   1  Pass 0  IDiag  1:
 FoFJK:  IHMeth= 1 ICntrl=       0 DoSepK=F KAlg= 0 I1Cent=           0 FoldK=F
 IRaf= 960000000 NMat=       1 IRICut=       1 DoRegI=T DoRafI=F ISym2E= 0 IDoP0=0 IntGTp=1.
 FoFCou: FMM=T IPFlag=           0 FMFlag=      100000 FMFlg1=        2001
         NFxFlg=           0 DoJE=F BraDBF=F KetDBF=F FulRan=T
         wScrn=  0.000000 ICntrl=         0 IOpCl=  0 I1Cent=           0 NGrid=           0
         NMat0=    1 NMatS0=      1 NMatT0=    0 NMatD0=    1 NMtDS0=    0 NMtDT0=    0
 Symmetry not used in FoFCou.
 FMM levels:  10  Number of levels for PrismC:   9
 E= -1695.54697777038    
 DIIS: error= 4.66D-02 at cycle   1 NSaved=   1.
 NSaved= 1 IEnMin= 1 EnMin= -1695.54697777038     IErMin= 1 ErrMin= 4.66D-02
 ErrMax= 4.66D-02  0.00D+00 EMaxC= 1.00D-01 BMatC= 8.53D-01 BMatP= 8.53D-01
 IDIUse=3 WtCom= 5.34D-01 WtEn= 4.66D-01
 Coeff-Com:  0.100D+01
 Coeff-En:   0.100D+01
 Coeff:      0.100D+01
 Gap=     0.187 Goal=   None    Shift=    0.000
 GapD=    0.187 DampG=1.000 DampE=0.500 DampFc=0.5000 IDamp=-1.
 Damping current iteration by 5.00D-01
 RMSDP=5.00D-03 MaxDP=1.77D-01              OVMax= 1.73D-01

 Cycle   2  Pass 0  IDiag  1:
 RMSU=  2.23D-03    CP:  9.32D-01
 E= -1696.00701134504     Delta-E=       -0.460033574665 Rises=F Damp=T
 DIIS: error= 4.05D-03 at cycle   2 NSaved=   2.
 NSaved= 2 IEnMin= 2 EnMin= -1696.00701134504     IErMin= 2 ErrMin= 4.05D-03
 ErrMax= 4.05D-03  0.00D+00 EMaxC= 1.00D-01 BMatC= 3.52D-02 BMatP= 8.53D-01
 IDIUse=3 WtCom= 9.59D-01 WtEn= 4.05D-02
 Coeff-Com:  0.262D-01 0.974D+00
 Coeff-En:   0.323D-01 0.968D+00
 Coeff:      0.265D-01 0.974D+00
 Gap=     0.193 Goal=   None    Shift=    0.000
 RMSDP=1.75D-03 MaxDP=1.13D-01 DE=-4.60D-01 OVMax= 1.39D-01

 Cycle   3  Pass 0  IDiag  1:
 RMSU=  1.58D-03    CP:  8.88D-01  1.07D+00
 E= -1696.49589260662     Delta-E=       -0.488881261583 Rises=F Damp=F
 DIIS: error= 4.86D-03 at cycle   3 NSaved=   3.
 NSaved= 3 IEnMin= 3 EnMin= -1696.49589260662     IErMin= 2 ErrMin= 4.05D-03
 ErrMax= 4.86D-03  0.00D+00 EMaxC= 1.00D-01 BMatC= 2.89D-02 BMatP= 3.52D-02
 IDIUse=3 WtCom= 9.51D-01 WtEn= 4.86D-02
 Coeff-Com: -0.215D-01 0.475D+00 0.546D+00
 Coeff-En:   0.000D+00 0.000D+00 0.100D+01
 Coeff:     -0.205D-01 0.452D+00 0.568D+00
 Gap=     0.172 Goal=   None    Shift=    0.000
 RMSDP=6.23D-04 MaxDP=4.01D-02 DE=-4.89D-01 OVMax= 7.93D-02

 Cycle   4  Pass 0  IDiag  1:
 RMSU=  5.04D-04    CP:  8.89D-01  1.14D+00  7.91D-01
 E= -1696.51679543065     Delta-E=       -0.020902824028 Rises=F Damp=F
 DIIS: error= 3.05D-03 at cycle   4 NSaved=   4.
 NSaved= 4 IEnMin= 4 EnMin= -1696.51679543065     IErMin= 4 ErrMin= 3.05D-03
 ErrMax= 3.05D-03  0.00D+00 EMaxC= 1.00D-01 BMatC= 1.03D-02 BMatP= 2.89D-02
 IDIUse=3 WtCom= 9.70D-01 WtEn= 3.05D-02
 Coeff-Com: -0.167D-01 0.139D+00 0.380D+00 0.497D+00
 Coeff-En:   0.000D+00 0.000D+00 0.296D+00 0.704D+00
 Coeff:     -0.162D-01 0.135D+00 0.377D+00 0.504D+00
 Gap=     0.160 Goal=   None    Shift=    0.000
 RMSDP=2.96D-04 MaxDP=2.35D-02 DE=-2.09D-02 OVMax= 4.19D-02

 Cycle   5  Pass 0  IDiag  1:
 RMSU=  1.80D-04    CP:  8.87D-01  1.13D+00  8.44D-01  5.72D-01
 E= -1696.52768460450     Delta-E=       -0.010889173848 Rises=F Damp=F
 DIIS: error= 1.12D-03 at cycle   5 NSaved=   5.
 NSaved= 5 IEnMin= 5 EnMin= -1696.52768460450     IErMin= 5 ErrMin= 1.12D-03
 ErrMax= 1.12D-03  0.00D+00 EMaxC= 1.00D-01 BMatC= 8.81D-04 BMatP= 1.03D-02
 IDIUse=3 WtCom= 9.89D-01 WtEn= 1.12D-02
 Coeff-Com: -0.799D-02 0.415D-01 0.180D+00 0.306D+00 0.481D+00
 Coeff-En:   0.000D+00 0.000D+00 0.000D+00 0.182D-01 0.982D+00
 Coeff:     -0.791D-02 0.411D-01 0.178D+00 0.302D+00 0.486D+00
 Gap=     0.159 Goal=   None    Shift=    0.000
 RMSDP=9.51D-05 MaxDP=3.26D-03 DE=-1.09D-02 OVMax= 1.42D-02

 Cycle   6  Pass 0  IDiag  1:
 RMSU=  7.00D-05    CP:  8.87D-01  1.13D+00  8.48D-01  6.27D-01  6.82D-01
 E= -1696.52855691741     Delta-E=       -0.000872312911 Rises=F Damp=F
 DIIS: error= 4.31D-04 at cycle   6 NSaved=   6.
 NSaved= 6 IEnMin= 6 EnMin= -1696.52855691741     IErMin= 6 ErrMin= 4.31D-04
 ErrMax= 4.31D-04  0.00D+00 EMaxC= 1.00D-01 BMatC= 1.58D-04 BMatP= 8.81D-04
 IDIUse=3 WtCom= 9.96D-01 WtEn= 4.31D-03
 Coeff-Com: -0.276D-02 0.633D-02 0.625D-01 0.127D+00 0.326D+00 0.481D+00
 Coeff-En:   0.000D+00 0.000D+00 0.000D+00 0.000D+00 0.141D+00 0.859D+00
 Coeff:     -0.274D-02 0.630D-02 0.623D-01 0.126D+00 0.326D+00 0.482D+00
 Gap=     0.159 Goal=   None    Shift=    0.000
 RMSDP=3.79D-05 MaxDP=1.42D-03 DE=-8.72D-04 OVMax= 5.10D-03

 Cycle   7  Pass 0  IDiag  1:
 RMSU=  2.86D-05    CP:  8.87D-01  1.13D+00  8.46D-01  6.18D-01  7.42D-01
                    CP:  6.91D-01
 E= -1696.52874907050     Delta-E=       -0.000192153090 Rises=F Damp=F
 DIIS: error= 1.18D-04 at cycle   7 NSaved=   7.
 NSaved= 7 IEnMin= 7 EnMin= -1696.52874907050     IErMin= 7 ErrMin= 1.18D-04
 ErrMax= 1.18D-04  0.00D+00 EMaxC= 1.00D-01 BMatC= 1.47D-05 BMatP= 1.58D-04
 IDIUse=3 WtCom= 9.99D-01 WtEn= 1.18D-03
 Coeff-Com: -0.920D-03 0.157D-03 0.204D-01 0.462D-01 0.151D+00 0.303D+00
 Coeff-Com:  0.481D+00
 Coeff-En:   0.000D+00 0.000D+00 0.000D+00 0.000D+00 0.000D+00 0.000D+00
 Coeff-En:   0.100D+01
 Coeff:     -0.919D-03 0.157D-03 0.204D-01 0.462D-01 0.150D+00 0.302D+00
 Coeff:      0.482D+00
 Gap=     0.159 Goal=   None    Shift=    0.000
 RMSDP=1.68D-05 MaxDP=6.84D-04 DE=-1.92D-04 OVMax= 1.07D-03

 Cycle   8  Pass 0  IDiag  1:
 RMSU=  1.44D-05    CP:  8.87D-01  1.13D+00  8.46D-01  6.16D-01  7.07D-01
                    CP:  7.19D-01  8.97D-01
 E= -1696.52877569460     Delta-E=       -0.000026624102 Rises=F Damp=F
 DIIS: error= 4.27D-05 at cycle   8 NSaved=   8.
 NSaved= 8 IEnMin= 8 EnMin= -1696.52877569460     IErMin= 8 ErrMin= 4.27D-05
 ErrMax= 4.27D-05  0.00D+00 EMaxC= 1.00D-01 BMatC= 9.26D-07 BMatP= 1.47D-05
 IDIUse=1 WtCom= 1.00D+00 WtEn= 0.00D+00
 Coeff-Com: -0.305D-03-0.413D-03 0.713D-02 0.171D-01 0.626D-01 0.137D+00
 Coeff-Com:  0.269D+00 0.508D+00
 Coeff:     -0.305D-03-0.413D-03 0.713D-02 0.171D-01 0.626D-01 0.137D+00
 Coeff:      0.269D+00 0.508D+00
 Gap=     0.159 Goal=   None    Shift=    0.000
 RMSDP=9.93D-06 MaxDP=2.86D-04 DE=-2.66D-05 OVMax= 2.31D-04

 Initial convergence to 1.0D-05 achieved.  Increase integral accuracy.
 Cycle   9  Pass 1  IDiag  1:
 E= -1696.52825568044     Delta-E=        0.000520014163 Rises=F Damp=F
 DIIS: error= 5.39D-04 at cycle   1 NSaved=   1.
 NSaved= 1 IEnMin= 1 EnMin= -1696.52825568044     IErMin= 1 ErrMin= 5.39D-04
 ErrMax= 5.39D-04  0.00D+00 EMaxC= 1.00D-01 BMatC= 1.28D-04 BMatP= 1.28D-04
 IDIUse=3 WtCom= 9.95D-01 WtEn= 5.39D-03
 Coeff-Com:  0.100D+01
 Coeff-En:   0.100D+01
 Coeff:      0.100D+01
 Gap=     0.159 Goal=   None    Shift=    0.000
 RMSDP=9.93D-06 MaxDP=2.86D-04 DE= 5.20D-04 OVMax= 1.86D-03

 Cycle  10  Pass 1  IDiag  1:
 RMSU=  5.91D-04    CP:  9.97D-01
 E= -1696.52840585394     Delta-E=       -0.000150173500 Rises=F Damp=F
 DIIS: error= 2.92D-05 at cycle   2 NSaved=   2.
 NSaved= 2 IEnMin= 2 EnMin= -1696.52840585394     IErMin= 2 ErrMin= 2.92D-05
 ErrMax= 2.92D-05  0.00D+00 EMaxC= 1.00D-01 BMatC= 4.56D-07 BMatP= 1.28D-04
 IDIUse=1 WtCom= 1.00D+00 WtEn= 0.00D+00
 Coeff-Com: -0.534D-02 0.101D+01
 Coeff:     -0.534D-02 0.101D+01
 Gap=     0.159 Goal=   None    Shift=    0.000
 RMSDP=9.13D-06 MaxDP=2.26D-04 DE=-1.50D-04 OVMax= 4.75D-04

 Cycle  11  Pass 1  IDiag  1:
 RMSU=  4.85D-06    CP:  9.97D-01  1.01D+00
 E= -1696.52840417351     Delta-E=        0.000001680433 Rises=F Damp=F
 DIIS: error= 6.37D-05 at cycle   3 NSaved=   3.
 NSaved= 3 IEnMin= 2 EnMin= -1696.52840585394     IErMin= 2 ErrMin= 2.92D-05
 ErrMax= 6.37D-05  0.00D+00 EMaxC= 1.00D-01 BMatC= 1.94D-06 BMatP= 4.56D-07
 IDIUse=1 WtCom= 1.00D+00 WtEn= 0.00D+00
 Coeff-Com: -0.707D-02 0.682D+00 0.325D+00
 Coeff:     -0.707D-02 0.682D+00 0.325D+00
 Gap=     0.159 Goal=   None    Shift=    0.000
 RMSDP=3.10D-06 MaxDP=1.07D-04 DE= 1.68D-06 OVMax= 3.39D-04

 Cycle  12  Pass 1  IDiag  1:
 RMSU=  1.47D-06    CP:  9.97D-01  1.01D+00  4.38D-01
 E= -1696.52840636465     Delta-E=       -0.000002191146 Rises=F Damp=F
 DIIS: error= 3.37D-06 at cycle   4 NSaved=   4.
 NSaved= 4 IEnMin= 4 EnMin= -1696.52840636465     IErMin= 4 ErrMin= 3.37D-06
 ErrMax= 3.37D-06  0.00D+00 EMaxC= 1.00D-01 BMatC= 1.27D-08 BMatP= 4.56D-07
 IDIUse=1 WtCom= 1.00D+00 WtEn= 0.00D+00
 Coeff-Com: -0.405D-02 0.384D+00 0.190D+00 0.430D+00
 Coeff:     -0.405D-02 0.384D+00 0.190D+00 0.430D+00
 Gap=     0.159 Goal=   None    Shift=    0.000
 RMSDP=3.38D-07 MaxDP=1.30D-05 DE=-2.19D-06 OVMax= 3.64D-05

 Cycle  13  Pass 1  IDiag  1:
 RMSU=  2.92D-07    CP:  9.97D-01  1.01D+00  4.58D-01  9.09D-01
 E= -1696.52840637801     Delta-E=       -0.000000013354 Rises=F Damp=F
 DIIS: error= 1.08D-06 at cycle   5 NSaved=   5.
 NSaved= 5 IEnMin= 5 EnMin= -1696.52840637801     IErMin= 5 ErrMin= 1.08D-06
 ErrMax= 1.08D-06  0.00D+00 EMaxC= 1.00D-01 BMatC= 1.12D-09 BMatP= 1.27D-08
 IDIUse=1 WtCom= 1.00D+00 WtEn= 0.00D+00
 Coeff-Com: -0.854D-03 0.788D-01 0.412D-01 0.238D+00 0.643D+00
 Coeff:     -0.854D-03 0.788D-01 0.412D-01 0.238D+00 0.643D+00
 Gap=     0.159 Goal=   None    Shift=    0.000
 RMSDP=1.07D-07 MaxDP=5.44D-06 DE=-1.34D-08 OVMax= 1.25D-05

 Cycle  14  Pass 1  IDiag  1:
 RMSU=  7.25D-08    CP:  9.97D-01  1.01D+00  4.59D-01  9.36D-01  7.78D-01
 E= -1696.52840637894     Delta-E=       -0.000000000932 Rises=F Damp=F
 DIIS: error= 5.54D-07 at cycle   6 NSaved=   6.
 NSaved= 6 IEnMin= 6 EnMin= -1696.52840637894     IErMin= 6 ErrMin= 5.54D-07
 ErrMax= 5.54D-07  0.00D+00 EMaxC= 1.00D-01 BMatC= 2.63D-10 BMatP= 1.12D-09
 IDIUse=1 WtCom= 1.00D+00 WtEn= 0.00D+00
 Coeff-Com: -0.793D-04 0.608D-02 0.446D-02 0.103D+00 0.410D+00 0.476D+00
 Coeff:     -0.793D-04 0.608D-02 0.446D-02 0.103D+00 0.410D+00 0.476D+00
 Gap=     0.159 Goal=   None    Shift=    0.000
 RMSDP=4.06D-08 MaxDP=2.11D-06 DE=-9.32D-10 OVMax= 6.51D-06

 Cycle  15  Pass 1  IDiag  1:
 RMSU=  2.59D-08    CP:  9.97D-01  1.01D+00  4.59D-01  9.38D-01  8.22D-01
                    CP:  6.15D-01
 E= -1696.52840637923     Delta-E=       -0.000000000291 Rises=F Damp=F
 DIIS: error= 1.70D-07 at cycle   7 NSaved=   7.
 NSaved= 7 IEnMin= 7 EnMin= -1696.52840637923     IErMin= 7 ErrMin= 1.70D-07
 ErrMax= 1.70D-07  0.00D+00 EMaxC= 1.00D-01 BMatC= 2.47D-11 BMatP= 2.63D-10
 IDIUse=1 WtCom= 1.00D+00 WtEn= 0.00D+00
 Coeff-Com:  0.116D-04-0.186D-02-0.161D-03 0.482D-01 0.214D+00 0.308D+00
 Coeff-Com:  0.432D+00
 Coeff:      0.116D-04-0.186D-02-0.161D-03 0.482D-01 0.214D+00 0.308D+00
 Coeff:      0.432D+00
 Gap=     0.159 Goal=   None    Shift=    0.000
 RMSDP=1.55D-08 MaxDP=1.32D-06 DE=-2.91D-10 OVMax= 2.24D-06

 Cycle  16  Pass 1  IDiag  1:
 RMSU=  9.36D-09    CP:  9.97D-01  1.01D+00  4.59D-01  9.40D-01  8.17D-01
                    CP:  6.38D-01  5.45D-01
 E= -1696.52840637926     Delta-E=       -0.000000000027 Rises=F Damp=F
 DIIS: error= 4.48D-08 at cycle   8 NSaved=   8.
 NSaved= 8 IEnMin= 8 EnMin= -1696.52840637926     IErMin= 8 ErrMin= 4.48D-08
 ErrMax= 4.48D-08  0.00D+00 EMaxC= 1.00D-01 BMatC= 2.26D-12 BMatP= 2.47D-11
 IDIUse=1 WtCom= 1.00D+00 WtEn= 0.00D+00
 Coeff-Com:  0.173D-04-0.194D-02-0.656D-03 0.172D-01 0.803D-01 0.134D+00
 Coeff-Com:  0.272D+00 0.500D+00
 Coeff:      0.173D-04-0.194D-02-0.656D-03 0.172D-01 0.803D-01 0.134D+00
 Coeff:      0.272D+00 0.500D+00
 Gap=     0.159 Goal=   None    Shift=    0.000
 RMSDP=3.90D-09 MaxDP=2.37D-07 DE=-2.73D-11 OVMax= 4.63D-07

 SCF Done:  E(RB3LYP) =  -1696.52840638     A.U. after   16 cycles
            NFock= 16  Conv=0.39D-08     -V/T= 2.0096
 KE= 1.680318752766D+03 PE=-1.333164177027D+04 EE= 5.254374653633D+03
 Leave Link  502 at Mon Mar 24 11:23:06 2025, MaxMem= 13421772800 cpu:            1887.6 elap:              59.6
 (Enter /public/software/apps/Gaussian/g16/l601.exe)
 Copying SCF densities to generalized density rwf, IOpCl= 0 IROHF=0.

 **********************************************************************

            Population analysis using the SCF Density.

 **********************************************************************

 Alpha  occ. eigenvalues --  -19.16453 -19.16450 -10.25665 -10.25665 -10.19921
 Alpha  occ. eigenvalues --  -10.19913 -10.19808 -10.19805 -10.19726 -10.19707
 Alpha  occ. eigenvalues --  -10.19469 -10.19468 -10.19460 -10.19456 -10.19351
 Alpha  occ. eigenvalues --  -10.19349 -10.18911 -10.18910 -10.18880 -10.18874
 Alpha  occ. eigenvalues --  -10.18809 -10.18809 -10.18728 -10.18724 -10.18385
 Alpha  occ. eigenvalues --  -10.18383 -10.18080 -10.18074 -10.18016 -10.18010
 Alpha  occ. eigenvalues --  -10.17969 -10.17966 -10.17870 -10.17866 -10.17824
 Alpha  occ. eigenvalues --  -10.17821 -10.16648 -10.16646 -10.16616 -10.16614
 Alpha  occ. eigenvalues --  -10.16605 -10.16603  -1.06182  -1.05264  -0.88698
 Alpha  occ. eigenvalues --   -0.87665  -0.86328  -0.86106  -0.83382  -0.83006
 Alpha  occ. eigenvalues --   -0.81154  -0.80936  -0.79808  -0.76504  -0.76022
 Alpha  occ. eigenvalues --   -0.75335  -0.74304  -0.74100  -0.73081  -0.72190
 Alpha  occ. eigenvalues --   -0.71498  -0.70178  -0.68341  -0.68333  -0.68239
 Alpha  occ. eigenvalues --   -0.68237  -0.65687  -0.64124  -0.62892  -0.62547
 Alpha  occ. eigenvalues --   -0.62035  -0.60226  -0.59641  -0.59498  -0.59131
 Alpha  occ. eigenvalues --   -0.58028  -0.56067  -0.55270  -0.54985  -0.54831
 Alpha  occ. eigenvalues --   -0.53425  -0.52670  -0.52525  -0.50356  -0.49027
 Alpha  occ. eigenvalues --   -0.48551  -0.47657  -0.47535  -0.46237  -0.45989
 Alpha  occ. eigenvalues --   -0.45919  -0.45629  -0.45293  -0.44790  -0.44652
 Alpha  occ. eigenvalues --   -0.44544  -0.44541  -0.44063  -0.43668  -0.43182
 Alpha  occ. eigenvalues --   -0.42839  -0.42636  -0.42534  -0.42201  -0.42074
 Alpha  occ. eigenvalues --   -0.42020  -0.41763  -0.41082  -0.40518  -0.40135
 Alpha  occ. eigenvalues --   -0.40130  -0.39092  -0.39075  -0.38887  -0.38553
 Alpha  occ. eigenvalues --   -0.38083  -0.37994  -0.37436  -0.37109  -0.37076
 Alpha  occ. eigenvalues --   -0.37038  -0.36485  -0.36472  -0.35948  -0.35917
 Alpha  occ. eigenvalues --   -0.34945  -0.34853  -0.34663  -0.33662  -0.33615
 Alpha  occ. eigenvalues --   -0.33143  -0.32654  -0.32566  -0.31984  -0.31945
[...]
 072838,-0.00085631,0.00000507,-0.00003741,0.00002152,-0.00029133,0.000
 00252,0.00024957,-0.00055637,-0.00379617,0.00489219,-0.00018099,0.0005
 3241,0.00045165,0.00158003,-0.00180093,0.00313131,0.00855583,0.0067341
 6,0.00441226,-0.00184657,0.00108339,-0.00062745,0.00044782,0.00018294,
 -0.00036445,-0.00019209,-0.00013887,-0.00013640,0.00011225,0.00001946,
 0.00006132,-0.00004644,-0.00004645,-0.00001374,0.00001257,0.00000751,0
 .00006097,-0.00003723,-0.00000664,-0.00004889,0.00006736,0.00003224,0.
 00004828,-0.00003359,0.00001534,-0.00000294,0.00003542,0.00001822,0.00
 003367,-0.00003734,0.00003996,-0.00003128,0.00002477,-0.00001572,-0.00
 000441,-0.00002575,0.00001268,0.00000710,0.00001052,0.00000175,0.00001
 585,-0.00005219,0.00006029,-0.00001952,0.00005178,-0.00009270,0.000050
 53,-0.00006426,-0.00002534,-0.00004938,0.00039727,-0.00010175,-0.00001
 238,0.00005326,-0.00019582,0.00014011,-0.00005860,0.00008987,-0.000003
 96,0.00003268,-0.00005030,-0.00000308,-0.00003489,0.00003942,-0.000065
 95,-0.00002044,0.00001605,-0.00002228,0.00000962,-0.00000316,0.0000110
 1,0.00001211,0.00000175,-0.00000006,0.00000878,-0.00000353,0.00000701,
 -0.00017607,-0.00004730,-0.00004960,-0.00014350,-0.00000749,0.00008729
 ,-0.00001049,0.00008536,0.00013919,-0.00012015,0.00009742,-0.00002047,
 0.00001867,0.00000517,-0.00022950,-0.00124894,0.00046009,0.00147833,-0
 .11510964,-0.10417105,-0.06290727,-0.00851822,-0.01857170,-0.01360465,
 -0.00001396,-0.00000766,0.00004019,0.00003977,0.00003932,0.00003160,0.
 00000804,0.00000450,0.00000754,-0.00001745,0.00000621,-0.00001194,-0.0
 0003942,0.00001934,0.00000547,-0.00001395,0.00000517,0.00001054,-0.000
 09080,-0.00007243,-0.00007798,0.00002455,0.00000540,0.00000738,-0.0000
 0875,-0.00000293,-0.00003190,-0.00035096,0.00033653,-0.00026776,0.0003
 9765,0.00036254,0.00034487,-0.00001762,0.00003912,-0.00004560,0.000021
 02,0.00001524,-0.00001698,0.00000353,-0.00000074,-0.00000791,0.0000036
 5,0.00000292,0.00000018,-0.00000728,-0.00000734,-0.00000850,-0.0000101
 5,0.00000141,-0.00000098,0.00000113,-0.00000297,0.00000189,0.00000209,
 -0.00000198,0.00000384,0.00000508,0.00001281,0.00000727,-0.00001149,0.
 00002582,0.00005475,0.00001877,-0.00001226,-0.00002016,-0.00000497,-0.
 00000561,-0.00000649,0.00001000,-0.00000610,0.00000491,-0.00000284,0.0
 0000256,-0.00000285,-0.00000750,0.00000211,0.00000217,-0.00000296,-0.0
 0000084,-0.00000321,0.00000837,-0.00000799,0.00000735,-0.00000166,0.00
 000197,-0.00000824,-0.00001369,0.00000186,0.00000355,0.00001288,-0.000
 01088,0.00000650,-0.00000788,-0.00000160,-0.00001499,-0.00000736,0.000
 01549,-0.00000702,0.00023814,-0.00012085,-0.00013008,-0.00001462,-0.00
 006151,-0.00000944,-0.00186326,0.00001619,0.00085713,0.11987638,-0.000
 06170,-0.00001043,0.00006730,-0.00001977,-0.00018640,-0.00059132,0.000
 11180,-0.00006885,-0.00007180,-0.00008461,-0.00007226,0.00019777,-0.00
 430580,0.00364319,-0.00034374,0.00034966,0.00001825,0.00072591,-0.0008
 4725,0.00352316,-0.00252421,-0.00596378,-0.00223403,-0.00253330,0.0017
 0868,-0.00142491,0.00126746,-0.00024002,0.00004447,0.00020094,0.000116
 26,0.00014005,0.00013598,-0.00012290,-0.00011316,-0.00008703,0.0000451
 3,0.00003533,0.00004591,-0.00000251,0.00000887,-0.00006529,0.00001710,
 0.00001033,0.00005224,-0.00006034,-0.00003888,-0.00005805,0.00003417,0
 .00003951,-0.00000096,0.00011621,-0.00006293,-0.00000561,-0.00002528,0
 .00001918,-0.00000459,0.00003099,-0.00003524,-0.00003171,0.00003191,-0
 .00003470,0.00001934,-0.00000396,-0.00001303,-0.00001636,0.00002959,-0
 .00002836,0.00008742,0.00004470,-0.00004139,0.00008416,-0.00002331,0.0
 0000312,-0.00009651,-0.00000482,-0.00012647,-0.00015658,-0.00007638,-0
 .00011857,-0.00000131,0.00007141,0.00001110,-0.00001323,-0.00005613,0.
 00000248,-0.00003424,0.00000197,0.00005729,0.00004631,0.00000943,-0.00
 000488,0.00001016,-0.00000403,0.00000110,-0.00000735,-0.00000791,0.000
 00024,0.00000119,-0.00000277,0.00000683,-0.00000580,0.00004493,-0.0000
 0556,0.00001358,-0.00007881,-0.00033288,0.00017712,-0.00002401,0.00004
 771,0.00007956,-0.00018805,0.00007632,-0.00004312,0.00013909,-0.000050
 32,0.00049736,-0.00047317,0.00043254,-0.00068400,-0.10488022,-0.191603
 00,-0.10708753,-0.00525952,-0.00476691,-0.00794079,0.00000362,-0.00002
 782,0.00002072,-0.00001653,-0.00001746,-0.00000238,0.00000138,-0.00002
 211,-0.00000319,0.00000760,0.00000344,0.00000317,-0.00001427,0.0000058
 0,0.00002441,0.00003198,0.00003963,0.00001585,-0.00001620,-0.00007679,
 -0.00001626,0.00000010,-0.00001720,-0.00002134,0.00001752,0.00002040,0
 .00000816,0.00033506,-0.00050526,0.00025416,-0.00038378,0.00003327,-0.
 00013763,0.00001703,-0.00004383,0.00006459,0.00001080,-0.00002957,0.00
 000119,-0.00000725,-0.00001030,0.00000673,-0.00000271,-0.00000383,-0.0
 0000110,-0.00000395,-0.00000067,0.00001474,0.00001003,0.00000902,0.000
 00790,0.00000585,0.00000388,-0.00000064,0.00000793,0.00000471,0.000009
 09,0.00001531,0.00000368,0.00001749,0.00000406,0.00001782,0.00000975,-
 0.00000422,0.00000720,0.00000968,-0.00000386,0.00000430,0.00000125,-0.
 00000459,0.00000241,-0.00000131,0.00000149,-0.00000086,0.00000125,0.00
 000229,-0.00000068,-0.00000008,0.00000145,0.00000034,0.00000182,-0.000
 00307,0.00000288,-0.00000451,0.00000040,-0.00000083,0.00000203,0.00000
 208,-0.00000016,-0.00000063,-0.00000594,0.00000091,-0.00000238,0.00000
 020,0.00000068,0.00000387,-0.00001688,-0.00001279,0.00000523,0.0001053
 9,-0.00089266,0.00030697,-0.00003029,-0.00003343,0.00002086,0.00034976
 ,0.00031231,0.00047968,0.11728912,0.19616351,-0.00003022,-0.00001583,-
 0.00000440,0.00025485,0.00036159,0.00051477,-0.00012153,0.00000981,0.0
 0008656,0.00010695,0.00007497,-0.00013646,0.00404923,-0.00070133,0.000
 80678,0.00069698,0.00056518,-0.00060179,0.00394724,-0.00225132,-0.0035
 1532,-0.01423139,-0.01949603,-0.00974927,-0.00268526,-0.00013888,0.000
 60826,0.00024415,0.00031096,-0.00053393,-0.00029981,-0.00024443,0.0000
 6402,0.00014292,0.00004149,0.00022918,-0.00005910,-0.00007299,0.000004
 30,0.00003046,0.00000921,0.00009877,0.00015336,0.00011884,-0.00010600,
 -0.00010421,-0.00005691,-0.00007797,-0.00019240,-0.00012523,-0.0000007
 3,-0.00000484,0.00000237,0.00000350,0.00001325,-0.00002147,0.00006587,
 0.00000903,0.00000706,-0.00005828,0.00002697,-0.00000406,-0.00003286,-
 0.00002826,0.00003699,-0.00003220,-0.00003178,-0.00000046,-0.00000700,
 -0.00006569,0.00011792,-0.00008318,0.00011213,0.00008257,-0.00006974,0
 .00014365,-0.00010203,0.00013454,0.00008585,-0.00026754,0.00012865,0.0
 0001697,0.00004024,-0.00007885,0.00003463,-0.00004928,-0.00003882,0.00
 001536,0.00004065,-0.00000753,-0.00001812,-0.00000260,-0.00003230,0.00
 001265,-0.00000382,0.00001553,0.00000847,0.00000568,0.00000455,-0.0000
 0068,-0.00000663,0.00001355,-0.00004841,-0.00013670,-0.00013952,-0.000
 21009,0.00026759,0.00028871,-0.00019080,-0.00004895,0.00002225,0.00000
 353,-0.00002062,0.00002969,0.00048264,0.00046655,0.00011187,-0.0002904
 9,0.00020090,0.00006405,-0.06289494,-0.10572868,-0.12628057,0.00792924
 ,0.01011884,0.01020936,-0.00000439,0.00000383,0.00000169,0.00000879,0.
 00001103,-0.00002214,-0.00000013,0.00001083,-0.00000961,-0.00000063,-0
 .00000791,-0.00001205,-0.00000906,0.00000287,-0.00001273,-0.00000761,-
 0.00003851,-0.00002329,0.00002105,0.00006637,0.00002627,-0.00000424,0.
 00002055,0.00000417,0.00000116,-0.00001999,-0.00000392,-0.00026874,0.0
 0025511,-0.00011239,-0.00075983,-0.00112361,-0.00054931,0.00001344,-0.
 00003243,0.00010595,0.00000854,-0.00000289,-0.00000068,-0.00000807,-0.
 00000695,0.00000789,-0.00000407,-0.00000086,-0.00000064,-0.00000404,-0
 .00001034,0.00003348,0.00002595,-0.00003037,0.00002906,-0.00000324,-0.
 00000329,-0.00000623,-0.00000473,-0.00000206,-0.00000618,-0.00000856,-
 0.00000832,-0.00001247,0.00000354,-0.00003405,-0.00000738,0.00001068,-
 0.00002898,-0.00001948,-0.00000626,-0.00001183,-0.00000501,0.00000848,
 -0.00000648,0.00000186,-0.00000161,0.00000400,-0.00000184,-0.00000371,
 0.00000085,-0.00000202,-0.00000142,0.00000251,-0.00000262,0.00000765,-
 0.00000736,0.00000433,-0.00000261,-0.00000125,-0.00000982,-0.00000146,
 0.00000027,-0.00000426,0.00001121,-0.00000353,0.00000189,-0.00000672,-
 0.00000384,-0.00000797,-0.00002149,0.00000333,0.00000345,0.00013758,0.
 00030672,-0.00028371,0.00007758,0.00010589,-0.00004962,0.00078072,-0.0
 0035970,0.00041341,0.06453021,0.11605400,0.12855022,-0.00020033,-0.000
 43693,0.00029323,-0.00081722,0.00158892,-0.00061189,-0.00094673,-0.000
 44674,-0.00019322,0.00001667,0.00016357,-0.00013700,0.00890216,-0.0043
 3514,-0.01462961,0.00034251,-0.00480720,-0.00012175,-0.00071255,-0.000
 34012,-0.00043323,-0.00096176,-0.00524709,0.00264600,0.00022415,0.0004
 6372,0.00098985,-0.00035629,-0.00011511,0.00004725,0.00002871,-0.00004
 978,0.00008151,-0.00001077,-0.00000305,0.00001317,0.00000894,0.0000146
 1,-0.00002394,-0.00002171,-0.00001338,-0.00000905,0.00003103,0.0000241
 1,0.00003685,-0.00004373,-0.00002224,-0.00006075,-0.00003722,-0.000026
 02,0.00003523,0.00002731,-0.00001684,0.00002674,-0.00003583,0.00001852
 ,0.00004449,0.00004555,-0.00001920,-0.00006504,0.00001158,0.00000333,-
 0.00001706,-0.00001218,0.00001687,-0.00001772,-0.00000389,0.00000661,-
 0.00000687,-0.00002115,0.00006436,-0.00002398,0.00006856,0.00005137,-0
 .00000855,0.00000824,-0.00001220,0.00005787,0.00002338,-0.00000166,0.0
 0000642,0.00000989,-0.00000242,-0.00001899,-0.00000456,-0.00000067,-0.
 00000964,0.00000131,-0.00000371,0.00001202,0.00001860,-0.00000388,0.00
 000590,-0.00000725,-0.00000101,-0.00000612,-0.00001336,-0.00000025,-0.
 00000198,-0.00000439,0.00001144,-0.00000863,0.00000656,0.00000413,0.00
 000903,-0.00000249,0.00001687,0.00000358,0.00000702,0.00000938,0.00001
 352,-0.00004398,0.00001564,0.00000489,0.00005910,0.00001343,-0.0000385
 4,-0.00003660,-0.00002870,0.00002280,-0.00347240,0.00814298,0.02475275
 ,-0.07158843,0.01466596,0.07313574,-0.00008926,-0.00002554,-0.00012059
 ,0.00003056,-0.00070972,0.00007184,0.00007197,0.00013900,0.00002448,0.
 00004012,-0.00001584,0.00003816,0.00020168,0.00021636,0.00018219,-0.00
 172958,-0.00002340,0.00005528,0.00004206,0.00002295,0.00003891,0.00002
 758,0.00009756,0.00003245,0.00002987,-0.00001210,0.00002946,0.00039001
 ,-0.00031711,-0.00082630,-0.00032583,0.00044418,-0.00017173,-0.0000039
 3,0.00001977,-0.00000894,-0.00002232,-0.00002546,0.00001653,0.00000047
 ,-0.00000043,0.00000209,-0.00000119,-0.00000103,-0.00000317,-0.0000124
 5,-0.00001322,0.00002487,0.00001170,-0.00001493,0.00002618,-0.00000144
 ,-0.00000295,-0.00000324,-0.00000654,-0.00000379,-0.00000527,-0.000009
 98,-0.00001262,-0.00001386,0.00000265,-0.00003622,-0.00001450,-0.00000
 124,-0.00000879,-0.00000242,-0.00000063,0.00000265,0.00000186,-0.00000
 352,0.00000337,-0.00000168,-0.00000065,-0.00000555,0.00000015,0.000003
 31,0.00000104,0.00000149,-0.00000121,-0.00000393,0.00000248,-0.0000020
 7,0.00000429,-0.00000481,0.00000218,-0.00000020,0.00000179,-0.00000121
 ,0.00000456,0.00000925,-0.00000641,-0.00000379,-0.00000166,0.00000531,
 0.00000128,-0.00000519,-0.00000302,0.00000427,-0.00001233,-0.00000734,
 0.00001681,0.00002153,-0.00000485,0.00000830,-0.00000789,-0.00001930,0
 .00000697,0.00002709,-0.00078899,0.00220709,-0.00152644,0.07169705,-0.
 00051322,-0.00067385,-0.00037028,0.00214822,-0.00113364,0.00050621,-0.
 00007649,-0.00007476,-0.00011326,0.00011122,-0.00010245,0.00016447,0.0
 0731225,-0.00144604,-0.01966206,-0.00512371,0.00026516,-0.00316217,-0.
 00037003,-0.00074928,0.00041238,-0.00514831,0.00288277,-0.00076919,-0.
 00003408,0.00043303,0.00047903,-0.00007127,-0.00015474,-0.00001449,0.0
 0007071,0.00001358,0.00004633,-0.00002125,-0.00001053,-0.00000609,0.00
 002156,0.00000594,-0.00000464,-0.00001025,-0.00000612,-0.00001091,-0.0
 0000635,-0.00000634,0.00000883,0.00000313,0.00000093,-0.00000713,-0.00
 000010,-0.00000468,0.00000400,0.00001681,-0.00001598,0.00001512,-0.000
 02859,0.00002480,0.00002715,0.00003980,-0.00002791,-0.00003490,0.00001
 564,-0.00001300,-0.00001739,-0.00002179,0.00001330,-0.00001524,0.00001
 953,-0.00001747,0.00000596,-0.00003003,0.00003178,-0.00001857,0.000039
 88,0.00001979,0.00001180,-0.00003342,0.00002261,-0.00000612,-0.0000037
 9,0.00001547,-0.00003112,0.00002386,-0.00001416,-0.00002611,0.00000175
 ,0.00000325,-0.00000976,0.00002502,-0.00001033,0.00001616,0.00001014,-
 0.00001296,0.00000398,-0.00000322,0.00000049,-0.00000412,-0.00000789,0
 .00000102,0.00000219,-0.00000913,0.00000142,-0.00000044,0.00004067,0.0
 0000645,0.00000266,0.00001092,0.00008767,0.00002092,0.00001197,0.00000
 219,0.00002407,-0.00002649,0.00001331,-0.00000393,-0.00000567,0.000010
 96,-0.00002015,0.00008643,-0.00006751,-0.00000085,-0.00489058,0.007531
 02,0.01257891,0.01466170,-0.07419349,-0.08339261,0.00025588,0.00032988
 ,0.00033893,-0.00048474,-0.00083632,0.00121671,-0.00003467,0.00008793,
 0.00001096,0.00016141,0.00008534,0.00010559,-0.00005319,-0.00003623,0.
 00000205,0.00002838,0.00042543,0.00000987,-0.00005601,0.00001728,0.000
 03723,-0.00002065,0.00007598,-0.00001804,0.00012004,0.00004041,0.00008
 769,0.00035189,-0.00009256,-0.00110278,0.00045709,-0.00046356,0.000281
 34,0.00001889,0.00000492,0.00002128,-0.00001711,0.00000489,0.00000743,
 -0.00000049,0.00000085,-0.00000068,-0.00000089,0.00000210,-0.00000071,
 -0.00000777,-0.00000406,0.00000481,-0.00000149,0.00000326,0.00000751,0
 .00000464,0.00000005,-0.00000101,0.00000125,0.00000250,0.00000614,0.00
 000236,0.00000011,0.00000687,-0.00000238,-0.00001730,-0.00001974,-0.00
 000466,-0.00000236,0.00000517,-0.00000201,0.00000033,0.00000413,-0.000
 00544,0.00000331,-0.00000384,0.00000182,-0.00000045,0.00000164,0.00000
 449,-0.00000178,-0.00000101,0.00000218,0.00000041,0.00000123,-0.000004
 78,0.00000424,-0.00000551,0.00000086,-0.00000106,0.00000377,0.00001276
 ,-0.00000271,-0.00000312,-0.00000731,0.00000851,-0.00000681,0.00000327
 ,0.00000031,0.00000975,-0.00000427,-0.00000831,0.00000483,-0.00001567,
 -0.00001264,0.00000321,-0.00000485,0.00000209,-0.00000152,0.00002864,0
 .00003972,-0.00004595,0.00236328,-0.00168789,0.00151275,-0.01132631,0.
 06937572,0.00025070,0.00039884,-0.00054089,0.00041338,0.00137785,-0.00
 144880,0.00038027,-0.00043038,-0.00039989,-0.00022505,0.00008622,0.000
 18358,0.00534122,-0.00395556,-0.01036264,-0.00108091,-0.00385724,0.001
 14163,-0.00039822,0.00038600,0.00064244,0.00352295,-0.00017273,0.00203
 604,-0.00024461,-0.00049654,-0.00037683,0.00018826,0.00012539,0.000023
 69,-0.00006417,-0.00000993,-0.00005219,0.00005407,0.00003608,-0.000025
 91,-0.00004579,-0.00002867,0.00003239,0.00004261,0.00002496,0.00002753
 ,-0.00005447,-0.00003889,-0.00006524,0.00007434,0.00004321,0.00007824,
 0.00004651,0.00003410,-0.00003706,-0.00002066,0.00002001,-0.00002312,0
 .00000834,-0.00000610,-0.00002565,-0.00001311,0.00000667,0.00004197,-0
 .00001344,0.00000701,0.00000764,0.00000902,-0.00000768,0.00001407,-0.0
 0001294,0.00000758,-0.00000191,0.00000710,-0.00001147,0.00000775,-0.00
 000972,0.00000914,-0.00001450,0.00006507,-0.00002242,0.00000799,0.0000
 2065,-0.00000897,0.00003246,-0.00001385,0.00000901,0.00001450,-0.00001
 289,0.00000262,0.00000643,-0.00002140,0.00000569,-0.00000058,0.0000099
 4,0.00001244,0.00000457,-0.00000428,-0.00000157,-0.00000314,-0.0000038
 4,-0.00000527,-0.00000805,0.00000905,0.00000730,-0.00001665,-0.0000451
 3,0.00000160,-0.00000033,0.00001505,-0.00008438,-0.00003119,-0.0000363
 1,0.00002362,-0.00001020,0.00004356,-0.00001798,0.00000704,-0.00007751
 ,-0.00004341,0.00004541,0.00004047,0.00008374,-0.00006646,0.00243047,-
 0.00555683,-0.00861886,0.07345844,-0.08263017,-0.28453801,0.00004540,-
 0.00002628,0.00017445,0.00057604,0.00103044,0.00032682,0.00002927,0.00
 013437,0.00004343,0.00004142,-0.00001426,0.00007831,0.00005493,0.00038
 782,0.00024919,0.00002901,0.00057307,0.00084371,-0.00009590,-0.0000721
 1,0.00005190,0.00001481,0.00011394,-0.00000285,0.00006821,-0.00002795,
 0.00003301,0.00039765,-0.00011954,-0.00058101,-0.00018631,0.00028874,-
 0.00025016,-0.00001614,-0.00001986,0.00000345,0.00002290,0.00000930,-0
 .00001599,0.,0.00000020,-0.00000650,0.00000398,0.00000079,0.00000290,0
 .00000272,0.00000273,-0.00002496,-0.00002070,0.00001489,-0.00002122,0.
 00000067,-0.00000064,0.00000268,0.00000033,0.00000060,0.00000255,-0.00
 000039,0.00000182,0.00000277,-0.00000019,0.00000531,0.00001751,0.00000
 412,0.00000092,-0.00000392,0.00000145,0.00000465,-0.00000115,0.0000014
 5,0.00000081,0.00000140,-0.00000237,-0.00000510,-0.00000143,-0.0000017
 4,0.00000261,0.00000521,-0.00000340,-0.00000539,0.00000187,0.00000159,
 0.00000029,0.00000087,0.00000076,0.00000302,0.00000088,-0.00001624,0.0
 0000910,0.00001859,-0.00000003,-0.00001234,0.00000516,0.00000205,0.000
 00352,-0.00001584,0.00001235,0.00000475,-0.00001293,0.00000714,0.00000
 512,0.00000346,0.00000907,-0.00001823,0.00000019,-0.00003830,-0.000032
 79,0.00001027,-0.00130542,0.00154156,0.00006371,-0.08367332,0.09089123
 ,0.30130645\\0.00000169,-0.00000395,0.00000730,0.00000067,0.00000440,-
 0.00000272,-0.00000317,0.00000055,0.00000253,-0.00000698,-0.00000653,-
 0.00000303,0.00000129,-0.00000048,-0.00000277,-0.00000011,-0.00000203,
 0.00000207,0.00000218,0.00000255,0.00000089,0.00000474,0.00000100,-0.0
 0000117,-0.00000651,-0.00000098,-0.00000084,0.00000333,-0.00000065,0.0
 0000321,-0.00000371,0.00000033,0.00000010,0.00000842,0.00000474,-0.000
 00806,-0.00000892,-0.00000484,-0.00000355,0.00000202,-0.00000240,0.000
 01337,0.00000908,0.00000660,-0.00000007,-0.00000728,-0.00000095,0.0000
 0449,-0.00001058,-0.00000258,-0.00001068,-0.00001042,0.00000282,0.0000
 1069,0.00000903,-0.00000679,0.00000006,-0.00000719,0.00000116,-0.00000
 449,0.00000190,0.00000242,-0.00001339,-0.00000880,0.00000489,0.0000034
 9,0.00000814,-0.00000458,0.00000817,-0.00000380,-0.00000031,-0.0000000
 6,0.00000329,0.00000064,-0.00000311,-0.00000596,0.00000092,0.00000092,
 0.00000412,-0.00000076,0.00000134,0.00000229,-0.00000247,-0.00000092,0
 .00000002,0.00000212,-0.00000201,0.00000158,0.00000032,0.00000265,0.00
 000033,-0.00000459,0.00000286,-0.00000727,0.00000637,0.00000307,0.0000
 0183,0.00000398,-0.00000745,-0.00000306,-0.00000029,-0.00000261,0.0000
 0094,-0.00000272,0.00000002,-0.00000045,0.00000201,-0.00000142,-0.0000
 0104,0.00000394,0.00000043,0.00000890,-0.00000312,-0.00000891,0.000008
 69,0.00000279,0.00000916,-0.00000071,-0.00000361,-0.00000061,-0.000000
 83,-0.00000224,0.00000141,0.00000124,0.00000293,-0.00000009,-0.0000003
 2,-0.00000062,-0.00000050,-0.00000120,0.00000070,-0.00000267,-0.000000
 98,0.00000126,-0.00000158,0.00000107,-0.00000164,-0.00000009,0.0000001
 5,-0.00000012,-0.00000007,-0.00000005,-0.00000198,-0.00000046,0.000000
 06,0.00000035,0.00000100,-0.00000033,0.00000237,0.00000305,0.00000034,
 0.00000144,0.00000308,0.00000217,0.00000250,-0.00000067,-0.00000082,-0
 .00000112,0.00000084,0.00000124,0.00000065,-0.00000225,-0.00000057,-0.
 00000141,-0.00000018,0.00000137,0.00000021,0.00000080,0.00000058,0.000
 00060,-0.00000203,0.00000287,-0.00000129,-0.00000945,0.00000285,0.0000
 0124,0.00000951,0.00000063,-0.00000051,0.00000204,0.00000136,-0.000000
 17,-0.00000077,-0.00000049,0.00000144,0.00000018,0.00000103,-0.0000007
 1,0.00000209,-0.00000079,0.00000101,-0.00000078,0.00000212,-0.00000265
 ,0.00000064,0.00000004,-0.00000031,-0.00000105,-0.00000036,-0.00000235
 ,-0.00000300,0.00000021,-0.00000144,-0.00000323,-0.00000104,-0.0000013
 2,0.00000160,-0.00000038,0.00000066,0.00000048,-0.00000123,-0.00000075
 ,0.00000272,0.00000104,0.00000160,0.00000010,0.00000024,0.00000007,0.0
 0000005,-0.00000002,0.00000187,0.00000043,0.00000064,-0.00000030,0.000
 00094,-0.00000233,0.00000353,-0.00000068,0.00000177,0.00000126,0.00000
 309,0.00000181,-0.00000114,-0.00000328,-0.00000237,-0.00000370,0.00000
 076,0.00000077,0.00000014,-0.00000090\\\@
 The archive entry for this job was punched.


 WHEN ALL ELSE FAILS, TRY THE BOSS'S SUGGESTION.
 Job cpu time:       0 days 11 hours 11 minutes 48.5 seconds.
 Elapsed time:       0 days  0 hours 21 minutes  4.0 seconds.
 File lengths (MBytes):  RWF=   3767 Int=      0 D2E=      0 Chk=     40 Scr=      1
 Normal termination of Gaussian 16 at Mon Mar 24 11:55:21 2025.
