 Entering Gaussian System, Link 0=g16
 Initial command:
 /public/software/apps/Gaussian/g16/l1.exe "/tmp/Gau-8694.inp" -scrdir="/tmp/"
 Entering Link 1 = /public/software/apps/Gaussian/g16/l1.exe PID=      8695.
  
 Copyright (c) 1988-2019, Gaussian, Inc.  All Rights Reserved.
  
 This is part of the Gaussian(R) 16 program.  It is based on
 the Gaussian(R) 09 system (copyright 2009, Gaussian, Inc.),
 the Gaussian(R) 03 system (copyright 2003, Gaussian, Inc.),
 the Gaussian(R) 98 system (copyright 1998, Gaussian, Inc.),
 the Gaussian(R) 94 system (copyright 1995, Gaussian, Inc.),
 the Gaussian 92(TM) system (copyright 1992, Gaussian, Inc.),
 the Gaussian 90(TM) system (copyright 1990, Gaussian, Inc.),
 the Gaussian 88(TM) system (copyright 1988, Gaussian, Inc.),
 the Gaussian 86(TM) system (copyright 1986, Carnegie Mellon
 University), and the Gaussian 82(TM) system (copyright 1983,
 Carnegie Mellon University). Gaussian is a federally registered
 trademark of Gaussian, Inc.
  
 This software contains proprietary and confidential information,
 including trade secrets, belonging to Gaussian, Inc.
  
 This software is provided under written license and may be
 used, copied, transmitted, or stored only in accord with that
 written license.
  
 The following legend is applicable only to US Government
 contracts under FAR:
  
                    RESTRICTED RIGHTS LEGEND
  
 Use, reproduction and disclosure by the US Government is
 subject to restrictions as set forth in subparagraphs (a)
 and (c) of the Commercial Computer Software - Restricted
 Rights clause in FAR 52.227-19.
  
 Gaussian, Inc.
 340 Quinnipiac St., Bldg. 40, Wallingford CT 06492
  
  
 ---------------------------------------------------------------
 Warning -- This program may not be used in any manner that
 competes with the business of Gaussian, Inc. or will provide
 assistance to any competitor of Gaussian, Inc.  The licensee
 of this program is prohibited from giving any competitor of
 Gaussian, Inc. access to this program.  By using this program,
 the user acknowledges that Gaussian, Inc. is engaged in the
 business of creating and licensing software in the field of
 computational chemistry and represents and warrants to the
 licensee that it is not a competitor of Gaussian, Inc. and that
 it will not use this program in any manner prohibited above.
 ---------------------------------------------------------------
  

 Cite this work as:
 Gaussian 16, Revision C.01,
 M. J. Frisch, G. W. Trucks, H. B. Schlegel, G. E. Scuseria, 
 M. A. Robb, J. R. Cheeseman, G. Scalmani, V. Barone, 
 G. A. Petersson, H. Nakatsuji, X. Li, M. Caricato, A. V. Marenich, 
 J. Bloino, B. G. Janesko, R. Gomperts, B. Mennucci, H. P. Hratchian, 
 J. V. Ortiz, A. F. Izmaylov, J. L. Sonnenberg, D. Williams-Young, 
 F. Ding, F. Lipparini, F. Egidi, J. Goings, B. Peng, A. Petrone, 
 T. Henderson, D. Ranasinghe, V. G. Zakrzewski, J. Gao, N. Rega, 
 G. Zheng, W. Liang, M. Hada, M. Ehara, K. Toyota, R. Fukuda, 
 J. Hasegawa, M. Ishida, T. Nakajima, Y. Honda, O. Kitao, H. Nakai, 
 T. Vreven, K. Throssell, J. A. Montgomery, Jr., J. E. Peralta, 
 F. Ogliaro, M. J. Bearpark, J. J. Heyd, E. N. Brothers, K. N. Kudin, 
 V. N. Staroverov, T. A. Keith, R. Kobayashi, J. Normand, 
 K. Raghavachari, A. P. Rendell, J. C. Burant, S. S. Iyengar, 
 J. Tomasi, M. Cossi, J. M. Millam, M. Klene, C. Adamo, R. Cammi, 
 J. W. Ochterski, R. L. Martin, K. Morokuma, O. Farkas, 
 J. B. Foresman, and D. J. Fox, Gaussian, Inc., Wallingford CT, 2019.
 
 ******************************************
 Gaussian 16:  ES64L-G16RevC.01  3-Jul-2019
                24-Mar-2025 
 ******************************************
 %nprocshared=32
 Will use up to   32 processors via shared memory.
 %mem=100GB
 ------------------------------------------
 #p opt freq b3lyp/def2svpp em=gd3bj nosymm
 ------------------------------------------
 1/18=20,19=15,26=3,38=1/1,3;
 2/9=110,12=2,15=1,17=6,18=5,40=1/2;
 3/5=43,7=202,11=2,25=1,30=1,71=1,74=-5,124=41/1,2,3;
 4//1;
 5/5=2,38=5/2;
 6/7=2,8=2,9=2,10=2,28=1/1;
 7/30=1/1,2,3,16;
 1/18=20,19=15,26=3/3(2);
 2/9=110,15=1/2;
 99//99;
 2/9=110,15=1/2;
 3/5=43,7=202,11=2,25=1,30=1,71=1,74=-5,124=41/1,2,3;
 4/5=5,16=3,69=1/1;
 5/5=2,38=5/2;
 7/30=1/1,2,3,16;
 1/18=20,19=15,26=3/3(-5);
 2/9=110,15=1/2;
 6/7=2,8=2,9=2,10=2,19=2,28=1/1;
 99/9=1/99;
 Leave Link    1 at Mon Mar 24 12:26:49 2025, MaxMem= 13421772800 cpu:               1.0 elap:               0.0
 (Enter /public/software/apps/Gaussian/g16/l101.exe)
 ----------------------
 $$$$Singlemol####0????
 ----------------------
 Symbolic Z-matrix:
 Charge =  0 Multiplicity = 1
 O                    -0.98081  -5.03215  -1.09647 
 C                     0.1761   -4.32196  -1.06486 
 C                     1.08778  -4.5354   -2.11727 
 C                     2.27611  -3.86838  -2.14745 
 C                     2.61427  -2.94256  -1.13708 
 C                     3.82702  -2.23073  -1.1595 
 C                     4.14675  -1.32179  -0.17813 
 C                     5.41641  -0.58397  -0.21435 
 C                     6.14758  -0.36229   0.95078 
 C                     7.34637   0.32204   0.91278 
 C                     7.84356   0.81535  -0.28991 
 C                     9.12369   1.55087  -0.33301 
 C                     9.12931   2.92136  -0.63512 
 C                     7.93472   3.65159  -0.86963 
 C                     7.9686    4.98002  -1.16521 
 C                     9.19737   5.66798  -1.24031 
 C                     10.36384   5.00965  -1.00315 
 C                     10.3722   3.62644  -0.68833 
 C                     11.55696   2.94632  -0.42605 
 C                     11.56193   1.58978  -0.11816 
 C                     12.76854   0.8934    0.14941 
 C                     12.76277  -0.43745   0.43061 
 C                     11.54673  -1.15137   0.44994 
 C                     10.36723  -0.51855   0.20187 
 C                     10.32534   0.87289  -0.07635 
 C                     7.11136   0.60189  -1.45433 
 C                     5.91841  -0.09171  -1.41746 
 C                     3.22568  -1.10125   0.86831 
 C                     2.04033  -1.77529   0.91826 
 C                     1.70036  -2.72196  -0.07332 
 C                     0.4753   -3.4358   -0.04609 
 C                    -0.48112  -3.26903   1.07956 
 C                    -0.18731  -3.82543   2.31091 
 O                     0.96839  -4.49735   2.54952 
 C                    -1.10322  -3.72625   3.3766 
 C                    -2.29177  -3.08039   3.20826 
 C                    -2.62667  -2.48729   1.97195 
 C                    -3.84329  -1.80808   1.77957 
 C                    -4.15233  -1.21242   0.57934 
 C                    -5.4227   -0.49885   0.39208 
 C                    -5.46298   0.71774  -0.28566 
 C                    -6.65624   1.39078  -0.45704 
 C                    -7.84498   0.86519   0.04107 
 C                    -9.12078   1.58561  -0.14437 
 C                    -9.78051   2.13149   0.96763 
 C                    -9.25161   2.04485   2.28217 
 C                    -9.91459   2.57931   3.34425 
 C                    -11.14633   3.24158   3.1627 
 C                    -11.67782   3.3646    1.91667 
 C                    -11.01754   2.82468   0.78309 
 C                    -11.54169   2.96082  -0.49819 
 C                    -10.8927   2.42938  -1.60786 
 C                    -11.42485   2.56657  -2.9157 
 C                    -10.79118   2.02595  -3.99108 
 C                    -9.59134   1.30567  -3.81694 
 C                    -9.04649   1.15531  -2.5785 
 C                    -9.66306   1.72107  -1.43176 
 C                    -7.80753  -0.35108   0.71698 
 C                    -6.61358  -1.02227   0.8909 
 C                    -3.22002  -1.28893  -0.4772 
 C                    -2.03746  -1.9527   -0.327 
 C                    -1.70531  -2.57698   0.89558 
 H                    -1.53813  -4.77916  -0.34719 
 H                     0.81103  -5.2412   -2.88417 
 H                     2.97509  -4.03687  -2.95326 
 H                     4.52091  -2.42602  -1.96474 
 H                     5.78387  -0.74984   1.89148 
 H                     7.90615   0.48506   1.82285 
 H                     6.98929   3.13362  -0.80393 
 H                     7.05061   5.52158  -1.3416 
 H                     9.19928   6.72129  -1.48005 
 H                     11.31105   5.52846  -1.04707 
 H                     12.49459   3.48379  -0.46268 
 H                     13.69518   1.44915   0.12105 
 H                     13.6858  -0.96064   0.63367 
 H                     11.56178  -2.21084   0.66065 
 H                     9.44092  -1.07385   0.20848 
 H                     7.48961   0.98052  -2.39333 
 H                     5.35564  -0.23656  -2.32823 
 H                     3.4591   -0.36673   1.62492 
 H                     1.33899  -1.58013   1.71696 
 H                     1.52613  -4.47489   1.7593 
 H                    -0.83014  -4.18065   4.31568 
 H                    -2.99441  -3.01099   4.02544 
 H                    -4.52988  -1.73902   2.61142 
 H                    -4.54677   1.14996  -0.66129 
 H                    -6.67353   2.34013  -0.97337 
 H                    -8.30332   1.54885   2.42749 
 H                    -9.49913   2.50421   4.33868 
 H                    -11.6556   3.65472   4.02113 
 H                    -12.6155   3.87991   1.76329 
 H                    -12.47407   3.49134  -0.63458 
 H                    -12.351    3.11092  -3.03498 
 H                    -11.20244   2.13516  -4.98399 
 H                    -9.10958   0.86925  -4.67981 
 H                    -8.13311   0.59317  -2.45156 
 H                    -8.727    -0.77293   1.09743 
 H                    -6.60376  -1.97457   1.40122 
 H                    -3.46233  -0.82802  -1.4234 
 H                    -1.33469  -2.00044  -1.14651 
 
 ITRead=  0  0  0  0  0  0  0  0  0  0  0  0  0  0  0  0  0  0  0  0
 ITRead=  0  0  0  0  0  0  0  0  0  0  0  0  0  0  0  0  0  0  0  0
 ITRead=  0  0  0  0  0  0  0  0  0  0  0  0  0  0  0  0  0  0  0  0
 ITRead=  0  0  0  0  0  0  0  0  0  0  0  0  0  0  0  0  0  0  0  0
 ITRead=  0  0  0  0  0  0  0  0  0  0  0  0  0  0  0  0  0  0  0  0
 MicOpt= -1 -1 -1 -1 -1 -1 -1 -1 -1 -1 -1 -1 -1 -1 -1 -1 -1 -1 -1 -1
 MicOpt= -1 -1 -1 -1 -1 -1 -1 -1 -1 -1 -1 -1 -1 -1 -1 -1 -1 -1 -1 -1
 MicOpt= -1 -1 -1 -1 -1 -1 -1 -1 -1 -1 -1 -1 -1 -1 -1 -1 -1 -1 -1 -1
 MicOpt= -1 -1 -1 -1 -1 -1 -1 -1 -1 -1 -1 -1 -1 -1 -1 -1 -1 -1 -1 -1
 MicOpt= -1 -1 -1 -1 -1 -1 -1 -1 -1 -1 -1 -1 -1 -1 -1 -1 -1 -1 -1 -1
 NAtoms=    100 NQM=      100 NQMF=       0 NMMI=      0 NMMIF=      0
                NMic=       0 NMicF=      0.
                    Isotopes and Nuclear Properties:
 (Nuclear quadrupole moments (NQMom) in fm**2, nuclear magnetic moments (NMagM)
  in nuclear magnetons)

  Atom         1           2           3           4           5           6           7           8           9          10
 IAtWgt=          16          12          12          12          12          12          12          12          12          12
 AtmWgt=  15.9949146  12.0000000  12.0000000  12.0000000  12.0000000  12.0000000  12.0000000  12.0000000  12.0000000  12.0000000
 NucSpn=           0           0           0           0           0           0           0           0           0           0
 AtZEff=  -0.0000000  -0.0000000  -0.0000000  -0.0000000  -0.0000000  -0.0000000  -0.0000000  -0.0000000  -0.0000000  -0.0000000
 NQMom=    0.0000000   0.0000000   0.0000000   0.0000000   0.0000000   0.0000000   0.0000000   0.0000000   0.0000000   0.0000000
 NMagM=    0.0000000   0.0000000   0.0000000   0.0000000   0.0000000   0.0000000   0.0000000   0.0000000   0.0000000   0.0000000
 AtZNuc=   8.0000000   6.0000000   6.0000000   6.0000000   6.0000000   6.0000000   6.0000000   6.0000000   6.0000000   6.0000000

  Atom        11          12          13          14          15          16          17          18          19          20
 IAtWgt=          12          12          12          12          12          12          12          12          12          12
 AtmWgt=  12.0000000  12.0000000  12.0000000  12.0000000  12.0000000  12.0000000  12.0000000  12.0000000  12.0000000  12.0000000
 NucSpn=           0           0           0           0           0           0           0           0           0           0
 AtZEff=  -0.0000000  -0.0000000  -0.0000000  -0.0000000  -0.0000000  -0.0000000  -0.0000000  -0.0000000  -0.0000000  -0.0000000
 NQMom=    0.0000000   0.0000000   0.0000000   0.0000000   0.0000000   0.0000000   0.0000000   0.0000000   0.0000000   0.0000000
 NMagM=    0.0000000   0.0000000   0.0000000   0.0000000   0.0000000   0.0000000   0.0000000   0.0000000   0.0000000   0.0000000
 AtZNuc=   6.0000000   6.0000000   6.0000000   6.0000000   6.0000000   6.0000000   6.0000000   6.0000000   6.0000000   6.0000000

  Atom        21          22          23          24          25          26          27          28          29          30
 IAtWgt=          12          12          12          12          12          12          12          12          12          12
 AtmWgt=  12.0000000  12.0000000  12.0000000  12.0000000  12.0000000  12.0000000  12.0000000  12.0000000  12.0000000  12.0000000
 NucSpn=           0           0           0           0           0           0           0           0           0           0
 AtZEff=  -0.0000000  -0.0000000  -0.0000000  -0.0000000  -0.0000000  -0.0000000  -0.0000000  -0.0000000  -0.0000000  -0.0000000
 NQMom=    0.0000000   0.0000000   0.0000000   0.0000000   0.0000000   0.0000000   0.0000000   0.0000000   0.0000000   0.0000000
 NMagM=    0.0000000   0.0000000   0.0000000   0.0000000   0.0000000   0.0000000   0.0000000   0.0000000   0.0000000   0.0000000
 AtZNuc=   6.0000000   6.0000000   6.0000000   6.0000000   6.0000000   6.0000000   6.0000000   6.0000000   6.0000000   6.0000000

  Atom        31          32          33          34          35          36          37          38          39          40
 IAtWgt=          12          12          12          16          12          12          12          12          12          12
 AtmWgt=  12.0000000  12.0000000  12.0000000  15.9949146  12.0000000  12.0000000  12.0000000  12.0000000  12.0000000  12.0000000
 NucSpn=           0           0           0           0           0           0           0           0           0           0
 AtZEff=  -0.0000000  -0.0000000  -0.0000000  -0.0000000  -0.0000000  -0.0000000  -0.0000000  -0.0000000  -0.0000000  -0.0000000
 NQMom=    0.0000000   0.0000000   0.0000000   0.0000000   0.0000000   0.0000000   0.0000000   0.0000000   0.0000000   0.0000000
 NMagM=    0.0000000   0.0000000   0.0000000   0.0000000   0.0000000   0.0000000   0.0000000   0.0000000   0.0000000   0.0000000
 AtZNuc=   6.0000000   6.0000000   6.0000000   8.0000000   6.0000000   6.0000000   6.0000000   6.0000000   6.0000000   6.0000000

  Atom        41          42          43          44          45          46          47          48          49          50
 IAtWgt=          12          12          12          12          12          12          12          12          12          12
 AtmWgt=  12.0000000  12.0000000  12.0000000  12.0000000  12.0000000  12.0000000  12.0000000  12.0000000  12.0000000  12.0000000
 NucSpn=           0           0           0           0           0           0           0           0           0           0
 AtZEff=  -0.0000000  -0.0000000  -0.0000000  -0.0000000  -0.0000000  -0.0000000  -0.0000000  -0.0000000  -0.0000000  -0.0000000
 NQMom=    0.0000000   0.0000000   0.0000000   0.0000000   0.0000000   0.0000000   0.0000000   0.0000000   0.0000000   0.0000000
 NMagM=    0.0000000   0.0000000   0.0000000   0.0000000   0.0000000   0.0000000   0.0000000   0.0000000   0.0000000   0.0000000
 AtZNuc=   6.0000000   6.0000000   6.0000000   6.0000000   6.0000000   6.0000000   6.0000000   6.0000000   6.0000000   6.0000000

  Atom        51          52          53          54          55          56          57          58          59          60
 IAtWgt=          12          12          12          12          12          12          12          12          12          12
 AtmWgt=  12.0000000  12.0000000  12.0000000  12.0000000  12.0000000  12.0000000  12.0000000  12.0000000  12.0000000  12.0000000
 NucSpn=           0           0           0           0           0           0           0           0           0           0
 AtZEff=  -0.0000000  -0.0000000  -0.0000000  -0.0000000  -0.0000000  -0.0000000  -0.0000000  -0.0000000  -0.0000000  -0.0000000
 NQMom=    0.0000000   0.0000000   0.0000000   0.0000000   0.0000000   0.0000000   0.0000000   0.0000000   0.0000000   0.0000000
 NMagM=    0.0000000   0.0000000   0.0000000   0.0000000   0.0000000   0.0000000   0.0000000   0.0000000   0.0000000   0.0000000
 AtZNuc=   6.0000000   6.0000000   6.0000000   6.0000000   6.0000000   6.0000000   6.0000000   6.0000000   6.0000000   6.0000000

  Atom        61          62          63          64          65          66          67          68          69          70
 IAtWgt=          12          12           1           1           1           1           1           1           1           1
 AtmWgt=  12.0000000  12.0000000   1.0078250   1.0078250   1.0078250   1.0078250   1.0078250   1.0078250   1.0078250   1.0078250
 NucSpn=           0           0           1           1           1           1           1           1           1           1
 AtZEff=  -0.0000000  -0.0000000  -0.0000000  -0.0000000  -0.0000000  -0.0000000  -0.0000000  -0.0000000  -0.0000000  -0.0000000
 NQMom=    0.0000000   0.0000000   0.0000000   0.0000000   0.0000000   0.0000000   0.0000000   0.0000000   0.0000000   0.0000000
 NMagM=    0.0000000   0.0000000   2.7928460   2.7928460   2.7928460   2.7928460   2.7928460   2.7928460   2.7928460   2.7928460
 AtZNuc=   6.0000000   6.0000000   1.0000000   1.0000000   1.0000000   1.0000000   1.0000000   1.0000000   1.0000000   1.0000000

  Atom        71          72          73          74          75          76          77          78          79          80
 IAtWgt=           1           1           1           1           1           1           1           1           1           1
 AtmWgt=   1.0078250   1.0078250   1.0078250   1.0078250   1.0078250   1.0078250   1.0078250   1.0078250   1.0078250   1.0078250
 NucSpn=           1           1           1           1           1           1           1           1           1           1
 AtZEff=  -0.0000000  -0.0000000  -0.0000000  -0.0000000  -0.0000000  -0.0000000  -0.0000000  -0.0000000  -0.0000000  -0.0000000
 NQMom=    0.0000000   0.0000000   0.0000000   0.0000000   0.0000000   0.0000000   0.0000000   0.0000000   0.0000000   0.0000000
 NMagM=    2.7928460   2.7928460   2.7928460   2.7928460   2.7928460   2.7928460   2.7928460   2.7928460   2.7928460   2.7928460
 AtZNuc=   1.0000000   1.0000000   1.0000000   1.0000000   1.0000000   1.0000000   1.0000000   1.0000000   1.0000000   1.0000000

  Atom        81          82          83          84          85          86          87          88          89          90
 IAtWgt=           1           1           1           1           1           1           1           1           1           1
 AtmWgt=   1.0078250   1.0078250   1.0078250   1.0078250   1.0078250   1.0078250   1.0078250   1.0078250   1.0078250   1.0078250
 NucSpn=           1           1           1           1           1           1           1           1           1           1
 AtZEff=  -0.0000000  -0.0000000  -0.0000000  -0.0000000  -0.0000000  -0.0000000  -0.0000000  -0.0000000  -0.0000000  -0.0000000
 NQMom=    0.0000000   0.0000000   0.0000000   0.0000000   0.0000000   0.0000000   0.0000000   0.0000000   0.0000000   0.0000000
 NMagM=    2.7928460   2.7928460   2.7928460   2.7928460   2.7928460   2.7928460   2.7928460   2.7928460   2.7928460   2.7928460
 AtZNuc=   1.0000000   1.0000000   1.0000000   1.0000000   1.0000000   1.0000000   1.0000000   1.0000000   1.0000000   1.0000000

  Atom        91          92          93          94          95          96          97          98          99         100
 IAtWgt=           1           1           1           1           1           1           1           1           1           1
 AtmWgt=   1.0078250   1.0078250   1.0078250   1.0078250   1.0078250   1.0078250   1.0078250   1.0078250   1.0078250   1.0078250
 NucSpn=           1           1           1           1           1           1           1           1           1           1
 AtZEff=  -0.0000000  -0.0000000  -0.0000000  -0.0000000  -0.0000000  -0.0000000  -0.0000000  -0.0000000  -0.0000000  -0.0000000
 NQMom=    0.0000000   0.0000000   0.0000000   0.0000000   0.0000000   0.0000000   0.0000000   0.0000000   0.0000000   0.0000000
 NMagM=    2.7928460   2.7928460   2.7928460   2.7928460   2.7928460   2.7928460   2.7928460   2.7928460   2.7928460   2.7928460
 AtZNuc=   1.0000000   1.0000000   1.0000000   1.0000000   1.0000000   1.0000000   1.0000000   1.0000000   1.0000000   1.0000000
 Leave Link  101 at Mon Mar 24 12:26:49 2025, MaxMem= 13421772800 cpu:               3.7 elap:               0.1
 (Enter /public/software/apps/Gaussian/g16/l103.exe)

 GradGradGradGradGradGradGradGradGradGradGradGradGradGradGradGradGradGrad
 Berny optimization.
 Initialization pass.
                           ----------------------------
                           !    Initial Parameters    !
                           ! (Angstroms and Degrees)  !
 --------------------------                            --------------------------
 ! Name  Definition              Value          Derivative Info.                !
 --------------------------------------------------------------------------------
 ! R1    R(1,2)                  1.3579         estimate D2E/DX2                !
 ! R2    R(1,63)                 0.9675         estimate D2E/DX2                !
 ! R3    R(2,3)                  1.4086         estimate D2E/DX2                !
 ! R4    R(2,31)                 1.383          estimate D2E/DX2                !
 ! R5    R(3,4)                  1.3631         estimate D2E/DX2                !
 ! R6    R(3,64)                 1.0784         estimate D2E/DX2                !
 ! R7    R(4,5)                  1.4115         estimate D2E/DX2                !
 ! R8    R(4,65)                 1.08           estimate D2E/DX2                !
 ! R9    R(5,6)                  1.4064         estimate D2E/DX2                !
 ! R10   R(5,30)                 1.4197         estimate D2E/DX2                !
 ! R11   R(6,7)                  1.3753         estimate D2E/DX2                !
 ! R12   R(6,66)                 1.0808         estimate D2E/DX2                !
 ! R13   R(7,8)                  1.4689         estimate D2E/DX2                !
 ! R14   R(7,28)                 1.4114         estimate D2E/DX2                !
 ! R15   R(8,9)                  1.3933         estimate D2E/DX2                !
 ! R16   R(8,27)                 1.3935         estimate D2E/DX2                !
 ! R17   R(9,10)                 1.3809         estimate D2E/DX2                !
 ! R18   R(9,67)                 1.0805         estimate D2E/DX2                !
 ! R19   R(10,11)                1.3918         estimate D2E/DX2                !
 ! R20   R(10,68)                1.0808         estimate D2E/DX2                !
 ! R21   R(11,12)                1.477          estimate D2E/DX2                !
 ! R22   R(11,26)                1.392          estimate D2E/DX2                !
 ! R23   R(12,13)                1.4034         estimate D2E/DX2                !
 ! R24   R(12,25)                1.4034         estimate D2E/DX2                !
 ! R25   R(13,14)                1.4196         estimate D2E/DX2                !
 ! R26   R(13,18)                1.4299         estimate D2E/DX2                !
 ! R27   R(14,15)                1.3613         estimate D2E/DX2                !
 ! R28   R(14,69)                1.08           estimate D2E/DX2                !
 ! R29   R(15,16)                1.4102         estimate D2E/DX2                !
 ! R30   R(15,70)                1.0803         estimate D2E/DX2                !
 ! R31   R(16,17)                1.3603         estimate D2E/DX2                !
 ! R32   R(16,71)                1.0803         estimate D2E/DX2                !
 ! R33   R(17,18)                1.4186         estimate D2E/DX2                !
 ! R34   R(17,72)                1.0809         estimate D2E/DX2                !
 ! R35   R(18,19)                1.391          estimate D2E/DX2                !
 ! R36   R(19,20)                1.391          estimate D2E/DX2                !
 ! R37   R(19,73)                1.0814         estimate D2E/DX2                !
 ! R38   R(20,21)                1.4186         estimate D2E/DX2                !
 ! R39   R(20,25)                1.43           estimate D2E/DX2                !
 ! R40   R(21,22)                1.3602         estimate D2E/DX2                !
 ! R41   R(21,74)                1.0809         estimate D2E/DX2                !
 ! R42   R(22,23)                1.4103         estimate D2E/DX2                !
 ! R43   R(22,75)                1.0803         estimate D2E/DX2                !
 ! R44   R(23,24)                1.3613         estimate D2E/DX2                !
 ! R45   R(23,76)                1.0803         estimate D2E/DX2                !
 ! R46   R(24,25)                1.4196         estimate D2E/DX2                !
 ! R47   R(24,77)                1.08           estimate D2E/DX2                !
 ! R48   R(26,27)                1.3804         estimate D2E/DX2                !
 ! R49   R(26,78)                1.0808         estimate D2E/DX2                !
 ! R50   R(27,79)                1.0804         estimate D2E/DX2                !
 ! R51   R(28,29)                1.3645         estimate D2E/DX2                !
 ! R52   R(28,80)                1.08           estimate D2E/DX2                !
 ! R53   R(29,30)                1.4124         estimate D2E/DX2                !
 ! R54   R(29,81)                1.0807         estimate D2E/DX2                !
 ! R55   R(30,31)                1.4181         estimate D2E/DX2                !
 ! R56   R(31,32)                1.4865         estimate D2E/DX2                !
 ! R57   R(32,33)                1.3828         estimate D2E/DX2                !
 ! R58   R(32,62)                1.4182         estimate D2E/DX2                !
 ! R59   R(33,34)                1.358          estimate D2E/DX2                !
 ! R60   R(33,35)                1.4087         estimate D2E/DX2                !
 ! R61   R(34,82)                0.9675         estimate D2E/DX2                !
 ! R62   R(35,36)                1.3631         estimate D2E/DX2                !
 ! R63   R(35,83)                1.0784         estimate D2E/DX2                !
 ! R64   R(36,37)                1.4115         estimate D2E/DX2                !
 ! R65   R(36,84)                1.08           estimate D2E/DX2                !
 ! R66   R(37,38)                1.4066         estimate D2E/DX2                !
 ! R67   R(37,62)                1.4197         estimate D2E/DX2                !
 ! R68   R(38,39)                1.3751         estimate D2E/DX2                !
 ! R69   R(38,85)                1.0808         estimate D2E/DX2                !
 ! R70   R(39,40)                1.469          estimate D2E/DX2                !
 ! R71   R(39,60)                1.4111         estimate D2E/DX2                !
 ! R72   R(40,41)                1.3932         estimate D2E/DX2                !
 ! R73   R(40,59)                1.3932         estimate D2E/DX2                !
 ! R74   R(41,42)                1.3807         estimate D2E/DX2                !
 ! R75   R(41,86)                1.0804         estimate D2E/DX2                !
 ! R76   R(42,43)                1.3919         estimate D2E/DX2                !
 ! R77   R(42,87)                1.0808         estimate D2E/DX2                !
 ! R78   R(43,44)                1.4768         estimate D2E/DX2                !
 ! R79   R(43,58)                1.392          estimate D2E/DX2                !
 ! R80   R(44,45)                1.4035         estimate D2E/DX2                !
 ! R81   R(44,57)                1.4035         estimate D2E/DX2                !
 ! R82   R(45,46)                1.4196         estimate D2E/DX2                !
 ! R83   R(45,50)                1.43           estimate D2E/DX2                !
 ! R84   R(46,47)                1.3613         estimate D2E/DX2                !
 ! R85   R(46,88)                1.08           estimate D2E/DX2                !
 ! R86   R(47,48)                1.4102         estimate D2E/DX2                !
 ! R87   R(47,89)                1.0803         estimate D2E/DX2                !
 ! R88   R(48,49)                1.3602         estimate D2E/DX2                !
 ! R89   R(48,90)                1.0802         estimate D2E/DX2                !
 ! R90   R(49,50)                1.4186         estimate D2E/DX2                !
 ! R91   R(49,91)                1.0809         estimate D2E/DX2                !
 ! R92   R(50,51)                1.391          estimate D2E/DX2                !
 ! R93   R(51,52)                1.391          estimate D2E/DX2                !
 ! R94   R(51,92)                1.0814         estimate D2E/DX2                !
 ! R95   R(52,53)                1.4186         estimate D2E/DX2                !
 ! R96   R(52,57)                1.4299         estimate D2E/DX2                !
 ! R97   R(53,54)                1.3602         estimate D2E/DX2                !
 ! R98   R(53,93)                1.0809         estimate D2E/DX2                !
 ! R99   R(54,55)                1.4102         estimate D2E/DX2                !
 ! R100  R(54,94)                1.0802         estimate D2E/DX2                !
 ! R101  R(55,56)                1.3613         estimate D2E/DX2                !
 ! R102  R(55,95)                1.0803         estimate D2E/DX2                !
 ! R103  R(56,57)                1.4196         estimate D2E/DX2                !
 ! R104  R(56,96)                1.08           estimate D2E/DX2                !
 ! R105  R(58,59)                1.3807         estimate D2E/DX2                !
 ! R106  R(58,97)                1.0808         estimate D2E/DX2                !
 ! R107  R(59,98)                1.0805         estimate D2E/DX2                !
 ! R108  R(60,61)                1.3644         estimate D2E/DX2                !
 ! R109  R(60,99)                1.08           estimate D2E/DX2                !
 ! R110  R(61,62)                1.4124         estimate D2E/DX2                !
 ! R111  R(61,100)               1.0806         estimate D2E/DX2                !
 ! A1    A(2,1,63)             109.6334         estimate D2E/DX2                !
 ! A2    A(1,2,3)              117.0505         estimate D2E/DX2                !
 ! A3    A(1,2,31)             122.4519         estimate D2E/DX2                !
 ! A4    A(3,2,31)             120.4925         estimate D2E/DX2                !
 ! A5    A(2,3,4)              120.4394         estimate D2E/DX2                !
 ! A6    A(2,3,64)             117.6712         estimate D2E/DX2                !
 ! A7    A(4,3,64)             121.889          estimate D2E/DX2                !
 ! A8    A(3,4,5)              120.9296         estimate D2E/DX2                !
 ! A9    A(3,4,65)             120.2942         estimate D2E/DX2                !
 ! A10   A(5,4,65)             118.7752         estimate D2E/DX2                !
 ! A11   A(4,5,6)              121.8136         estimate D2E/DX2                !
 ! A12   A(4,5,30)             118.9501         estimate D2E/DX2                !
 ! A13   A(6,5,30)             119.2358         estimate D2E/DX2                !
 ! A14   A(5,6,7)              121.5736         estimate D2E/DX2                !
 ! A15   A(5,6,66)             118.2977         estimate D2E/DX2                !
 ! A16   A(7,6,66)             120.1206         estimate D2E/DX2                !
 ! A17   A(6,7,8)              121.018          estimate D2E/DX2                !
 ! A18   A(6,7,28)             118.7252         estimate D2E/DX2                !
 ! A19   A(8,7,28)             120.2557         estimate D2E/DX2                !
 ! A20   A(7,8,9)              120.8566         estimate D2E/DX2                !
 ! A21   A(7,8,27)             120.6707         estimate D2E/DX2                !
 ! A22   A(9,8,27)             118.4726         estimate D2E/DX2                !
 ! A23   A(8,9,10)             120.7579         estimate D2E/DX2                !
 ! A24   A(8,9,67)             119.6263         estimate D2E/DX2                !
 ! A25   A(10,9,67)            119.6008         estimate D2E/DX2                !
 ! A26   A(9,10,11)            120.6351         estimate D2E/DX2                !
 ! A27   A(9,10,68)            120.0798         estimate D2E/DX2                !
 ! A28   A(11,10,68)           119.284          estimate D2E/DX2                !
 ! A29   A(10,11,12)           120.7537         estimate D2E/DX2                !
 ! A30   A(10,11,26)           118.7253         estimate D2E/DX2                !
 ! A31   A(12,11,26)           120.521          estimate D2E/DX2                !
 ! A32   A(11,12,13)           119.7389         estimate D2E/DX2                !
 ! A33   A(11,12,25)           119.7489         estimate D2E/DX2                !
 ! A34   A(13,12,25)           120.5118         estimate D2E/DX2                !
 ! A35   A(12,13,14)           122.3117         estimate D2E/DX2                !
 ! A36   A(12,13,18)           119.5383         estimate D2E/DX2                !
 ! A37   A(14,13,18)           118.1399         estimate D2E/DX2                !
 ! A38   A(13,14,15)           121.1238         estimate D2E/DX2                !
 ! A39   A(13,14,69)           118.6777         estimate D2E/DX2                !
 ! A40   A(15,14,69)           120.1977         estimate D2E/DX2                !
 ! A41   A(14,15,16)           120.6158         estimate D2E/DX2                !
 ! A42   A(14,15,70)           120.2303         estimate D2E/DX2                !
 ! A43   A(16,15,70)           119.1535         estimate D2E/DX2                !
 ! A44   A(15,16,17)           120.1194         estimate D2E/DX2                !
 ! A45   A(15,16,71)           119.276          estimate D2E/DX2                !
 ! A46   A(17,16,71)           120.603          estimate D2E/DX2                !
 ! A47   A(16,17,18)           121.0406         estimate D2E/DX2                !
 ! A48   A(16,17,72)           120.8039         estimate D2E/DX2                !
 ! A49   A(18,17,72)           118.1553         estimate D2E/DX2                !
 ! A50   A(13,18,17)           118.9413         estimate D2E/DX2                !
 ! A51   A(13,18,19)           119.4848         estimate D2E/DX2                !
 ! A52   A(17,18,19)           121.5732         estimate D2E/DX2                !
 ! A53   A(18,19,20)           121.4378         estimate D2E/DX2                !
 ! A54   A(18,19,73)           119.2811         estimate D2E/DX2                !
 ! A55   A(20,19,73)           119.281          estimate D2E/DX2                !
 ! A56   A(19,20,21)           121.5674         estimate D2E/DX2                !
 ! A57   A(19,20,25)           119.4903         estimate D2E/DX2                !
 ! A58   A(21,20,25)           118.9414         estimate D2E/DX2                !
 ! A59   A(20,21,22)           121.0421         estimate D2E/DX2                !
 ! A60   A(20,21,74)           118.1534         estimate D2E/DX2                !
 ! A61   A(22,21,74)           120.8043         estimate D2E/DX2                !
 ! A62   A(21,22,23)           120.1183         estimate D2E/DX2                !
 ! A63   A(21,22,75)           120.6032         estimate D2E/DX2                !
 ! A64   A(23,22,75)           119.2768         estimate D2E/DX2                !
 ! A65   A(22,23,24)           120.6162         estimate D2E/DX2                !
 ! A66   A(22,23,76)           119.1519         estimate D2E/DX2                !
 ! A67   A(24,23,76)           120.2314         estimate D2E/DX2                !
 ! A68   A(23,24,25)           121.1258         estimate D2E/DX2                !
 ! A69   A(23,24,77)           120.1984         estimate D2E/DX2                !
 ! A70   A(25,24,77)           118.675          estimate D2E/DX2                !
 ! A71   A(12,25,20)           119.532          estimate D2E/DX2                !
 ! A72   A(12,25,24)           122.3189         estimate D2E/DX2                !
 ! A73   A(20,25,24)           118.1381         estimate D2E/DX2                !
 ! A74   A(11,26,27)           120.6167         estimate D2E/DX2                !
 ! A75   A(11,26,78)           119.2723         estimate D2E/DX2                !
 ! A76   A(27,26,78)           120.1099         estimate D2E/DX2                !
 ! A77   A(8,27,26)            120.7891         estimate D2E/DX2                !
 ! A78   A(8,27,79)            119.5267         estimate D2E/DX2                !
 ! A79   A(26,27,79)           119.6706         estimate D2E/DX2                !
 ! A80   A(7,28,29)            121.1219         estimate D2E/DX2                !
 ! A81   A(7,28,80)            118.9884         estimate D2E/DX2                !
 ! A82   A(29,28,80)           119.8712         estimate D2E/DX2                !
 ! A83   A(28,29,30)           120.9628         estimate D2E/DX2                !
 ! A84   A(28,29,81)           120.1067         estimate D2E/DX2                !
 ! A85   A(30,29,81)           118.9259         estimate D2E/DX2                !
 ! A86   A(5,30,29)            118.374          estimate D2E/DX2                !
 ! A87   A(5,30,31)            119.4903         estimate D2E/DX2                !
 ! A88   A(29,30,31)           122.129          estimate D2E/DX2                !
 ! A89   A(2,31,30)            119.6878         estimate D2E/DX2                !
 ! A90   A(2,31,32)            119.3749         estimate D2E/DX2                !
 ! A91   A(30,31,32)           120.9225         estimate D2E/DX2                !
 ! A92   A(31,32,33)           119.5029         estimate D2E/DX2                !
 ! A93   A(31,32,62)           120.7892         estimate D2E/DX2                !
 ! A94   A(33,32,62)           119.6871         estimate D2E/DX2                !
 ! A95   A(32,33,34)           122.4382         estimate D2E/DX2                !
 ! A96   A(32,33,35)           120.4761         estimate D2E/DX2                !
 ! A97   A(34,33,35)           117.0811         estimate D2E/DX2                !
 ! A98   A(33,34,82)           109.61           estimate D2E/DX2                !
 ! A99   A(33,35,36)           120.4536         estimate D2E/DX2                !
 ! A100  A(33,35,83)           117.6756         estimate D2E/DX2                !
 ! A101  A(36,35,83)           121.8701         estimate D2E/DX2                !
 ! A102  A(35,36,37)           120.9393         estimate D2E/DX2                !
 ! A103  A(35,36,84)           120.284          estimate D2E/DX2                !
 ! A104  A(37,36,84)           118.7763         estimate D2E/DX2                !
 ! A105  A(36,37,38)           121.8642         estimate D2E/DX2                !
 ! A106  A(36,37,62)           118.9167         estimate D2E/DX2                !
 ! A107  A(38,37,62)           119.2187         estimate D2E/DX2                !
 ! A108  A(37,38,39)           121.5298         estimate D2E/DX2                !
 ! A109  A(37,38,85)           118.3625         estimate D2E/DX2                !
 ! A110  A(39,38,85)           120.0882         estimate D2E/DX2                !
 ! A111  A(38,39,40)           121.0657         estimate D2E/DX2                !
 ! A112  A(38,39,60)           118.7856         estimate D2E/DX2                !
 ! A113  A(40,39,60)           120.1474         estimate D2E/DX2                !
 ! A114  A(39,40,41)           120.7421         estimate D2E/DX2                !
 ! A115  A(39,40,59)           120.734          estimate D2E/DX2                !
 ! A116  A(41,40,59)           118.5238         estimate D2E/DX2                !
 ! A117  A(40,41,42)           120.7341         estimate D2E/DX2                !
 ! A118  A(40,41,86)           119.5991         estimate D2E/DX2                !
 ! A119  A(42,41,86)           119.6517         estimate D2E/DX2                !
 ! A120  A(41,42,43)           120.638          estimate D2E/DX2                !
 ! A121  A(41,42,87)           120.0869         estimate D2E/DX2                !
 ! A122  A(43,42,87)           119.2723         estimate D2E/DX2                !
 ! A123  A(42,43,44)           120.5733         estimate D2E/DX2                !
 ! A124  A(42,43,58)           118.733          estimate D2E/DX2                !
 ! A125  A(44,43,58)           120.6937         estimate D2E/DX2                !
 ! A126  A(43,44,45)           119.7568         estimate D2E/DX2                !
 ! A127  A(43,44,57)           119.7381         estimate D2E/DX2                !
 ! A128  A(45,44,57)           120.505          estimate D2E/DX2                !
 ! A129  A(44,45,46)           122.3312         estimate D2E/DX2                !
 ! A130  A(44,45,50)           119.5339         estimate D2E/DX2                !
 ! A131  A(46,45,50)           118.124          estimate D2E/DX2                !
 ! A132  A(45,46,47)           121.134          estimate D2E/DX2                !
 ! A133  A(45,46,88)           118.6696         estimate D2E/DX2                !
 ! A134  A(47,46,88)           120.1954         estimate D2E/DX2                !
 ! A135  A(46,47,48)           120.6173         estimate D2E/DX2                !
 ! A136  A(46,47,89)           120.2362         estimate D2E/DX2                !
 ! A137  A(48,47,89)           119.146          estimate D2E/DX2                !
 ! A138  A(47,48,49)           120.1117         estimate D2E/DX2                !
 ! A139  A(47,48,90)           119.2795         estimate D2E/DX2                !
 ! A140  A(49,48,90)           120.607          estimate D2E/DX2                !
 ! A141  A(48,49,50)           121.0442         estimate D2E/DX2                !
 ! A142  A(48,49,91)           120.8017         estimate D2E/DX2                !
 ! A143  A(50,49,91)           118.1539         estimate D2E/DX2                !
 ! A144  A(45,50,49)           118.9484         estimate D2E/DX2                !
 ! A145  A(45,50,51)           119.4906         estimate D2E/DX2                !
 ! A146  A(49,50,51)           121.5601         estimate D2E/DX2                !
 ! A147  A(50,51,52)           121.4393         estimate D2E/DX2                !
 ! A148  A(50,51,92)           119.28           estimate D2E/DX2                !
 ! A149  A(52,51,92)           119.2808         estimate D2E/DX2                !
 ! A150  A(51,52,53)           121.5659         estimate D2E/DX2                !
 ! A151  A(51,52,57)           119.4858         estimate D2E/DX2                !
 ! A152  A(53,52,57)           118.9476         estimate D2E/DX2                !
 ! A153  A(52,53,54)           121.0421         estimate D2E/DX2                !
 ! A154  A(52,53,93)           118.155          estimate D2E/DX2                !
 ! A155  A(54,53,93)           120.8026         estimate D2E/DX2                !
 ! A156  A(53,54,55)           120.114          estimate D2E/DX2                !
 ! A157  A(53,54,94)           120.606          estimate D2E/DX2                !
 ! A158  A(55,54,94)           119.2781         estimate D2E/DX2                !
 ! A159  A(54,55,56)           120.6157         estimate D2E/DX2                !
 ! A160  A(54,55,95)           119.1505         estimate D2E/DX2                !
 ! A161  A(56,55,95)           120.2333         estimate D2E/DX2                !
 ! A162  A(55,56,57)           121.1327         estimate D2E/DX2                !
 ! A163  A(55,56,96)           120.1925         estimate D2E/DX2                !
 ! A164  A(57,56,96)           118.6737         estimate D2E/DX2                !
 ! A165  A(44,57,52)           119.5395         estimate D2E/DX2                !
 ! A166  A(44,57,56)           122.3229         estimate D2E/DX2                !
 ! A167  A(52,57,56)           118.1267         estimate D2E/DX2                !
 ! A168  A(43,58,59)           120.6107         estimate D2E/DX2                !
 ! A169  A(43,58,97)           119.2805         estimate D2E/DX2                !
 ! A170  A(59,58,97)           120.1057         estimate D2E/DX2                !
 ! A171  A(40,59,58)           120.7601         estimate D2E/DX2                !
 ! A172  A(40,59,98)           119.5031         estimate D2E/DX2                !
 ! A173  A(58,59,98)           119.7242         estimate D2E/DX2                !
 ! A174  A(39,60,61)           121.1028         estimate D2E/DX2                !
 ! A175  A(39,60,99)           118.9841         estimate D2E/DX2                !
 ! A176  A(61,60,99)           119.9024         estimate D2E/DX2                !
 ! A177  A(60,61,62)           120.9417         estimate D2E/DX2                !
 ! A178  A(60,61,100)          120.1101         estimate D2E/DX2                !
 ! A179  A(62,61,100)          118.9464         estimate D2E/DX2                !
 ! A180  A(32,62,37)           119.5155         estimate D2E/DX2                !
 ! A181  A(32,62,61)           122.0716         estimate D2E/DX2                !
 ! A182  A(37,62,61)           118.4078         estimate D2E/DX2                !
 ! D1    D(63,1,2,3)          -177.8604         estimate D2E/DX2                !
 ! D2    D(63,1,2,31)            2.9564         estimate D2E/DX2                !
 ! D3    D(1,2,3,4)           -179.3759         estimate D2E/DX2                !
 ! D4    D(1,2,3,64)             0.395          estimate D2E/DX2                !
 ! D5    D(31,2,3,4)            -0.1757         estimate D2E/DX2                !
 ! D6    D(31,2,3,64)          179.5952         estimate D2E/DX2                !
 ! D7    D(1,2,31,30)         -179.8627         estimate D2E/DX2                !
 ! D8    D(1,2,31,32)            1.5252         estimate D2E/DX2                !
 ! D9    D(3,2,31,30)            0.9814         estimate D2E/DX2                !
 ! D10   D(3,2,31,32)         -177.6306         estimate D2E/DX2                !
 ! D11   D(2,3,4,5)             -0.6317         estimate D2E/DX2                !
 ! D12   D(2,3,4,65)           179.7457         estimate D2E/DX2                !
 ! D13   D(64,3,4,5)           179.6072         estimate D2E/DX2                !
 ! D14   D(64,3,4,65)           -0.0154         estimate D2E/DX2                !
 ! D15   D(3,4,5,6)           -179.1193         estimate D2E/DX2                !
 ! D16   D(3,4,5,30)             0.6094         estimate D2E/DX2                !
 ! D17   D(65,4,5,6)             0.5089         estimate D2E/DX2                !
 ! D18   D(65,4,5,30)         -179.7624         estimate D2E/DX2                !
 ! D19   D(4,5,6,7)            179.4663         estimate D2E/DX2                !
 ! D20   D(4,5,6,66)            -1.5689         estimate D2E/DX2                !
 ! D21   D(30,5,6,7)            -0.2617         estimate D2E/DX2                !
 ! D22   D(30,5,6,66)          178.7031         estimate D2E/DX2                !
 ! D23   D(4,5,30,29)         -178.8774         estimate D2E/DX2                !
 ! D24   D(4,5,30,31)            0.1998         estimate D2E/DX2                !
 ! D25   D(6,5,30,29)            0.8584         estimate D2E/DX2                !
 ! D26   D(6,5,30,31)          179.9357         estimate D2E/DX2                !
 ! D27   D(5,6,7,8)           -179.9372         estimate D2E/DX2                !
 ! D28   D(5,6,7,28)            -0.3063         estimate D2E/DX2                !
 ! D29   D(66,6,7,8)             1.1165         estimate D2E/DX2                !
 ! D30   D(66,6,7,28)         -179.2526         estimate D2E/DX2                !
 ! D31   D(6,7,8,9)           -139.5158         estimate D2E/DX2                !
 ! D32   D(6,7,8,27)            40.3548         estimate D2E/DX2                !
 ! D33   D(28,7,8,9)            40.8589         estimate D2E/DX2                !
 ! D34   D(28,7,8,27)         -139.2705         estimate D2E/DX2                !
 ! D35   D(6,7,28,29)            0.2655         estimate D2E/DX2                !
 ! D36   D(6,7,28,80)         -178.1676         estimate D2E/DX2                !
 ! D37   D(8,7,28,29)          179.8993         estimate D2E/DX2                !
 ! D38   D(8,7,28,80)            1.4662         estimate D2E/DX2                !
 ! D39   D(7,8,9,10)           179.4638         estimate D2E/DX2                !
 ! D40   D(7,8,9,67)             0.8777         estimate D2E/DX2                !
 ! D41   D(27,8,9,10)           -0.4096         estimate D2E/DX2                !
 ! D42   D(27,8,9,67)         -178.9956         estimate D2E/DX2                !
 ! D43   D(7,8,27,26)         -179.9949         estimate D2E/DX2                !
 ! D44   D(7,8,27,79)            1.3506         estimate D2E/DX2                !
 ! D45   D(9,8,27,26)           -0.1213         estimate D2E/DX2                !
 ! D46   D(9,8,27,79)         -178.7758         estimate D2E/DX2                !
 ! D47   D(8,9,10,11)            0.5772         estimate D2E/DX2                !
 ! D48   D(8,9,10,68)         -179.8033         estimate D2E/DX2                !
 ! D49   D(67,9,10,11)         179.1637         estimate D2E/DX2                !
 ! D50   D(67,9,10,68)          -1.2168         estimate D2E/DX2                !
 ! D51   D(9,10,11,12)         179.8326         estimate D2E/DX2                !
 ! D52   D(9,10,11,26)          -0.2057         estimate D2E/DX2                !
 ! D53   D(68,10,11,12)          0.2101         estimate D2E/DX2                !
 ! D54   D(68,10,11,26)       -179.8282         estimate D2E/DX2                !
 ! D55   D(10,11,12,13)       -112.0335         estimate D2E/DX2                !
 ! D56   D(10,11,12,25)         68.1971         estimate D2E/DX2                !
 ! D57   D(26,11,12,13)         68.0055         estimate D2E/DX2                !
 ! D58   D(26,11,12,25)       -111.7639         estimate D2E/DX2                !
 ! D59   D(10,11,26,27)         -0.3243         estimate D2E/DX2                !
 ! D60   D(10,11,26,78)       -179.9552         estimate D2E/DX2                !
 ! D61   D(12,11,26,27)        179.6375         estimate D2E/DX2                !
 ! D62   D(12,11,26,78)          0.0066         estimate D2E/DX2                !
 ! D63   D(11,12,13,14)          1.7687         estimate D2E/DX2                !
 ! D64   D(11,12,13,18)       -179.4019         estimate D2E/DX2                !
 ! D65   D(25,12,13,14)       -178.4638         estimate D2E/DX2                !
 ! D66   D(25,12,13,18)          0.3657         estimate D2E/DX2                !
 ! D67   D(11,12,25,20)       -179.9452         estimate D2E/DX2                !
 ! D68   D(11,12,25,24)          1.2887         estimate D2E/DX2                !
 ! D69   D(13,12,25,20)          0.2872         estimate D2E/DX2                !
 ! D70   D(13,12,25,24)       -178.4788         estimate D2E/DX2                !
 ! D71   D(12,13,14,15)       -179.7845         estimate D2E/DX2                !
 ! D72   D(12,13,14,69)          0.5564         estimate D2E/DX2                !
 ! D73   D(18,13,14,15)          1.3704         estimate D2E/DX2                !
 ! D74   D(18,13,14,69)       -178.2887         estimate D2E/DX2                !
 ! D75   D(12,13,18,17)        179.6067         estimate D2E/DX2                !
 ! D76   D(12,13,18,19)         -0.6662         estimate D2E/DX2                !
 ! D77   D(14,13,18,17)         -1.5151         estimate D2E/DX2                !
 ! D78   D(14,13,18,19)        178.2119         estimate D2E/DX2                !
 ! D79   D(13,14,15,16)         -0.279          estimate D2E/DX2                !
 ! D80   D(13,14,15,70)        179.9658         estimate D2E/DX2                !
 ! D81   D(69,14,15,16)        179.375          estimate D2E/DX2                !
 ! D82   D(69,14,15,70)         -0.3803         estimate D2E/DX2                !
 ! D83   D(14,15,16,17)         -0.688          estimate D2E/DX2                !
 ! D84   D(14,15,16,71)        179.7773         estimate D2E/DX2                !
 ! D85   D(70,15,16,17)        179.0699         estimate D2E/DX2                !
 ! D86   D(70,15,16,71)         -0.4648         estimate D2E/DX2                !
 ! D87   D(15,16,17,18)          0.5089         estimate D2E/DX2                !
 ! D88   D(15,16,17,72)       -179.3248         estimate D2E/DX2                !
 ! D89   D(71,16,17,18)       -179.9627         estimate D2E/DX2                !
 ! D90   D(71,16,17,72)          0.2036         estimate D2E/DX2                !
 ! D91   D(16,17,18,13)          0.6048         estimate D2E/DX2                !
 ! D92   D(16,17,18,19)       -179.1163         estimate D2E/DX2                !
 ! D93   D(72,17,18,13)       -179.5573         estimate D2E/DX2                !
 ! D94   D(72,17,18,19)          0.7216         estimate D2E/DX2                !
 ! D95   D(13,18,19,20)          0.3068         estimate D2E/DX2                !
 ! D96   D(13,18,19,73)       -179.7173         estimate D2E/DX2                !
 ! D97   D(17,18,19,20)       -179.9736         estimate D2E/DX2                !
 ! D98   D(17,18,19,73)          0.0023         estimate D2E/DX2                !
 ! D99   D(18,19,20,21)        179.9819         estimate D2E/DX2                !
 ! D100  D(18,19,20,25)          0.3486         estimate D2E/DX2                !
 ! D101  D(73,19,20,21)          0.0059         estimate D2E/DX2                !
 ! D102  D(73,19,20,25)       -179.6274         estimate D2E/DX2                !
 ! D103  D(19,20,21,22)       -179.05           estimate D2E/DX2                !
 ! D104  D(19,20,21,74)          0.7777         estimate D2E/DX2                !
 ! D105  D(25,20,21,22)          0.5852         estimate D2E/DX2                !
 ! D106  D(25,20,21,74)       -179.5871         estimate D2E/DX2                !
 ! D107  D(19,20,25,12)         -0.6477         estimate D2E/DX2                !
 ! D108  D(19,20,25,24)        178.1697         estimate D2E/DX2                !
 ! D109  D(21,20,25,12)        179.7093         estimate D2E/DX2                !
 ! D110  D(21,20,25,24)         -1.4732         estimate D2E/DX2                !
 ! D111  D(20,21,22,23)          0.4926         estimate D2E/DX2                !
 ! D112  D(20,21,22,75)       -179.9766         estimate D2E/DX2                !
 ! D113  D(74,21,22,23)       -179.3305         estimate D2E/DX2                !
 ! D114  D(74,21,22,75)          0.2003         estimate D2E/DX2                !
 ! D115  D(21,22,23,24)         -0.6586         estimate D2E/DX2                !
 ! D116  D(21,22,23,76)        179.0975         estimate D2E/DX2                !
 ! D117  D(75,22,23,24)        179.8044         estimate D2E/DX2                !
 ! D118  D(75,22,23,76)         -0.4396         estimate D2E/DX2                !
 ! D119  D(22,23,24,25)         -0.2847         estimate D2E/DX2                !
 ! D120  D(22,23,24,77)        179.3758         estimate D2E/DX2                !
 ! D121  D(76,23,24,25)        179.9619         estimate D2E/DX2                !
 ! D122  D(76,23,24,77)         -0.3775         estimate D2E/DX2                !
 ! D123  D(23,24,25,12)       -179.8769         estimate D2E/DX2                !
 ! D124  D(23,24,25,20)          1.3406         estimate D2E/DX2                !
 ! D125  D(77,24,25,12)          0.4575         estimate D2E/DX2                !
 ! D126  D(77,24,25,20)       -178.3249         estimate D2E/DX2                !
 ! D127  D(11,26,27,8)           0.4903         estimate D2E/DX2                !
 ! D128  D(11,26,27,79)        179.1428         estimate D2E/DX2                !
 ! D129  D(78,26,27,8)        -179.8819         estimate D2E/DX2                !
 ! D130  D(78,26,27,79)         -1.2294         estimate D2E/DX2                !
 ! D131  D(7,28,29,30)           0.3545         estimate D2E/DX2                !
 ! D132  D(7,28,29,81)        -178.8533         estimate D2E/DX2                !
 ! D133  D(80,28,29,30)        178.774          estimate D2E/DX2                !
 ! D134  D(80,28,29,81)         -0.4338         estimate D2E/DX2                !
 ! D135  D(28,29,30,5)          -0.9126         estimate D2E/DX2                !
 ! D136  D(28,29,30,31)       -179.9641         estimate D2E/DX2                !
 ! D137  D(81,29,30,5)         178.3045         estimate D2E/DX2                !
 ! D138  D(81,29,30,31)         -0.7471         estimate D2E/DX2                !
 ! D139  D(5,30,31,2)           -0.9846         estimate D2E/DX2                !
 ! D140  D(5,30,31,32)         177.6055         estimate D2E/DX2                !
 ! D141  D(29,30,31,2)         178.0567         estimate D2E/DX2                !
 ! D142  D(29,30,31,32)         -3.3532         estimate D2E/DX2                !
 ! D143  D(2,31,32,33)         105.4888         estimate D2E/DX2                !
 ! D144  D(2,31,32,62)         -72.8511         estimate D2E/DX2                !
 ! D145  D(30,31,32,33)        -73.1057         estimate D2E/DX2                !
 ! D146  D(30,31,32,62)        108.5544         estimate D2E/DX2                !
 ! D147  D(31,32,33,34)          1.759          estimate D2E/DX2                !
 ! D148  D(31,32,33,35)       -177.4339         estimate D2E/DX2                !
 ! D149  D(62,32,33,34)       -179.8827         estimate D2E/DX2                !
 ! D150  D(62,32,33,35)          0.9244         estimate D2E/DX2                !
 ! D151  D(31,32,62,37)        177.0808         estimate D2E/DX2                !
 ! D152  D(31,32,62,61)         -3.7455         estimate D2E/DX2                !
 ! D153  D(33,32,62,37)         -1.256          estimate D2E/DX2                !
 ! D154  D(33,32,62,61)        177.9177         estimate D2E/DX2                !
 ! D155  D(32,33,34,82)          2.6051         estimate D2E/DX2                !
 ! D156  D(35,33,34,82)       -178.1761         estimate D2E/DX2                !
 ! D157  D(32,33,35,36)          0.0053         estimate D2E/DX2                !
 ! D158  D(32,33,35,83)        179.7046         estimate D2E/DX2                !
 ! D159  D(34,33,35,36)       -179.2297         estimate D2E/DX2                !
 ! D160  D(34,33,35,83)          0.4697         estimate D2E/DX2                !
 ! D161  D(33,35,36,37)         -0.6008         estimate D2E/DX2                !
 ! D162  D(33,35,36,84)        179.6412         estimate D2E/DX2                !
 ! D163  D(83,35,36,37)        179.7127         estimate D2E/DX2                !
 ! D164  D(83,35,36,84)         -0.0453         estimate D2E/DX2                !
 ! D165  D(35,36,37,38)       -179.5417         estimate D2E/DX2                !
 ! D166  D(35,36,37,62)          0.2521         estimate D2E/DX2                !
 ! D167  D(84,36,37,38)          0.2199         estimate D2E/DX2                !
 ! D168  D(84,36,37,62)       -179.9864         estimate D2E/DX2                !
 ! D169  D(36,37,38,39)        178.8327         estimate D2E/DX2                !
 ! D170  D(36,37,38,85)          0.4383         estimate D2E/DX2                !
 ! D171  D(62,37,38,39)         -0.9604         estimate D2E/DX2                !
 ! D172  D(62,37,38,85)       -179.3548         estimate D2E/DX2                !
 ! D173  D(36,37,62,32)          0.6738         estimate D2E/DX2                !
 ! D174  D(36,37,62,61)       -178.5302         estimate D2E/DX2                !
 ! D175  D(38,37,62,32)       -179.527          estimate D2E/DX2                !
 ! D176  D(38,37,62,61)          1.269          estimate D2E/DX2                !
 ! D177  D(37,38,39,40)       -179.6374         estimate D2E/DX2                !
 ! D178  D(37,38,39,60)         -0.0597         estimate D2E/DX2                !
 ! D179  D(85,38,39,40)         -1.2703         estimate D2E/DX2                !
 ! D180  D(85,38,39,60)        178.3074         estimate D2E/DX2                !
 ! D181  D(38,39,40,41)        137.8235         estimate D2E/DX2                !
 ! D182  D(38,39,40,59)        -42.0346         estimate D2E/DX2                !
 ! D183  D(60,39,40,41)        -41.7485         estimate D2E/DX2                !
 ! D184  D(60,39,40,59)        138.3934         estimate D2E/DX2                !
 ! D185  D(38,39,60,61)          0.7733         estimate D2E/DX2                !
 ! D186  D(38,39,60,99)        179.5866         estimate D2E/DX2                !
 ! D187  D(40,39,60,61)       -179.645          estimate D2E/DX2                !
 ! D188  D(40,39,60,99)         -0.8317         estimate D2E/DX2                !
 ! D189  D(39,40,41,42)       -179.7467         estimate D2E/DX2                !
 ! D190  D(39,40,41,86)         -1.1621         estimate D2E/DX2                !
 ! D191  D(59,40,41,42)          0.1144         estimate D2E/DX2                !
 ! D192  D(59,40,41,86)        178.699          estimate D2E/DX2                !
 ! D193  D(39,40,59,58)        179.9011         estimate D2E/DX2                !
 ! D194  D(39,40,59,98)         -1.3949         estimate D2E/DX2                !
 ! D195  D(41,40,59,58)          0.04           estimate D2E/DX2                !
 ! D196  D(41,40,59,98)        178.7439         estimate D2E/DX2                !
 ! D197  D(40,41,42,43)         -0.1811         estimate D2E/DX2                !
 ! D198  D(40,41,42,87)        179.2082         estimate D2E/DX2                !
 ! D199  D(86,41,42,43)       -178.765          estimate D2E/DX2                !
 ! D200  D(86,41,42,87)          0.6243         estimate D2E/DX2                !
 ! D201  D(41,42,43,44)       -179.9317         estimate D2E/DX2                !
 ! D202  D(41,42,43,58)          0.0906         estimate D2E/DX2                !
 ! D203  D(87,42,43,44)          0.6741         estimate D2E/DX2                !
 ! D204  D(87,42,43,58)       -179.3036         estimate D2E/DX2                !
 ! D205  D(42,43,44,45)       -112.4686         estimate D2E/DX2                !
 ! D206  D(42,43,44,57)         67.4227         estimate D2E/DX2                !
 ! D207  D(58,43,44,45)         67.5086         estimate D2E/DX2                !
 ! D208  D(58,43,44,57)       -112.6001         estimate D2E/DX2                !
 ! D209  D(42,43,58,59)          0.0635         estimate D2E/DX2                !
 ! D210  D(42,43,58,97)       -179.2971         estimate D2E/DX2                !
 ! D211  D(44,43,58,59)       -179.9141         estimate D2E/DX2                !
 ! D212  D(44,43,58,97)          0.7252         estimate D2E/DX2                !
 ! D213  D(43,44,45,46)          1.4071         estimate D2E/DX2                !
 ! D214  D(43,44,45,50)       -179.8166         estimate D2E/DX2                !
 ! D215  D(57,44,45,46)       -178.4834         estimate D2E/DX2                !
 ! D216  D(57,44,45,50)          0.293          estimate D2E/DX2                !
 ! D217  D(43,44,57,52)       -179.4635         estimate D2E/DX2                !
 ! D218  D(43,44,57,56)          1.7565         estimate D2E/DX2                !
 ! D219  D(45,44,57,52)          0.427          estimate D2E/DX2                !
 ! D220  D(45,44,57,56)       -178.3531         estimate D2E/DX2                !
 ! D221  D(44,45,46,47)       -179.7746         estimate D2E/DX2                !
 ! D222  D(44,45,46,88)          0.5862         estimate D2E/DX2                !
 ! D223  D(50,45,46,47)          1.4326         estimate D2E/DX2                !
 ! D224  D(50,45,46,88)       -178.2066         estimate D2E/DX2                !
 ! D225  D(44,45,50,49)        179.6267         estimate D2E/DX2                !
 ! D226  D(44,45,50,51)         -0.7122         estimate D2E/DX2                !
 ! D227  D(46,45,50,49)         -1.5457         estimate D2E/DX2                !
 ! D228  D(46,45,50,51)        178.1154         estimate D2E/DX2                !
 ! D229  D(45,46,47,48)         -0.3244         estimate D2E/DX2                !
 ! D230  D(45,46,47,89)        179.9439         estimate D2E/DX2                !
 ! D231  D(88,46,47,48)        179.3094         estimate D2E/DX2                !
 ! D232  D(88,46,47,89)         -0.4223         estimate D2E/DX2                !
 ! D233  D(46,47,48,49)         -0.6931         estimate D2E/DX2                !
 ! D234  D(46,47,48,90)        179.7929         estimate D2E/DX2                !
 ! D235  D(89,47,48,49)        179.0415         estimate D2E/DX2                !
 ! D236  D(89,47,48,90)         -0.4725         estimate D2E/DX2                !
 ! D237  D(47,48,49,50)          0.5455         estimate D2E/DX2                !
 ! D238  D(47,48,49,91)       -179.2904         estimate D2E/DX2                !
 ! D239  D(90,48,49,50)       -179.9471         estimate D2E/DX2                !
 ! D240  D(90,48,49,91)          0.2171         estimate D2E/DX2                !
 ! D241  D(48,49,50,45)          0.5869         estimate D2E/DX2                !
 ! D242  D(48,49,50,51)       -179.0669         estimate D2E/DX2                !
 ! D243  D(91,49,50,45)       -179.573          estimate D2E/DX2                !
 ! D244  D(91,49,50,51)          0.7732         estimate D2E/DX2                !
 ! D245  D(45,50,51,52)          0.4043         estimate D2E/DX2                !
 ! D246  D(45,50,51,92)       -179.5988         estimate D2E/DX2                !
 ! D247  D(49,50,51,52)       -179.9438         estimate D2E/DX2                !
 ! D248  D(49,50,51,92)          0.0531         estimate D2E/DX2                !
 ! D249  D(50,51,52,53)        179.9962         estimate D2E/DX2                !
 ! D250  D(50,51,52,57)          0.3185         estimate D2E/DX2                !
 ! D251  D(92,51,52,53)         -0.0007         estimate D2E/DX2                !
 ! D252  D(92,51,52,57)       -179.6784         estimate D2E/DX2                !
 ! D253  D(51,52,53,54)       -179.0399         estimate D2E/DX2                !
 ! D254  D(51,52,53,93)          0.7832         estimate D2E/DX2                !
 ! D255  D(57,52,53,54)          0.6394         estimate D2E/DX2                !
 ! D256  D(57,52,53,93)       -179.5375         estimate D2E/DX2                !
 ! D257  D(51,52,57,44)         -0.7368         estimate D2E/DX2                !
 ! D258  D(51,52,57,56)        178.0943         estimate D2E/DX2                !
 ! D259  D(53,52,57,44)        179.577          estimate D2E/DX2                !
 ! D260  D(53,52,57,56)         -1.5919         estimate D2E/DX2                !
 ! D261  D(52,53,54,55)          0.5326         estimate D2E/DX2                !
 ! D262  D(52,53,54,94)       -179.967          estimate D2E/DX2                !
 ! D263  D(93,53,54,55)       -179.2858         estimate D2E/DX2                !
 ! D264  D(93,53,54,94)          0.2146         estimate D2E/DX2                !
 ! D265  D(53,54,55,56)         -0.7269         estimate D2E/DX2                !
 ! D266  D(53,54,55,95)        179.016          estimate D2E/DX2                !
 ! D267  D(94,54,55,56)        179.7661         estimate D2E/DX2                !
 ! D268  D(94,54,55,95)         -0.491          estimate D2E/DX2                !
 ! D269  D(54,55,56,57)         -0.2852         estimate D2E/DX2                !
 ! D270  D(54,55,56,96)        179.3302         estimate D2E/DX2                !
 ! D271  D(95,55,56,57)        179.9748         estimate D2E/DX2                !
 ! D272  D(95,55,56,96)         -0.4099         estimate D2E/DX2                !
 ! D273  D(55,56,57,44)       -179.7696         estimate D2E/DX2                !
 ! D274  D(55,56,57,52)          1.4339         estimate D2E/DX2                !
 ! D275  D(96,56,57,44)          0.6094         estimate D2E/DX2                !
 ! D276  D(96,56,57,52)       -178.1872         estimate D2E/DX2                !
 ! D277  D(43,58,59,40)         -0.1293         estimate D2E/DX2                !
 ! D278  D(43,58,59,98)       -178.8304         estimate D2E/DX2                !
 ! D279  D(97,58,59,40)        179.2261         estimate D2E/DX2                !
 ! D280  D(97,58,59,98)          0.525          estimate D2E/DX2                !
 ! D281  D(39,60,61,62)         -0.4398         estimate D2E/DX2                !
 ! D282  D(39,60,61,100)      -179.941          estimate D2E/DX2                !
 ! D283  D(99,60,61,62)       -179.2423         estimate D2E/DX2                !
 ! D284  D(99,60,61,100)         1.2565         estimate D2E/DX2                !
 ! D285  D(60,61,62,32)       -179.7715         estimate D2E/DX2                !
 ! D286  D(60,61,62,37)         -0.589          estimate D2E/DX2                !
 ! D287  D(100,61,62,32)        -0.2646         estimate D2E/DX2                !
 ! D288  D(100,61,62,37)       178.9179         estimate D2E/DX2                !
 --------------------------------------------------------------------------------
 Trust Radius=3.00D-01 FncErr=1.00D-07 GrdErr=1.00D-06 EigMax=2.50D+02 EigMin=1.00D-04
 Number of steps in this run=    591 maximum allowed number of steps=    600.
 GradGradGradGradGradGradGradGradGradGradGradGradGradGradGradGradGradGrad

 Leave Link  103 at Mon Mar 24 12:26:49 2025, MaxMem= 13421772800 cpu:               0.8 elap:               0.0
 (Enter /public/software/apps/Gaussian/g16/l202.exe)
 Symmetry turned off by external request.
 Stoichiometry    C60H38O2
 Framework group  C1[X(C60H38O2)]
 Deg. of freedom   294
 Full point group                 C1      NOp   1
                          Input orientation:                          
 ---------------------------------------------------------------------
 Center     Atomic      Atomic             Coordinates (Angstroms)
 Number     Number       Type             X           Y           Z
 ---------------------------------------------------------------------
      1          8           0       -0.980810   -5.032153   -1.096470
      2          6           0        0.176103   -4.321956   -1.064861
      3          6           0        1.087781   -4.535403   -2.117269
      4          6           0        2.276107   -3.868378   -2.147454
      5          6           0        2.614271   -2.942557   -1.137080
      6          6           0        3.827024   -2.230726   -1.159498
      7          6           0        4.146748   -1.321793   -0.178133
      8          6           0        5.416411   -0.583971   -0.214347
      9          6           0        6.147581   -0.362289    0.950780
     10          6           0        7.346366    0.322040    0.912779
     11          6           0        7.843563    0.815349   -0.289906
     12          6           0        9.123691    1.550869   -0.333013
     13          6           0        9.129306    2.921356   -0.635118
     14          6           0        7.934724    3.651593   -0.869625
     15          6           0        7.968601    4.980019   -1.165209
     16          6           0        9.197372    5.667975   -1.240311
     17          6           0       10.363837    5.009646   -1.003149
     18          6           0       10.372197    3.626437   -0.688329
     19          6           0       11.556957    2.946318   -0.426050
     20          6           0       11.561928    1.589783   -0.118158
     21          6           0       12.768538    0.893398    0.149408
     22          6           0       12.762768   -0.437450    0.430611
     23          6           0       11.546728   -1.151372    0.449937
     24          6           0       10.367234   -0.518549    0.201872
     25          6           0       10.325341    0.872889   -0.076351
     26          6           0        7.111361    0.601885   -1.454329
     27          6           0        5.918413   -0.091714   -1.417459
     28          6           0        3.225682   -1.101253    0.868309
     29          6           0        2.040328   -1.775289    0.918255
     30          6           0        1.700358   -2.721962   -0.073315
     31          6           0        0.475297   -3.435802   -0.046087
     32          6           0       -0.481119   -3.269026    1.079564
     33          6           0       -0.187312   -3.825432    2.310913
     34          8           0        0.968388   -4.497348    2.549521
     35          6           0       -1.103219   -3.726251    3.376604
     36          6           0       -2.291773   -3.080394    3.208256
     37          6           0       -2.626666   -2.487287    1.971948
     38          6           0       -3.843286   -1.808081    1.779565
     39          6           0       -4.152328   -1.212421    0.579338
     40          6           0       -5.422696   -0.498845    0.392083
     41          6           0       -5.462984    0.717736   -0.285663
     42          6           0       -6.656235    1.390782   -0.457035
     43          6           0       -7.844978    0.865188    0.041067
     44          6           0       -9.120785    1.585607   -0.144370
     45          6           0       -9.780506    2.131488    0.967628
     46          6           0       -9.251608    2.044851    2.282170
     47          6           0       -9.914587    2.579309    3.344254
     48          6           0      -11.146329    3.241577    3.162701
     49          6           0      -11.677820    3.364597    1.916665
     50          6           0      -11.017536    2.824680    0.783094
     51          6           0      -11.541692    2.960823   -0.498193
     52          6           0      -10.892696    2.429384   -1.607858
     53          6           0      -11.424848    2.566566   -2.915702
     54          6           0      -10.791175    2.025951   -3.991084
     55          6           0       -9.591336    1.305668   -3.816940
     56          6           0       -9.046486    1.155307   -2.578498
     57          6           0       -9.663058    1.721066   -1.431761
     58          6           0       -7.807530   -0.351084    0.716979
     59          6           0       -6.613582   -1.022271    0.890895
     60          6           0       -3.220015   -1.288927   -0.477199
     61          6           0       -2.037463   -1.952702   -0.326997
     62          6           0       -1.705310   -2.576983    0.895578
     63          1           0       -1.538134   -4.779156   -0.347191
     64          1           0        0.811033   -5.241205   -2.884168
     65          1           0        2.975093   -4.036870   -2.953260
     66          1           0        4.520910   -2.426018   -1.964737
     67          1           0        5.783867   -0.749844    1.891481
     68          1           0        7.906154    0.485062    1.822851
     69          1           0        6.989285    3.133625   -0.803930
     70          1           0        7.050608    5.521575   -1.341600
     71          1           0        9.199278    6.721293   -1.480048
     72          1           0       11.311055    5.528457   -1.047070
     73          1           0       12.494593    3.483790   -0.462684
     74          1           0       13.695177    1.449145    0.121047
     75          1           0       13.685797   -0.960639    0.633665
     76          1           0       11.561775   -2.210840    0.660652
     77          1           0        9.440921   -1.073846    0.208478
     78          1           0        7.489607    0.980519   -2.393334
     79          1           0        5.355639   -0.236561   -2.328230
     80          1           0        3.459095   -0.366733    1.624916
     81          1           0        1.338993   -1.580132    1.716957
     82          1           0        1.526126   -4.474889    1.759298
     83          1           0       -0.830135   -4.180648    4.315677
     84          1           0       -2.994405   -3.010992    4.025437
     85          1           0       -4.529882   -1.739019    2.611417
     86          1           0       -4.546771    1.149958   -0.661293
     87          1           0       -6.673528    2.340130   -0.973368
     88          1           0       -8.303323    1.548851    2.427485
     89          1           0       -9.499134    2.504205    4.338681
     90          1           0      -11.655598    3.654719    4.021127
     91          1           0      -12.615496    3.879908    1.763293
     92          1           0      -12.474071    3.491336   -0.634577
     93          1           0      -12.351001    3.110919   -3.034980
     94          1           0      -11.202436    2.135156   -4.983994
     95          1           0       -9.109583    0.869249   -4.679813
     96          1           0       -8.133112    0.593174   -2.451562
     97          1           0       -8.727001   -0.772929    1.097433
     98          1           0       -6.603758   -1.974569    1.401219
     99          1           0       -3.462334   -0.828015   -1.423397
    100          1           0       -1.334693   -2.000444   -1.146510
 ---------------------------------------------------------------------
 Rotational constants (GHZ):           0.0650145           0.0102964           0.0095474
 Leave Link  202 at Mon Mar 24 12:26:49 2025, MaxMem= 13421772800 cpu:               0.1 elap:               0.0
 (Enter /public/software/apps/Gaussian/g16/l301.exe)
 Standard basis: def2SVPP (5D, 7F)
 Ernie: Thresh=  0.10000D-02 Tol=  0.10000D-05 Strict=F.
   944 basis functions,  1702 primitive gaussians,  1006 cartesian basis functions
   207 alpha electrons      207 beta electrons
       nuclear repulsion energy      7095.4092791975 Hartrees.
 IExCor=  402 DFT=T Ex+Corr=B3LYP ExCW=0 ScaHFX=  0.200000
 ScaDFX=  0.800000  0.720000  1.000000  0.810000 ScalE2=  1.000000  1.000000
 IRadAn=      5 IRanWt=     -1 IRanGd=            0 ICorTp=0 IEmpDi=141
 NAtoms=  100 NActive=  100 NUniq=  100 SFac= 1.00D+00 NAtFMM=   60 NAOKFM=T Big=T
 Integral buffers will be    131072 words long.
 Raffenetti 2 integral format.
 Two-electron integral symmetry is turned off.
 R6Disp:  Grimme-D3(BJ) Dispersion energy=       -0.2803367995 Hartrees.
 Nuclear repulsion after empirical dispersion term =     7095.1289423981 Hartrees.
 Leave Link  301 at Mon Mar 24 12:26:49 2025, MaxMem= 13421772800 cpu:               1.6 elap:               0.1
 (Enter /public/software/apps/Gaussian/g16/l302.exe)
 NPDir=0 NMtPBC=     1 NCelOv=     1 NCel=       1 NClECP=     1 NCelD=      1
         NCelK=      1 NCelE2=     1 NClLst=     1 CellRange=     0.0.
 One-electron integrals computed using PRISM.
   1 Symmetry operations used in ECPInt.
 ECPInt:  NShTT=  100576 NPrTT=  402776 LenC2=   52361 LenP2D=  127164.
 LDataN:  DoStor=T MaxTD1= 4 Len=   56
 NBasis=   944 RedAO= T EigKep=  1.75D-04  NBF=   944
 NBsUse=   944 1.00D-06 EigRej= -1.00D+00 NBFU=   944
 Precomputing XC quadrature grid using
 IXCGrd= 4 IRadAn=           5 IRanWt=          -1 IRanGd=           0 AccXCQ= 0.00D+00.
 Generated NRdTot=       0 NPtTot=           0 NUsed=           0 NTot=          32
 NSgBfM=   762   762   762   762   762 MxSgAt=   100 MxSgA2=   100.
 Leave Link  302 at Mon Mar 24 12:26:51 2025, MaxMem= 13421772800 cpu:              49.2 elap:               1.6
 (Enter /public/software/apps/Gaussian/g16/l303.exe)
 DipDrv:  MaxL=1.
 Leave Link  303 at Mon Mar 24 12:26:51 2025, MaxMem= 13421772800 cpu:               5.8 elap:               0.2
 (Enter /public/software/apps/Gaussian/g16/l401.exe)
[...]
 0012,0.00000123,-0.00000247,-0.00000354,-0.00000397,0.00000159,-0.0000
 0031,0.00000207,0.00000039,0.00000246,-0.00000287,0.00000052,-0.000001
 57,-0.00000007,-0.00000119,0.00000151,0.00000338,-0.00000313,-0.000001
 08,-0.00000352,-0.00000044,-0.00000486,-0.00000112,0.00000052,0.000009
 11,-0.00001188,-0.00000640,-0.00000975,0.00000504,0.00000256,0.0000116
 3,0.00010933,-0.00022523,0.00022362,-0.00066977,0.00017149,0.00009925,
 0.03374595,-0.09258287,0.10822648,0.00350332,-0.00226721,0.01378979,0.
 00529331,0.00559577,0.00125144,0.00005954,0.00000431,0.00006597,0.0000
 0796,-0.00001258,-0.00000379,0.00000327,-0.00000070,0.00000019,0.00000
 319,-0.00000087,0.00000005,-0.00000082,0.00000100,-0.00000089,-0.00000
 027,0.00000033,0.00000028,0.00000003,0.00000032,0.00000033,0.00000002,
 -0.00000050,0.00000047,-0.00000015,0.00000019,0.00000017,0.00000033,0.
 00000008,0.00000015,0.00000025,0.00000018,0.00000014,0.00000023,0.0000
 0023,0.00000012,0.00000037,-0.00000014,0.00000021,-0.00000009,-0.00000
 025,0.00000023,-0.00000033,0.00000062,0.00000022,0.00000026,0.00000066
 ,-0.00000029,-0.00000078,0.00000023,0.00000085,-0.00000303,0.00000072,
 -0.00000123,-0.00000869,-0.00000412,-0.00000684,-0.00001681,0.00001562
 ,0.00002494,0.00000511,0.00000686,0.00001161,0.00001508,0.00002790,0.0
 0002469,0.00001137,0.00016321,-0.00006177,0.00110528,-0.00098245,-0.00
 037538,0.00000051,-0.00001626,-0.00002807,0.00000007,-0.00000007,-0.00
 000299,0.00000082,-0.00000024,-0.00000125,-0.00000040,0.00000102,0.000
 00038,-0.00000080,0.00000110,-0.00000017,-0.00000048,0.00000077,-0.000
 00067,-0.00000023,0.00000036,-0.00000097,-0.00000086,0.00000112,-0.000
 00148,-0.00000191,0.00000079,-0.00000720,0.00000090,0.00001485,0.00001
 048,-0.00002350,0.00000957,0.00000527,-0.00003518,-0.00003772,-0.00001
 628,-0.04261809,0.08983542,-0.00001926,0.00002439,0.00002643,0.0000012
 8,-0.00003474,-0.00000396,-0.00000355,0.00000171,0.00000048,-0.0000039
 2,0.00000257,0.00000623,-0.00000633,-0.00000636,0.00000933,0.00000168,
 -0.00000198,0.00000274,-0.00000078,-0.00000102,0.00000040,0.00001448,0
 .00001007,0.00000157,-0.00000624,-0.00000348,-0.00000130,-0.00000019,-
 0.00000157,0.00000179,-0.00000097,-0.00000050,0.00000003,0.00000788,0.
 00000395,0.00000032,-0.00000459,0.00000048,-0.00000057,0.00000121,-0.0
 0000092,-0.00000007,-0.00000108,0.00000037,-0.00000009,0.00000031,-0.0
 0000011,0.00000015,0.00000043,-0.00000002,0.00000006,-0.00000037,-0.00
 000004,0.00000008,-0.00000080,-0.00000069,0.00000005,-0.00000026,-0.00
 000009,-0.00000021,-0.00000079,-0.00000017,-0.00000004,0.00000112,-0.0
 0000091,0.00000022,-0.00000026,0.00000042,-0.00000006,0.00000163,0.000
 00118,0.00000029,-0.00000371,-0.00000299,0.00000027,-0.00000114,-0.000
 00062,-0.00000093,-0.00000641,-0.00000585,-0.00000124,0.00000251,0.000
 00012,0.00000003,-0.00000212,-0.00001989,-0.00000802,0.00003139,0.0000
 4867,0.00001533,0.00004964,0.00006714,-0.00002367,0.00004586,0.0000882
 8,-0.00017580,-0.00003622,-0.00025111,0.00006595,-0.00018097,0.0000870
 8,-0.00002789,0.00001681,0.00003872,0.00002138,-0.00014546,-0.00015965
 ,-0.00005285,0.00031650,-0.00058609,0.00035849,0.00443966,0.00007929,-
 0.00145742,-0.00753369,0.01103223,-0.01582621,-0.00183954,-0.00022519,
 0.00003644,0.00045100,0.00086138,0.00006182,0.00001224,-0.00033751,0.0
 0032878,-0.00012959,-0.00014304,0.00004485,0.00001777,-0.00006601,0.00
 002335,-0.00001723,0.00000444,-0.00001637,0.00000484,0.00000128,0.0000
 1130,-0.00000117,-0.00000203,-0.00000227,-0.00000128,-0.00000206,-0.00
 000120,0.00000058,0.00000028,0.00000318,-0.00000073,0.00000287,-0.0000
 0587,-0.00000749,0.00000412,0.00000171,0.00000377,0.00000232,0.0000019
 8,-0.00000198,0.00000008,-0.00000147,0.00000240,-0.00000055,0.00000339
 ,-0.00000405,0.00000199,0.00000279,0.00001213,-0.00001221,0.00000198,-
 0.00002154,0.00001928,0.00000129,-0.00022252,0.00009464,0.00000642,0.0
 0038441,0.00006872,0.00010505,-0.05464538,0.10878534,-0.27038072,0.001
 40822,0.00042782,0.00133933,0.00105851,0.00177035,0.00228207,0.0000024
 7,-0.00005369,-0.00003836,-0.00000264,0.00000070,0.00000470,-0.0000038
 7,0.00000023,0.00000164,-0.00000304,0.00000108,0.00000266,0.00000143,0
 .00000115,0.00000263,-0.00000102,0.00000005,-0.00000132,-0.00000142,0.
 00000235,-0.00000022,0.00000067,-0.00000067,0.00000007,-0.00000041,-0.
 00000098,0.00000014,-0.00000054,-0.00000030,0.00000005,-0.00000054,-0.
 00000027,0.,-0.00000052,-0.00000034,-0.00000006,-0.00000045,0.00000023
 ,-0.00000013,0.00000043,-0.00000016,0.00000007,0.00000028,-0.00000135,
 -0.00000005,-0.00000152,-0.00000023,0.00000150,0.00000078,0.00000245,-
 0.00000146,-0.00000251,-0.00000117,-0.00000401,0.00000411,0.00001386,0
 .00000284,0.00003125,0.00000285,-0.00002497,-0.00001236,0.00001341,-0.
 00000520,0.00002350,-0.00000978,0.00003164,-0.00036510,0.00061641,-0.0
 0085151,-0.00024283,-0.00085400,0.00035547,0.00003468,0.00001734,0.000
 01862,-0.00000362,-0.00000282,-0.00001509,0.00000189,0.00000284,0.0000
 0278,-0.00000239,0.00000308,0.00000264,-0.00000273,0.00000203,-0.00000
 049,-0.00000311,0.00000158,-0.00000004,-0.00000300,0.00000210,-0.00000
 027,-0.00000329,0.00000105,-0.00000368,0.00000166,-0.00000112,-0.00000
 172,0.00000576,0.00000781,0.00001199,-0.00000298,-0.00002479,-0.000017
 21,-0.00010854,-0.00008031,0.00002601,0.05812144,-0.11980644,0.2833843
 0,-0.00129725,-0.00040682,-0.00019939,0.00034964,0.00219931,0.00011314
 ,0.00002926,-0.00010599,0.00011370,0.00001954,0.00007552,0.00000062,-0
 .00004079,-0.00009897,-0.00004267,0.00001573,0.00004741,0.00001887,0.0
 0000462,-0.00002286,-0.00004397,-0.00002915,-0.00001797,-0.00000157,0.
 00001359,0.00000643,-0.00000242,0.00000072,0.00000202,-0.00000300,0.00
 000234,0.00000128,0.00000003,-0.00001405,-0.00000728,-0.00000024,0.000
 00830,0.00000058,0.00000085,-0.00000267,0.00000034,-0.00000002,0.00000
 077,0.00000013,-0.00000037,-0.00000015,-0.00000080,-0.00000025,0.,0.00
 000041,-0.00000024,0.00000066,0.00000023,-0.00000026,0.00000160,0.0000
 0095,-0.00000012,0.00000055,0.00000035,0.00000030,0.00000084,-0.000000
 01,0.00000001,-0.00000126,0.00000085,-0.00000020,0.00000056,-0.0000002
 1,0.00000003,-0.00000188,-0.00000229,-0.00000044,0.00000569,0.00000607
 ,-0.00000069,0.00000238,-0.00000101,0.00000314,0.00001357,0.00001093,0
 .00000308,-0.00005605,-0.00002801,0.00005255,0.00012827,-0.00001566,0.
 00005109,-0.00034191,0.00007202,-0.00014586,-0.00063214,0.00037570,-0.
 00057384,-0.00076802,-0.00037593,-0.00042794,0.00002142,-0.00028417,0.
 00019292,0.00002083,0.00008541,0.00004908,0.00013105,-0.00011343,-0.00
 011751,0.00024235,0.00001094,-0.00038410,0.00073793,0.00231801,-0.0009
 4492,-0.00004298,0.00002517,-0.00077466,-0.00175277,0.00536321,-0.0010
 7192,-0.00014437,-0.00027388,0.00111221,-0.00006421,-0.00010173,-0.000
 03083,0.00000055,0.00002436,-0.00002863,-0.00000079,0.00001991,-0.0000
 0314,0.00003528,-0.00001673,-0.00000263,-0.00001601,0.00000677,-0.0000
 0672,0.00000625,-0.00000107,0.00000181,-0.00000104,0.00000047,-0.00000
 042,0.00000059,-0.00000142,-0.00000195,-0.00000269,0.00000172,0.000000
 13,-0.00000001,-0.00000083,0.00000149,-0.00000504,0.00000238,-0.000001
 47,-0.00000015,0.00000016,-0.00000137,0.00000109,-0.00000059,-0.000000
 56,-0.00000127,0.00000027,-0.00000377,-0.00000071,0.00000298,0.0000034
 1,-0.00000204,-0.00000187,-0.00000634,-0.00001241,0.00001161,0.0000118
 2,-0.00003897,-0.00010199,0.00002451,-0.00021769,0.00019694,-0.0001444
 9,-0.01294877,0.00012544,0.02226294,-0.16584564,0.00989707,0.14039743,
 0.00872675,-0.00047049,-0.00621109,0.00013694,-0.00024413,0.00021123,0
 .00002817,-0.00003804,-0.00002392,0.00001314,-0.00000809,-0.00000106,0
 .00000731,-0.00000035,-0.00000492,-0.00000334,-0.00000068,-0.00000429,
 0.00000224,0.00000094,0.00000232,0.00000209,-0.00000315,0.00000055,-0.
 00000085,0.00000047,0.00000038,0.00000043,0.00000147,-0.00000003,0.000
 00100,0.00000055,0.00000002,0.00000097,0.00000054,0.00000009,0.0000009
 7,0.00000061,0.00000017,0.00000117,-0.00000042,0.00000029,-0.00000042,
 -0.00000039,-0.00000002,-0.00000109,0.00000301,-0.00000003,0.00000283,
 0.00000129,-0.00000246,-0.00000311,-0.00000301,0.00000443,-0.00000014,
 0.00001038,0.00000089,-0.00000425,0.00001753,-0.00000549,-0.00000056,0
 .00000032,-0.00002424,-0.00000313,0.00002068,0.00002117,0.00002168,0.0
 0014071,-0.00009867,-0.00021579,-0.00036193,-0.00005609,0.00006104,0.0
 0001940,0.00001033,-0.00001345,0.00001316,-0.00000333,-0.00000205,-0.0
 0000350,-0.00000696,0.00000047,0.00000010,0.00000048,-0.00000117,0.000
 00093,0.00000100,-0.00000153,0.00000066,0.00000022,-0.00000133,0.00000
 059,-0.00000025,-0.00000124,0.00000044,-0.00000102,-0.00000207,0.00000
 025,-0.00000166,-0.00000186,-0.00000238,-0.00000457,0.00000051,0.00000
 483,0.00001235,-0.00002886,0.00001655,0.00000381,0.00000860,-0.0000173
 3,0.00002304,0.00009753,-0.00224336,-0.00089858,0.17365930,-0.00069034
 ,-0.00012093,-0.00027387,0.00169399,-0.00062547,0.00025596,0.00005342,
 -0.00010399,-0.00012166,-0.00010477,0.00000783,-0.00003985,-0.00009990
 ,0.00002881,0.00018751,0.00003877,-0.00003418,-0.00004994,-0.00005675,
 -0.00001736,0.00002595,0.00005491,0.00003321,-0.00000402,-0.00002556,-
 0.00001492,0.00000371,0.00000252,-0.00000559,0.00000443,-0.00000784,-0
 .00000371,-0.00000003,0.00001867,0.00000928,0.00000055,-0.00001074,0.0
 0000179,-0.00000159,0.00000190,-0.00000283,-0.00000005,-0.00000221,0.0
 0000112,-0.00000015,0.00000044,-0.00000130,0.00000053,0.00000079,0.,0.
 00000005,-0.00000029,-0.00000041,0.00000046,-0.00000233,-0.00000176,0.
 ,-0.00000046,0.00000018,-0.00000062,-0.00000185,-0.00000060,-0.0000001
 7,0.00000186,-0.00000147,0.00000010,-0.00000059,0.00000028,-0.00000041
 ,0.00000327,0.00000271,0.00000025,-0.00000829,-0.00000741,0.00000083,-
 0.00000275,0.00000215,-0.00000307,-0.00002300,-0.00002054,-0.00000843,
 0.00004924,-0.00002651,-0.00004778,-0.00017335,-0.00010786,-0.00002403
 ,0.00027325,0.00028382,-0.00012012,0.00045026,-0.00064089,0.00024622,-
 0.00115672,-0.00164751,-0.00072687,-0.00029648,-0.00012734,-0.00032716
 ,0.00021054,0.00010743,0.00000612,-0.00012835,-0.00007367,0.00000770,-
 0.00058811,0.00017142,0.00044867,0.00306662,0.00232312,0.00313593,0.00
 010712,-0.00071888,0.00021859,0.00471916,0.00473802,0.00272616,0.00037
 915,0.00032552,-0.00045156,-0.00000448,-0.00003893,-0.00002548,0.00002
 046,-0.00000044,0.00001765,-0.00000747,0.00001397,-0.00000592,-0.00000
 069,-0.00001073,-0.00000794,0.00000061,-0.00000077,0.00000352,-0.00000
 030,-0.00000155,-0.00000009,-0.00000032,-0.00000070,0.00000086,0.00000
 026,-0.00000093,-0.00000068,0.00000015,-0.00000035,0.00000030,-0.00000
 014,0.00000031,-0.00000088,0.00000046,-0.00000081,0.00000024,0.0000000
 4,0.00000031,-0.00000052,-0.00000017,-0.00000047,0.00000022,0.00000033
 ,-0.00000083,0.00000109,-0.00000104,-0.00000131,0.00000035,-0.00000129
 ,-0.00000173,0.00000178,-0.00000156,0.00000162,-0.00000221,0.00006568,
 0.00000873,0.00002921,0.00013299,-0.00020164,-0.00003296,0.01010821,0.
 00383375,-0.01191056,0.00964841,-0.04260965,0.00225310,-0.00934846,0.0
 0396149,0.01036917,-0.00002357,-0.00041928,0.00045468,0.00002225,-0.00
 000551,-0.00000444,-0.00002873,-0.00001053,0.00000474,-0.00000674,0.00
 000447,0.00000632,0.00000322,0.00000421,0.00000480,-0.00000419,-0.0000
 0082,-0.00000301,-0.00000352,0.00000578,-0.00000067,0.00000123,-0.0000
 0223,0.00000008,-0.00000078,-0.00000177,0.00000025,-0.00000083,-0.0000
 0074,0.00000022,-0.00000096,-0.00000053,0.00000008,-0.00000105,-0.0000
 0052,-0.00000008,-0.00000105,0.00000037,-0.00000008,0.00000055,0.00000
 006,0.00000045,0.00000101,-0.00000339,0.00000043,-0.00000482,-0.000000
 88,0.00000336,0.00000147,0.00000667,-0.00000230,-0.00001040,-0.0000074
 5,-0.00001122,-0.00001691,-0.00000308,-0.00004858,-0.00000206,-0.00003
 445,0.00009271,0.00003315,0.00002770,0.00000527,0.00011063,0.00003046,
 0.00024720,-0.00035732,-0.00069845,-0.00027632,0.00005439,-0.00002433,
 -0.00000938,0.00000837,-0.00000589,0.00000105,0.00000068,0.00000190,0.
 00000033,0.00000056,0.00000024,-0.00000081,0.00000022,0.00000043,0.000
 00004,-0.00000003,0.00000034,-0.00000040,-0.00000003,0.00000039,-0.000
 00011,0.00000002,0.00000056,0.,0.00000025,0.00000058,-0.00000046,0.000
 00119,0.00000149,-0.00000004,0.00000157,0.00000209,-0.00000143,0.00001
 848,-0.00000073,0.00001072,-0.00000940,-0.00002259,-0.00000606,-0.0023
 7376,-0.00351591,-0.00151832,-0.01576999,0.03599045,0.00005955,-0.0002
 1586,0.00012932,0.00035088,-0.00031300,0.00065792,-0.00023929,0.000053
 02,0.00016167,0.00019843,0.00018889,-0.00002861,-0.00006977,-0.0000989
 3,-0.00017691,0.00002853,0.00004965,0.00004399,0.00001511,-0.00002725,
 -0.00008214,-0.00005164,-0.00003231,-0.00000160,0.00002278,0.00001102,
 -0.00000322,0.00000054,0.00000205,-0.00000460,0.00000376,0.00000200,0.
 00000078,-0.00002222,-0.00001160,0.00000012,0.00001306,0.00000211,0.00
 000102,-0.00000461,-0.00000045,0.00000043,0.00000035,0.00000108,-0.000
 00040,-0.00000014,-0.00000232,0.00000010,0.00000033,0.00000089,-0.0000
 0017,0.00000128,0.00000042,-0.00000045,0.00000233,0.00000129,0.0000000
 2,0.00000109,0.00000079,0.00000042,0.00000091,-0.00000024,0.00000021,-
 0.00000190,0.00000121,-0.00000004,0.00000091,-0.00000037,0.00000042,-0
 .00000255,-0.00000356,-0.00000033,0.00000859,0.00000966,-0.00000109,0.
 00000168,-0.00000270,0.00000393,0.00002240,0.00001488,0.00000298,-0.00
 010381,-0.00002836,0.00009390,0.00011299,0.00007882,0.00001654,-0.0005
 6708,-0.00040196,0.00018787,0.00039131,-0.00028772,0.00020413,0.000937
 27,-0.00136316,0.00011792,0.00022228,-0.00018842,-0.00017605,-0.000215
 31,0.00012971,0.00017529,-0.00008206,-0.00002398,0.00005476,0.00120589
 ,-0.00036468,-0.00060905,-0.00212798,0.00385093,-0.00220382,-0.0009302
 2,0.00016019,0.00004836,-0.00021134,0.00257100,0.00203460,-0.00007594,
 0.00006726,0.00022708,0.00002677,-0.00005492,-0.00003452,0.00000690,0.
 00001445,0.00000088,0.00000281,0.00001324,-0.00000360,-0.00001362,0.00
 000299,-0.00000710,0.00000757,-0.00000311,0.00000575,-0.00000275,-0.00
 000064,-0.00000140,-0.00000015,-0.00000097,-0.00000053,-0.00000052,0.0
 0000058,0.00000111,0.00000007,-0.00000034,-0.00000040,0.00000151,-0.00
 000048,-0.00000007,0.00000110,-0.00000092,-0.00000005,0.00000092,-0.00
 000084,-0.00000011,0.00000075,-0.00000036,0.00000060,-0.00000132,-0.00
 000038,-0.00000227,0.00000033,0.00000046,0.00000148,-0.00000326,0.0000
 0247,0.00000016,0.00000678,-0.00000355,-0.00000151,0.00001005,-0.00003
 791,0.00001550,-0.00005250,-0.00003482,-0.00004317,-0.00372737,0.00120
 224,0.00622678,0.13994788,0.00271974,-0.22467457,0.01787581,-0.0012856
 6,-0.01624220,0.00009271,0.00018345,-0.00037336,-0.00000292,-0.0000109
 2,-0.00001739,0.00002426,-0.00000905,0.00000131,0.00000788,-0.00000491
 ,-0.00000694,-0.00000564,-0.00000025,-0.00000663,0.00000378,0.00000177
 ,0.00000366,0.00000289,-0.00000417,0.00000039,-0.00000123,-0.00000013,
 0.00000031,0.00000053,0.00000226,-0.00000033,0.00000183,0.00000078,-0.
 00000012,0.00000169,0.00000088,-0.00000002,0.00000164,0.00000104,0.000
 00009,0.00000203,-0.00000080,0.00000027,-0.00000060,-0.00000087,-0.000
 00033,-0.00000182,0.00000485,-0.00000044,0.00000345,0.00000203,-0.0000
 0369,-0.00000424,-0.00000346,0.00000718,0.00000333,0.00001080,0.000002
 10,-0.00000380,0.00004535,-0.00003322,0.00000643,0.00003220,-0.0001441
 5,-0.00002710,0.00002640,0.00000791,-0.00007484,0.00020047,-0.00032433
 ,-0.00004850,-0.00028966,-0.00013020,0.00003437,0.00000701,-0.00000094
 ,0.00000102,-0.00000295,0.00000241,0.00000140,0.00000216,0.00000271,-0
 .00000050,0.00000062,-0.00000065,0.00000100,-0.00000065,-0.00000125,0.
 00000145,-0.00000040,0.00000014,0.00000133,-0.00000059,0.00000009,0.00
 000132,-0.00000078,-0.00000009,0.00000089,0.,0.00000126,-0.00000098,0.
 00000029,-0.00000060,0.00000031,-0.00000164,-0.00000184,0.00000092,0.0
 0000481,0.00000361,-0.00000622,-0.00001339,0.00000277,-0.00061195,-0.0
 0183616,0.00033688,-0.15239031,-0.00470762,0.23455738\\-0.00000025,-0.
 00000237,0.00000126,0.00000213,0.00000439,0.00000040,-0.00000188,0.000
 00036,0.00000143,0.00000157,0.00000072,0.00000128,-0.00000001,-0.00000
 071,-0.00000063,-0.00000060,0.00000096,0.00000126,-0.00000037,0.000000
 62,-0.00000131,0.00000072,-0.00000150,0.00000238,-0.00000148,0.0000006
 7,-0.00000187,0.00000064,0.00000023,-0.00000201,0.00000139,0.00000016,
 0.00000247,-0.00000100,0.00000109,-0.00000081,0.00000096,-0.00000033,0
 .00000062,0.00000042,0.00000060,-0.00000105,0.00000005,-0.00000176,0.0
 0000014,0.00000102,-0.00000090,-0.00000027,-0.00000064,0.00000020,-0.0
 0000027,-0.00000080,-0.00000115,-0.00000113,-0.00000082,-0.00000040,-0
 .00000012,-0.00000158,-0.00000026,0.00000074,0.,-0.00000067,-0.0000001
 3,-0.00000018,0.00000093,0.00000011,-0.00000108,0.00000101,-0.00000029
 ,0.00000085,0.00000007,0.00000065,0.00000047,-0.00000060,-0.00000053,-
 0.00000122,-0.00000031,-0.00000009,0.00000145,0.00000084,-0.00000012,-
 0.00000030,-0.00000173,0.00000013,0.00000201,0.00000233,-0.00000066,-0
 .00000095,-0.00000243,0.00000107,-0.00000444,-0.00000135,-0.00000204,0
 .00000377,-0.00000119,0.00000217,-0.00000284,0.00000451,-0.00000091,0.
 00000023,-0.00000308,0.00000106,0.00000201,-0.00000002,-0.00000047,-0.
 00000059,0.00000147,-0.00000042,0.00000034,-0.00000080,0.00000059,0.00
 000002,0.00000133,-0.00000138,0.00000043,-0.00000161,0.00000165,0.0000
 0005,0.00000345,-0.00000167,0.00000135,-0.00000272,0.00000167,-0.00000
 460,-0.00000119,-0.00000013,0.00000227,0.00000205,-0.00000241,-0.00000
 207,-0.00000126,-0.00000276,0.00000026,0.00000213,-0.00000098,-0.00000
 025,0.00000079,0.00000184,0.00000065,-0.00000044,-0.00000156,-0.000000
 56,-0.00000016,-0.00000141,0.00000051,0.00000042,0.00000026,0.00000006
 ,-0.00000105,-0.00000013,0.00000080,-0.00000060,0.00000027,0.00000203,
 0.00000040,0.00000027,0.00000023,-0.00000047,-0.00000042,-0.00000036,0
 .00000036,0.00000071,0.00000075,-0.00000034,0.00000172,0.00000014,0.00
 000191,0.00000036,-0.00000053,-0.00000179,0.00000155,0.00000095,-0.000
 00194,-0.00000114,-0.00000205,0.00000060,0.00000015,0.00000048,-0.0000
 0061,0.00000016,-0.00000122,0.00000081,0.00000110,0.00000045,-0.000002
 33,-0.00000107,-0.00000086,0.00000033,-0.00000123,-0.00000036,-0.00000
 044,-0.00000010,0.00000025,-0.00000058,-0.00000012,0.00000010,-0.00000
 106,0.00000002,-0.00000010,0.00000005,0.00000072,-0.00000022,-0.000000
 03,0.00000058,-0.00000032,-0.00000049,0.,-0.00000015,0.00000045,-0.000
 00046,-0.00000019,0.00000043,-0.00000049,0.00000039,0.00000018,-0.0000
 0028,0.00000063,0.00000017,-0.00000024,0.00000047,0.00000014,-0.000000
 08,0.00000033,-0.00000055,0.00000011,0.00000031,-0.00000050,0.00000032
 ,-0.00000007,-0.00000020,-0.00000003,0.00000002,0.,-0.00000054,-0.0000
 0005,0.00000022,-0.00000029,0.00000025,0.00000036,0.00000046,0.0000003
 1,0.00000088,0.00000014,0.00000049,0.00000051,0.00000198,0.00000011,0.
 00000020,0.00000064,-0.00000034,-0.00000012,0.00000053,-0.00000033,0.0
 0000004,0.00000063,0.00000044,0.00000028,-0.00000040,0.00000056,0.0000
 0045,-0.00000041,-0.00000032,0.00000067,-0.00000011,-0.00000022,0.0000
 0058,0.00000042,0.00000009,0.00000072,0.00000019,-0.00000034,0.0000005
 8,-0.00000021,-0.00000048,0.00000052,-0.00000039,-0.00000045,0.0000000
 2,-0.00000026,-0.00000010,-0.00000049,-0.00000067,-0.00000011,-0.00000
 043,-0.00000051,0.00000158,-0.00000041,0.00000095,-0.00000045,-0.00000
 018,0.00000004,0.00000033,-0.00000022,0.00000048,-0.00000028,0.0000005
 3,-0.00000018,0.00000026,0.00000009,-0.00000050\\\@
 The archive entry for this job was punched.


 WE TEND TO MEET ANY NEW SITUATION BY REORGANIZING. IT CAN BE A
 WONDERFUL METHOD FOR CREATING THE ILLUSION OF PROGRESS WHILE PRODUCING
 CONFUSION, INEFFICIENCY, AND DEMORALIZATION.
     -- PETRONIUS ARBITER, 210 B.C.
 Job cpu time:       0 days 15 hours  2 minutes 59.9 seconds.
 Elapsed time:       0 days  0 hours 28 minutes 20.9 seconds.
 File lengths (MBytes):  RWF=   9600 Int=      0 D2E=      0 Chk=     77 Scr=      1
 Normal termination of Gaussian 16 at Mon Mar 24 13:10:21 2025.
