 Entering Gaussian System, Link 0=g16
 Initial command:
 /public/software/apps/Gaussian/g16/l1.exe "/tmp/Gau-66166.inp" -scrdir="/tmp/"
 Entering Link 1 = /public/software/apps/Gaussian/g16/l1.exe PID=     66167.
  
 Copyright (c) 1988-2019, Gaussian, Inc.  All Rights Reserved.
  
 This is part of the Gaussian(R) 16 program.  It is based on
 the Gaussian(R) 09 system (copyright 2009, Gaussian, Inc.),
 the Gaussian(R) 03 system (copyright 2003, Gaussian, Inc.),
 the Gaussian(R) 98 system (copyright 1998, Gaussian, Inc.),
 the Gaussian(R) 94 system (copyright 1995, Gaussian, Inc.),
 the Gaussian 92(TM) system (copyright 1992, Gaussian, Inc.),
 the Gaussian 90(TM) system (copyright 1990, Gaussian, Inc.),
 the Gaussian 88(TM) system (copyright 1988, Gaussian, Inc.),
 the Gaussian 86(TM) system (copyright 1986, Carnegie Mellon
 University), and the Gaussian 82(TM) system (copyright 1983,
 Carnegie Mellon University). Gaussian is a federally registered
 trademark of Gaussian, Inc.
  
 This software contains proprietary and confidential information,
 including trade secrets, belonging to Gaussian, Inc.
  
 This software is provided under written license and may be
 used, copied, transmitted, or stored only in accord with that
 written license.
  
 The following legend is applicable only to US Government
 contracts under FAR:
  
                    RESTRICTED RIGHTS LEGEND
  
 Use, reproduction and disclosure by the US Government is
 subject to restrictions as set forth in subparagraphs (a)
 and (c) of the Commercial Computer Software - Restricted
 Rights clause in FAR 52.227-19.
  
 Gaussian, Inc.
 340 Quinnipiac St., Bldg. 40, Wallingford CT 06492
  
  
 ---------------------------------------------------------------
 Warning -- This program may not be used in any manner that
 competes with the business of Gaussian, Inc. or will provide
 assistance to any competitor of Gaussian, Inc.  The licensee
 of this program is prohibited from giving any competitor of
 Gaussian, Inc. access to this program.  By using this program,
 the user acknowledges that Gaussian, Inc. is engaged in the
 business of creating and licensing software in the field of
 computational chemistry and represents and warrants to the
 licensee that it is not a competitor of Gaussian, Inc. and that
 it will not use this program in any manner prohibited above.
 ---------------------------------------------------------------
  

 Cite this work as:
 Gaussian 16, Revision C.01,
 M. J. Frisch, G. W. Trucks, H. B. Schlegel, G. E. Scuseria, 
 M. A. Robb, J. R. Cheeseman, G. Scalmani, V. Barone, 
 G. A. Petersson, H. Nakatsuji, X. Li, M. Caricato, A. V. Marenich, 
 J. Bloino, B. G. Janesko, R. Gomperts, B. Mennucci, H. P. Hratchian, 
 J. V. Ortiz, A. F. Izmaylov, J. L. Sonnenberg, D. Williams-Young, 
 F. Ding, F. Lipparini, F. Egidi, J. Goings, B. Peng, A. Petrone, 
 T. Henderson, D. Ranasinghe, V. G. Zakrzewski, J. Gao, N. Rega, 
 G. Zheng, W. Liang, M. Hada, M. Ehara, K. Toyota, R. Fukuda, 
 J. Hasegawa, M. Ishida, T. Nakajima, Y. Honda, O. Kitao, H. Nakai, 
 T. Vreven, K. Throssell, J. A. Montgomery, Jr., J. E. Peralta, 
 F. Ogliaro, M. J. Bearpark, J. J. Heyd, E. N. Brothers, K. N. Kudin, 
 V. N. Staroverov, T. A. Keith, R. Kobayashi, J. Normand, 
 K. Raghavachari, A. P. Rendell, J. C. Burant, S. S. Iyengar, 
 J. Tomasi, M. Cossi, J. M. Millam, M. Klene, C. Adamo, R. Cammi, 
 J. W. Ochterski, R. L. Martin, K. Morokuma, O. Farkas, 
 J. B. Foresman, and D. J. Fox, Gaussian, Inc., Wallingford CT, 2019.
 
 ******************************************
 Gaussian 16:  ES64L-G16RevC.01  3-Jul-2019
                24-Mar-2025 
 ******************************************
 %nprocshared=32
 Will use up to   32 processors via shared memory.
 %mem=100GB
 ------------------------------------------
 #p opt freq b3lyp/def2svpp em=gd3bj nosymm
 ------------------------------------------
 1/18=20,19=15,26=3,38=1/1,3;
 2/9=110,12=2,15=1,17=6,18=5,40=1/2;
 3/5=43,7=202,11=2,25=1,30=1,71=1,74=-5,124=41/1,2,3;
 4//1;
 5/5=2,38=5/2;
 6/7=2,8=2,9=2,10=2,28=1/1;
 7/30=1/1,2,3,16;
 1/18=20,19=15,26=3/3(2);
 2/9=110,15=1/2;
 99//99;
 2/9=110,15=1/2;
 3/5=43,7=202,11=2,25=1,30=1,71=1,74=-5,124=41/1,2,3;
 4/5=5,16=3,69=1/1;
 5/5=2,38=5/2;
 7/30=1/1,2,3,16;
 1/18=20,19=15,26=3/3(-5);
 2/9=110,15=1/2;
 6/7=2,8=2,9=2,10=2,19=2,28=1/1;
 99/9=1/99;
 Leave Link    1 at Mon Mar 24 15:40:05 2025, MaxMem= 13421772800 cpu:               1.6 elap:               0.1
 (Enter /public/software/apps/Gaussian/g16/l101.exe)
 ----------------------
 $$$$Singlemol####0????
 ----------------------
 Symbolic Z-matrix:
 Charge =  0 Multiplicity = 1
 C                     7.75903   1.22254   1.67227 
 C                     6.5735    0.37685   1.20218 
 C                     6.94722  -1.10295   1.32774 
 C                     5.38245   0.64824   2.12645 
 Si                    6.13101   0.78296  -0.63383 
 C                     5.73696   2.64032  -0.83851 
 C                     7.52309   0.29405  -1.82862 
 O                     4.93097  -0.21119  -1.14583 
 C                     3.63037  -0.41498  -0.84924 
 C                     3.08775  -1.67008  -1.11345 
 C                     1.75942  -1.92446  -0.84164 
 C                     0.93678  -0.93536  -0.30736 
 C                    -0.47192  -1.23139  -0.00531 
 C                    -0.82049  -2.3975    0.6295 
 C                    -2.15661  -2.70967   0.94293 
 C                    -2.5084   -3.90181   1.60843 
 C                    -3.81218  -4.1737    1.91549 
 C                    -4.82077  -3.259     1.57808 
 C                    -4.51389  -2.09522   0.92947 
 C                    -3.17913  -1.79345   0.58485 
 C                    -2.82284  -0.60002  -0.09549 
 C                    -3.87204   0.35482  -0.54206 
 C                    -4.69089   0.01929  -1.60442 
 O                    -4.59163  -1.16853  -2.25422 
 C                    -5.66527   0.92412  -2.06965 
 C                    -5.81396   2.14309  -1.47784 
 C                    -5.00709   2.52238  -0.38424 
 C                    -5.14926   3.77372   0.24849 
 C                    -4.36398   4.11419   1.3141 
 C                    -3.40632   3.21107   1.7988 
 C                    -3.24053   1.99069   1.2063 
 C                    -4.02598   1.61458   0.09465 
 C                    -1.49866  -0.32343  -0.37778 
 O                    -1.14033   0.7997   -1.05361 
 C                     1.48611   0.31709  -0.04966 
 C                     2.81613   0.57566  -0.31398 
 H                     8.01336   0.98067   2.7038 
 H                     7.52418   2.28279   1.61943 
 H                     8.63389   1.03579   1.05439 
 H                     7.1665   -1.35374   2.36553 
 H                     7.82624  -1.33142   0.73006 
 H                     6.12909  -1.73572   0.99048 
 H                     4.52174   0.04852   1.83687 
 H                     5.63841   0.39825   3.15612 
 H                     5.09476   1.697     2.09851 
 H                     6.64851   3.22301  -0.92417 
 H                     5.15826   2.8081   -1.74261 
 H                     5.17091   3.04946  -0.00653 
 H                     7.28218   0.58922  -2.84445 
 H                     7.69164  -0.77736  -1.83171 
 H                     8.45488   0.7784   -1.5591 
 H                     3.72398  -2.43339  -1.53449 
 H                     1.34736  -2.8981   -1.06359 
 H                    -0.04608  -3.09176   0.92125 
 H                    -1.7232   -4.59527   1.87347 
 H                    -4.07418  -5.08906   2.42512 
 H                    -5.84567  -3.47913   1.83764 
 H                    -5.29278  -1.38868   0.68104 
 H                    -3.91915  -1.71757  -1.82709 
 H                    -6.27644   0.6172   -2.90339 
 H                    -6.55907   2.83638  -1.83907 
 H                    -5.89661   4.45851  -0.12612 
 H                    -4.47932   5.07496   1.79347 
 H                    -2.80033   3.48601   2.64949 
 H                    -2.50992   1.29341   1.59048 
 H                    -1.93306   1.31714  -1.25517 
 H                     0.8692    1.09475   0.37243 
 H                     3.23659   1.54677  -0.10993 
 
 ITRead=  0  0  0  0  0  0  0  0  0  0  0  0  0  0  0  0  0  0  0  0
 ITRead=  0  0  0  0  0  0  0  0  0  0  0  0  0  0  0  0  0  0  0  0
 ITRead=  0  0  0  0  0  0  0  0  0  0  0  0  0  0  0  0  0  0  0  0
 ITRead=  0  0  0  0  0  0  0  0
 MicOpt= -1 -1 -1 -1 -1 -1 -1 -1 -1 -1 -1 -1 -1 -1 -1 -1 -1 -1 -1 -1
 MicOpt= -1 -1 -1 -1 -1 -1 -1 -1 -1 -1 -1 -1 -1 -1 -1 -1 -1 -1 -1 -1
 MicOpt= -1 -1 -1 -1 -1 -1 -1 -1 -1 -1 -1 -1 -1 -1 -1 -1 -1 -1 -1 -1
 MicOpt= -1 -1 -1 -1 -1 -1 -1 -1
 NAtoms=     68 NQM=       68 NQMF=       0 NMMI=      0 NMMIF=      0
                NMic=       0 NMicF=      0.
                    Isotopes and Nuclear Properties:
 (Nuclear quadrupole moments (NQMom) in fm**2, nuclear magnetic moments (NMagM)
  in nuclear magnetons)

  Atom         1           2           3           4           5           6           7           8           9          10
 IAtWgt=          12          12          12          12          28          12          12          16          12          12
 AtmWgt=  12.0000000  12.0000000  12.0000000  12.0000000  27.9769284  12.0000000  12.0000000  15.9949146  12.0000000  12.0000000
 NucSpn=           0           0           0           0           0           0           0           0           0           0
 AtZEff=  -0.0000000  -0.0000000  -0.0000000  -0.0000000  -0.0000000  -0.0000000  -0.0000000  -0.0000000  -0.0000000  -0.0000000
 NQMom=    0.0000000   0.0000000   0.0000000   0.0000000   0.0000000   0.0000000   0.0000000   0.0000000   0.0000000   0.0000000
 NMagM=    0.0000000   0.0000000   0.0000000   0.0000000   0.0000000   0.0000000   0.0000000   0.0000000   0.0000000   0.0000000
 AtZNuc=   6.0000000   6.0000000   6.0000000   6.0000000  14.0000000   6.0000000   6.0000000   8.0000000   6.0000000   6.0000000

  Atom        11          12          13          14          15          16          17          18          19          20
 IAtWgt=          12          12          12          12          12          12          12          12          12          12
 AtmWgt=  12.0000000  12.0000000  12.0000000  12.0000000  12.0000000  12.0000000  12.0000000  12.0000000  12.0000000  12.0000000
 NucSpn=           0           0           0           0           0           0           0           0           0           0
 AtZEff=  -0.0000000  -0.0000000  -0.0000000  -0.0000000  -0.0000000  -0.0000000  -0.0000000  -0.0000000  -0.0000000  -0.0000000
 NQMom=    0.0000000   0.0000000   0.0000000   0.0000000   0.0000000   0.0000000   0.0000000   0.0000000   0.0000000   0.0000000
 NMagM=    0.0000000   0.0000000   0.0000000   0.0000000   0.0000000   0.0000000   0.0000000   0.0000000   0.0000000   0.0000000
 AtZNuc=   6.0000000   6.0000000   6.0000000   6.0000000   6.0000000   6.0000000   6.0000000   6.0000000   6.0000000   6.0000000

  Atom        21          22          23          24          25          26          27          28          29          30
 IAtWgt=          12          12          12          16          12          12          12          12          12          12
 AtmWgt=  12.0000000  12.0000000  12.0000000  15.9949146  12.0000000  12.0000000  12.0000000  12.0000000  12.0000000  12.0000000
 NucSpn=           0           0           0           0           0           0           0           0           0           0
 AtZEff=  -0.0000000  -0.0000000  -0.0000000  -0.0000000  -0.0000000  -0.0000000  -0.0000000  -0.0000000  -0.0000000  -0.0000000
 NQMom=    0.0000000   0.0000000   0.0000000   0.0000000   0.0000000   0.0000000   0.0000000   0.0000000   0.0000000   0.0000000
 NMagM=    0.0000000   0.0000000   0.0000000   0.0000000   0.0000000   0.0000000   0.0000000   0.0000000   0.0000000   0.0000000
 AtZNuc=   6.0000000   6.0000000   6.0000000   8.0000000   6.0000000   6.0000000   6.0000000   6.0000000   6.0000000   6.0000000

  Atom        31          32          33          34          35          36          37          38          39          40
 IAtWgt=          12          12          12          16          12          12           1           1           1           1
 AtmWgt=  12.0000000  12.0000000  12.0000000  15.9949146  12.0000000  12.0000000   1.0078250   1.0078250   1.0078250   1.0078250
 NucSpn=           0           0           0           0           0           0           1           1           1           1
 AtZEff=  -0.0000000  -0.0000000  -0.0000000  -0.0000000  -0.0000000  -0.0000000  -0.0000000  -0.0000000  -0.0000000  -0.0000000
 NQMom=    0.0000000   0.0000000   0.0000000   0.0000000   0.0000000   0.0000000   0.0000000   0.0000000   0.0000000   0.0000000
 NMagM=    0.0000000   0.0000000   0.0000000   0.0000000   0.0000000   0.0000000   2.7928460   2.7928460   2.7928460   2.7928460
 AtZNuc=   6.0000000   6.0000000   6.0000000   8.0000000   6.0000000   6.0000000   1.0000000   1.0000000   1.0000000   1.0000000

  Atom        41          42          43          44          45          46          47          48          49          50
 IAtWgt=           1           1           1           1           1           1           1           1           1           1
 AtmWgt=   1.0078250   1.0078250   1.0078250   1.0078250   1.0078250   1.0078250   1.0078250   1.0078250   1.0078250   1.0078250
 NucSpn=           1           1           1           1           1           1           1           1           1           1
 AtZEff=  -0.0000000  -0.0000000  -0.0000000  -0.0000000  -0.0000000  -0.0000000  -0.0000000  -0.0000000  -0.0000000  -0.0000000
 NQMom=    0.0000000   0.0000000   0.0000000   0.0000000   0.0000000   0.0000000   0.0000000   0.0000000   0.0000000   0.0000000
 NMagM=    2.7928460   2.7928460   2.7928460   2.7928460   2.7928460   2.7928460   2.7928460   2.7928460   2.7928460   2.7928460
 AtZNuc=   1.0000000   1.0000000   1.0000000   1.0000000   1.0000000   1.0000000   1.0000000   1.0000000   1.0000000   1.0000000

  Atom        51          52          53          54          55          56          57          58          59          60
 IAtWgt=           1           1           1           1           1           1           1           1           1           1
 AtmWgt=   1.0078250   1.0078250   1.0078250   1.0078250   1.0078250   1.0078250   1.0078250   1.0078250   1.0078250   1.0078250
 NucSpn=           1           1           1           1           1           1           1           1           1           1
 AtZEff=  -0.0000000  -0.0000000  -0.0000000  -0.0000000  -0.0000000  -0.0000000  -0.0000000  -0.0000000  -0.0000000  -0.0000000
 NQMom=    0.0000000   0.0000000   0.0000000   0.0000000   0.0000000   0.0000000   0.0000000   0.0000000   0.0000000   0.0000000
 NMagM=    2.7928460   2.7928460   2.7928460   2.7928460   2.7928460   2.7928460   2.7928460   2.7928460   2.7928460   2.7928460
 AtZNuc=   1.0000000   1.0000000   1.0000000   1.0000000   1.0000000   1.0000000   1.0000000   1.0000000   1.0000000   1.0000000

  Atom        61          62          63          64          65          66          67          68
 IAtWgt=           1           1           1           1           1           1           1           1
 AtmWgt=   1.0078250   1.0078250   1.0078250   1.0078250   1.0078250   1.0078250   1.0078250   1.0078250
 NucSpn=           1           1           1           1           1           1           1           1
 AtZEff=  -0.0000000  -0.0000000  -0.0000000  -0.0000000  -0.0000000  -0.0000000  -0.0000000  -0.0000000
 NQMom=    0.0000000   0.0000000   0.0000000   0.0000000   0.0000000   0.0000000   0.0000000   0.0000000
 NMagM=    2.7928460   2.7928460   2.7928460   2.7928460   2.7928460   2.7928460   2.7928460   2.7928460
 AtZNuc=   1.0000000   1.0000000   1.0000000   1.0000000   1.0000000   1.0000000   1.0000000   1.0000000
 Leave Link  101 at Mon Mar 24 15:40:05 2025, MaxMem= 13421772800 cpu:               3.2 elap:               0.1
 (Enter /public/software/apps/Gaussian/g16/l103.exe)

 GradGradGradGradGradGradGradGradGradGradGradGradGradGradGradGradGradGrad
 Berny optimization.
 Initialization pass.
                           ----------------------------
                           !    Initial Parameters    !
                           ! (Angstroms and Degrees)  !
 --------------------------                            --------------------------
 ! Name  Definition              Value          Derivative Info.                !
 --------------------------------------------------------------------------------
 ! R1    R(1,2)                  1.5303         estimate D2E/DX2                !
 ! R2    R(1,37)                 1.0896         estimate D2E/DX2                !
 ! R3    R(1,38)                 1.0872         estimate D2E/DX2                !
 ! R4    R(1,39)                 1.0872         estimate D2E/DX2                !
 ! R5    R(2,3)                  1.5314         estimate D2E/DX2                !
 ! R6    R(2,4)                  1.5318         estimate D2E/DX2                !
 ! R7    R(2,5)                  1.9318         estimate D2E/DX2                !
 ! R8    R(3,40)                 1.0899         estimate D2E/DX2                !
 ! R9    R(3,41)                 1.0872         estimate D2E/DX2                !
 ! R10   R(3,42)                 1.0879         estimate D2E/DX2                !
 ! R11   R(4,43)                 1.0883         estimate D2E/DX2                !
 ! R12   R(4,44)                 1.0901         estimate D2E/DX2                !
 ! R13   R(4,45)                 1.0879         estimate D2E/DX2                !
 ! R14   R(5,6)                  1.9097         estimate D2E/DX2                !
 ! R15   R(5,7)                  1.8985         estimate D2E/DX2                !
 ! R16   R(5,8)                  1.6403         estimate D2E/DX2                !
 ! R17   R(6,46)                 1.0853         estimate D2E/DX2                !
 ! R18   R(6,47)                 1.0865         estimate D2E/DX2                !
 ! R19   R(6,48)                 1.0863         estimate D2E/DX2                !
 ! R20   R(7,49)                 1.0849         estimate D2E/DX2                !
 ! R21   R(7,50)                 1.0846         estimate D2E/DX2                !
 ! R22   R(7,51)                 1.0842         estimate D2E/DX2                !
 ! R23   R(8,9)                  1.3495         estimate D2E/DX2                !
 ! R24   R(9,10)                 1.3927         estimate D2E/DX2                !
 ! R25   R(9,36)                 1.3896         estimate D2E/DX2                !
 ! R26   R(10,11)                1.3795         estimate D2E/DX2                !
 ! R27   R(10,52)                1.0792         estimate D2E/DX2                !
 ! R28   R(11,12)                1.393          estimate D2E/DX2                !
 ! R29   R(11,53)                1.0803         estimate D2E/DX2                !
 ! R30   R(12,13)                1.4708         estimate D2E/DX2                !
 ! R31   R(12,35)                1.3917         estimate D2E/DX2                !
 ! R32   R(13,14)                1.3727         estimate D2E/DX2                !
 ! R33   R(13,33)                1.4203         estimate D2E/DX2                !
 ! R34   R(14,15)                1.4074         estimate D2E/DX2                !
 ! R35   R(14,54)                1.0802         estimate D2E/DX2                !
 ! R36   R(15,16)                1.4099         estimate D2E/DX2                !
 ! R37   R(15,20)                1.4189         estimate D2E/DX2                !
 ! R38   R(16,17)                1.3668         estimate D2E/DX2                !
 ! R39   R(16,55)                1.0806         estimate D2E/DX2                !
 ! R40   R(17,18)                1.4028         estimate D2E/DX2                !
 ! R41   R(17,56)                1.0799         estimate D2E/DX2                !
 ! R42   R(18,19)                1.3672         estimate D2E/DX2                !
 ! R43   R(18,57)                1.0799         estimate D2E/DX2                !
 ! R44   R(19,20)                1.4112         estimate D2E/DX2                !
 ! R45   R(19,58)                1.0805         estimate D2E/DX2                !
 ! R46   R(20,21)                1.4192         estimate D2E/DX2                !
 ! R47   R(21,22)                1.4873         estimate D2E/DX2                !
 ! R48   R(21,33)                1.3819         estimate D2E/DX2                !
 ! R49   R(22,23)                1.3826         estimate D2E/DX2                !
 ! R50   R(22,32)                1.4199         estimate D2E/DX2                !
 ! R51   R(23,24)                1.3576         estimate D2E/DX2                !
 ! R52   R(23,25)                1.4088         estimate D2E/DX2                !
 ! R53   R(24,59)                0.9675         estimate D2E/DX2                !
 ! R54   R(25,26)                1.3632         estimate D2E/DX2                !
 ! R55   R(25,60)                1.0784         estimate D2E/DX2                !
 ! R56   R(26,27)                1.411          estimate D2E/DX2                !
 ! R57   R(26,61)                1.08           estimate D2E/DX2                !
 ! R58   R(27,28)                1.4094         estimate D2E/DX2                !
 ! R59   R(27,32)                1.4199         estimate D2E/DX2                !
 ! R60   R(28,29)                1.3668         estimate D2E/DX2                !
 ! R61   R(28,62)                1.0807         estimate D2E/DX2                !
 ! R62   R(29,30)                1.4027         estimate D2E/DX2                !
 ! R63   R(29,63)                1.0799         estimate D2E/DX2                !
 ! R64   R(30,31)                1.3667         estimate D2E/DX2                !
 ! R65   R(30,64)                1.08           estimate D2E/DX2                !
 ! R66   R(31,32)                1.4121         estimate D2E/DX2                !
 ! R67   R(31,65)                1.0805         estimate D2E/DX2                !
 ! R68   R(33,34)                1.3589         estimate D2E/DX2                !
 ! R69   R(34,66)                0.9679         estimate D2E/DX2                !
 ! R70   R(35,36)                1.3805         estimate D2E/DX2                !
 ! R71   R(35,67)                1.0787         estimate D2E/DX2                !
 ! R72   R(36,68)                1.0777         estimate D2E/DX2                !
 ! A1    A(2,1,37)             110.4245         estimate D2E/DX2                !
 ! A2    A(2,1,38)             110.8949         estimate D2E/DX2                !
 ! A3    A(2,1,39)             110.726          estimate D2E/DX2                !
 ! A4    A(37,1,38)            108.2342         estimate D2E/DX2                !
 ! A5    A(37,1,39)            108.1839         estimate D2E/DX2                !
 ! A6    A(38,1,39)            108.2831         estimate D2E/DX2                !
 ! A7    A(1,2,3)              108.6493         estimate D2E/DX2                !
 ! A8    A(1,2,4)              108.6091         estimate D2E/DX2                !
 ! A9    A(1,2,5)              110.6859         estimate D2E/DX2                !
 ! A10   A(3,2,4)              108.1479         estimate D2E/DX2                !
 ! A11   A(3,2,5)              109.6926         estimate D2E/DX2                !
 ! A12   A(4,2,5)              110.9848         estimate D2E/DX2                !
 ! A13   A(2,3,40)             110.457          estimate D2E/DX2                !
 ! A14   A(2,3,41)             110.811          estimate D2E/DX2                !
 ! A15   A(2,3,42)             110.6773         estimate D2E/DX2                !
 ! A16   A(40,3,41)            108.2043         estimate D2E/DX2                !
 ! A17   A(40,3,42)            108.2189         estimate D2E/DX2                !
 ! A18   A(41,3,42)            108.3824         estimate D2E/DX2                !
 ! A19   A(2,4,43)             110.9013         estimate D2E/DX2                !
 ! A20   A(2,4,44)             110.2883         estimate D2E/DX2                !
 ! A21   A(2,4,45)             111.157          estimate D2E/DX2                !
 ! A22   A(43,4,44)            108.1001         estimate D2E/DX2                !
 ! A23   A(43,4,45)            108.3771         estimate D2E/DX2                !
 ! A24   A(44,4,45)            107.9059         estimate D2E/DX2                !
 ! A25   A(2,5,6)              110.7077         estimate D2E/DX2                !
 ! A26   A(2,5,7)              112.0881         estimate D2E/DX2                !
 ! A27   A(2,5,8)              109.6839         estimate D2E/DX2                !
 ! A28   A(6,5,7)              109.5309         estimate D2E/DX2                !
 ! A29   A(6,5,8)              113.8948         estimate D2E/DX2                !
 ! A30   A(7,5,8)              100.5982         estimate D2E/DX2                !
 ! A31   A(5,6,46)             110.9373         estimate D2E/DX2                !
 ! A32   A(5,6,47)             110.4436         estimate D2E/DX2                !
 ! A33   A(5,6,48)             113.0638         estimate D2E/DX2                !
 ! A34   A(46,6,47)            107.3845         estimate D2E/DX2                !
 ! A35   A(46,6,48)            107.2122         estimate D2E/DX2                !
 ! A36   A(47,6,48)            107.5549         estimate D2E/DX2                !
 ! A37   A(5,7,49)             110.8764         estimate D2E/DX2                !
 ! A38   A(5,7,50)             111.7239         estimate D2E/DX2                !
 ! A39   A(5,7,51)             111.0191         estimate D2E/DX2                !
 ! A40   A(49,7,50)            107.4938         estimate D2E/DX2                !
 ! A41   A(49,7,51)            107.581          estimate D2E/DX2                !
 ! A42   A(50,7,51)            107.9666         estimate D2E/DX2                !
 ! A43   A(5,8,9)              136.7214         estimate D2E/DX2                !
 ! A44   A(8,9,10)             118.029          estimate D2E/DX2                !
 ! A45   A(8,9,36)             122.8034         estimate D2E/DX2                !
 ! A46   A(10,9,36)            119.1609         estimate D2E/DX2                !
 ! A47   A(9,10,11)            120.2634         estimate D2E/DX2                !
 ! A48   A(9,10,52)            118.7987         estimate D2E/DX2                !
 ! A49   A(11,10,52)           120.9378         estimate D2E/DX2                !
 ! A50   A(10,11,12)           120.882          estimate D2E/DX2                !
 ! A51   A(10,11,53)           119.5374         estimate D2E/DX2                !
 ! A52   A(12,11,53)           119.5704         estimate D2E/DX2                !
 ! A53   A(11,12,13)           120.0964         estimate D2E/DX2                !
 ! A54   A(11,12,35)           118.4847         estimate D2E/DX2                !
 ! A55   A(13,12,35)           121.4096         estimate D2E/DX2                !
 ! A56   A(12,13,14)           120.6077         estimate D2E/DX2                !
 ! A57   A(12,13,33)           120.6535         estimate D2E/DX2                !
 ! A58   A(14,13,33)           118.7352         estimate D2E/DX2                !
 ! A59   A(13,14,15)           122.1726         estimate D2E/DX2                !
 ! A60   A(13,14,54)           119.265          estimate D2E/DX2                !
 ! A61   A(15,14,54)           118.5466         estimate D2E/DX2                !
 ! A62   A(14,15,16)           121.9738         estimate D2E/DX2                !
 ! A63   A(14,15,20)           118.9932         estimate D2E/DX2                !
 ! A64   A(16,15,20)           119.032          estimate D2E/DX2                !
 ! A65   A(15,16,17)           120.8147         estimate D2E/DX2                !
 ! A66   A(15,16,55)           118.4947         estimate D2E/DX2                !
 ! A67   A(17,16,55)           120.6903         estimate D2E/DX2                !
 ! A68   A(16,17,18)           120.1399         estimate D2E/DX2                !
 ! A69   A(16,17,56)           120.4018         estimate D2E/DX2                !
 ! A70   A(18,17,56)           119.4568         estimate D2E/DX2                !
 ! A71   A(17,18,19)           120.5151         estimate D2E/DX2                !
 ! A72   A(17,18,57)           119.4479         estimate D2E/DX2                !
 ! A73   A(19,18,57)           120.0367         estimate D2E/DX2                !
 ! A74   A(18,19,20)           120.6757         estimate D2E/DX2                !
 ! A75   A(18,19,58)           120.2555         estimate D2E/DX2                !
 ! A76   A(20,19,58)           119.0667         estimate D2E/DX2                !
 ! A77   A(15,20,19)           118.811          estimate D2E/DX2                !
 ! A78   A(15,20,21)           118.8861         estimate D2E/DX2                !
 ! A79   A(19,20,21)           122.3            estimate D2E/DX2                !
 ! A80   A(20,21,22)           120.4454         estimate D2E/DX2                !
 ! A81   A(20,21,33)           120.4517         estimate D2E/DX2                !
 ! A82   A(22,21,33)           119.0881         estimate D2E/DX2                !
 ! A83   A(21,22,23)           119.5186         estimate D2E/DX2                !
 ! A84   A(21,22,32)           120.76           estimate D2E/DX2                !
 ! A85   A(23,22,32)           119.7121         estimate D2E/DX2                !
 ! A86   A(22,23,24)           122.466          estimate D2E/DX2                !
 ! A87   A(22,23,25)           120.4978         estimate D2E/DX2                !
 ! A88   A(24,23,25)           117.0314         estimate D2E/DX2                !
 ! A89   A(23,24,59)           109.6347         estimate D2E/DX2                !
 ! A90   A(23,25,26)           120.4257         estimate D2E/DX2                !
 ! A91   A(23,25,60)           117.6797         estimate D2E/DX2                !
 ! A92   A(26,25,60)           121.8941         estimate D2E/DX2                !
 ! A93   A(25,26,27)           120.9632         estimate D2E/DX2                !
 ! A94   A(25,26,61)           120.2711         estimate D2E/DX2                !
 ! A95   A(27,26,61)           118.7652         estimate D2E/DX2                !
 ! A96   A(26,27,28)           121.9334         estimate D2E/DX2                !
 ! A97   A(26,27,32)           118.992          estimate D2E/DX2                !
 ! A98   A(28,27,32)           119.0743         estimate D2E/DX2                !
 ! A99   A(27,28,29)           120.8785         estimate D2E/DX2                !
 ! A100  A(27,28,62)           118.4738         estimate D2E/DX2                !
 ! A101  A(29,28,62)           120.6474         estimate D2E/DX2                !
 ! A102  A(28,29,30)           120.0836         estimate D2E/DX2                !
 ! A103  A(28,29,63)           120.4209         estimate D2E/DX2                !
 ! A104  A(30,29,63)           119.4942         estimate D2E/DX2                !
 ! A105  A(29,30,31)           120.5251         estimate D2E/DX2                !
 ! A106  A(29,30,64)           119.4272         estimate D2E/DX2                !
 ! A107  A(31,30,64)           120.0474         estimate D2E/DX2                !
 ! A108  A(30,31,32)           120.7723         estimate D2E/DX2                !
 ! A109  A(30,31,65)           120.2717         estimate D2E/DX2                !
 ! A110  A(32,31,65)           118.9532         estimate D2E/DX2                !
 ! A111  A(22,32,27)           119.4014         estimate D2E/DX2                !
 ! A112  A(22,32,31)           121.9378         estimate D2E/DX2                !
 ! A113  A(27,32,31)           118.6564         estimate D2E/DX2                !
 ! A114  A(13,33,21)           120.7424         estimate D2E/DX2                !
 ! A115  A(13,33,34)           117.9145         estimate D2E/DX2                !
 ! A116  A(21,33,34)           121.3125         estimate D2E/DX2                !
 ! A117  A(33,34,66)           109.2359         estimate D2E/DX2                !
 ! A118  A(12,35,36)           120.8907         estimate D2E/DX2                !
 ! A119  A(12,35,67)           119.7051         estimate D2E/DX2                !
 ! A120  A(36,35,67)           119.4007         estimate D2E/DX2                !
 ! A121  A(9,36,35)            120.3173         estimate D2E/DX2                !
 ! A122  A(9,36,68)            119.1249         estimate D2E/DX2                !
 ! A123  A(35,36,68)           120.5577         estimate D2E/DX2                !
 ! D1    D(37,1,2,3)           -58.7466         estimate D2E/DX2                !
 ! D2    D(37,1,2,4)            58.6731         estimate D2E/DX2                !
 ! D3    D(37,1,2,5)          -179.2501         estimate D2E/DX2                !
 ! D4    D(38,1,2,3)          -178.7174         estimate D2E/DX2                !
 ! D5    D(38,1,2,4)           -61.2977         estimate D2E/DX2                !
 ! D6    D(38,1,2,5)            60.7791         estimate D2E/DX2                !
 ! D7    D(39,1,2,3)            61.0518         estimate D2E/DX2                !
 ! D8    D(39,1,2,4)           178.4715         estimate D2E/DX2                !
 ! D9    D(39,1,2,5)           -59.4517         estimate D2E/DX2                !
 ! D10   D(1,2,3,40)            60.8097         estimate D2E/DX2                !
 ! D11   D(1,2,3,41)           -59.0904         estimate D2E/DX2                !
 ! D12   D(1,2,3,42)          -179.3585         estimate D2E/DX2                !
 ! D13   D(4,2,3,40)           -56.9035         estimate D2E/DX2                !
 ! D14   D(4,2,3,41)          -176.8036         estimate D2E/DX2                !
 ! D15   D(4,2,3,42)            62.9283         estimate D2E/DX2                !
 ! D16   D(5,2,3,40)          -178.0743         estimate D2E/DX2                !
 ! D17   D(5,2,3,41)            62.0256         estimate D2E/DX2                !
 ! D18   D(5,2,3,42)           -58.2425         estimate D2E/DX2                !
 ! D19   D(1,2,4,43)          -178.8558         estimate D2E/DX2                !
 ! D20   D(1,2,4,44)           -59.1376         estimate D2E/DX2                !
 ! D21   D(1,2,4,45)            60.5027         estimate D2E/DX2                !
 ! D22   D(3,2,4,43)           -61.1167         estimate D2E/DX2                !
 ! D23   D(3,2,4,44)            58.6015         estimate D2E/DX2                !
 ! D24   D(3,2,4,45)           178.2418         estimate D2E/DX2                !
 ! D25   D(5,2,4,43)            59.2496         estimate D2E/DX2                !
 ! D26   D(5,2,4,44)           178.9678         estimate D2E/DX2                !
 ! D27   D(5,2,4,45)           -61.3919         estimate D2E/DX2                !
 ! D28   D(1,2,5,6)            -57.5431         estimate D2E/DX2                !
 ! D29   D(1,2,5,7)             65.0807         estimate D2E/DX2                !
 ! D30   D(1,2,5,8)            175.9342         estimate D2E/DX2                !
 ! D31   D(3,2,5,6)           -177.4232         estimate D2E/DX2                !
 ! D32   D(3,2,5,7)            -54.7994         estimate D2E/DX2                !
 ! D33   D(3,2,5,8)             56.0542         estimate D2E/DX2                !
 ! D34   D(4,2,5,6)             63.1312         estimate D2E/DX2                !
 ! D35   D(4,2,5,7)           -174.245          estimate D2E/DX2                !
 ! D36   D(4,2,5,8)            -63.3914         estimate D2E/DX2                !
 ! D37   D(2,5,6,46)            81.3854         estimate D2E/DX2                !
 ! D38   D(2,5,6,47)          -159.6657         estimate D2E/DX2                !
 ! D39   D(2,5,6,48)           -39.0966         estimate D2E/DX2                !
 ! D40   D(7,5,6,46)           -42.7146         estimate D2E/DX2                !
 ! D41   D(7,5,6,47)            76.2343         estimate D2E/DX2                !
 ! D42   D(7,5,6,48)          -163.1966         estimate D2E/DX2                !
 ! D43   D(8,5,6,46)          -154.4671         estimate D2E/DX2                !
 ! D44   D(8,5,6,47)           -35.5182         estimate D2E/DX2                !
 ! D45   D(8,5,6,48)            85.0509         estimate D2E/DX2                !
 ! D46   D(2,5,7,49)          -176.2917         estimate D2E/DX2                !
 ! D47   D(2,5,7,50)            63.8222         estimate D2E/DX2                !
 ! D48   D(2,5,7,51)           -56.7624         estimate D2E/DX2                !
 ! D49   D(6,5,7,49)           -53.0029         estimate D2E/DX2                !
 ! D50   D(6,5,7,50)          -172.8891         estimate D2E/DX2                !
 ! D51   D(6,5,7,51)            66.5263         estimate D2E/DX2                !
 ! D52   D(8,5,7,49)            67.2369         estimate D2E/DX2                !
 ! D53   D(8,5,7,50)           -52.6492         estimate D2E/DX2                !
 ! D54   D(8,5,7,51)          -173.2338         estimate D2E/DX2                !
 ! D55   D(2,5,8,9)             65.7518         estimate D2E/DX2                !
 ! D56   D(6,5,8,9)            -58.9453         estimate D2E/DX2                !
 ! D57   D(7,5,8,9)           -176.0037         estimate D2E/DX2                !
 ! D58   D(5,8,9,10)          -154.9833         estimate D2E/DX2                !
 ! D59   D(5,8,9,36)            25.9701         estimate D2E/DX2                !
 ! D60   D(8,9,10,11)         -179.3044         estimate D2E/DX2                !
 ! D61   D(8,9,10,52)            0.5662         estimate D2E/DX2                !
 ! D62   D(36,9,10,11)          -0.222          estimate D2E/DX2                !
 ! D63   D(36,9,10,52)         179.6485         estimate D2E/DX2                !
 ! D64   D(8,9,36,35)          178.9666         estimate D2E/DX2                !
 ! D65   D(8,9,36,68)           -0.9518         estimate D2E/DX2                !
 ! D66   D(10,9,36,35)          -0.0696         estimate D2E/DX2                !
 ! D67   D(10,9,36,68)        -179.9881         estimate D2E/DX2                !
 ! D68   D(9,10,11,12)           0.3456         estimate D2E/DX2                !
 ! D69   D(9,10,11,53)         179.1787         estimate D2E/DX2                !
 ! D70   D(52,10,11,12)       -179.5221         estimate D2E/DX2                !
 ! D71   D(52,10,11,53)         -0.689          estimate D2E/DX2                !
 ! D72   D(10,11,12,13)       -179.078          estimate D2E/DX2                !
 ! D73   D(10,11,12,35)         -0.1721         estimate D2E/DX2                !
 ! D74   D(53,11,12,13)          2.0892         estimate D2E/DX2                !
 ! D75   D(53,11,12,35)       -179.0049         estimate D2E/DX2                !
 ! D76   D(11,12,13,14)         44.4931         estimate D2E/DX2                !
 ! D77   D(11,12,13,33)       -134.8116         estimate D2E/DX2                !
 ! D78   D(35,12,13,14)       -134.3801         estimate D2E/DX2                !
 ! D79   D(35,12,13,33)         46.3151         estimate D2E/DX2                !
 ! D80   D(11,12,35,36)         -0.1222         estimate D2E/DX2                !
 ! D81   D(11,12,35,67)       -179.4418         estimate D2E/DX2                !
 ! D82   D(13,12,35,36)        178.7687         estimate D2E/DX2                !
 ! D83   D(13,12,35,67)         -0.5509         estimate D2E/DX2                !
 ! D84   D(12,13,14,15)        179.5377         estimate D2E/DX2                !
 ! D85   D(12,13,14,54)          1.002          estimate D2E/DX2                !
 ! D86   D(33,13,14,15)         -1.1444         estimate D2E/DX2                !
 ! D87   D(33,13,14,54)       -179.68           estimate D2E/DX2                !
 ! D88   D(12,13,33,21)        179.9677         estimate D2E/DX2                !
 ! D89   D(12,13,33,34)          1.9512         estimate D2E/DX2                !
 ! D90   D(14,13,33,21)          0.6501         estimate D2E/DX2                !
 ! D91   D(14,13,33,34)       -177.3664         estimate D2E/DX2                !
 ! D92   D(13,14,15,16)       -179.276          estimate D2E/DX2                !
 ! D93   D(13,14,15,20)          0.3673         estimate D2E/DX2                !
 ! D94   D(54,14,15,16)         -0.7302         estimate D2E/DX2                !
 ! D95   D(54,14,15,20)        178.913          estimate D2E/DX2                !
 ! D96   D(14,15,16,17)        179.2083         estimate D2E/DX2                !
 ! D97   D(14,15,16,55)         -0.6038         estimate D2E/DX2                !
 ! D98   D(20,15,16,17)         -0.4348         estimate D2E/DX2                !
 ! D99   D(20,15,16,55)        179.7531         estimate D2E/DX2                !
 ! D100  D(14,15,20,19)       -178.4962         estimate D2E/DX2                !
 ! D101  D(14,15,20,21)          0.8999         estimate D2E/DX2                !
 ! D102  D(16,15,20,19)          1.1577         estimate D2E/DX2                !
 ! D103  D(16,15,20,21)       -179.4463         estimate D2E/DX2                !
 ! D104  D(15,16,17,18)         -0.4558         estimate D2E/DX2                !
 ! D105  D(15,16,17,56)        179.9819         estimate D2E/DX2                !
 ! D106  D(55,16,17,18)        179.3521         estimate D2E/DX2                !
 ! D107  D(55,16,17,56)         -0.2102         estimate D2E/DX2                !
 ! D108  D(16,17,18,19)          0.6144         estimate D2E/DX2                !
 ! D109  D(16,17,18,57)       -179.1961         estimate D2E/DX2                !
 ! D110  D(56,17,18,19)       -179.8191         estimate D2E/DX2                !
 ! D111  D(56,17,18,57)          0.3704         estimate D2E/DX2                !
 ! D112  D(17,18,19,20)          0.1377         estimate D2E/DX2                !
 ! D113  D(17,18,19,58)       -179.3395         estimate D2E/DX2                !
 ! D114  D(57,18,19,20)        179.9471         estimate D2E/DX2                !
 ! D115  D(57,18,19,58)          0.4699         estimate D2E/DX2                !
 ! D116  D(18,19,20,15)         -1.0193         estimate D2E/DX2                !
 ! D117  D(18,19,20,21)        179.6064         estimate D2E/DX2                !
 ! D118  D(58,19,20,15)        178.4641         estimate D2E/DX2                !
 ! D119  D(58,19,20,21)         -0.9103         estimate D2E/DX2                !
 ! D120  D(15,20,21,22)        177.2028         estimate D2E/DX2                !
 ! D121  D(15,20,21,33)         -1.3811         estimate D2E/DX2                !
 ! D122  D(19,20,21,22)         -3.4232         estimate D2E/DX2                !
 ! D123  D(19,20,21,33)        177.9928         estimate D2E/DX2                !
 ! D124  D(20,21,22,23)        -71.8194         estimate D2E/DX2                !
 ! D125  D(20,21,22,32)        109.2908         estimate D2E/DX2                !
 ! D126  D(33,21,22,23)        106.7837         estimate D2E/DX2                !
 ! D127  D(33,21,22,32)        -72.106          estimate D2E/DX2                !
 ! D128  D(20,21,33,13)          0.6125         estimate D2E/DX2                !
 ! D129  D(20,21,33,34)        178.561          estimate D2E/DX2                !
 ! D130  D(22,21,33,13)       -177.9906         estimate D2E/DX2                !
 ! D131  D(22,21,33,34)         -0.0421         estimate D2E/DX2                !
 ! D132  D(21,22,23,24)          1.0414         estimate D2E/DX2                !
 ! D133  D(21,22,23,25)       -178.1319         estimate D2E/DX2                !
 ! D134  D(32,22,23,24)        179.943          estimate D2E/DX2                !
 ! D135  D(32,22,23,25)          0.7696         estimate D2E/DX2                !
 ! D136  D(21,22,32,27)        177.8806         estimate D2E/DX2                !
 ! D137  D(21,22,32,31)         -2.8832         estimate D2E/DX2                !
 ! D138  D(23,22,32,27)         -1.007          estimate D2E/DX2                !
 ! D139  D(23,22,32,31)        178.2292         estimate D2E/DX2                !
 ! D140  D(22,23,24,59)          3.0874         estimate D2E/DX2                !
 ! D141  D(25,23,24,59)       -177.7122         estimate D2E/DX2                !
 ! D142  D(22,23,25,26)         -0.0194         estimate D2E/DX2                !
 ! D143  D(22,23,25,60)        179.7629         estimate D2E/DX2                !
 ! D144  D(24,23,25,26)       -179.2364         estimate D2E/DX2                !
 ! D145  D(24,23,25,60)          0.5459         estimate D2E/DX2                !
 ! D146  D(23,25,26,27)         -0.4913         estimate D2E/DX2                !
 ! D147  D(23,25,26,61)        179.7533         estimate D2E/DX2                !
 ! D148  D(60,25,26,27)        179.7357         estimate D2E/DX2                !
 ! D149  D(60,25,26,61)         -0.0196         estimate D2E/DX2                !
 ! D150  D(25,26,27,28)       -179.5761         estimate D2E/DX2                !
 ! D151  D(25,26,27,32)          0.2385         estimate D2E/DX2                !
 ! D152  D(61,26,27,28)          0.1829         estimate D2E/DX2                !
 ! D153  D(61,26,27,32)        179.9975         estimate D2E/DX2                !
 ! D154  D(26,27,28,29)        179.4081         estimate D2E/DX2                !
 ! D155  D(26,27,28,62)         -0.3982         estimate D2E/DX2                !
 ! D156  D(32,27,28,29)         -0.4064         estimate D2E/DX2                !
 ! D157  D(32,27,28,62)        179.7873         estimate D2E/DX2                !
 ! D158  D(26,27,32,22)          0.5084         estimate D2E/DX2                !
 ! D159  D(26,27,32,31)       -178.7529         estimate D2E/DX2                !
 ! D160  D(28,27,32,22)       -179.6715         estimate D2E/DX2                !
 ! D161  D(28,27,32,31)          1.0671         estimate D2E/DX2                !
 ! D162  D(27,28,29,30)         -0.4171         estimate D2E/DX2                !
 ! D163  D(27,28,29,63)       -179.9897         estimate D2E/DX2                !
 ! D164  D(62,28,29,30)        179.3849         estimate D2E/DX2                !
 ! D165  D(62,28,29,63)         -0.1876         estimate D2E/DX2                !
 ! D166  D(28,29,30,31)          0.5694         estimate D2E/DX2                !
 ! D167  D(28,29,30,64)       -179.2084         estimate D2E/DX2                !
 ! D168  D(63,29,30,31)       -179.854          estimate D2E/DX2                !
 ! D169  D(63,29,30,64)          0.3682         estimate D2E/DX2                !
 ! D170  D(29,30,31,32)          0.1203         estimate D2E/DX2                !
 ! D171  D(29,30,31,65)       -179.2546         estimate D2E/DX2                !
 ! D172  D(64,30,31,32)        179.8967         estimate D2E/DX2                !
 ! D173  D(64,30,31,65)          0.5218         estimate D2E/DX2                !
 ! D174  D(30,31,32,22)        179.8245         estimate D2E/DX2                !
 ! D175  D(30,31,32,27)         -0.9339         estimate D2E/DX2                !
 ! D176  D(65,31,32,22)         -0.7925         estimate D2E/DX2                !
 ! D177  D(65,31,32,27)        178.4492         estimate D2E/DX2                !
 ! D178  D(13,33,34,66)        179.0916         estimate D2E/DX2                !
 ! D179  D(21,33,34,66)          1.0869         estimate D2E/DX2                !
 ! D180  D(12,35,36,9)           0.243          estimate D2E/DX2                !
 ! D181  D(12,35,36,68)       -179.8397         estimate D2E/DX2                !
 ! D182  D(67,35,36,9)         179.5647         estimate D2E/DX2                !
 ! D183  D(67,35,36,68)         -0.5181         estimate D2E/DX2                !
 --------------------------------------------------------------------------------
 Trust Radius=3.00D-01 FncErr=1.00D-07 GrdErr=1.00D-06 EigMax=2.50D+02 EigMin=1.00D-04
 Number of steps in this run=    388 maximum allowed number of steps=    408.
 GradGradGradGradGradGradGradGradGradGradGradGradGradGradGradGradGradGrad

 Leave Link  103 at Mon Mar 24 15:40:05 2025, MaxMem= 13421772800 cpu:               0.8 elap:               0.0
 (Enter /public/software/apps/Gaussian/g16/l202.exe)
 Symmetry turned off by external request.
 Stoichiometry    C32H32O3Si
 Framework group  C1[X(C32H32O3Si)]
 Deg. of freedom   198
 Full point group                 C1      NOp   1
                          Input orientation:                          
 ---------------------------------------------------------------------
 Center     Atomic      Atomic             Coordinates (Angstroms)
 Number     Number       Type             X           Y           Z
 ---------------------------------------------------------------------
      1          6           0        7.759033    1.222542    1.672265
      2          6           0        6.573502    0.376845    1.202180
      3          6           0        6.947221   -1.102945    1.327742
      4          6           0        5.382452    0.648238    2.126452
      5         14           0        6.131009    0.782964   -0.633834
      6          6           0        5.736960    2.640319   -0.838507
      7          6           0        7.523091    0.294045   -1.828621
      8          8           0        4.930968   -0.211194   -1.145833
      9          6           0        3.630368   -0.414982   -0.849239
     10          6           0        3.087746   -1.670083   -1.113449
     11          6           0        1.759417   -1.924464   -0.841635
     12          6           0        0.936779   -0.935361   -0.307360
     13          6           0       -0.471916   -1.231390   -0.005309
     14          6           0       -0.820487   -2.397495    0.629497
     15          6           0       -2.156607   -2.709672    0.942928
     16          6           0       -2.508404   -3.901812    1.608434
     17          6           0       -3.812181   -4.173697    1.915494
     18          6           0       -4.820774   -3.259003    1.578079
     19          6           0       -4.513891   -2.095217    0.929466
     20          6           0       -3.179132   -1.793452    0.584854
     21          6           0       -2.822839   -0.600020   -0.095490
     22          6           0       -3.872040    0.354817   -0.542061
     23          6           0       -4.690886    0.019289   -1.604416
     24          8           0       -4.591629   -1.168531   -2.254217
     25          6           0       -5.665270    0.924119   -2.069646
     26          6           0       -5.813963    2.143089   -1.477835
     27          6           0       -5.007092    2.522377   -0.384236
     28          6           0       -5.149261    3.773720    0.248490
     29          6           0       -4.363981    4.114191    1.314103
     30          6           0       -3.406316    3.211071    1.798799
     31          6           0       -3.240526    1.990689    1.206296
     32          6           0       -4.025984    1.614576    0.094652
     33          6           0       -1.498664   -0.323427   -0.377776
     34          8           0       -1.140333    0.799697   -1.053615
     35          6           0        1.486106    0.317089   -0.049655
     36          6           0        2.816126    0.575655   -0.313984
     37          1           0        8.013361    0.980666    2.703796
     38          1           0        7.524176    2.282793    1.619429
     39          1           0        8.633892    1.035791    1.054390
     40          1           0        7.166505   -1.353736    2.365527
     41          1           0        7.826237   -1.331422    0.730060
     42          1           0        6.129087   -1.735717    0.990479
     43          1           0        4.521744    0.048519    1.836874
     44          1           0        5.638409    0.398250    3.156118
     45          1           0        5.094755    1.697000    2.098506
     46          1           0        6.648506    3.223010   -0.924167
     47          1           0        5.158264    2.808102   -1.742609
     48          1           0        5.170912    3.049455   -0.006531
     49          1           0        7.282179    0.589222   -2.844446
     50          1           0        7.691638   -0.777361   -1.831713
     51          1           0        8.454877    0.778395   -1.559101
     52          1           0        3.723975   -2.433391   -1.534486
     53          1           0        1.347362   -2.898103   -1.063586
     54          1           0       -0.046080   -3.091762    0.921247
     55          1           0       -1.723197   -4.595272    1.873466
     56          1           0       -4.074183   -5.089059    2.425125
     57          1           0       -5.845668   -3.479132    1.837644
     58          1           0       -5.292776   -1.388683    0.681035
     59          1           0       -3.919154   -1.717570   -1.827090
     60          1           0       -6.276443    0.617195   -2.903389
     61          1           0       -6.559072    2.836383   -1.839067
     62          1           0       -5.896610    4.458514   -0.126122
     63          1           0       -4.479317    5.074965    1.793474
     64          1           0       -2.800329    3.486013    2.649486
     65          1           0       -2.509920    1.293406    1.590477
     66          1           0       -1.933062    1.317142   -1.255173
     67          1           0        0.869198    1.094752    0.372428
     68          1           0        3.236591    1.546769   -0.109931
 ---------------------------------------------------------------------
 Rotational constants (GHZ):           0.1832244           0.0465797           0.0417263
 Leave Link  202 at Mon Mar 24 15:40:05 2025, MaxMem= 13421772800 cpu:               0.1 elap:               0.0
 (Enter /public/software/apps/Gaussian/g16/l301.exe)
 Standard basis: def2SVPP (5D, 7F)
 Ernie: Thresh=  0.10000D-02 Tol=  0.10000D-05 Strict=F.
   572 basis functions,  1040 primitive gaussians,   608 cartesian basis functions
   131 alpha electrons      131 beta electrons
       nuclear repulsion energy      3813.2737132213 Hartrees.
 IExCor=  402 DFT=T Ex+Corr=B3LYP ExCW=0 ScaHFX=  0.200000
 ScaDFX=  0.800000  0.720000  1.000000  0.810000 ScalE2=  1.000000  1.000000
 IRadAn=      5 IRanWt=     -1 IRanGd=            0 ICorTp=0 IEmpDi=141
 NAtoms=   68 NActive=   68 NUniq=   68 SFac= 1.00D+00 NAtFMM=   60 NAOKFM=T Big=T
 Integral buffers will be    131072 words long.
 Raffenetti 2 integral format.
 Two-electron integral symmetry is turned off.
 R6Disp:  Grimme-D3(BJ) Dispersion energy=       -0.1713539497 Hartrees.
 Nuclear repulsion after empirical dispersion term =     3813.1023592716 Hartrees.
 Leave Link  301 at Mon Mar 24 15:40:05 2025, MaxMem= 13421772800 cpu:               1.2 elap:               0.0
 (Enter /public/software/apps/Gaussian/g16/l302.exe)
 NPDir=0 NMtPBC=     1 NCelOv=     1 NCel=       1 NClECP=     1 NCelD=      1
         NCelK=      1 NCelE2=     1 NClLst=     1 CellRange=     0.0.
 One-electron integrals computed using PRISM.
   1 Symmetry operations used in ECPInt.
 ECPInt:  NShTT=   39903 NPrTT=  161035 LenC2=   31100 LenP2D=   77990.
 LDataN:  DoStor=T MaxTD1= 4 Len=   56
 NBasis=   572 RedAO= T EigKep=  1.61D-04  NBF=   572
 NBsUse=   572 1.00D-06 EigRej= -1.00D+00 NBFU=   572
 Precomputing XC quadrature grid using
 IXCGrd= 4 IRadAn=           5 IRanWt=          -1 IRanGd=           0 AccXCQ= 0.00D+00.
 Generated NRdTot=       0 NPtTot=           0 NUsed=           0 NTot=          32
 NSgBfM=   595   595   595   595   595 MxSgAt=    68 MxSgA2=    68.
 Leave Link  302 at Mon Mar 24 15:40:06 2025, MaxMem= 13421772800 cpu:              21.6 elap:               0.7
 (Enter /public/software/apps/Gaussian/g16/l303.exe)
 DipDrv:  MaxL=1.
 Leave Link  303 at Mon Mar 24 15:40:06 2025, MaxMem= 13421772800 cpu:               2.8 elap:               0.1
 (Enter /public/software/apps/Gaussian/g16/l401.exe)
 ExpMin= 7.80D-02 ExpMax= 6.90D+03 ExpMxC= 1.04D+03 IAcc=3 IRadAn=         5 AccDes= 0.00D+00
 Harris functional with IExCor=  402 and IRadAn=       5 diagonalized for initial guess.
 HarFok:  IExCor=  402 AccDes= 0.00D+00 IRadAn=         5 IDoV= 1 UseB2=F ITyADJ=14
 ICtDFT=  3500011 ScaDFX=  1.000000  1.000000  1.000000  1.000000
 FoFCou: FMM=F IPFlag=           0 FMFlag=      100000 FMFlg1=        2001
         NFxFlg=           0 DoJE=T BraDBF=F KetDBF=T FulRan=T
         wScrn=  0.000000 ICntrl=       500 IOpCl=  0 I1Cent=   200000004 NGrid=           0
         NMat0=    1 NMatS0=      1 NMatT0=    0 NMatD0=    1 NMtDS0=    0 NMtDT0=    0
 Symmetry not used in FoFCou.
 Harris En= -1752.94356206762    
 JPrj=0 DoOrth=F DoCkMO=F.
 Leave Link  401 at Mon Mar 24 15:40:07 2025, MaxMem= 13421772800 cpu:              48.1 elap:               1.5
 (Enter /public/software/apps/Gaussian/g16/l502.exe)
 Two-electron integral symmetry not used.
 Closed shell SCF:
 Using DIIS extrapolation, IDIIS=  1040.
 NGot= 13421772800 LenX= 13421007138 LenY= 13420636866
 Requested convergence on RMS density matrix=1.00D-08 within 128 cycles.
 Requested convergence on MAX density matrix=1.00D-06.
 Requested convergence on             energy=1.00D-06.
 No special actions if energy rises.
 Fock matrices will be formed incrementally for  20 cycles.
 Integral accuracy reduced to 1.0D-05 until final iterations.

 Cycle   1  Pass 0  IDiag  1:
 FoFJK:  IHMeth= 1 ICntrl=       0 DoSepK=F KAlg= 0 I1Cent=           0 FoldK=F
 IRaf= 910000000 NMat=       1 IRICut=       1 DoRegI=T DoRafI=F ISym2E= 0 IDoP0=0 IntGTp=1.
 FoFCou: FMM=T IPFlag=           0 FMFlag=      100000 FMFlg1=        2001
         NFxFlg=           0 DoJE=F BraDBF=F KetDBF=F FulRan=T
         wScrn=  0.000000 ICntrl=         0 IOpCl=  0 I1Cent=           0 NGrid=           0
         NMat0=    1 NMatS0=      1 NMatT0=    0 NMatD0=    1 NMtDS0=    0 NMtDT0=    0
 Symmetry not used in FoFCou.
 FMM levels:  10  Number of levels for PrismC:   9
 E= -1751.96887476909    
 DIIS: error= 4.17D-02 at cycle   1 NSaved=   1.
 NSaved= 1 IEnMin= 1 EnMin= -1751.96887476909     IErMin= 1 ErrMin= 4.17D-02
 ErrMax= 4.17D-02  0.00D+00 EMaxC= 1.00D-01 BMatC= 8.42D-01 BMatP= 8.42D-01
 IDIUse=3 WtCom= 5.83D-01 WtEn= 4.17D-01
 Coeff-Com:  0.100D+01
 Coeff-En:   0.100D+01
 Coeff:      0.100D+01
 Gap=     0.179 Goal=   None    Shift=    0.000
 GapD=    0.179 DampG=1.000 DampE=0.500 DampFc=0.5000 IDamp=-1.
 Damping current iteration by 5.00D-01
 RMSDP=5.29D-03 MaxDP=2.07D-01              OVMax= 1.87D-01

 Cycle   2  Pass 0  IDiag  1:
 RMSU=  2.43D-03    CP:  9.43D-01
 E= -1752.39578161182     Delta-E=       -0.426906842728 Rises=F Damp=T
 DIIS: error= 5.20D-03 at cycle   2 NSaved=   2.
 NSaved= 2 IEnMin= 2 EnMin= -1752.39578161182     IErMin= 2 ErrMin= 5.20D-03
 ErrMax= 5.20D-03  0.00D+00 EMaxC= 1.00D-01 BMatC= 3.47D-02 BMatP= 8.42D-01
 IDIUse=3 WtCom= 9.48D-01 WtEn= 5.20D-02
 Coeff-Com:  0.472D-01 0.953D+00
 Coeff-En:   0.705D-01 0.930D+00
 Coeff:      0.484D-01 0.952D+00
 Gap=     0.172 Goal=   None    Shift=    0.000
 RMSDP=1.74D-03 MaxDP=1.08D-01 DE=-4.27D-01 OVMax= 1.37D-01

 Cycle   3  Pass 0  IDiag  1:
 RMSU=  1.57D-03    CP:  9.03D-01  1.08D+00
 E= -1752.86292078959     Delta-E=       -0.467139177773 Rises=F Damp=F
 DIIS: error= 5.89D-03 at cycle   3 NSaved=   3.
 NSaved= 3 IEnMin= 3 EnMin= -1752.86292078959     IErMin= 2 ErrMin= 5.20D-03
 ErrMax= 5.89D-03  0.00D+00 EMaxC= 1.00D-01 BMatC= 3.13D-02 BMatP= 3.47D-02
 IDIUse=3 WtCom= 9.41D-01 WtEn= 5.89D-02
 Coeff-Com: -0.760D-02 0.486D+00 0.522D+00
 Coeff-En:   0.000D+00 0.000D+00 0.100D+01
 Coeff:     -0.715D-02 0.457D+00 0.550D+00
 Gap=     0.166 Goal=   None    Shift=    0.000
 RMSDP=7.46D-04 MaxDP=3.57D-02 DE=-4.67D-01 OVMax= 7.31D-02

 Cycle   4  Pass 0  IDiag  1:
 RMSU=  6.20D-04    CP:  9.04D-01  1.15D+00  7.56D-01
 E= -1752.88485288483     Delta-E=       -0.021932095246 Rises=F Damp=F
 DIIS: error= 4.17D-03 at cycle   4 NSaved=   4.
 NSaved= 4 IEnMin= 4 EnMin= -1752.88485288483     IErMin= 4 ErrMin= 4.17D-03
 ErrMax= 4.17D-03  0.00D+00 EMaxC= 1.00D-01 BMatC= 1.11D-02 BMatP= 3.13D-02
 IDIUse=3 WtCom= 9.58D-01 WtEn= 4.17D-02
 Coeff-Com: -0.106D-01 0.146D+00 0.376D+00 0.489D+00
 Coeff-En:   0.000D+00 0.000D+00 0.305D+00 0.695D+00
 Coeff:     -0.102D-01 0.139D+00 0.373D+00 0.498D+00
 Gap=     0.157 Goal=   None    Shift=    0.000
 RMSDP=3.77D-04 MaxDP=2.45D-02 DE=-2.19D-02 OVMax= 4.32D-02

 Cycle   5  Pass 0  IDiag  1:
 RMSU=  1.95D-04    CP:  9.03D-01  1.12D+00  8.38D-01  5.34D-01
 E= -1752.89653489209     Delta-E=       -0.011682007253 Rises=F Damp=F
 DIIS: error= 9.68D-04 at cycle   5 NSaved=   5.
 NSaved= 5 IEnMin= 5 EnMin= -1752.89653489209     IErMin= 5 ErrMin= 9.68D-04
 ErrMax= 9.68D-04  0.00D+00 EMaxC= 1.00D-01 BMatC= 1.15D-03 BMatP= 1.11D-02
 IDIUse=3 WtCom= 9.90D-01 WtEn= 9.68D-03
 Coeff-Com: -0.568D-02 0.405D-01 0.181D+00 0.318D+00 0.466D+00
 Coeff-En:   0.000D+00 0.000D+00 0.000D+00 0.561D-01 0.944D+00
 Coeff:     -0.563D-02 0.401D-01 0.180D+00 0.315D+00 0.470D+00
 Gap=     0.156 Goal=   None    Shift=    0.000
 RMSDP=1.06D-04 MaxDP=3.70D-03 DE=-1.17D-02 OVMax= 1.41D-02

 Cycle   6  Pass 0  IDiag  1:
 RMSU=  7.10D-05    CP:  9.02D-01  1.13D+00  8.38D-01  5.93D-01  6.51D-01
 E= -1752.89772203596     Delta-E=       -0.001187143877 Rises=F Damp=F
 DIIS: error= 3.11D-04 at cycle   6 NSaved=   6.
 NSaved= 6 IEnMin= 6 EnMin= -1752.89772203596     IErMin= 6 ErrMin= 3.11D-04
 ErrMax= 3.11D-04  0.00D+00 EMaxC= 1.00D-01 BMatC= 1.06D-04 BMatP= 1.15D-03
 IDIUse=3 WtCom= 9.97D-01 WtEn= 3.11D-03
 Coeff-Com: -0.178D-02 0.384D-02 0.534D-01 0.117D+00 0.281D+00 0.547D+00
 Coeff-En:   0.000D+00 0.000D+00 0.000D+00 0.000D+00 0.562D-01 0.944D+00
 Coeff:     -0.178D-02 0.383D-02 0.533D-01 0.117D+00 0.280D+00 0.548D+00
 Gap=     0.156 Goal=   None    Shift=    0.000
 RMSDP=3.37D-05 MaxDP=1.07D-03 DE=-1.19D-03 OVMax= 4.16D-03

 Cycle   7  Pass 0  IDiag  1:
 RMSU=  2.55D-05    CP:  9.02D-01  1.13D+00  8.39D-01  5.93D-01  7.09D-01
                    CP:  7.39D-01
 E= -1752.89785852774     Delta-E=       -0.000136491779 Rises=F Damp=F
 DIIS: error= 8.26D-05 at cycle   7 NSaved=   7.
 NSaved= 7 IEnMin= 7 EnMin= -1752.89785852774     IErMin= 7 ErrMin= 8.26D-05
 ErrMax= 8.26D-05  0.00D+00 EMaxC= 1.00D-01 BMatC= 1.03D-05 BMatP= 1.06D-04
 IDIUse=1 WtCom= 1.00D+00 WtEn= 0.00D+00
 Coeff-Com: -0.633D-03-0.677D-03 0.172D-01 0.434D-01 0.126D+00 0.323D+00
 Coeff-Com:  0.492D+00
 Coeff:     -0.633D-03-0.677D-03 0.172D-01 0.434D-01 0.126D+00 0.323D+00
 Coeff:      0.492D+00
 Gap=     0.156 Goal=   None    Shift=    0.000
 RMSDP=1.46D-05 MaxDP=6.89D-04 DE=-1.36D-04 OVMax= 9.98D-04

 Cycle   8  Pass 0  IDiag  1:
 RMSU=  1.31D-05    CP:  9.02D-01  1.13D+00  8.39D-01  5.93D-01  6.82D-01
                    CP:  7.59D-01  9.19D-01
 E= -1752.89787812958     Delta-E=       -0.000019601835 Rises=F Damp=F
 DIIS: error= 3.55D-05 at cycle   8 NSaved=   8.
 NSaved= 8 IEnMin= 8 EnMin= -1752.89787812958     IErMin= 8 ErrMin= 3.55D-05
 ErrMax= 3.55D-05  0.00D+00 EMaxC= 1.00D-01 BMatC= 5.99D-07 BMatP= 1.03D-05
 IDIUse=1 WtCom= 1.00D+00 WtEn= 0.00D+00
 Coeff-Com: -0.204D-03-0.624D-03 0.563D-02 0.152D-01 0.490D-01 0.138D+00
 Coeff-Com:  0.261D+00 0.532D+00
 Coeff:     -0.204D-03-0.624D-03 0.563D-02 0.152D-01 0.490D-01 0.138D+00
 Coeff:      0.261D+00 0.532D+00
 Gap=     0.156 Goal=   None    Shift=    0.000
 RMSDP=1.02D-05 MaxDP=2.65D-04 DE=-1.96D-05 OVMax= 2.26D-04

 Cycle   9  Pass 0  IDiag  1:
 RMSU=  7.89D-06    CP:  9.02D-01  1.13D+00  8.39D-01  5.94D-01  6.79D-01
                    CP:  7.60D-01  1.08D+00  1.37D+00
 E= -1752.89788008424     Delta-E=       -0.000001954657 Rises=F Damp=F
 DIIS: error= 2.70D-05 at cycle   9 NSaved=   9.
 NSaved= 9 IEnMin= 9 EnMin= -1752.89788008424     IErMin= 9 ErrMin= 2.70D-05
 ErrMax= 2.70D-05  0.00D+00 EMaxC= 1.00D-01 BMatC= 1.75D-07 BMatP= 5.99D-07
 IDIUse=1 WtCom= 1.00D+00 WtEn= 0.00D+00
 Coeff-Com: -0.657D-04-0.342D-03 0.190D-02 0.531D-02 0.189D-01 0.558D-01
 Coeff-Com:  0.118D+00 0.348D+00 0.453D+00
 Coeff:     -0.657D-04-0.342D-03 0.190D-02 0.531D-02 0.189D-01 0.558D-01
 Coeff:      0.118D+00 0.348D+00 0.453D+00
 Gap=     0.156 Goal=   None    Shift=    0.000
 RMSDP=1.13D-05 MaxDP=3.11D-04 DE=-1.95D-06 OVMax= 9.83D-05

 Cycle  10  Pass 0  IDiag  1:
 RMSU=  6.48D-06    CP:  9.02D-01  1.13D+00  8.39D-01  5.94D-01  6.76D-01
                    CP:  7.69D-01  1.21D+00  1.88D+00  1.69D+00
 E= -1752.89788458422     Delta-E=       -0.000004499989 Rises=F Damp=F
 DIIS: error= 4.39D-05 at cycle  10 NSaved=  10.
 NSaved=10 IEnMin=10 EnMin= -1752.89788458422     IErMin= 9 ErrMin= 2.70D-05
 ErrMax= 4.39D-05  0.00D+00 EMaxC= 1.00D-01 BMatC= 1.99D-07 BMatP= 1.75D-07
 IDIUse=1 WtCom= 1.00D+00 WtEn= 0.00D+00
 Coeff-Com: -0.648D-04-0.409D-03 0.194D-02 0.552D-02 0.203D-01 0.611D-01
 Coeff-Com:  0.134D+00 0.435D+00 0.681D+00-0.339D+00
 Coeff:     -0.648D-04-0.409D-03 0.194D-02 0.552D-02 0.203D-01 0.611D-01
 Coeff:      0.134D+00 0.435D+00 0.681D+00-0.339D+00
 Gap=     0.156 Goal=   None    Shift=    0.000
 RMSDP=9.46D-06 MaxDP=2.57D-04 DE=-4.50D-06 OVMax= 3.10D-05

 Initial convergence to 1.0D-05 achieved.  Increase integral accuracy.
 Cycle  11  Pass 1  IDiag  1:
 E= -1752.89769787133     Delta-E=        0.000186712897 Rises=F Damp=F
 DIIS: error= 5.69D-04 at cycle   1 NSaved=   1.
 NSaved= 1 IEnMin= 1 EnMin= -1752.89769787133     IErMin= 1 ErrMin= 5.69D-04
 ErrMax= 5.69D-04  0.00D+00 EMaxC= 1.00D-01 BMatC= 5.51D-05 BMatP= 5.51D-05
 IDIUse=3 WtCom= 9.94D-01 WtEn= 5.69D-03
 Coeff-Com:  0.100D+01
 Coeff-En:   0.100D+01
 Coeff:      0.100D+01
 Gap=     0.156 Goal=   None    Shift=    0.000
 RMSDP=9.46D-06 MaxDP=2.57D-04 DE= 1.87D-04 OVMax= 9.31D-04

 Cycle  12  Pass 1  IDiag  1:
 RMSU=  5.14D-04    CP:  9.98D-01
 E= -1752.89775669004     Delta-E=       -0.000058818715 Rises=F Damp=F
 DIIS: error= 1.21D-05 at cycle   2 NSaved=   2.
 NSaved= 2 IEnMin= 2 EnMin= -1752.89775669004     IErMin= 2 ErrMin= 1.21D-05
 ErrMax= 1.21D-05  0.00D+00 EMaxC= 1.00D-01 BMatC= 1.23D-07 BMatP= 5.51D-05
 IDIUse=1 WtCom= 1.00D+00 WtEn= 0.00D+00
 Coeff-Com: -0.691D-02 0.101D+01
 Coeff:     -0.691D-02 0.101D+01
 Gap=     0.156 Goal=   None    Shift=    0.000
 RMSDP=7.44D-06 MaxDP=2.01D-04 DE=-5.88D-05 OVMax= 3.25D-04

 Cycle  13  Pass 1  IDiag  1:
 RMSU=  3.41D-06    CP:  9.98D-01  1.01D+00
 E= -1752.89775618510     Delta-E=        0.000000504945 Rises=F Damp=F
 DIIS: error= 2.85D-05 at cycle   3 NSaved=   3.
 NSaved= 3 IEnMin= 2 EnMin= -1752.89775669004     IErMin= 2 ErrMin= 1.21D-05
 ErrMax= 2.85D-05  0.00D+00 EMaxC= 1.00D-01 BMatC= 5.74D-07 BMatP= 1.23D-07
 IDIUse=1 WtCom= 1.00D+00 WtEn= 0.00D+00
 Coeff-Com: -0.691D-02 0.694D+00 0.312D+00
 Coeff:     -0.691D-02 0.694D+00 0.312D+00
 Gap=     0.156 Goal=   None    Shift=    0.000
 RMSDP=1.97D-06 MaxDP=9.60D-05 DE= 5.05D-07 OVMax= 2.38D-04

 Cycle  14  Pass 1  IDiag  1:
 RMSU=  1.16D-06    CP:  9.98D-01  1.01D+00  5.33D-01
 E= -1752.89775682850     Delta-E=       -0.000000643406 Rises=F Damp=F
 DIIS: error= 2.17D-06 at cycle   4 NSaved=   4.
 NSaved= 4 IEnMin= 4 EnMin= -1752.89775682850     IErMin= 4 ErrMin= 2.17D-06
 ErrMax= 2.17D-06  0.00D+00 EMaxC= 1.00D-01 BMatC= 3.03D-09 BMatP= 1.23D-07
 IDIUse=1 WtCom= 1.00D+00 WtEn= 0.00D+00
 Coeff-Com: -0.353D-02 0.350D+00 0.166D+00 0.488D+00
 Coeff:     -0.353D-02 0.350D+00 0.166D+00 0.488D+00
 Gap=     0.156 Goal=   None    Shift=    0.000
 RMSDP=1.73D-07 MaxDP=1.04D-05 DE=-6.43D-07 OVMax= 1.76D-05

 Cycle  15  Pass 1  IDiag  1:
 RMSU=  1.52D-07    CP:  9.98D-01  1.01D+00  5.53D-01  9.67D-01
 E= -1752.89775683131     Delta-E=       -0.000000002806 Rises=F Damp=F
 DIIS: error= 8.11D-07 at cycle   5 NSaved=   5.
 NSaved= 5 IEnMin= 5 EnMin= -1752.89775683131     IErMin= 5 ErrMin= 8.11D-07
 ErrMax= 8.11D-07  0.00D+00 EMaxC= 1.00D-01 BMatC= 3.21D-10 BMatP= 3.03D-09
 IDIUse=1 WtCom= 1.00D+00 WtEn= 0.00D+00
 Coeff-Com: -0.386D-03 0.361D-01 0.210D-01 0.253D+00 0.690D+00
 Coeff:     -0.386D-03 0.361D-01 0.210D-01 0.253D+00 0.690D+00
 Gap=     0.156 Goal=   None    Shift=    0.000
 RMSDP=6.72D-08 MaxDP=3.06D-06 DE=-2.81D-09 OVMax= 6.99D-06

 Cycle  16  Pass 1  IDiag  1:
 RMSU=  4.36D-08    CP:  9.98D-01  1.01D+00  5.53D-01  9.87D-01  7.19D-01
 E= -1752.89775683157     Delta-E=       -0.000000000266 Rises=F Damp=F
 DIIS: error= 2.69D-07 at cycle   6 NSaved=   6.
 NSaved= 6 IEnMin= 6 EnMin= -1752.89775683157     IErMin= 6 ErrMin= 2.69D-07
 ErrMax= 2.69D-07  0.00D+00 EMaxC= 1.00D-01 BMatC= 7.32D-11 BMatP= 3.21D-10
 IDIUse=1 WtCom= 1.00D+00 WtEn= 0.00D+00
 Coeff-Com:  0.304D-05-0.167D-02 0.165D-02 0.128D+00 0.447D+00 0.426D+00
 Coeff:      0.304D-05-0.167D-02 0.165D-02 0.128D+00 0.447D+00 0.426D+00
 Gap=     0.156 Goal=   None    Shift=    0.000
 RMSDP=2.43D-08 MaxDP=9.81D-07 DE=-2.66D-10 OVMax= 2.88D-06

 Cycle  17  Pass 1  IDiag  1:
 RMSU=  1.18D-08    CP:  9.98D-01  1.01D+00  5.54D-01  9.89D-01  7.72D-01
                    CP:  5.68D-01
 E= -1752.89775683164     Delta-E=       -0.000000000062 Rises=F Damp=F
 DIIS: error= 6.37D-08 at cycle   7 NSaved=   7.
 NSaved= 7 IEnMin= 7 EnMin= -1752.89775683164     IErMin= 7 ErrMin= 6.37D-08
 ErrMax= 6.37D-08  0.00D+00 EMaxC= 1.00D-01 BMatC= 3.08D-12 BMatP= 7.32D-11
 IDIUse=1 WtCom= 1.00D+00 WtEn= 0.00D+00
 Coeff-Com:  0.243D-04-0.311D-02-0.302D-03 0.619D-01 0.227D+00 0.249D+00
 Coeff-Com:  0.466D+00
 Coeff:      0.243D-04-0.311D-02-0.302D-03 0.619D-01 0.227D+00 0.249D+00
 Coeff:      0.466D+00
 Gap=     0.156 Goal=   None    Shift=    0.000
 RMSDP=6.18D-09 MaxDP=3.85D-07 DE=-6.18D-11 OVMax= 7.42D-07

 SCF Done:  E(RB3LYP) =  -1752.89775683     A.U. after   17 cycles
            NFock= 17  Conv=0.62D-08     -V/T= 2.0085
 KE= 1.738159368784D+03 PE=-1.171052176602D+04 EE= 4.406362281137D+03
 Leave Link  502 at Mon Mar 24 15:40:49 2025, MaxMem= 13421772800 cpu:            1297.5 elap:              41.2
 (Enter /public/software/apps/Gaussian/g16/l601.exe)
 Copying SCF densities to generalized density rwf, IOpCl= 0 IROHF=0.

 **********************************************************************

            Population analysis using the SCF Density.

 **********************************************************************

 Alpha  occ. eigenvalues --  -66.12957 -19.16457 -19.16389 -19.14280 -10.25645
 Alpha  occ. eigenvalues --  -10.25590 -10.24733 -10.20271 -10.20005 -10.19882
 Alpha  occ. eigenvalues --  -10.19742 -10.19659 -10.19613 -10.19578 -10.19368
 Alpha  occ. eigenvalues --  -10.19044 -10.19005 -10.18945 -10.18861 -10.18775
 Alpha  occ. eigenvalues --  -10.18712 -10.18629 -10.18600 -10.18575 -10.18425
 Alpha  occ. eigenvalues --  -10.18419 -10.18384 -10.18257 -10.17940 -10.17712
 Alpha  occ. eigenvalues --  -10.17688 -10.16818 -10.16527 -10.16432 -10.15970
 Alpha  occ. eigenvalues --  -10.15153  -5.29127  -3.65567  -3.65226  -3.65182
 Alpha  occ. eigenvalues --   -1.05982  -1.05650  -1.03242  -0.88541  -0.87614
 Alpha  occ. eigenvalues --   -0.85482  -0.82627  -0.82110  -0.80076  -0.79920
 Alpha  occ. eigenvalues --   -0.76419  -0.75940  -0.74475  -0.74267  -0.72844
 Alpha  occ. eigenvalues --   -0.72229  -0.70674  -0.69783  -0.68205  -0.68017
 Alpha  occ. eigenvalues --   -0.67282  -0.65710  -0.64120  -0.62628  -0.61796
 Alpha  occ. eigenvalues --   -0.61433  -0.61304  -0.59382  -0.58409  -0.56096
 Alpha  occ. eigenvalues --   -0.55749  -0.55538  -0.53947  -0.53052  -0.52833
 Alpha  occ. eigenvalues --   -0.51926  -0.50351  -0.48208  -0.47677  -0.47048
 Alpha  occ. eigenvalues --   -0.46514  -0.46307  -0.46080  -0.45258  -0.44673
 Alpha  occ. eigenvalues --   -0.44270  -0.44128  -0.43999  -0.43598  -0.43455
 Alpha  occ. eigenvalues --   -0.42891  -0.42561  -0.42387  -0.41699  -0.41502
 Alpha  occ. eigenvalues --   -0.41359  -0.40786  -0.40283  -0.40144  -0.39621
 Alpha  occ. eigenvalues --   -0.39528  -0.39191  -0.38791  -0.38717  -0.38462
 Alpha  occ. eigenvalues --   -0.38343  -0.37986  -0.37967  -0.37441  -0.36903
 Alpha  occ. eigenvalues --   -0.36725  -0.35456  -0.35080  -0.34984  -0.34378
 Alpha  occ. eigenvalues --   -0.33453  -0.33010  -0.32940  -0.32450  -0.32006
 Alpha  occ. eigenvalues --   -0.31534  -0.29965  -0.29212  -0.28581  -0.27362
 Alpha  occ. eigenvalues --   -0.25741  -0.25069  -0.24507  -0.22384  -0.21594
 Alpha  occ. eigenvalues --   -0.21058
 Alpha virt. eigenvalues --   -0.05413  -0.04509  -0.02019  -0.01354  -0.00660
 Alpha virt. eigenvalues --    0.01309   0.01416   0.02843   0.04123   0.06102
 Alpha virt. eigenvalues --    0.06574   0.06894   0.06988   0.07207   0.07974
 Alpha virt. eigenvalues --    0.08172   0.08425   0.08626   0.09261   0.09586
 Alpha virt. eigenvalues --    0.09784   0.10005   0.10228   0.10797   0.11222
 Alpha virt. eigenvalues --    0.11569   0.11954   0.12197   0.12399   0.12516
 Alpha virt. eigenvalues --    0.13337   0.13874   0.14208   0.14436   0.15170
 Alpha virt. eigenvalues --    0.15491   0.15551   0.16160   0.16283   0.16663
 Alpha virt. eigenvalues --    0.17179   0.17576   0.17961   0.18549   0.18663
 Alpha virt. eigenvalues --    0.19130   0.19916   0.20101   0.20504   0.21190
 Alpha virt. eigenvalues --    0.22554   0.22656   0.23127   0.23832   0.25138
 Alpha virt. eigenvalues --    0.25705   0.26104   0.26408   0.27171   0.27517
 Alpha virt. eigenvalues --    0.27806   0.28278   0.29214   0.29688   0.30177
 Alpha virt. eigenvalues --    0.30628   0.30891   0.31088   0.31715   0.32014
 Alpha virt. eigenvalues --    0.32226   0.33083   0.33386   0.34254   0.34458
 Alpha virt. eigenvalues --    0.35460   0.35714   0.36599   0.37163   0.37362
 Alpha virt. eigenvalues --    0.37944   0.38345   0.38656   0.39052   0.39574
 Alpha virt. eigenvalues --    0.40060   0.40563   0.41172   0.41250   0.42203
 Alpha virt. eigenvalues --    0.42466   0.43049   0.43151   0.43931   0.44453
 Alpha virt. eigenvalues --    0.45057   0.45131   0.45782   0.46146   0.46581
 Alpha virt. eigenvalues --    0.47095   0.47351   0.47914   0.48078   0.48244
 Alpha virt. eigenvalues --    0.48504   0.48705   0.48993   0.49481   0.49692
 Alpha virt. eigenvalues --    0.49985   0.50480   0.50803   0.51364   0.51802
 Alpha virt. eigenvalues --    0.52991   0.53158   0.53546   0.53936   0.54428
 Alpha virt. eigenvalues --    0.54658   0.55101   0.55683   0.55852   0.57062
 Alpha virt. eigenvalues --    0.57186   0.57293   0.57886   0.58187   0.58483
 Alpha virt. eigenvalues --    0.58949   0.59156   0.59658   0.60416   0.60479
 Alpha virt. eigenvalues --    0.61003   0.61091   0.61910   0.62323   0.62659
 Alpha virt. eigenvalues --    0.63091   0.63342   0.64387   0.64888   0.65876
 Alpha virt. eigenvalues --    0.66203   0.66800   0.67261   0.67906   0.68015
 Alpha virt. eigenvalues --    0.68138   0.68603   0.68697   0.68924   0.69126
 Alpha virt. eigenvalues --    0.69261   0.69512   0.69568   0.69979   0.70032
 Alpha virt. eigenvalues --    0.70131   0.70579   0.70803   0.70956   0.71304
 Alpha virt. eigenvalues --    0.71677   0.71952   0.72221   0.72571   0.72750
 Alpha virt. eigenvalues --    0.73065   0.73245   0.73773   0.73970   0.74090
 Alpha virt. eigenvalues --    0.74461   0.74966   0.75731   0.75806   0.75963
 Alpha virt. eigenvalues --    0.76239   0.76763   0.77049   0.77269   0.77822
 Alpha virt. eigenvalues --    0.77986   0.78159   0.78417   0.78665   0.78828
 Alpha virt. eigenvalues --    0.79206   0.79932   0.80568   0.81205   0.81292
 Alpha virt. eigenvalues --    0.81723   0.82264   0.82407   0.83102   0.83202
 Alpha virt. eigenvalues --    0.83684   0.84445   0.84622   0.85416   0.85678
 Alpha virt. eigenvalues --    0.85938   0.86790   0.87526   0.87612   0.88101
 Alpha virt. eigenvalues --    0.89293   0.89758   0.90315   0.91117   0.92732
 Alpha virt. eigenvalues --    0.93223   0.94154   0.94625   0.95506   0.95970
 Alpha virt. eigenvalues --    0.97010   0.98460   0.99193   0.99799   1.02213
 Alpha virt. eigenvalues --    1.03601   1.04568   1.05253   1.06454   1.07377
 Alpha virt. eigenvalues --    1.07846   1.09832   1.11266   1.12649   1.13023
 Alpha virt. eigenvalues --    1.13638   1.14437   1.15695   1.16270   1.17223
 Alpha virt. eigenvalues --    1.17893   1.18777   1.19897   1.21284   1.21728
 Alpha virt. eigenvalues --    1.23786   1.24017   1.25484   1.25881   1.26907
 Alpha virt. eigenvalues --    1.28165   1.29513   1.29840   1.30705   1.31009
 Alpha virt. eigenvalues --    1.31620   1.34735   1.36018   1.37482   1.39128
 Alpha virt. eigenvalues --    1.39917   1.40378   1.41471   1.42877   1.43841
 Alpha virt. eigenvalues --    1.44096   1.44669   1.45258   1.45877   1.46124
 Alpha virt. eigenvalues --    1.46669   1.47302   1.47547   1.48769   1.49093
 Alpha virt. eigenvalues --    1.49124   1.49193   1.50744   1.51021   1.51695
 Alpha virt. eigenvalues --    1.52756   1.53126   1.54380   1.54674   1.59901
 Alpha virt. eigenvalues --    1.60824   1.62006   1.65969   1.66838   1.67718
 Alpha virt. eigenvalues --    1.71161   1.72289   1.72615   1.73601   1.73903
 Alpha virt. eigenvalues --    1.74292   1.75015   1.75578   1.76668   1.77545
 Alpha virt. eigenvalues --    1.78382   1.78747   1.79196   1.80801   1.81651
 Alpha virt. eigenvalues --    1.83240   1.83365   1.84610   1.84697   1.85198
 Alpha virt. eigenvalues --    1.85394   1.85699   1.85918   1.86833   1.88102
 Alpha virt. eigenvalues --    1.88218   1.88401   1.89013   1.89467   1.90114
 Alpha virt. eigenvalues --    1.91757   1.94188   1.94757   1.95044   1.95829
 Alpha virt. eigenvalues --    1.96387   1.96699   2.00598   2.00873   2.01414
 Alpha virt. eigenvalues --    2.03309   2.04398   2.05036   2.05353   2.06233
 Alpha virt. eigenvalues --    2.06456   2.07222   2.07728   2.08605   2.08728
 Alpha virt. eigenvalues --    2.09011   2.09403   2.09832   2.12274   2.12687
 Alpha virt. eigenvalues --    2.13990   2.14769   2.15777   2.17065   2.17319
 Alpha virt. eigenvalues --    2.17352   2.17900   2.18832   2.19001   2.19101
 Alpha virt. eigenvalues --    2.19357   2.19923   2.20725   2.20953   2.21981
 Alpha virt. eigenvalues --    2.22199   2.22208   2.23174   2.23456   2.24742
 Alpha virt. eigenvalues --    2.25361   2.25764   2.26679   2.28364   2.28768
 Alpha virt. eigenvalues --    2.28983   2.32066   2.32409   2.33124   2.33886
 Alpha virt. eigenvalues --    2.34873   2.36930   2.37856   2.40589   2.43495
 Alpha virt. eigenvalues --    2.44952   2.45585   2.46118   2.47557   2.47789
 Alpha virt. eigenvalues --    2.48706   2.49238   2.50014   2.50792   2.52940
 Alpha virt. eigenvalues --    2.53952   2.56627   2.57073   2.58180   2.59056
 Alpha virt. eigenvalues --    2.59418   2.59779   2.62334   2.63059   2.64152
 Alpha virt. eigenvalues --    2.64713   2.64845   2.65650   2.67871   2.68398
 Alpha virt. eigenvalues --    2.68707   2.69028   2.69169   2.69395   2.71138
 Alpha virt. eigenvalues --    2.71553   2.73815   2.75795   2.76779   2.79564
 Alpha virt. eigenvalues --    2.81300   2.83571   2.84092   2.85579   2.86660
 Alpha virt. eigenvalues --    2.90064   2.92206   2.93761   2.94588   2.96363
 Alpha virt. eigenvalues --    2.98722   3.01055   3.03085   3.04404   3.08774
 Alpha virt. eigenvalues --    3.19656   3.23406   3.27852   3.31562   3.34653
 Alpha virt. eigenvalues --    3.37165   3.42303   3.44161   3.55206   3.57570
 Alpha virt. eigenvalues --    3.62695
          Condensed to atoms (all electrons):
 Mulliken charges:
               1
     1  C   -0.188291
     2  C   -0.364073
     3  C   -0.189908
     4  C   -0.212178
     5  Si   0.711894
     6  C   -0.514117
     7  C   -0.466063
     8  O   -0.414121
     9  C    0.348338
    10  C   -0.131215
    11  C   -0.115141
    12  C    0.131509
    13  C    0.110221
    14  C   -0.269078
    15  C    0.185389
    16  C   -0.133835
    17  C   -0.033591
    18  C   -0.023590
    19  C   -0.158428
    20  C    0.088745
    21  C   -0.105217
    22  C   -0.137792
    23  C    0.204337
    24  O   -0.360899
    25  C   -0.123854
    26  C   -0.109851
    27  C    0.148148
    28  C   -0.127106
    29  C   -0.034407
    30  C   -0.023266
    31  C   -0.157618
    32  C    0.102679
    33  C    0.118166
    34  O   -0.356802
    35  C   -0.080647
[...]
 ,0.00004059,-0.00001271,-0.00000436,-0.00000809,0.00000363,-0.00030504
 ,-0.00035222,0.00011694,0.00002445,-0.00003004,0.00005031,0.00001133,-
 0.00002662,-0.00006463,0.00001233,0.00000560,-0.00001602,0.00000755,0.
 00000903,-0.00002203,0.00003022,0.00001777,-0.00005143,0.00003855,0.00
 015544,-0.00008045,-0.16078498,0.12467941,0.00000101,-0.00000465,0.000
 00116,0.00001470,0.00001016,0.00000189,-0.00000285,-0.00000055,-0.0000
 0539,-0.00000839,-0.00000062,-0.00000681,-0.00010797,-0.00006987,0.000
 02538,0.00001466,0.00001276,-0.00000030,0.00001411,0.00000680,-0.00001
 165,0.00022349,0.00007261,-0.00005662,-0.00014782,-0.00006578,0.000061
 54,0.00008645,0.00003966,-0.00005020,-0.00010052,0.00007188,0.00011410
 ,0.00016320,-0.00033160,0.00003509,0.00256706,0.00381565,-0.00028835,-
 0.00111822,0.00057811,0.00086422,0.00024885,-0.00007612,-0.00000475,-0
 .00004132,-0.00010671,0.00006674,0.00017800,-0.00006495,-0.00000575,-0
 .00010312,0.00023570,-0.00002475,-0.00017629,-0.00036729,0.00015483,-0
 .00027347,0.00023812,-0.00075135,-0.00081485,-0.00076284,-0.00014741,0
 .00139939,0.00032039,-0.00060484,-0.00020373,0.00088231,0.00117420,0.0
 0039849,-0.00127487,-0.00092185,-0.00035347,0.00029708,-0.00043468,-0.
 00022440,-0.00004593,-0.00019879,0.00064016,-0.00068082,0.00051215,-0.
 00003969,0.00052513,0.00014541,-0.00021771,0.00001047,-0.00034329,-0.0
 0006254,-0.00058057,0.00008361,-0.00008894,-0.00044626,-0.00059200,0.0
 0042663,0.00041231,0.00004136,-0.02560612,0.01684091,-0.01030820,-0.05
 801581,0.04945858,-0.03920614,-0.00023621,-0.00011219,-0.00009617,0.00
 001365,-0.00003390,-0.00006215,0.00000031,0.00000158,0.00000089,-0.000
 00107,0.00000022,0.00000189,0.00000575,-0.00000065,-0.00000138,-0.0000
 0017,0.00000161,0.00000057,0.00000669,-0.00000146,-0.00000198,-0.00000
 169,0.00000433,0.00000295,0.00000181,0.00000618,0.00000121,0.00000238,
 0.00000161,-0.00000186,-0.00000260,-0.00000360,0.00000029,0.00000100,0
 .00000468,-0.00000004,0.00000055,0.00000411,-0.00000180,0.00000095,-0.
 00000905,-0.00000379,0.00000333,0.00000245,-0.00000387,-0.00000061,-0.
 00000093,0.00000324,0.00000191,-0.00000070,-0.00000173,0.00001328,-0.0
 0000475,0.00000048,0.00000606,-0.00002395,0.00000901,0.00006244,0.0000
 5691,-0.00031790,0.00000824,-0.00002449,0.00001845,0.00000454,-0.00001
 451,0.00000111,-0.00000890,-0.00000558,0.00002454,0.00001230,-0.000000
 96,-0.00001041,-0.00027355,-0.00009236,0.00029002,-0.00007460,-0.00002
 251,-0.00000760,-0.00006588,0.00000127,-0.00002942,-0.00007132,0.00002
 628,0.00001027,-0.00004333,0.00005661,0.00000063,0.00002818,0.00004654
 ,0.00000277,-0.00006170,0.00013269,-0.00060388,0.08224172,-0.06901127,
 0.05146427,0.00001282,0.00002377,-0.00003146,-0.00003804,-0.00005859,-
 0.00001473,0.00002457,-0.00000344,-0.00001015,0.00000364,0.00002887,-0
 .00000206,0.00049603,0.00046427,0.00051838,-0.00006288,-0.00009539,-0.
 00005317,-0.00008291,-0.00008161,-0.00007421,-0.00177004,0.00080191,0.
 00008584,-0.00249647,-0.00311343,0.00234968,-0.00025429,-0.00072590,-0
 .00019160,0.00015380,-0.00247754,0.00103030,0.01012742,-0.00916219,-0.
 00345526,0.00029716,0.00041716,-0.00081426,0.00009010,-0.00001012,0.00
 007218,0.00006693,0.00016887,-0.00005534,0.00000891,-0.00007065,0.0000
 3061,0.00004637,0.00003874,-0.00003343,-0.00002563,0.00002265,-0.00001
 097,-0.00001649,0.00001554,-0.00002246,-0.00000668,-0.00010624,-0.0000
 0936,0.00016748,0.00034630,0.00012588,-0.00002149,0.00001884,-0.000042
 96,-0.00001125,-0.00004516,-0.00004574,0.00002849,0.00003637,0.0000432
 0,-0.00000705,0.00000465,-0.00000285,0.00000584,-0.00001339,0.00000268
 ,0.00001120,-0.00000135,-0.00000071,0.00000491,-0.00001090,0.00000041,
 0.00000163,-0.00000520,0.00000852,0.00001824,0.00005240,0.00004185,0.0
 0001884,0.00003080,-0.00009305,0.00001734,-0.00001000,0.00002885,-0.00
 081370,-0.00182854,0.00051812,-0.00298316,0.00030531,-0.00163894,-0.16
 303605,0.13189463,0.05260955,-0.01361258,0.02290933,0.00768772,-0.0000
 1240,-0.00000217,-0.00000854,-0.00000406,-0.00000716,0.00000021,0.0000
 0916,-0.00000118,0.00000128,-0.00000743,0.00000026,-0.00000752,0.00000
 862,-0.00000985,-0.00000080,-0.00001500,-0.00000812,0.00000681,-0.0000
 0699,0.00003324,0.00003462,0.00000666,-0.00000919,-0.00001251,-0.00002
 739,-0.00003398,-0.00001928,0.00001602,-0.00003428,-0.00001057,0.00000
 313,0.00002123,0.00001030,-0.00000133,0.00000934,-0.00000878,0.0000105
 3,0.00000412,-0.00000313,0.00002196,-0.00000329,-0.00001045,-0.0000334
 2,0.00000040,0.00002554,-0.00006825,0.00007620,-0.00015436,0.00048870,
 -0.00057482,-0.00011904,-0.00000108,0.00001642,-0.00006694,-0.00000968
 ,0.00001034,-0.00000432,0.00000421,0.00000690,-0.00000240,0.00000748,0
 .00000592,-0.00000237,-0.00000077,-0.00000383,0.00000266,-0.00003044,-
 0.00003915,-0.00004187,0.00000689,-0.00000010,0.00000371,0.00000519,-0
 .00000433,0.00000161,0.00000657,-0.00000397,0.00000196,0.00000819,-0.0
 0001099,-0.00000162,0.00000107,-0.00000468,-0.00001325,0.00001448,-0.0
 0004354,0.00008525,-0.00043798,0.00004659,-0.00025608,0.17274433,-0.00
 000895,-0.00000045,0.00000757,0.00001339,-0.00000231,0.00000017,-0.000
 01517,-0.00000212,0.00000094,-0.00001871,0.00000199,0.00000886,-0.0000
 8566,0.00001378,-0.00001340,0.00002967,-0.00000308,0.00002586,0.000005
 47,-0.00001568,-0.00000272,-0.00020707,0.00037065,0.00012981,-0.002088
 20,0.00069200,-0.00018914,-0.00087975,0.00021011,0.00040373,-0.0034476
 6,-0.00428616,-0.00020731,0.01954853,-0.01631287,-0.00709758,0.0012205
 8,0.00134899,-0.00026987,-0.00027265,-0.00023232,0.00034815,0.00013382
 ,0.00008346,-0.00013140,-0.00001980,-0.00007746,0.00005748,0.00006140,
 0.00003047,-0.00001398,-0.00002577,0.00001978,-0.00001100,-0.00000671,
 0.00005237,-0.00000677,-0.00000566,-0.00007310,0.00001410,0.00005343,0
 .00026400,-0.00014423,0.00000499,0.00000507,-0.00009906,-0.00002379,-0
 .00005424,-0.00006197,0.00002245,0.00004269,0.00004222,-0.00001126,0.0
 0000216,-0.00000745,0.00000939,-0.00001639,0.00000430,0.00000276,0.000
 00782,0.00001035,-0.00000041,-0.00000779,-0.00000208,0.00000675,-0.000
 01831,0.00000950,-0.00000176,0.00000860,0.00002732,-0.00004804,0.00004
 019,-0.00004505,0.00004474,0.00004630,0.00005100,-0.00096826,-0.002091
 85,0.00080796,0.00163892,0.00107638,0.00040724,0.12903743,-0.21878629,
 -0.05774789,-0.00628502,0.00883189,0.00241657,0.00000373,-0.00000316,0
 .00000507,0.00000080,0.00000201,-0.00000187,-0.00000136,-0.00000053,-0
 .00000127,0.00000388,-0.00000225,0.00000500,0.00000117,0.00000270,0.00
 000006,0.00000196,0.00000498,-0.00000329,0.00000215,-0.00001045,-0.000
 02004,0.00000726,-0.00000537,0.00000890,0.00000931,0.00000842,-0.00000
 246,0.00001177,0.00000167,-0.00000294,-0.00001128,-0.00000293,0.000007
 24,-0.00000306,0.00000029,-0.00002340,-0.00000379,0.00000002,0.0000032
 7,0.00000142,-0.00000154,-0.00000254,-0.00000140,0.00000052,0.00000220
 ,0.00008659,-0.00001025,0.00004109,0.00094598,-0.00093929,-0.00046608,
 0.00001110,0.00005347,-0.00009542,-0.00000734,0.00000730,-0.00001298,0
 .00000161,0.00000292,-0.00000602,0.00000549,0.00000293,-0.00000717,-0.
 00000275,-0.00000394,0.00000063,-0.00002508,-0.00004114,-0.00003780,0.
 00000576,-0.00000053,0.00000363,0.00000521,-0.00000359,0.00000082,0.00
 000619,-0.00000367,0.00000076,0.00000773,-0.00000832,-0.00000312,0.000
 00118,0.00000114,-0.00001933,-0.00002988,-0.00000399,0.00004366,0.0001
 7798,0.00046224,0.00005078,-0.13913243,0.22853182,0.00000312,-0.000015
 63,-0.00000120,0.00001852,0.00001645,0.00002384,0.00000706,0.00001530,
 -0.00001963,0.00000285,-0.00001570,-0.00002062,-0.00022318,-0.00015035
 ,-0.00009715,-0.00001202,0.00002105,-0.00002173,0.00004057,0.00002796,
 0.00000561,0.00052155,-0.00025997,-0.00037998,0.00281196,-0.00004472,0
 .00708519,-0.00009312,0.00038037,-0.00071989,0.00102705,-0.00057599,0.
 00560809,0.00125617,-0.00030156,0.00399392,-0.00169654,0.00057040,-0.0
 0337279,0.00035590,0.00019759,-0.00011563,-0.00004187,0.00021302,0.000
 04480,0.00002356,-0.00001298,-0.00000383,-0.00001272,0.00004091,-0.000
 04488,-0.00002271,-0.00001775,0.00001994,0.00002675,0.00002195,-0.0000
 4758,0.00001413,-0.00016696,0.00004640,0.00018093,0.00050723,-0.000121
 29,0.00002018,0.00002175,-0.00003466,-0.00002554,-0.00002326,-0.000028
 16,0.00002243,0.00001732,-0.00000372,-0.00000034,-0.00000674,-0.000013
 26,0.00000566,0.00000115,0.00000795,-0.00001594,0.00000496,-0.00001694
 ,-0.00001127,0.00001050,-0.00000708,0.00000460,-0.00000827,-0.00000790
 ,-0.00000444,0.00001777,-0.00000323,0.00003985,-0.00005884,0.00002518,
 -0.00000716,0.00007900,0.00003210,-0.00068428,-0.00179855,0.00137921,-
 0.00016338,0.00077668,-0.00071604,0.05071297,-0.05542442,-0.05955804,0
 .00421707,-0.00638225,0.00269314,0.00000253,0.00000083,0.00000590,-0.0
 0000273,0.00000055,0.00000160,0.00000807,0.00000117,-0.00000198,-0.000
 00411,-0.00000212,0.00000293,0.00000284,-0.00000361,-0.00000378,-0.000
 01641,0.00000364,0.00000290,0.00000406,0.00004392,0.00001305,0.0000106
 4,-0.00000112,0.00000334,-0.00001870,-0.00001490,-0.00000501,-0.000009
 21,0.00000149,0.00001135,0.00000406,-0.00000680,-0.00000058,-0.0000147
 4,-0.00000412,0.00001748,-0.00000281,-0.00000082,-0.00000225,-0.000006
 60,0.00000010,0.00000358,0.00001174,0.00000039,-0.00000636,-0.00017423
 ,0.00009217,-0.00069338,0.00009599,0.00003609,0.00021469,0.00000545,-0
 .00000610,-0.00007168,-0.00000331,0.00001119,0.00000183,0.00000178,0.0
 0000204,0.00000086,0.00000340,0.00000544,0.00000175,-0.00000775,-0.000
 00173,0.00000352,-0.00002099,-0.00003060,0.00000669,-0.00000072,-0.000
 00226,0.00000303,-0.00000145,-0.00000203,-0.00000005,-0.00000223,-0.00
 000224,-0.00000010,-0.00000291,-0.00000084,0.00000079,0.00000331,-0.00
 001785,-0.00000610,0.00001745,0.00004570,-0.00000724,-0.00014222,0.000
 19626,-0.00000831,-0.05655773,0.06140934,0.04897591,-0.00001656,-0.000
 01760,0.00001673,0.00002777,-0.00011155,-0.00002259,0.00002728,0.00000
 647,0.00008133,0.00001410,-0.00001740,0.00003142,-0.00101197,0.0011044
 4,-0.00011574,-0.00071234,-0.00049774,-0.00033842,0.00007605,-0.000175
 54,-0.00000670,0.00164196,-0.00112078,-0.00162071,0.00951551,0.0192405
 2,0.00088058,-0.00192263,0.00249039,0.00225291,-0.00098373,0.00058302,
 0.00018272,-0.00415176,-0.00013169,0.00305209,0.00017703,-0.00124953,-
 0.00003588,-0.00036328,0.00002352,-0.00002288,0.00000010,-0.00003358,0
 .00012819,-0.00003438,0.00002957,-0.00000757,-0.00002513,-0.00000534,-
 0.00000194,-0.00000752,-0.00002073,0.00001731,0.00002358,0.00000408,-0
 .00000978,-0.00002177,-0.00004780,0.00002172,0.00003223,0.00006672,-0.
 00004704,0.00001076,-0.00000241,0.00002337,-0.00000252,-0.00001862,-0.
 00000804,-0.00001293,0.00003468,-0.00000463,0.00000202,0.00000455,-0.0
 0000033,-0.00000692,0.00000564,-0.00000515,-0.00000353,0.00000599,-0.0
 0000128,0.00000183,-0.00000073,-0.00000283,0.00000028,0.00001547,-0.00
 000053,0.00000395,-0.00000185,-0.00001076,0.00002037,0.00001132,0.0000
 0434,-0.00001352,-0.00003053,-0.00002993,0.00003673,-0.00025238,0.0002
 2129,0.00001930,0.00026797,-0.00016034,-0.00518915,-0.02919824,-0.0011
 2362,-0.08429726,-0.08606241,0.00436797,0.00001151,-0.00001540,0.00001
 731,-0.00000750,-0.00001059,-0.00002429,0.00000014,0.00000369,-0.00000
 544,0.00000234,-0.00003609,0.00000634,0.00000122,0.00000209,-0.0000066
 4,0.00000314,-0.00001055,0.00000332,0.00001004,0.00001125,0.00001043,0
 .00001347,-0.00002743,0.00002399,0.00000123,-0.00002270,-0.00003637,-0
 .00002835,-0.00011811,0.00001859,-0.00022154,-0.00016161,0.00000981,-0
 .00083585,-0.00040288,-0.00043145,-0.00001610,0.00000694,0.00001746,0.
 00005682,-0.00001073,-0.00003817,0.00000100,-0.00000169,0.00000286,0.0
 0042967,0.00102689,0.00007769,-0.00004060,-0.00004529,-0.00018634,0.00
 000325,-0.00001970,-0.00002277,0.00000479,0.00000207,0.00000078,-0.000
 00562,-0.00000449,0.00000238,-0.00000311,-0.00000140,0.00000136,-0.000
 00904,-0.00000051,0.00000183,0.00001428,-0.00000300,0.00002435,-0.0000
 0298,0.00000049,0.,-0.00000202,0.00000047,0.00000113,-0.00000203,0.000
 00098,0.00000182,-0.00000447,0.00000153,0.00000291,-0.00000421,0.00000
 230,0.00001257,-0.00000657,-0.00001750,-0.00000141,-0.00001964,-0.0000
 5328,0.00001365,0.00093002,0.00050668,-0.00148083,0.08687275,0.0000070
 9,0.00002490,-0.00000673,-0.00002791,0.00008336,0.00000158,-0.00007072
 ,-0.00003246,-0.00007884,-0.00002198,-0.00000630,-0.00004443,0.0011719
 6,-0.00095976,-0.00016510,-0.00101353,-0.00072930,-0.00085190,-0.00001
 921,0.00013496,0.00005163,0.00022573,0.00269628,0.00082342,-0.01295879
 ,-0.01784178,0.00113511,0.00378985,-0.00157915,-0.00188591,0.00086900,
 0.00066464,-0.00002208,-0.00080368,0.00202145,-0.00024053,0.00025742,-
 0.00011564,-0.00005846,-0.00008188,0.00003623,-0.00004731,0.00000781,-
 0.00001774,0.00001558,-0.00001577,0.00002306,-0.00000960,-0.00002253,0
 .00000379,0.00000287,-0.00000913,-0.00001959,0.00001496,0.00002112,0.0
 0000006,-0.00000144,-0.00002917,-0.00002315,0.00001292,0.00001307,0.00
 002549,-0.00001977,0.00000352,-0.00000752,0.00001910,0.00000133,-0.000
 00039,0.00000236,-0.00001352,0.00000967,-0.00001016,0.00000298,0.00000
 037,0.00000139,-0.00000259,0.00000600,0.00000056,-0.00000553,0.0000037
 4,-0.00000359,0.00000166,0.00000128,0.00000129,-0.00000274,0.00000247,
 -0.00000190,-0.00000077,-0.00000788,-0.00000392,0.00000615,0.00000468,
 0.00001197,-0.00001126,-0.00001824,-0.00001804,-0.00001403,-0.00006426
 ,0.00004696,-0.00003971,0.00005095,-0.00005654,0.00006517,-0.00171035,
 -0.00049705,-0.08382480,-0.31161620,-0.00653927,-0.00000998,0.00001030
 ,-0.00001822,0.00001304,0.00001541,0.00002159,-0.00000942,-0.00000376,
 0.00000469,0.00000499,0.00003502,-0.00000305,-0.00000041,0.00001205,0.
 00001215,-0.00000321,0.00002481,-0.00000355,-0.00004543,-0.00011896,-0
 .00002860,-0.00004930,0.00004903,-0.00001804,0.00004891,0.00006813,0.0
 0010406,-0.00037036,-0.00010626,0.00012712,-0.00007459,0.00011734,-0.0
 0000483,-0.00086085,0.00023084,0.00020527,0.00001525,-0.00000872,-0.00
 001437,-0.00005101,0.00001096,0.00002719,0.00001070,-0.00000906,-0.000
 02236,-0.00048972,-0.00093490,-0.00002725,-0.00003922,-0.00007549,0.00
 008681,0.00001049,0.00000153,-0.00001325,0.00000472,0.00000023,-0.0000
 0305,-0.00000360,-0.00000530,0.00000282,-0.00000454,-0.00000221,0.0000
 0106,-0.00000593,0.00000098,0.00000007,0.00001589,0.00000320,0.0000192
 4,-0.00000213,-0.00000016,-0.00000144,-0.00000214,0.00000223,-0.000000
 07,-0.00000245,0.00000167,-0.00000096,-0.00000139,0.00000328,0.0000007
 7,0.00000119,0.00000082,0.00000151,-0.00000083,-0.00000347,-0.00000957
 ,0.00001169,-0.00001936,0.00001580,-0.00006469,0.00079023,0.00056940,0
 .09449967,0.32886592,0.00002978,0.00001996,-0.00005433,-0.00009208,-0.
 00008709,-0.00003659,0.00004021,-0.00000047,-0.00000395,-0.00007666,-0
 .00004665,0.00008831,-0.00009031,0.00038679,0.00063894,-0.00039771,-0.
 00023818,0.00024842,-0.00002288,-0.00010797,-0.00008554,-0.00220269,0.
 00114766,-0.00360893,-0.00210202,-0.00824445,0.00467609,0.00234212,-0.
 00153791,0.00426241,0.00004058,0.00015961,-0.00054365,0.00323374,-0.00
 066419,0.00610920,-0.00010754,0.00020256,0.00046895,0.00001508,-0.0000
 6546,-0.00006375,-0.00006654,-0.00000530,-0.00001411,0.00001532,-0.000
 00131,-0.00000260,0.00000838,-0.00000104,0.00000247,0.00001125,0.00001
 544,-0.00001398,-0.00002315,-0.00000845,0.00000373,0.00003880,0.000018
 28,-0.00000478,-0.00002209,-0.00002739,0.00000103,-0.00000317,0.000001
 90,-0.00000912,-0.00000149,0.00001209,0.00000759,0.00000934,-0.0000164
 6,-0.00000802,0.00000170,-0.00000406,-0.00000321,0.00000293,0.00000195
 ,0.00000171,-0.00000103,-0.00000263,-0.00000325,-0.00000184,0.00000421
 ,-0.00000090,-0.00000040,-0.00000566,-0.00000406,0.00000516,0.00000656
 ,0.00000910,-0.00000106,-0.00000901,-0.00000470,0.00000354,0.00001521,
 0.00000967,0.00004822,-0.00003854,-0.00003301,-0.00007573,0.00002059,-
 0.00004415,0.00213850,0.00757920,0.00336432,0.00482093,-0.00582086,-0.
 03699550,-0.00001593,-0.00000742,-0.00000601,-0.00001011,-0.00001068,-
 0.00000030,0.00002874,-0.00000065,-0.00000024,-0.00000341,-0.00000155,
 0.00000013,0.00002332,-0.00002265,-0.00000781,-0.00001544,-0.00000623,
 0.00000224,0.00012917,0.00015633,0.00004787,0.00010906,-0.00004860,0.0
 0002303,-0.00007422,-0.00008348,-0.00009465,0.00010651,-0.00000610,-0.
 00012137,0.00018399,0.00020894,-0.00013083,-0.00046552,-0.00033856,-0.
 00036128,0.00002564,0.00000256,-0.00001824,0.00002373,-0.00000219,-0.0
 0002231,-0.00003098,0.00000367,0.00002399,-0.00010694,-0.00038375,0.00
 011002,-0.00020490,0.00010274,-0.00067171,-0.00004301,0.00000924,-0.00
 000512,-0.00000194,0.00000139,0.00000111,0.00000198,0.00000304,-0.0000
 0073,0.00000152,0.00000149,0.00000030,0.00000192,-0.00000028,0.0000010
 9,-0.00000733,-0.00000080,-0.00000112,-0.00000089,-0.00000106,0.000000
 84,-0.00000105,-0.00000058,0.00000052,-0.00000117,-0.00000065,0.000000
 08,0.00000081,-0.00000144,0.00000079,0.00000135,-0.00000474,-0.0000049
 6,0.00000186,0.00000832,0.00000621,-0.00002842,-0.00002625,0.00000119,
 -0.00142342,0.00040105,-0.00407451,-0.00572214,0.00738996,0.02694803\\
 -0.00000208,-0.00000141,-0.00000253,0.00000005,-0.00000049,0.00000121,
 -0.00000036,0.00000096,-0.00000152,0.00000224,-0.00000015,-0.00000136,
 -0.00000425,-0.00000544,-0.00000262,0.00000322,-0.00000118,0.00000269,
 0.00000400,0.00000214,0.00000633,0.00000851,0.00000823,0.00000289,-0.0
 0000765,-0.00000378,0.00000204,0.00000268,0.00000081,-0.00000125,-0.00
 000241,0.00000117,0.00000024,0.00000232,-0.00000073,-0.00000100,0.0000
 0035,-0.00000195,0.00000148,-0.00000084,0.00000090,-0.00000032,-0.0000
 0033,-0.00000029,0.,-0.00000008,0.00000052,-0.00000018,0.00000046,-0.0
 0000039,-0.00000027,0.00000033,0.00000064,-0.00000063,-0.00000020,-0.0
 0000073,0.00000013,0.00000152,0.00000049,0.00000052,-0.00000141,-0.000
 00189,0.00000040,0.00000146,0.00000384,0.00000119,0.00000129,-0.000001
 29,-0.00000221,-0.00000147,0.00000103,-0.00000027,-0.00000085,-0.00000
 044,-0.00000055,0.00000072,-0.00000042,0.00000057,0.00000004,-0.000000
 13,0.00000045,-0.00000009,-0.00000085,-0.00000029,0.00000009,-0.000000
 06,0.00000003,-0.00000039,-0.00000035,-0.00000021,-0.00000002,-0.00000
 056,-0.00000096,-0.00000064,-0.00000075,0.00000031,0.00000011,0.000000
 48,-0.00000251,-0.00000068,-0.00000050,0.00000207,-0.00000078,-0.00000
 017,0.00000018,0.00000229,0.00000148,-0.00000064,0.00000043,0.00000011
 ,0.00000100,0.00000016,0.00000152,0.00000054,0.00000051,0.00000026,-0.
 00000027,0.00000012,-0.00000076,0.00000060,0.00000079,-0.00000015,0.00
 000007,-0.00000030,0.00000027,-0.00000005,-0.00000049,-0.00000065,-0.0
 0000012,-0.00000028,-0.00000015,0.00000118,-0.00000035,0.00000102,0.00
 000012,-0.00000163,0.00000240,-0.00000020,-0.00000086,-0.00000139,-0.0
 0000298,-0.00000161,0.00000078,-0.00000058,-0.00000251,0.00000073,-0.0
 0000114,-0.00000095,-0.00000058,-0.00000068,0.00000068,-0.00000031,-0.
 00000216,0.00000045,0.00000048,0.,-0.00000032,-0.00000020,0.00000040,0
 .00000063,-0.00000025,0.00000008,0.00000039,-0.00000034,0.,-0.00000003
 ,-0.00000041,0.00000017,-0.00000030,-0.00000050,0.00000005,-0.00000011
 ,0.00000034,-0.00000073,0.00000183,-0.00000089,0.00000127,-0.00000022,
 -0.00000004,-0.00000022,-0.00000049,0.00000021,-0.00000011,-0.00000040
 ,0.00000007,-0.00000011,-0.00000025,0.00000011,0.00000033,0.00000018,0
 .00000009,0.00000033,0.00000067,-0.00000079,-0.00000013,-0.00000284,0.
 00000057,-0.00000068,0.00000013,-0.00000021,0.00000060,-0.00000019,-0.
 00000006,0.00000005\\\@
 The archive entry for this job was punched.


 Human beings, who are almost unique in having the
 ability to learn from the experience of others, are
 also remarkable for their apparent disinclination to do so.
                               -- Douglas Adams,
                                Last Chance to See
 Job cpu time:       0 days  6 hours 24 minutes 21.4 seconds.
 Elapsed time:       0 days  0 hours 12 minutes  5.5 seconds.
 File lengths (MBytes):  RWF=   2465 Int=      0 D2E=      0 Chk=     30 Scr=      1
 Normal termination of Gaussian 16 at Mon Mar 24 16:28:02 2025.
