 Entering Gaussian System, Link 0=g16
 Initial command:
 /public/software/apps/Gaussian/g16/l1.exe "/tmp/Gau-60662.inp" -scrdir="/tmp/"
 Entering Link 1 = /public/software/apps/Gaussian/g16/l1.exe PID=     60671.
  
 Copyright (c) 1988-2019, Gaussian, Inc.  All Rights Reserved.
  
 This is part of the Gaussian(R) 16 program.  It is based on
 the Gaussian(R) 09 system (copyright 2009, Gaussian, Inc.),
 the Gaussian(R) 03 system (copyright 2003, Gaussian, Inc.),
 the Gaussian(R) 98 system (copyright 1998, Gaussian, Inc.),
 the Gaussian(R) 94 system (copyright 1995, Gaussian, Inc.),
 the Gaussian 92(TM) system (copyright 1992, Gaussian, Inc.),
 the Gaussian 90(TM) system (copyright 1990, Gaussian, Inc.),
 the Gaussian 88(TM) system (copyright 1988, Gaussian, Inc.),
 the Gaussian 86(TM) system (copyright 1986, Carnegie Mellon
 University), and the Gaussian 82(TM) system (copyright 1983,
 Carnegie Mellon University). Gaussian is a federally registered
 trademark of Gaussian, Inc.
  
 This software contains proprietary and confidential information,
 including trade secrets, belonging to Gaussian, Inc.
  
 This software is provided under written license and may be
 used, copied, transmitted, or stored only in accord with that
 written license.
  
 The following legend is applicable only to US Government
 contracts under FAR:
  
                    RESTRICTED RIGHTS LEGEND
  
 Use, reproduction and disclosure by the US Government is
 subject to restrictions as set forth in subparagraphs (a)
 and (c) of the Commercial Computer Software - Restricted
 Rights clause in FAR 52.227-19.
  
 Gaussian, Inc.
 340 Quinnipiac St., Bldg. 40, Wallingford CT 06492
  
  
 ---------------------------------------------------------------
 Warning -- This program may not be used in any manner that
 competes with the business of Gaussian, Inc. or will provide
 assistance to any competitor of Gaussian, Inc.  The licensee
 of this program is prohibited from giving any competitor of
 Gaussian, Inc. access to this program.  By using this program,
 the user acknowledges that Gaussian, Inc. is engaged in the
 business of creating and licensing software in the field of
 computational chemistry and represents and warrants to the
 licensee that it is not a competitor of Gaussian, Inc. and that
 it will not use this program in any manner prohibited above.
 ---------------------------------------------------------------
  

 Cite this work as:
 Gaussian 16, Revision C.01,
 M. J. Frisch, G. W. Trucks, H. B. Schlegel, G. E. Scuseria, 
 M. A. Robb, J. R. Cheeseman, G. Scalmani, V. Barone, 
 G. A. Petersson, H. Nakatsuji, X. Li, M. Caricato, A. V. Marenich, 
 J. Bloino, B. G. Janesko, R. Gomperts, B. Mennucci, H. P. Hratchian, 
 J. V. Ortiz, A. F. Izmaylov, J. L. Sonnenberg, D. Williams-Young, 
 F. Ding, F. Lipparini, F. Egidi, J. Goings, B. Peng, A. Petrone, 
 T. Henderson, D. Ranasinghe, V. G. Zakrzewski, J. Gao, N. Rega, 
 G. Zheng, W. Liang, M. Hada, M. Ehara, K. Toyota, R. Fukuda, 
 J. Hasegawa, M. Ishida, T. Nakajima, Y. Honda, O. Kitao, H. Nakai, 
 T. Vreven, K. Throssell, J. A. Montgomery, Jr., J. E. Peralta, 
 F. Ogliaro, M. J. Bearpark, J. J. Heyd, E. N. Brothers, K. N. Kudin, 
 V. N. Staroverov, T. A. Keith, R. Kobayashi, J. Normand, 
 K. Raghavachari, A. P. Rendell, J. C. Burant, S. S. Iyengar, 
 J. Tomasi, M. Cossi, J. M. Millam, M. Klene, C. Adamo, R. Cammi, 
 J. W. Ochterski, R. L. Martin, K. Morokuma, O. Farkas, 
 J. B. Foresman, and D. J. Fox, Gaussian, Inc., Wallingford CT, 2019.
 
 ******************************************
 Gaussian 16:  ES64L-G16RevC.01  3-Jul-2019
                24-Mar-2025 
 ******************************************
 %nprocshared=32
 Will use up to   32 processors via shared memory.
 %mem=100GB
 ------------------------------------------
 #p opt freq b3lyp/def2svpp em=gd3bj nosymm
 ------------------------------------------
 1/18=20,19=15,26=3,38=1/1,3;
 2/9=110,12=2,15=1,17=6,18=5,40=1/2;
 3/5=43,7=202,11=2,25=1,30=1,71=1,74=-5,124=41/1,2,3;
 4//1;
 5/5=2,38=5/2;
 6/7=2,8=2,9=2,10=2,28=1/1;
 7/30=1/1,2,3,16;
 1/18=20,19=15,26=3/3(2);
 2/9=110,15=1/2;
 99//99;
 2/9=110,15=1/2;
 3/5=43,7=202,11=2,25=1,30=1,71=1,74=-5,124=41/1,2,3;
 4/5=5,16=3,69=1/1;
 5/5=2,38=5/2;
 7/30=1/1,2,3,16;
 1/18=20,19=15,26=3/3(-5);
 2/9=110,15=1/2;
 6/7=2,8=2,9=2,10=2,19=2,28=1/1;
 99/9=1/99;
 Leave Link    1 at Mon Mar 24 15:54:37 2025, MaxMem= 13421772800 cpu:               0.9 elap:               0.0
 (Enter /public/software/apps/Gaussian/g16/l101.exe)
 ----------------------
 $$$$Singlemol####0????
 ----------------------
 Symbolic Z-matrix:
 Charge =  0 Multiplicity = 1
 C                    -1.37819  -0.85699   2.75973 
 C                    -2.19979  -0.49059   1.55788 
 C                    -3.50944  -0.92097   1.43999 
 C                    -4.32713  -0.58774   0.36398 
 C                    -3.82143   0.2633   -0.62087 
 C                    -2.49862   0.67866  -0.51777 
 C                    -1.67915   0.30908   0.5366 
 C                    -0.27681   0.78077   0.56906 
 C                     0.02366   2.10883   0.71474 
 C                     1.35766   2.55667   0.77641 
 C                     1.67585   3.91984   0.94541 
 C                     2.97697   4.3295    1.02396 
 C                     4.01665   3.39068   0.94296 
 C                     3.74196   2.06228   0.77574 
 C                     2.40951   1.60874   0.67821 
 C                     2.09466   0.23921   0.48582 
 C                     3.16603  -0.77788   0.34969 
 C                     3.38946  -1.67495   1.37507 
 O                     2.66709  -1.66325   2.5266 
 C                     4.41354  -2.6363    1.27521 
 C                     5.1945   -2.69887   0.1602 
 C                     4.9888   -1.81234  -0.91782 
 C                     5.77788  -1.86514  -2.08447 
 C                     5.55614  -1.00332  -3.12172 
 C                     4.52771  -0.05333  -3.03649 
 C                     3.74638   0.02575  -1.91791 
 C                     3.95678  -0.84206  -0.82486 
 C                     0.77369  -0.16007   0.43233 
 O                     0.4975   -1.48022   0.22698 
 C                    -4.63414   0.73998  -1.80963 
 C                    -4.13205   0.02137  -3.07009 
 C                    -4.47434   2.25547  -2.00353 
 C                    -6.12488   0.4569   -1.59089 
 C                    -6.36815  -0.94093  -1.04861 
 C                    -5.73911  -1.14176   0.3352 
 C                    -6.57111  -0.42796   1.40999 
 C                    -5.73812  -2.65015   0.62647 
 H                    -0.76524  -0.01343   3.07501 
 H                    -0.71394  -1.69525   2.54459 
 H                    -2.02279  -1.14777   3.58569 
 H                    -3.90582  -1.54013   2.23036 
 H                    -2.07212   1.31051  -1.28196 
 H                    -0.77802   2.8281    0.8045 
 H                     0.86721   4.63383   1.01399 
 H                     3.21356   5.37546   1.15307 
 H                     5.04062   3.72655   1.0152 
 H                     4.54317   1.34101   0.71477 
 H                     1.9763   -0.99072   2.45771 
 H                     4.55373  -3.30867   2.10702 
 H                     5.98228  -3.43452   0.08643 
 H                     6.56333  -2.60563  -2.1428 
 H                     6.16552  -1.04991  -4.01252 
 H                     4.35588   0.61769  -3.8658 
 H                     2.95356   0.75702  -1.85954 
 H                    -0.45828  -1.58808   0.12603 
 H                    -3.07876   0.23408  -3.23703 
 H                    -4.24462  -1.0559   -2.97624 
 H                    -4.69244   0.35427  -3.9413 
 H                    -5.19493   2.60681  -2.73946 
 H                    -3.48196   2.51696  -2.35938 
 H                    -4.65413   2.78015  -1.0673 
 H                    -6.6554    0.58157  -2.53758 
 H                    -6.52736   1.19209  -0.89158 
 H                    -5.9495   -1.67558  -1.7391 
 H                    -7.44231  -1.12843  -0.98382 
 H                    -6.60108   0.64391   1.23154 
 H                    -6.14137  -0.58999   2.39556 
 H                    -7.59028  -0.80905   1.4118 
 H                    -6.72752  -3.05922   0.43178 
 H                    -5.022    -3.16191  -0.01343 
 H                    -5.4885   -2.86461   1.66157 
 
 ITRead=  0  0  0  0  0  0  0  0  0  0  0  0  0  0  0  0  0  0  0  0
 ITRead=  0  0  0  0  0  0  0  0  0  0  0  0  0  0  0  0  0  0  0  0
 ITRead=  0  0  0  0  0  0  0  0  0  0  0  0  0  0  0  0  0  0  0  0
 ITRead=  0  0  0  0  0  0  0  0  0  0  0
 MicOpt= -1 -1 -1 -1 -1 -1 -1 -1 -1 -1 -1 -1 -1 -1 -1 -1 -1 -1 -1 -1
 MicOpt= -1 -1 -1 -1 -1 -1 -1 -1 -1 -1 -1 -1 -1 -1 -1 -1 -1 -1 -1 -1
 MicOpt= -1 -1 -1 -1 -1 -1 -1 -1 -1 -1 -1 -1 -1 -1 -1 -1 -1 -1 -1 -1
 MicOpt= -1 -1 -1 -1 -1 -1 -1 -1 -1 -1 -1
 NAtoms=     71 NQM=       71 NQMF=       0 NMMI=      0 NMMIF=      0
                NMic=       0 NMicF=      0.
                    Isotopes and Nuclear Properties:
 (Nuclear quadrupole moments (NQMom) in fm**2, nuclear magnetic moments (NMagM)
  in nuclear magnetons)

  Atom         1           2           3           4           5           6           7           8           9          10
 IAtWgt=          12          12          12          12          12          12          12          12          12          12
 AtmWgt=  12.0000000  12.0000000  12.0000000  12.0000000  12.0000000  12.0000000  12.0000000  12.0000000  12.0000000  12.0000000
 NucSpn=           0           0           0           0           0           0           0           0           0           0
 AtZEff=  -0.0000000  -0.0000000  -0.0000000  -0.0000000  -0.0000000  -0.0000000  -0.0000000  -0.0000000  -0.0000000  -0.0000000
 NQMom=    0.0000000   0.0000000   0.0000000   0.0000000   0.0000000   0.0000000   0.0000000   0.0000000   0.0000000   0.0000000
 NMagM=    0.0000000   0.0000000   0.0000000   0.0000000   0.0000000   0.0000000   0.0000000   0.0000000   0.0000000   0.0000000
 AtZNuc=   6.0000000   6.0000000   6.0000000   6.0000000   6.0000000   6.0000000   6.0000000   6.0000000   6.0000000   6.0000000

  Atom        11          12          13          14          15          16          17          18          19          20
 IAtWgt=          12          12          12          12          12          12          12          12          16          12
 AtmWgt=  12.0000000  12.0000000  12.0000000  12.0000000  12.0000000  12.0000000  12.0000000  12.0000000  15.9949146  12.0000000
 NucSpn=           0           0           0           0           0           0           0           0           0           0
 AtZEff=  -0.0000000  -0.0000000  -0.0000000  -0.0000000  -0.0000000  -0.0000000  -0.0000000  -0.0000000  -0.0000000  -0.0000000
 NQMom=    0.0000000   0.0000000   0.0000000   0.0000000   0.0000000   0.0000000   0.0000000   0.0000000   0.0000000   0.0000000
 NMagM=    0.0000000   0.0000000   0.0000000   0.0000000   0.0000000   0.0000000   0.0000000   0.0000000   0.0000000   0.0000000
 AtZNuc=   6.0000000   6.0000000   6.0000000   6.0000000   6.0000000   6.0000000   6.0000000   6.0000000   8.0000000   6.0000000

  Atom        21          22          23          24          25          26          27          28          29          30
 IAtWgt=          12          12          12          12          12          12          12          12          16          12
 AtmWgt=  12.0000000  12.0000000  12.0000000  12.0000000  12.0000000  12.0000000  12.0000000  12.0000000  15.9949146  12.0000000
 NucSpn=           0           0           0           0           0           0           0           0           0           0
 AtZEff=  -0.0000000  -0.0000000  -0.0000000  -0.0000000  -0.0000000  -0.0000000  -0.0000000  -0.0000000  -0.0000000  -0.0000000
 NQMom=    0.0000000   0.0000000   0.0000000   0.0000000   0.0000000   0.0000000   0.0000000   0.0000000   0.0000000   0.0000000
 NMagM=    0.0000000   0.0000000   0.0000000   0.0000000   0.0000000   0.0000000   0.0000000   0.0000000   0.0000000   0.0000000
 AtZNuc=   6.0000000   6.0000000   6.0000000   6.0000000   6.0000000   6.0000000   6.0000000   6.0000000   8.0000000   6.0000000

  Atom        31          32          33          34          35          36          37          38          39          40
 IAtWgt=          12          12          12          12          12          12          12           1           1           1
 AtmWgt=  12.0000000  12.0000000  12.0000000  12.0000000  12.0000000  12.0000000  12.0000000   1.0078250   1.0078250   1.0078250
 NucSpn=           0           0           0           0           0           0           0           1           1           1
 AtZEff=  -0.0000000  -0.0000000  -0.0000000  -0.0000000  -0.0000000  -0.0000000  -0.0000000  -0.0000000  -0.0000000  -0.0000000
 NQMom=    0.0000000   0.0000000   0.0000000   0.0000000   0.0000000   0.0000000   0.0000000   0.0000000   0.0000000   0.0000000
 NMagM=    0.0000000   0.0000000   0.0000000   0.0000000   0.0000000   0.0000000   0.0000000   2.7928460   2.7928460   2.7928460
 AtZNuc=   6.0000000   6.0000000   6.0000000   6.0000000   6.0000000   6.0000000   6.0000000   1.0000000   1.0000000   1.0000000

  Atom        41          42          43          44          45          46          47          48          49          50
 IAtWgt=           1           1           1           1           1           1           1           1           1           1
 AtmWgt=   1.0078250   1.0078250   1.0078250   1.0078250   1.0078250   1.0078250   1.0078250   1.0078250   1.0078250   1.0078250
 NucSpn=           1           1           1           1           1           1           1           1           1           1
 AtZEff=  -0.0000000  -0.0000000  -0.0000000  -0.0000000  -0.0000000  -0.0000000  -0.0000000  -0.0000000  -0.0000000  -0.0000000
 NQMom=    0.0000000   0.0000000   0.0000000   0.0000000   0.0000000   0.0000000   0.0000000   0.0000000   0.0000000   0.0000000
 NMagM=    2.7928460   2.7928460   2.7928460   2.7928460   2.7928460   2.7928460   2.7928460   2.7928460   2.7928460   2.7928460
 AtZNuc=   1.0000000   1.0000000   1.0000000   1.0000000   1.0000000   1.0000000   1.0000000   1.0000000   1.0000000   1.0000000

  Atom        51          52          53          54          55          56          57          58          59          60
 IAtWgt=           1           1           1           1           1           1           1           1           1           1
 AtmWgt=   1.0078250   1.0078250   1.0078250   1.0078250   1.0078250   1.0078250   1.0078250   1.0078250   1.0078250   1.0078250
 NucSpn=           1           1           1           1           1           1           1           1           1           1
 AtZEff=  -0.0000000  -0.0000000  -0.0000000  -0.0000000  -0.0000000  -0.0000000  -0.0000000  -0.0000000  -0.0000000  -0.0000000
 NQMom=    0.0000000   0.0000000   0.0000000   0.0000000   0.0000000   0.0000000   0.0000000   0.0000000   0.0000000   0.0000000
 NMagM=    2.7928460   2.7928460   2.7928460   2.7928460   2.7928460   2.7928460   2.7928460   2.7928460   2.7928460   2.7928460
 AtZNuc=   1.0000000   1.0000000   1.0000000   1.0000000   1.0000000   1.0000000   1.0000000   1.0000000   1.0000000   1.0000000

  Atom        61          62          63          64          65          66          67          68          69          70
 IAtWgt=           1           1           1           1           1           1           1           1           1           1
 AtmWgt=   1.0078250   1.0078250   1.0078250   1.0078250   1.0078250   1.0078250   1.0078250   1.0078250   1.0078250   1.0078250
 NucSpn=           1           1           1           1           1           1           1           1           1           1
 AtZEff=  -0.0000000  -0.0000000  -0.0000000  -0.0000000  -0.0000000  -0.0000000  -0.0000000  -0.0000000  -0.0000000  -0.0000000
 NQMom=    0.0000000   0.0000000   0.0000000   0.0000000   0.0000000   0.0000000   0.0000000   0.0000000   0.0000000   0.0000000
 NMagM=    2.7928460   2.7928460   2.7928460   2.7928460   2.7928460   2.7928460   2.7928460   2.7928460   2.7928460   2.7928460
 AtZNuc=   1.0000000   1.0000000   1.0000000   1.0000000   1.0000000   1.0000000   1.0000000   1.0000000   1.0000000   1.0000000

  Atom        71
 IAtWgt=           1
 AtmWgt=   1.0078250
 NucSpn=           1
 AtZEff=  -0.0000000
 NQMom=    0.0000000
 NMagM=    2.7928460
 AtZNuc=   1.0000000
 Leave Link  101 at Mon Mar 24 15:54:38 2025, MaxMem= 13421772800 cpu:               3.6 elap:               0.1
 (Enter /public/software/apps/Gaussian/g16/l103.exe)

 GradGradGradGradGradGradGradGradGradGradGradGradGradGradGradGradGradGrad
 Berny optimization.
 Initialization pass.
                           ----------------------------
                           !    Initial Parameters    !
                           ! (Angstroms and Degrees)  !
 --------------------------                            --------------------------
 ! Name  Definition              Value          Derivative Info.                !
 --------------------------------------------------------------------------------
 ! R1    R(1,2)                  1.5012         estimate D2E/DX2                !
 ! R2    R(1,38)                 1.0894         estimate D2E/DX2                !
 ! R3    R(1,39)                 1.091          estimate D2E/DX2                !
 ! R4    R(1,40)                 1.0873         estimate D2E/DX2                !
 ! R5    R(2,3)                  1.3836         estimate D2E/DX2                !
 ! R6    R(2,7)                  1.3977         estimate D2E/DX2                !
 ! R7    R(3,4)                  1.3919         estimate D2E/DX2                !
 ! R8    R(3,41)                 1.0794         estimate D2E/DX2                !
 ! R9    R(4,5)                  1.3964         estimate D2E/DX2                !
 ! R10   R(4,35)                 1.5171         estimate D2E/DX2                !
 ! R11   R(5,6)                  1.3903         estimate D2E/DX2                !
 ! R12   R(5,30)                 1.5169         estimate D2E/DX2                !
 ! R13   R(6,7)                  1.3856         estimate D2E/DX2                !
 ! R14   R(6,42)                 1.0794         estimate D2E/DX2                !
 ! R15   R(7,8)                  1.4799         estimate D2E/DX2                !
 ! R16   R(8,9)                  1.3694         estimate D2E/DX2                !
 ! R17   R(8,28)                 1.4168         estimate D2E/DX2                !
 ! R18   R(9,10)                 1.4085         estimate D2E/DX2                !
 ! R19   R(9,43)                 1.0808         estimate D2E/DX2                !
 ! R20   R(10,11)                1.41           estimate D2E/DX2                !
 ! R21   R(10,15)                1.4194         estimate D2E/DX2                !
 ! R22   R(11,12)                1.3663         estimate D2E/DX2                !
 ! R23   R(11,44)                1.0809         estimate D2E/DX2                !
 ! R24   R(12,13)                1.4032         estimate D2E/DX2                !
 ! R25   R(12,45)                1.0801         estimate D2E/DX2                !
 ! R26   R(13,14)                1.3668         estimate D2E/DX2                !
 ! R27   R(13,46)                1.0801         estimate D2E/DX2                !
 ! R28   R(14,15)                1.4109         estimate D2E/DX2                !
 ! R29   R(14,47)                1.0798         estimate D2E/DX2                !
 ! R30   R(15,16)                1.4184         estimate D2E/DX2                !
 ! R31   R(16,17)                1.4835         estimate D2E/DX2                !
 ! R32   R(16,28)                1.381          estimate D2E/DX2                !
 ! R33   R(17,18)                1.3806         estimate D2E/DX2                !
 ! R34   R(17,27)                1.4174         estimate D2E/DX2                !
 ! R35   R(18,19)                1.3594         estimate D2E/DX2                !
 ! R36   R(18,20)                1.4082         estimate D2E/DX2                !
 ! R37   R(19,48)                0.9666         estimate D2E/DX2                !
 ! R38   R(20,21)                1.3627         estimate D2E/DX2                !
 ! R39   R(20,49)                1.0787         estimate D2E/DX2                !
 ! R40   R(21,22)                1.4108         estimate D2E/DX2                !
 ! R41   R(21,50)                1.0804         estimate D2E/DX2                !
 ! R42   R(22,23)                1.4094         estimate D2E/DX2                !
 ! R43   R(22,27)                1.4196         estimate D2E/DX2                !
 ! R44   R(23,24)                1.3667         estimate D2E/DX2                !
 ! R45   R(23,51)                1.081          estimate D2E/DX2                !
 ! R46   R(24,25)                1.4026         estimate D2E/DX2                !
 ! R47   R(24,52)                1.0803         estimate D2E/DX2                !
 ! R48   R(25,26)                1.3667         estimate D2E/DX2                !
 ! R49   R(25,53)                1.0805         estimate D2E/DX2                !
 ! R50   R(26,27)                1.4114         estimate D2E/DX2                !
 ! R51   R(26,54)                1.0802         estimate D2E/DX2                !
 ! R52   R(28,29)                1.3643         estimate D2E/DX2                !
 ! R53   R(29,55)                0.9671         estimate D2E/DX2                !
 ! R54   R(30,31)                1.5353         estimate D2E/DX2                !
 ! R55   R(30,32)                1.5362         estimate D2E/DX2                !
 ! R56   R(30,33)                1.5331         estimate D2E/DX2                !
 ! R57   R(31,56)                1.0874         estimate D2E/DX2                !
 ! R58   R(31,57)                1.0872         estimate D2E/DX2                !
 ! R59   R(31,58)                1.0881         estimate D2E/DX2                !
 ! R60   R(32,59)                1.0882         estimate D2E/DX2                !
 ! R61   R(32,60)                1.0862         estimate D2E/DX2                !
 ! R62   R(32,61)                1.0882         estimate D2E/DX2                !
 ! R63   R(33,34)                1.5189         estimate D2E/DX2                !
 ! R64   R(33,62)                1.0923         estimate D2E/DX2                !
 ! R65   R(33,63)                1.0916         estimate D2E/DX2                !
 ! R66   R(34,35)                1.5333         estimate D2E/DX2                !
 ! R67   R(34,64)                1.0917         estimate D2E/DX2                !
 ! R68   R(34,65)                1.0923         estimate D2E/DX2                !
 ! R69   R(35,36)                1.5352         estimate D2E/DX2                !
 ! R70   R(35,37)                1.5363         estimate D2E/DX2                !
 ! R71   R(36,66)                1.087          estimate D2E/DX2                !
 ! R72   R(36,67)                1.0873         estimate D2E/DX2                !
 ! R73   R(36,68)                1.0881         estimate D2E/DX2                !
 ! R74   R(37,69)                1.0882         estimate D2E/DX2                !
 ! R75   R(37,70)                1.0882         estimate D2E/DX2                !
 ! R76   R(37,71)                1.0862         estimate D2E/DX2                !
 ! A1    A(2,1,38)             110.5266         estimate D2E/DX2                !
 ! A2    A(2,1,39)             111.2773         estimate D2E/DX2                !
 ! A3    A(2,1,40)             110.4238         estimate D2E/DX2                !
 ! A4    A(38,1,39)            108.0274         estimate D2E/DX2                !
 ! A5    A(38,1,40)            108.7114         estimate D2E/DX2                !
 ! A6    A(39,1,40)            107.7751         estimate D2E/DX2                !
 ! A7    A(1,2,3)              120.6855         estimate D2E/DX2                !
 ! A8    A(1,2,7)              121.3825         estimate D2E/DX2                !
 ! A9    A(3,2,7)              117.9244         estimate D2E/DX2                !
 ! A10   A(2,3,4)              123.1928         estimate D2E/DX2                !
 ! A11   A(2,3,41)             117.6219         estimate D2E/DX2                !
 ! A12   A(4,3,41)             119.1844         estimate D2E/DX2                !
 ! A13   A(3,4,5)              118.5787         estimate D2E/DX2                !
 ! A14   A(3,4,35)             118.2946         estimate D2E/DX2                !
 ! A15   A(5,4,35)             123.1102         estimate D2E/DX2                !
 ! A16   A(4,5,6)              118.3161         estimate D2E/DX2                !
 ! A17   A(4,5,30)             123.3818         estimate D2E/DX2                !
 ! A18   A(6,5,30)             118.2943         estimate D2E/DX2                !
 ! A19   A(5,6,7)              122.6468         estimate D2E/DX2                !
 ! A20   A(5,6,42)             119.8887         estimate D2E/DX2                !
 ! A21   A(7,6,42)             117.4637         estimate D2E/DX2                !
 ! A22   A(2,7,6)              119.2306         estimate D2E/DX2                !
 ! A23   A(2,7,8)              121.2857         estimate D2E/DX2                !
 ! A24   A(6,7,8)              119.4794         estimate D2E/DX2                !
 ! A25   A(7,8,9)              121.2892         estimate D2E/DX2                !
 ! A26   A(7,8,28)             119.2632         estimate D2E/DX2                !
 ! A27   A(9,8,28)             119.4442         estimate D2E/DX2                !
 ! A28   A(8,9,10)             121.3872         estimate D2E/DX2                !
 ! A29   A(8,9,43)             119.4393         estimate D2E/DX2                !
 ! A30   A(10,9,43)            119.1618         estimate D2E/DX2                !
 ! A31   A(9,10,11)            121.7605         estimate D2E/DX2                !
 ! A32   A(9,10,15)            119.1102         estimate D2E/DX2                !
 ! A33   A(11,10,15)           119.1267         estimate D2E/DX2                !
 ! A34   A(10,11,12)           120.7739         estimate D2E/DX2                !
 ! A35   A(10,11,44)           118.5156         estimate D2E/DX2                !
 ! A36   A(12,11,44)           120.7103         estimate D2E/DX2                !
 ! A37   A(11,12,13)           120.11           estimate D2E/DX2                !
 ! A38   A(11,12,45)           120.3837         estimate D2E/DX2                !
 ! A39   A(13,12,45)           119.5058         estimate D2E/DX2                !
 ! A40   A(12,13,14)           120.5595         estimate D2E/DX2                !
 ! A41   A(12,13,46)           119.3767         estimate D2E/DX2                !
 ! A42   A(14,13,46)           120.0637         estimate D2E/DX2                !
 ! A43   A(13,14,15)           120.7097         estimate D2E/DX2                !
 ! A44   A(13,14,47)           120.4651         estimate D2E/DX2                !
 ! A45   A(15,14,47)           118.8252         estimate D2E/DX2                !
 ! A46   A(10,15,14)           118.7115         estimate D2E/DX2                !
 ! A47   A(10,15,16)           119.324          estimate D2E/DX2                !
 ! A48   A(14,15,16)           121.9645         estimate D2E/DX2                !
 ! A49   A(15,16,17)           120.9393         estimate D2E/DX2                !
 ! A50   A(15,16,28)           119.7844         estimate D2E/DX2                !
 ! A51   A(17,16,28)           119.275          estimate D2E/DX2                !
 ! A52   A(16,17,18)           119.6168         estimate D2E/DX2                !
 ! A53   A(16,17,27)           120.6622         estimate D2E/DX2                !
 ! A54   A(18,17,27)           119.7201         estimate D2E/DX2                !
 ! A55   A(17,18,19)           122.5172         estimate D2E/DX2                !
 ! A56   A(17,18,20)           120.5718         estimate D2E/DX2                !
 ! A57   A(19,18,20)           116.8974         estimate D2E/DX2                !
 ! A58   A(18,19,48)           108.9891         estimate D2E/DX2                !
 ! A59   A(18,20,21)           120.4072         estimate D2E/DX2                !
 ! A60   A(18,20,49)           117.7334         estimate D2E/DX2                !
 ! A61   A(21,20,49)           121.8591         estimate D2E/DX2                !
 ! A62   A(20,21,22)           120.8503         estimate D2E/DX2                !
 ! A63   A(20,21,50)           120.3319         estimate D2E/DX2                !
 ! A64   A(22,21,50)           118.8174         estimate D2E/DX2                !
 ! A65   A(21,22,23)           121.8248         estimate D2E/DX2                !
 ! A66   A(21,22,27)           119.0434         estimate D2E/DX2                !
 ! A67   A(23,22,27)           119.1317         estimate D2E/DX2                !
 ! A68   A(22,23,24)           120.9154         estimate D2E/DX2                !
 ! A69   A(22,23,51)           118.4957         estimate D2E/DX2                !
 ! A70   A(24,23,51)           120.5887         estimate D2E/DX2                !
 ! A71   A(23,24,25)           119.9956         estimate D2E/DX2                !
 ! A72   A(23,24,52)           120.4714         estimate D2E/DX2                !
 ! A73   A(25,24,52)           119.5324         estimate D2E/DX2                !
 ! A74   A(24,25,26)           120.5357         estimate D2E/DX2                !
 ! A75   A(24,25,53)           119.3773         estimate D2E/DX2                !
 ! A76   A(26,25,53)           120.0869         estimate D2E/DX2                !
 ! A77   A(25,26,27)           120.8663         estimate D2E/DX2                !
 ! A78   A(25,26,54)           120.199          estimate D2E/DX2                !
 ! A79   A(27,26,54)           118.9346         estimate D2E/DX2                !
 ! A80   A(17,27,22)           119.3929         estimate D2E/DX2                !
 ! A81   A(17,27,26)           122.0567         estimate D2E/DX2                !
 ! A82   A(22,27,26)           118.5489         estimate D2E/DX2                !
 ! A83   A(8,28,16)            120.8955         estimate D2E/DX2                !
 ! A84   A(8,28,29)            120.4637         estimate D2E/DX2                !
 ! A85   A(16,28,29)           118.6352         estimate D2E/DX2                !
 ! A86   A(28,29,55)           108.8866         estimate D2E/DX2                !
 ! A87   A(5,30,31)            108.7288         estimate D2E/DX2                !
 ! A88   A(5,30,32)            110.6837         estimate D2E/DX2                !
 ! A89   A(5,30,33)            110.5573         estimate D2E/DX2                !
 ! A90   A(31,30,32)           108.9112         estimate D2E/DX2                !
 ! A91   A(31,30,33)           110.4081         estimate D2E/DX2                !
 ! A92   A(32,30,33)           107.5374         estimate D2E/DX2                !
 ! A93   A(30,31,56)           110.5626         estimate D2E/DX2                !
 ! A94   A(30,31,57)           111.0421         estimate D2E/DX2                !
 ! A95   A(30,31,58)           110.2258         estimate D2E/DX2                !
 ! A96   A(56,31,57)           107.9004         estimate D2E/DX2                !
 ! A97   A(56,31,58)           108.4266         estimate D2E/DX2                !
 ! A98   A(57,31,58)           108.5995         estimate D2E/DX2                !
 ! A99   A(30,32,59)           109.5712         estimate D2E/DX2                !
 ! A100  A(30,32,60)           111.9557         estimate D2E/DX2                !
 ! A101  A(30,32,61)           110.48           estimate D2E/DX2                !
 ! A102  A(59,32,60)           107.8            estimate D2E/DX2                !
 ! A103  A(59,32,61)           108.4664         estimate D2E/DX2                !
 ! A104  A(60,32,61)           108.4663         estimate D2E/DX2                !
 ! A105  A(30,33,34)           112.1234         estimate D2E/DX2                !
 ! A106  A(30,33,62)           109.1192         estimate D2E/DX2                !
 ! A107  A(30,33,63)           109.0006         estimate D2E/DX2                !
 ! A108  A(34,33,62)           109.6731         estimate D2E/DX2                !
 ! A109  A(34,33,63)           109.393          estimate D2E/DX2                !
 ! A110  A(62,33,63)           107.414          estimate D2E/DX2                !
 ! A111  A(33,34,35)           112.1505         estimate D2E/DX2                !
 ! A112  A(33,34,64)           109.3943         estimate D2E/DX2                !
 ! A113  A(33,34,65)           109.6721         estimate D2E/DX2                !
 ! A114  A(35,34,64)           108.9883         estimate D2E/DX2                !
 ! A115  A(35,34,65)           109.112          estimate D2E/DX2                !
 ! A116  A(64,34,65)           107.4045         estimate D2E/DX2                !
 ! A117  A(4,35,34)            110.5564         estimate D2E/DX2                !
 ! A118  A(4,35,36)            108.7433         estimate D2E/DX2                !
 ! A119  A(4,35,37)            110.7545         estimate D2E/DX2                !
 ! A120  A(34,35,36)           110.4024         estimate D2E/DX2                !
 ! A121  A(34,35,37)           107.4568         estimate D2E/DX2                !
 ! A122  A(36,35,37)           108.9128         estimate D2E/DX2                !
 ! A123  A(35,36,66)           111.0063         estimate D2E/DX2                !
 ! A124  A(35,36,67)           110.5546         estimate D2E/DX2                !
 ! A125  A(35,36,68)           110.2388         estimate D2E/DX2                !
 ! A126  A(66,36,67)           107.8561         estimate D2E/DX2                !
 ! A127  A(66,36,68)           108.651          estimate D2E/DX2                !
 ! A128  A(67,36,68)           108.4514         estimate D2E/DX2                !
 ! A129  A(35,37,69)           109.5477         estimate D2E/DX2                !
 ! A130  A(35,37,70)           110.5291         estimate D2E/DX2                !
 ! A131  A(35,37,71)           112.0062         estimate D2E/DX2                !
 ! A132  A(69,37,70)           108.4413         estimate D2E/DX2                !
 ! A133  A(69,37,71)           107.7718         estimate D2E/DX2                !
 ! A134  A(70,37,71)           108.4395         estimate D2E/DX2                !
 ! D1    D(38,1,2,3)          -140.2487         estimate D2E/DX2                !
 ! D2    D(38,1,2,7)            38.7235         estimate D2E/DX2                !
 ! D3    D(39,1,2,3)            99.7227         estimate D2E/DX2                !
 ! D4    D(39,1,2,7)           -81.3051         estimate D2E/DX2                !
 ! D5    D(40,1,2,3)           -19.9207         estimate D2E/DX2                !
 ! D6    D(40,1,2,7)           159.0514         estimate D2E/DX2                !
 ! D7    D(1,2,3,4)            178.5214         estimate D2E/DX2                !
 ! D8    D(1,2,3,41)            -1.1297         estimate D2E/DX2                !
 ! D9    D(7,2,3,4)             -0.4854         estimate D2E/DX2                !
 ! D10   D(7,2,3,41)           179.8634         estimate D2E/DX2                !
 ! D11   D(1,2,7,6)           -176.6008         estimate D2E/DX2                !
 ! D12   D(1,2,7,8)              2.6456         estimate D2E/DX2                !
 ! D13   D(3,2,7,6)              2.3987         estimate D2E/DX2                !
 ! D14   D(3,2,7,8)           -178.3548         estimate D2E/DX2                !
 ! D15   D(2,3,4,5)             -2.5173         estimate D2E/DX2                !
 ! D16   D(2,3,4,35)           178.9183         estimate D2E/DX2                !
 ! D17   D(41,3,4,5)           177.1287         estimate D2E/DX2                !
 ! D18   D(41,3,4,35)           -1.4357         estimate D2E/DX2                !
 ! D19   D(3,4,5,6)              3.5014         estimate D2E/DX2                !
 ! D20   D(3,4,5,30)          -177.5294         estimate D2E/DX2                !
 ! D21   D(35,4,5,6)          -178.0078         estimate D2E/DX2                !
 ! D22   D(35,4,5,30)            0.9614         estimate D2E/DX2                !
 ! D23   D(3,4,35,34)         -167.0859         estimate D2E/DX2                !
 ! D24   D(3,4,35,36)           71.5539         estimate D2E/DX2                !
 ! D25   D(3,4,35,37)          -48.091          estimate D2E/DX2                !
 ! D26   D(5,4,35,34)           14.4192         estimate D2E/DX2                !
 ! D27   D(5,4,35,36)         -106.941          estimate D2E/DX2                !
 ! D28   D(5,4,35,37)          133.4141         estimate D2E/DX2                !
 ! D29   D(4,5,6,7)             -1.6566         estimate D2E/DX2                !
 ! D30   D(4,5,6,42)           178.0089         estimate D2E/DX2                !
 ! D31   D(30,5,6,7)           179.3209         estimate D2E/DX2                !
 ! D32   D(30,5,6,42)           -1.0136         estimate D2E/DX2                !
 ! D33   D(4,5,30,31)         -107.3265         estimate D2E/DX2                !
 ! D34   D(4,5,30,32)          133.0825         estimate D2E/DX2                !
 ! D35   D(4,5,30,33)           14.0319         estimate D2E/DX2                !
 ! D36   D(6,5,30,31)           71.6429         estimate D2E/DX2                !
 ! D37   D(6,5,30,32)          -47.9481         estimate D2E/DX2                !
 ! D38   D(6,5,30,33)         -166.9987         estimate D2E/DX2                !
 ! D39   D(5,6,7,2)             -1.3608         estimate D2E/DX2                !
 ! D40   D(5,6,7,8)            179.379          estimate D2E/DX2                !
 ! D41   D(42,6,7,2)           178.9661         estimate D2E/DX2                !
 ! D42   D(42,6,7,8)            -0.2942         estimate D2E/DX2                !
 ! D43   D(2,7,8,9)           -113.3251         estimate D2E/DX2                !
 ! D44   D(2,7,8,28)            67.3524         estimate D2E/DX2                !
 ! D45   D(6,7,8,9)             65.9195         estimate D2E/DX2                !
 ! D46   D(6,7,8,28)          -113.403          estimate D2E/DX2                !
 ! D47   D(7,8,9,10)           178.537          estimate D2E/DX2                !
 ! D48   D(7,8,9,43)            -0.2114         estimate D2E/DX2                !
 ! D49   D(28,8,9,10)           -2.1417         estimate D2E/DX2                !
 ! D50   D(28,8,9,43)          179.1099         estimate D2E/DX2                !
 ! D51   D(7,8,28,16)         -178.6321         estimate D2E/DX2                !
 ! D52   D(7,8,28,29)            2.2366         estimate D2E/DX2                !
 ! D53   D(9,8,28,16)            2.0328         estimate D2E/DX2                !
 ! D54   D(9,8,28,29)         -177.0986         estimate D2E/DX2                !
 ! D55   D(8,9,10,11)         -179.08           estimate D2E/DX2                !
 ! D56   D(8,9,10,15)            0.3265         estimate D2E/DX2                !
 ! D57   D(43,9,10,11)          -0.3282         estimate D2E/DX2                !
 ! D58   D(43,9,10,15)         179.0783         estimate D2E/DX2                !
 ! D59   D(9,10,11,12)         178.9476         estimate D2E/DX2                !
 ! D60   D(9,10,11,44)          -0.9015         estimate D2E/DX2                !
 ! D61   D(15,10,11,12)         -0.4588         estimate D2E/DX2                !
 ! D62   D(15,10,11,44)        179.6921         estimate D2E/DX2                !
 ! D63   D(9,10,15,14)        -178.3793         estimate D2E/DX2                !
 ! D64   D(9,10,15,16)           1.6213         estimate D2E/DX2                !
 ! D65   D(11,10,15,14)          1.043          estimate D2E/DX2                !
 ! D66   D(11,10,15,16)       -178.9564         estimate D2E/DX2                !
 ! D67   D(10,11,12,13)         -0.3002         estimate D2E/DX2                !
 ! D68   D(10,11,12,45)        179.9763         estimate D2E/DX2                !
 ! D69   D(44,11,12,13)        179.5455         estimate D2E/DX2                !
 ! D70   D(44,11,12,45)         -0.178          estimate D2E/DX2                !
 ! D71   D(11,12,13,14)          0.466          estimate D2E/DX2                !
 ! D72   D(11,12,13,46)       -179.4627         estimate D2E/DX2                !
 ! D73   D(45,12,13,14)       -179.8081         estimate D2E/DX2                !
 ! D74   D(45,12,13,46)          0.2633         estimate D2E/DX2                !
 ! D75   D(12,13,14,15)          0.1453         estimate D2E/DX2                !
 ! D76   D(12,13,14,47)       -179.9277         estimate D2E/DX2                !
 ! D77   D(46,13,14,15)       -179.9265         estimate D2E/DX2                !
 ! D78   D(46,13,14,47)          0.0004         estimate D2E/DX2                !
 ! D79   D(13,14,15,10)         -0.8956         estimate D2E/DX2                !
 ! D80   D(13,14,15,16)        179.1038         estimate D2E/DX2                !
 ! D81   D(47,14,15,10)        179.1762         estimate D2E/DX2                !
 ! D82   D(47,14,15,16)         -0.8244         estimate D2E/DX2                !
 ! D83   D(10,15,16,17)        178.698          estimate D2E/DX2                !
 ! D84   D(10,15,16,28)         -1.7271         estimate D2E/DX2                !
 ! D85   D(14,15,16,17)         -1.3015         estimate D2E/DX2                !
 ! D86   D(14,15,16,28)        178.2735         estimate D2E/DX2                !
 ! D87   D(15,16,17,18)        108.5037         estimate D2E/DX2                !
 ! D88   D(15,16,17,27)        -71.8436         estimate D2E/DX2                !
 ! D89   D(28,16,17,18)        -71.0734         estimate D2E/DX2                !
 ! D90   D(28,16,17,27)        108.5793         estimate D2E/DX2                !
 ! D91   D(15,16,28,8)          -0.0868         estimate D2E/DX2                !
 ! D92   D(15,16,28,29)        179.0601         estimate D2E/DX2                !
 ! D93   D(17,16,28,8)         179.4953         estimate D2E/DX2                !
 ! D94   D(17,16,28,29)         -1.3578         estimate D2E/DX2                !
 ! D95   D(16,17,18,19)         -0.4686         estimate D2E/DX2                !
 ! D96   D(16,17,18,20)       -179.0855         estimate D2E/DX2                !
 ! D97   D(27,17,18,19)        179.8755         estimate D2E/DX2                !
 ! D98   D(27,17,18,20)          1.2586         estimate D2E/DX2                !
 ! D99   D(16,17,27,22)        179.0021         estimate D2E/DX2                !
 ! D100  D(16,17,27,26)         -1.4522         estimate D2E/DX2                !
 ! D101  D(18,17,27,22)         -1.3457         estimate D2E/DX2                !
 ! D102  D(18,17,27,26)        178.2001         estimate D2E/DX2                !
 ! D103  D(17,18,19,48)          3.7729         estimate D2E/DX2                !
 ! D104  D(20,18,19,48)       -177.5624         estimate D2E/DX2                !
 ! D105  D(17,18,20,21)         -0.3538         estimate D2E/DX2                !
 ! D106  D(17,18,20,49)        179.4551         estimate D2E/DX2                !
 ! D107  D(19,18,20,21)       -179.0461         estimate D2E/DX2                !
 ! D108  D(19,18,20,49)          0.7628         estimate D2E/DX2                !
 ! D109  D(18,20,21,22)         -0.4663         estimate D2E/DX2                !
 ! D110  D(18,20,21,50)        179.769          estimate D2E/DX2                !
 ! D111  D(49,20,21,22)        179.7328         estimate D2E/DX2                !
 ! D112  D(49,20,21,50)         -0.0318         estimate D2E/DX2                !
 ! D113  D(20,21,22,23)       -179.535          estimate D2E/DX2                !
 ! D114  D(20,21,22,27)          0.3581         estimate D2E/DX2                !
 ! D115  D(50,21,22,23)          0.2332         estimate D2E/DX2                !
 ! D116  D(50,21,22,27)       -179.8737         estimate D2E/DX2                !
 ! D117  D(21,22,23,24)        179.526          estimate D2E/DX2                !
 ! D118  D(21,22,23,51)         -0.3324         estimate D2E/DX2                !
 ! D119  D(27,22,23,24)         -0.367          estimate D2E/DX2                !
 ! D120  D(27,22,23,51)        179.7746         estimate D2E/DX2                !
 ! D121  D(21,22,27,17)          0.5449         estimate D2E/DX2                !
 ! D122  D(21,22,27,26)       -179.0168         estimate D2E/DX2                !
 ! D123  D(23,22,27,17)       -179.5591         estimate D2E/DX2                !
 ! D124  D(23,22,27,26)          0.8792         estimate D2E/DX2                !
 ! D125  D(22,23,24,25)         -0.288          estimate D2E/DX2                !
 ! D126  D(22,23,24,52)        179.9803         estimate D2E/DX2                !
 ! D127  D(51,23,24,25)        179.5675         estimate D2E/DX2                !
 ! D128  D(51,23,24,52)         -0.1642         estimate D2E/DX2                !
 ! D129  D(23,24,25,26)          0.4207         estimate D2E/DX2                !
 ! D130  D(23,24,25,53)       -179.4948         estimate D2E/DX2                !
 ! D131  D(52,24,25,26)       -179.845          estimate D2E/DX2                !
 ! D132  D(52,24,25,53)          0.2394         estimate D2E/DX2                !
 ! D133  D(24,25,26,27)          0.1162         estimate D2E/DX2                !
 ! D134  D(24,25,26,54)       -179.7768         estimate D2E/DX2                !
 ! D135  D(53,25,26,27)       -179.9688         estimate D2E/DX2                !
 ! D136  D(53,25,26,54)          0.1381         estimate D2E/DX2                !
 ! D137  D(25,26,27,17)        179.6881         estimate D2E/DX2                !
 ! D138  D(25,26,27,22)         -0.7625         estimate D2E/DX2                !
 ! D139  D(54,26,27,17)         -0.4176         estimate D2E/DX2                !
 ! D140  D(54,26,27,22)        179.1318         estimate D2E/DX2                !
 ! D141  D(8,28,29,55)           4.7686         estimate D2E/DX2                !
 ! D142  D(16,28,29,55)       -174.3821         estimate D2E/DX2                !
 ! D143  D(5,30,31,56)         -59.5067         estimate D2E/DX2                !
 ! D144  D(5,30,31,57)          60.2321         estimate D2E/DX2                !
 ! D145  D(5,30,31,58)        -179.3742         estimate D2E/DX2                !
 ! D146  D(32,30,31,56)         61.1832         estimate D2E/DX2                !
 ! D147  D(32,30,31,57)       -179.078          estimate D2E/DX2                !
 ! D148  D(32,30,31,58)        -58.6843         estimate D2E/DX2                !
 ! D149  D(33,30,31,56)        179.0435         estimate D2E/DX2                !
 ! D150  D(33,30,31,57)        -61.2177         estimate D2E/DX2                !
 ! D151  D(33,30,31,58)         59.176          estimate D2E/DX2                !
 ! D152  D(5,30,32,59)        -169.9201         estimate D2E/DX2                !
 ! D153  D(5,30,32,60)          70.5335         estimate D2E/DX2                !
 ! D154  D(5,30,32,61)         -50.472          estimate D2E/DX2                !
 ! D155  D(31,30,32,59)         70.5987         estimate D2E/DX2                !
 ! D156  D(31,30,32,60)        -48.9477         estimate D2E/DX2                !
 ! D157  D(31,30,32,61)       -169.9532         estimate D2E/DX2                !
 ! D158  D(33,30,32,59)        -49.0601         estimate D2E/DX2                !
 ! D159  D(33,30,32,60)       -168.6065         estimate D2E/DX2                !
 ! D160  D(33,30,32,61)         70.388          estimate D2E/DX2                !
 ! D161  D(5,30,33,34)         -44.8046         estimate D2E/DX2                !
 ! D162  D(5,30,33,62)        -166.5102         estimate D2E/DX2                !
 ! D163  D(5,30,33,63)          76.4657         estimate D2E/DX2                !
 ! D164  D(31,30,33,34)         75.5548         estimate D2E/DX2                !
 ! D165  D(31,30,33,62)        -46.1508         estimate D2E/DX2                !
 ! D166  D(31,30,33,63)       -163.1749         estimate D2E/DX2                !
 ! D167  D(32,30,33,34)       -165.7441         estimate D2E/DX2                !
 ! D168  D(32,30,33,62)         72.5503         estimate D2E/DX2                !
 ! D169  D(32,30,33,63)        -44.4738         estimate D2E/DX2                !
 ! D170  D(30,33,34,35)         63.117          estimate D2E/DX2                !
 ! D171  D(30,33,34,64)        -57.9305         estimate D2E/DX2                !
 ! D172  D(30,33,34,65)       -175.4869         estimate D2E/DX2                !
 ! D173  D(62,33,34,35)       -175.4951         estimate D2E/DX2                !
 ! D174  D(62,33,34,64)         63.4574         estimate D2E/DX2                !
 ! D175  D(62,33,34,65)        -54.099          estimate D2E/DX2                !
 ! D176  D(63,33,34,35)        -57.9273         estimate D2E/DX2                !
 ! D177  D(63,33,34,64)       -178.9749         estimate D2E/DX2                !
 ! D178  D(63,33,34,65)         63.4687         estimate D2E/DX2                !
 ! D179  D(33,34,35,4)         -45.2299         estimate D2E/DX2                !
 ! D180  D(33,34,35,36)         75.1433         estimate D2E/DX2                !
 ! D181  D(33,34,35,37)       -166.2049         estimate D2E/DX2                !
 ! D182  D(64,34,35,4)          76.0513         estimate D2E/DX2                !
 ! D183  D(64,34,35,36)       -163.5755         estimate D2E/DX2                !
 ! D184  D(64,34,35,37)        -44.9237         estimate D2E/DX2                !
 ! D185  D(65,34,35,4)        -166.947          estimate D2E/DX2                !
 ! D186  D(65,34,35,36)        -46.5737         estimate D2E/DX2                !
 ! D187  D(65,34,35,37)         72.078          estimate D2E/DX2                !
 ! D188  D(4,35,36,66)          59.6629         estimate D2E/DX2                !
 ! D189  D(4,35,36,67)         -59.9919         estimate D2E/DX2                !
 ! D190  D(4,35,36,68)        -179.8936         estimate D2E/DX2                !
 ! D191  D(34,35,36,66)        -61.7915         estimate D2E/DX2                !
 ! D192  D(34,35,36,67)        178.5537         estimate D2E/DX2                !
 ! D193  D(34,35,36,68)         58.652          estimate D2E/DX2                !
 ! D194  D(37,35,36,66)       -179.5515         estimate D2E/DX2                !
 ! D195  D(37,35,36,67)         60.7937         estimate D2E/DX2                !
 ! D196  D(37,35,36,68)        -59.108          estimate D2E/DX2                !
 ! D197  D(4,35,37,69)        -170.2003         estimate D2E/DX2                !
 ! D198  D(4,35,37,70)         -50.7677         estimate D2E/DX2                !
 ! D199  D(4,35,37,71)          70.2721         estimate D2E/DX2                !
 ! D200  D(34,35,37,69)        -49.3501         estimate D2E/DX2                !
 ! D201  D(34,35,37,70)         70.0825         estimate D2E/DX2                !
 ! D202  D(34,35,37,71)       -168.8777         estimate D2E/DX2                !
 ! D203  D(36,35,37,69)         70.2566         estimate D2E/DX2                !
 ! D204  D(36,35,37,70)       -170.3108         estimate D2E/DX2                !
 ! D205  D(36,35,37,71)        -49.271          estimate D2E/DX2                !
 --------------------------------------------------------------------------------
 Trust Radius=3.00D-01 FncErr=1.00D-07 GrdErr=1.00D-06 EigMax=2.50D+02 EigMin=1.00D-04
 Number of steps in this run=    425 maximum allowed number of steps=    426.
 GradGradGradGradGradGradGradGradGradGradGradGradGradGradGradGradGradGrad

 Leave Link  103 at Mon Mar 24 15:54:38 2025, MaxMem= 13421772800 cpu:               0.9 elap:               0.0
 (Enter /public/software/apps/Gaussian/g16/l202.exe)
 Symmetry turned off by external request.
 Stoichiometry    C35H34O2
 Framework group  C1[X(C35H34O2)]
 Deg. of freedom   207
 Full point group                 C1      NOp   1
                          Input orientation:                          
 ---------------------------------------------------------------------
 Center     Atomic      Atomic             Coordinates (Angstroms)
 Number     Number       Type             X           Y           Z
 ---------------------------------------------------------------------
      1          6           0       -1.378193   -0.856992    2.759727
      2          6           0       -2.199789   -0.490587    1.557878
      3          6           0       -3.509435   -0.920972    1.439990
      4          6           0       -4.327128   -0.587744    0.363979
      5          6           0       -3.821428    0.263296   -0.620869
      6          6           0       -2.498618    0.678656   -0.517766
      7          6           0       -1.679151    0.309084    0.536599
      8          6           0       -0.276813    0.780765    0.569055
      9          6           0        0.023659    2.108829    0.714739
     10          6           0        1.357664    2.556666    0.776414
     11          6           0        1.675849    3.919839    0.945410
     12          6           0        2.976969    4.329499    1.023957
     13          6           0        4.016654    3.390677    0.942964
     14          6           0        3.741962    2.062278    0.775741
     15          6           0        2.409505    1.608741    0.678214
     16          6           0        2.094664    0.239212    0.485816
     17          6           0        3.166034   -0.777882    0.349691
     18          6           0        3.389456   -1.674947    1.375071
     19          8           0        2.667094   -1.663246    2.526603
     20          6           0        4.413541   -2.636301    1.275213
     21          6           0        5.194503   -2.698874    0.160200
     22          6           0        4.988804   -1.812341   -0.917815
     23          6           0        5.777881   -1.865136   -2.084466
     24          6           0        5.556141   -1.003317   -3.121724
     25          6           0        4.527706   -0.053329   -3.036492
     26          6           0        3.746384    0.025746   -1.917913
     27          6           0        3.956776   -0.842056   -0.824861
     28          6           0        0.773686   -0.160070    0.432333
     29          8           0        0.497502   -1.480220    0.226979
     30          6           0       -4.634138    0.739979   -1.809631
     31          6           0       -4.132051    0.021368   -3.070085
     32          6           0       -4.474337    2.255468   -2.003533
     33          6           0       -6.124879    0.456896   -1.590891
     34          6           0       -6.368147   -0.940932   -1.048611
     35          6           0       -5.739114   -1.141759    0.335199
     36          6           0       -6.571113   -0.427960    1.409993
     37          6           0       -5.738117   -2.650148    0.626474
     38          1           0       -0.765242   -0.013432    3.075009
     39          1           0       -0.713935   -1.695248    2.544586
     40          1           0       -2.022794   -1.147769    3.585689
     41          1           0       -3.905823   -1.540132    2.230362
     42          1           0       -2.072116    1.310510   -1.281959
     43          1           0       -0.778020    2.828104    0.804502
     44          1           0        0.867214    4.633831    1.013986
     45          1           0        3.213556    5.375462    1.153065
     46          1           0        5.040624    3.726545    1.015195
     47          1           0        4.543172    1.341009    0.714773
     48          1           0        1.976296   -0.990715    2.457710
     49          1           0        4.553727   -3.308672    2.107020
     50          1           0        5.982284   -3.434518    0.086431
     51          1           0        6.563331   -2.605625   -2.142798
     52          1           0        6.165524   -1.049914   -4.012519
     53          1           0        4.355879    0.617693   -3.865801
     54          1           0        2.953560    0.757023   -1.859536
     55          1           0       -0.458284   -1.588082    0.126027
     56          1           0       -3.078764    0.234077   -3.237026
     57          1           0       -4.244623   -1.055899   -2.976242
     58          1           0       -4.692442    0.354271   -3.941304
     59          1           0       -5.194927    2.606806   -2.739458
     60          1           0       -3.481964    2.516957   -2.359384
     61          1           0       -4.654133    2.780146   -1.067303
     62          1           0       -6.655403    0.581565   -2.537583
     63          1           0       -6.527360    1.192089   -0.891583
     64          1           0       -5.949501   -1.675577   -1.739098
     65          1           0       -7.442308   -1.128434   -0.983821
     66          1           0       -6.601076    0.643911    1.231542
     67          1           0       -6.141374   -0.589985    2.395560
     68          1           0       -7.590280   -0.809046    1.411798
     69          1           0       -6.727520   -3.059224    0.431783
     70          1           0       -5.022000   -3.161908   -0.013429
     71          1           0       -5.488505   -2.864609    1.661570
 ---------------------------------------------------------------------
 Rotational constants (GHZ):           0.1866091           0.0568840           0.0544290
 Leave Link  202 at Mon Mar 24 15:54:38 2025, MaxMem= 13421772800 cpu:               0.9 elap:               0.0
 (Enter /public/software/apps/Gaussian/g16/l301.exe)
 Standard basis: def2SVPP (5D, 7F)
 Ernie: Thresh=  0.10000D-02 Tol=  0.10000D-05 Strict=F.
   586 basis functions,  1061 primitive gaussians,   623 cartesian basis functions
   130 alpha electrons      130 beta electrons
       nuclear repulsion energy      3928.0898541434 Hartrees.
 IExCor=  402 DFT=T Ex+Corr=B3LYP ExCW=0 ScaHFX=  0.200000
 ScaDFX=  0.800000  0.720000  1.000000  0.810000 ScalE2=  1.000000  1.000000
 IRadAn=      5 IRanWt=     -1 IRanGd=            0 ICorTp=0 IEmpDi=141
 NAtoms=   71 NActive=   71 NUniq=   71 SFac= 1.00D+00 NAtFMM=   60 NAOKFM=T Big=T
 Integral buffers will be    131072 words long.
 Raffenetti 2 integral format.
 Two-electron integral symmetry is turned off.
 R6Disp:  Grimme-D3(BJ) Dispersion energy=       -0.1843154559 Hartrees.
 Nuclear repulsion after empirical dispersion term =     3927.9055386875 Hartrees.
 Leave Link  301 at Mon Mar 24 15:54:38 2025, MaxMem= 13421772800 cpu:               1.5 elap:               0.1
 (Enter /public/software/apps/Gaussian/g16/l302.exe)
 NPDir=0 NMtPBC=     1 NCelOv=     1 NCel=       1 NClECP=     1 NCelD=      1
         NCelK=      1 NCelE2=     1 NClLst=     1 CellRange=     0.0.
 One-electron integrals computed using PRISM.
   1 Symmetry operations used in ECPInt.
 ECPInt:  NShTT=   42195 NPrTT=  169073 LenC2=   35106 LenP2D=   88489.
 LDataN:  DoStor=T MaxTD1= 4 Len=   56
 NBasis=   586 RedAO= T EigKep=  1.58D-04  NBF=   586
 NBsUse=   586 1.00D-06 EigRej= -1.00D+00 NBFU=   586
 Precomputing XC quadrature grid using
 IXCGrd= 4 IRadAn=           5 IRanWt=          -1 IRanGd=           0 AccXCQ= 0.00D+00.
 Generated NRdTot=       0 NPtTot=           0 NUsed=           0 NTot=          32
 NSgBfM=   612   611   612   612   612 MxSgAt=    71 MxSgA2=    71.
 Leave Link  302 at Mon Mar 24 15:54:40 2025, MaxMem= 13421772800 cpu:              70.8 elap:               2.4
 (Enter /public/software/apps/Gaussian/g16/l303.exe)
 DipDrv:  MaxL=1.
 Leave Link  303 at Mon Mar 24 15:54:40 2025, MaxMem= 13421772800 cpu:               3.6 elap:               0.1
 (Enter /public/software/apps/Gaussian/g16/l401.exe)
 ExpMin= 1.22D-01 ExpMax= 2.27D+03 ExpMxC= 3.41D+02 IAcc=3 IRadAn=         5 AccDes= 0.00D+00
 Harris functional with IExCor=  402 and IRadAn=       5 diagonalized for initial guess.
 HarFok:  IExCor=  402 AccDes= 0.00D+00 IRadAn=         5 IDoV= 1 UseB2=F ITyADJ=14
 ICtDFT=  3500011 ScaDFX=  1.000000  1.000000  1.000000  1.000000
 FoFCou: FMM=F IPFlag=           0 FMFlag=      100000 FMFlg1=        2001
         NFxFlg=           0 DoJE=T BraDBF=F KetDBF=T FulRan=T
         wScrn=  0.000000 ICntrl=       500 IOpCl=  0 I1Cent=   200000004 NGrid=           0
         NMat0=    1 NMatS0=      1 NMatT0=    0 NMatD0=    1 NMtDS0=    0 NMtDT0=    0
 Symmetry not used in FoFCou.
 Harris En= -1503.73846121125    
 JPrj=0 DoOrth=F DoCkMO=F.
 Leave Link  401 at Mon Mar 24 15:54:43 2025, MaxMem= 13421772800 cpu:              88.7 elap:               2.9
 (Enter /public/software/apps/Gaussian/g16/l502.exe)
 Two-electron integral symmetry not used.
 Closed shell SCF:
 Using DIIS extrapolation, IDIIS=  1040.
 NGot= 13421772800 LenX= 13420969491 LenY= 13420580739
 Requested convergence on RMS density matrix=1.00D-08 within 128 cycles.
 Requested convergence on MAX density matrix=1.00D-06.
 Requested convergence on             energy=1.00D-06.
 No special actions if energy rises.
 Fock matrices will be formed incrementally for  20 cycles.
 Integral accuracy reduced to 1.0D-05 until final iterations.

 Cycle   1  Pass 0  IDiag  1:
 FoFJK:  IHMeth= 1 ICntrl=       0 DoSepK=F KAlg= 0 I1Cent=           0 FoldK=F
 IRaf= 990000000 NMat=       1 IRICut=       1 DoRegI=T DoRafI=F ISym2E= 0 IDoP0=0 IntGTp=1.
 FoFCou: FMM=T IPFlag=           0 FMFlag=      100000 FMFlg1=        2001
         NFxFlg=           0 DoJE=F BraDBF=F KetDBF=F FulRan=T
         wScrn=  0.000000 ICntrl=         0 IOpCl=  0 I1Cent=           0 NGrid=           0
         NMat0=    1 NMatS0=      1 NMatT0=    0 NMatD0=    1 NMtDS0=    0 NMtDT0=    0
 Symmetry not used in FoFCou.
 FMM levels:  10  Number of levels for PrismC:   9
 E= -1502.83903907685    
 DIIS: error= 3.83D-02 at cycle   1 NSaved=   1.
 NSaved= 1 IEnMin= 1 EnMin= -1502.83903907685     IErMin= 1 ErrMin= 3.83D-02
 ErrMax= 3.83D-02  0.00D+00 EMaxC= 1.00D-01 BMatC= 7.62D-01 BMatP= 7.62D-01
 IDIUse=3 WtCom= 6.17D-01 WtEn= 3.83D-01
 Coeff-Com:  0.100D+01
 Coeff-En:   0.100D+01
 Coeff:      0.100D+01
 Gap=     0.168 Goal=   None    Shift=    0.000
 GapD=    0.168 DampG=1.000 DampE=0.500 DampFc=0.5000 IDamp=-1.
 Damping current iteration by 5.00D-01
 RMSDP=5.27D-03 MaxDP=1.76D-01              OVMax= 1.74D-01

 Cycle   2  Pass 0  IDiag  1:
 RMSU=  2.41D-03    CP:  9.38D-01
 E= -1503.23708709620     Delta-E=       -0.398048019346 Rises=F Damp=T
 DIIS: error= 3.68D-03 at cycle   2 NSaved=   2.
 NSaved= 2 IEnMin= 2 EnMin= -1503.23708709620     IErMin= 2 ErrMin= 3.68D-03
 ErrMax= 3.68D-03  0.00D+00 EMaxC= 1.00D-01 BMatC= 3.69D-02 BMatP= 7.62D-01
 IDIUse=3 WtCom= 9.63D-01 WtEn= 3.68D-02
 Coeff-Com:  0.411D-01 0.959D+00
 Coeff-En:   0.615D-01 0.939D+00
 Coeff:      0.419D-01 0.958D+00
 Gap=     0.176 Goal=   None    Shift=    0.000
 RMSDP=2.08D-03 MaxDP=1.05D-01 DE=-3.98D-01 OVMax= 1.62D-01

 Cycle   3  Pass 0  IDiag  1:
 RMSU=  1.92D-03    CP:  8.93D-01  1.03D+00
 E= -1503.65470925125     Delta-E=       -0.417622155048 Rises=F Damp=F
 DIIS: error= 7.83D-03 at cycle   3 NSaved=   3.
 NSaved= 3 IEnMin= 3 EnMin= -1503.65470925125     IErMin= 2 ErrMin= 3.68D-03
 ErrMax= 7.83D-03  0.00D+00 EMaxC= 1.00D-01 BMatC= 4.76D-02 BMatP= 3.69D-02
 IDIUse=3 WtCom= 1.02D-01 WtEn= 8.98D-01
 Coeff-Com: -0.146D-01 0.543D+00 0.471D+00
 Coeff-En:   0.000D+00 0.000D+00 0.100D+01
 Coeff:     -0.148D-02 0.552D-01 0.946D+00
 Gap=     0.168 Goal=   None    Shift=    0.000
 RMSDP=1.84D-03 MaxDP=8.63D-02 DE=-4.18D-01 OVMax= 1.83D-01

 Cycle   4  Pass 0  IDiag  1:
 RMSU=  1.32D-03    CP:  8.96D-01  1.26D+00  3.98D-01
 E= -1503.48324819051     Delta-E=        0.171461060741 Rises=F Damp=F
 DIIS: error= 1.64D-02 at cycle   4 NSaved=   4.
 NSaved= 4 IEnMin= 3 EnMin= -1503.65470925125     IErMin= 2 ErrMin= 3.68D-03
 ErrMax= 1.64D-02  0.00D+00 EMaxC= 1.00D-01 BMatC= 1.96D-01 BMatP= 3.69D-02
 IDIUse=2 WtCom= 0.00D+00 WtEn= 1.00D+00
 Coeff-En:   0.000D+00 0.000D+00 0.749D+00 0.251D+00
 Coeff:      0.000D+00 0.000D+00 0.749D+00 0.251D+00
 Gap=     0.154 Goal=   None    Shift=    0.000
 RMSDP=9.54D-04 MaxDP=5.30D-02 DE= 1.71D-01 OVMax= 1.14D-01

 Cycle   5  Pass 0  IDiag  1:
 RMSU=  2.02D-04    CP:  8.94D-01  1.14D+00  6.91D-01  4.78D-01
 E= -1503.69616228478     Delta-E=       -0.212914094275 Rises=F Damp=F
 DIIS: error= 3.80D-03 at cycle   5 NSaved=   5.
 NSaved= 5 IEnMin= 5 EnMin= -1503.69616228478     IErMin= 2 ErrMin= 3.68D-03
 ErrMax= 3.80D-03  0.00D+00 EMaxC= 1.00D-01 BMatC= 1.18D-02 BMatP= 3.69D-02
 IDIUse=3 WtCom= 9.62D-01 WtEn= 3.80D-02
 Coeff-Com:  0.481D-02 0.683D-02 0.333D+00 0.595D-02 0.649D+00
 Coeff-En:   0.000D+00 0.000D+00 0.247D+00 0.000D+00 0.753D+00
 Coeff:      0.463D-02 0.657D-02 0.330D+00 0.572D-02 0.653D+00
 Gap=     0.154 Goal=   None    Shift=    0.000
 RMSDP=3.14D-04 MaxDP=1.64D-02 DE=-2.13D-01 OVMax= 2.98D-02

 Cycle   6  Pass 0  IDiag  1:
 RMSU=  8.03D-05    CP:  8.92D-01  1.11D+00  7.95D-01  3.24D-01  7.99D-01
 E= -1503.70937903017     Delta-E=       -0.013216745386 Rises=F Damp=F
 DIIS: error= 3.17D-04 at cycle   6 NSaved=   6.
 NSaved= 6 IEnMin= 6 EnMin= -1503.70937903017     IErMin= 6 ErrMin= 3.17D-04
 ErrMax= 3.17D-04  0.00D+00 EMaxC= 1.00D-01 BMatC= 1.71D-04 BMatP= 1.18D-02
 IDIUse=3 WtCom= 9.97D-01 WtEn= 3.17D-03
 Coeff-Com:  0.221D-02-0.715D-02 0.115D+00-0.361D-01 0.394D+00 0.532D+00
 Coeff-En:   0.000D+00 0.000D+00 0.000D+00 0.000D+00 0.000D+00 0.100D+01
 Coeff:      0.220D-02-0.713D-02 0.115D+00-0.360D-01 0.393D+00 0.533D+00
 Gap=     0.153 Goal=   None    Shift=    0.000
 RMSDP=4.16D-05 MaxDP=1.66D-03 DE=-1.32D-02 OVMax= 4.74D-03

 Cycle   7  Pass 0  IDiag  1:
 RMSU=  3.11D-05    CP:  8.92D-01  1.11D+00  7.97D-01  3.25D-01  8.46D-01
                    CP:  6.79D-01
 E= -1503.70958536866     Delta-E=       -0.000206338486 Rises=F Damp=F
 DIIS: error= 1.28D-04 at cycle   7 NSaved=   7.
 NSaved= 7 IEnMin= 7 EnMin= -1503.70958536866     IErMin= 7 ErrMin= 1.28D-04
 ErrMax= 1.28D-04  0.00D+00 EMaxC= 1.00D-01 BMatC= 1.41D-05 BMatP= 1.71D-04
 IDIUse=3 WtCom= 9.99D-01 WtEn= 1.28D-03
 Coeff-Com:  0.106D-02-0.406D-02 0.510D-01-0.235D-01 0.204D+00 0.324D+00
 Coeff-Com:  0.447D+00
 Coeff-En:   0.000D+00 0.000D+00 0.000D+00 0.000D+00 0.000D+00 0.000D+00
 Coeff-En:   0.100D+01
 Coeff:      0.105D-02-0.406D-02 0.510D-01-0.235D-01 0.204D+00 0.323D+00
 Coeff:      0.448D+00
 Gap=     0.153 Goal=   None    Shift=    0.000
 RMSDP=1.47D-05 MaxDP=4.68D-04 DE=-2.06D-04 OVMax= 1.53D-03

 Cycle   8  Pass 0  IDiag  1:
 RMSU=  1.39D-05    CP:  8.92D-01  1.11D+00  7.97D-01  3.24D-01  8.35D-01
                    CP:  7.02D-01  8.97D-01
 E= -1503.70960820212     Delta-E=       -0.000022833462 Rises=F Damp=F
 DIIS: error= 2.46D-05 at cycle   8 NSaved=   8.
 NSaved= 8 IEnMin= 8 EnMin= -1503.70960820212     IErMin= 8 ErrMin= 2.46D-05
 ErrMax= 2.46D-05  0.00D+00 EMaxC= 1.00D-01 BMatC= 6.38D-07 BMatP= 1.41D-05
 IDIUse=1 WtCom= 1.00D+00 WtEn= 0.00D+00
 Coeff-Com:  0.389D-03-0.141D-02 0.172D-01-0.941D-02 0.732D-01 0.120D+00
 Coeff-Com:  0.223D+00 0.577D+00
 Coeff:      0.389D-03-0.141D-02 0.172D-01-0.941D-02 0.732D-01 0.120D+00
 Coeff:      0.223D+00 0.577D+00
 Gap=     0.153 Goal=   None    Shift=    0.000
 RMSDP=9.53D-06 MaxDP=2.80D-04 DE=-2.28D-05 OVMax= 2.48D-04

 Initial convergence to 1.0D-05 achieved.  Increase integral accuracy.
 Cycle   9  Pass 1  IDiag  1:
 E= -1503.70926058764     Delta-E=        0.000347614478 Rises=F Damp=F
 DIIS: error= 4.36D-04 at cycle   1 NSaved=   1.
 NSaved= 1 IEnMin= 1 EnMin= -1503.70926058764     IErMin= 1 ErrMin= 4.36D-04
 ErrMax= 4.36D-04  0.00D+00 EMaxC= 1.00D-01 BMatC= 9.22D-05 BMatP= 9.22D-05
 IDIUse=3 WtCom= 9.96D-01 WtEn= 4.36D-03
 Coeff-Com:  0.100D+01
 Coeff-En:   0.100D+01
 Coeff:      0.100D+01
 Gap=     0.153 Goal=   None    Shift=    0.000
 RMSDP=9.53D-06 MaxDP=2.80D-04 DE= 3.48D-04 OVMax= 1.15D-03

 Cycle  10  Pass 1  IDiag  1:
 RMSU=  6.07D-04    CP:  9.98D-01
 E= -1503.70935771762     Delta-E=       -0.000097129978 Rises=F Damp=F
 DIIS: error= 1.88D-05 at cycle   2 NSaved=   2.
 NSaved= 2 IEnMin= 2 EnMin= -1503.70935771762     IErMin= 2 ErrMin= 1.88D-05
 ErrMax= 1.88D-05  0.00D+00 EMaxC= 1.00D-01 BMatC= 3.55D-07 BMatP= 9.22D-05
 IDIUse=1 WtCom= 1.00D+00 WtEn= 0.00D+00
 Coeff-Com: -0.387D-02 0.100D+01
 Coeff:     -0.387D-02 0.100D+01
 Gap=     0.153 Goal=   None    Shift=    0.000
 RMSDP=9.25D-06 MaxDP=2.65D-04 DE=-9.71D-05 OVMax= 5.00D-04

 Cycle  11  Pass 1  IDiag  1:
 RMSU=  5.30D-06    CP:  9.98D-01  1.01D+00
 E= -1503.70935652902     Delta-E=        0.000001188597 Rises=F Damp=F
 DIIS: error= 3.19D-05 at cycle   3 NSaved=   3.
 NSaved= 3 IEnMin= 2 EnMin= -1503.70935771762     IErMin= 2 ErrMin= 1.88D-05
 ErrMax= 3.19D-05  0.00D+00 EMaxC= 1.00D-01 BMatC= 1.41D-06 BMatP= 3.55D-07
 IDIUse=1 WtCom= 1.00D+00 WtEn= 0.00D+00
 Coeff-Com: -0.635D-02 0.673D+00 0.333D+00
 Coeff:     -0.635D-02 0.673D+00 0.333D+00
 Gap=     0.153 Goal=   None    Shift=    0.000
 RMSDP=3.20D-06 MaxDP=1.13D-04 DE= 1.19D-06 OVMax= 3.62D-04

 Cycle  12  Pass 1  IDiag  1:
 RMSU=  1.65D-06    CP:  9.98D-01  1.01D+00  4.84D-01
 E= -1503.70935809506     Delta-E=       -0.000001566040 Rises=F Damp=F
 DIIS: error= 3.67D-06 at cycle   4 NSaved=   4.
 NSaved= 4 IEnMin= 4 EnMin= -1503.70935809506     IErMin= 4 ErrMin= 3.67D-06
 ErrMax= 3.67D-06  0.00D+00 EMaxC= 1.00D-01 BMatC= 1.77D-08 BMatP= 3.55D-07
 IDIUse=1 WtCom= 1.00D+00 WtEn= 0.00D+00
 Coeff-Com: -0.392D-02 0.404D+00 0.209D+00 0.391D+00
 Coeff:     -0.392D-02 0.404D+00 0.209D+00 0.391D+00
 Gap=     0.153 Goal=   None    Shift=    0.000
 RMSDP=3.74D-07 MaxDP=2.53D-05 DE=-1.57D-06 OVMax= 4.84D-05

 Cycle  13  Pass 1  IDiag  1:
 RMSU=  3.42D-07    CP:  9.98D-01  1.01D+00  5.03D-01  9.34D-01
 E= -1503.70935811267     Delta-E=       -0.000000017605 Rises=F Damp=F
 DIIS: error= 1.21D-06 at cycle   5 NSaved=   5.
 NSaved= 5 IEnMin= 5 EnMin= -1503.70935811267     IErMin= 5 ErrMin= 1.21D-06
 ErrMax= 1.21D-06  0.00D+00 EMaxC= 1.00D-01 BMatC= 9.08D-10 BMatP= 1.77D-08
 IDIUse=1 WtCom= 1.00D+00 WtEn= 0.00D+00
 Coeff-Com: -0.127D-02 0.129D+00 0.691D-01 0.209D+00 0.594D+00
 Coeff:     -0.127D-02 0.129D+00 0.691D-01 0.209D+00 0.594D+00
 Gap=     0.153 Goal=   None    Shift=    0.000
 RMSDP=1.27D-07 MaxDP=9.23D-06 DE=-1.76D-08 OVMax= 1.65D-05

 Cycle  14  Pass 1  IDiag  1:
 RMSU=  9.73D-08    CP:  9.98D-01  1.01D+00  5.04D-01  9.53D-01  7.86D-01
 E= -1503.70935811332     Delta-E=       -0.000000000655 Rises=F Damp=F
 DIIS: error= 5.67D-07 at cycle   6 NSaved=   6.
 NSaved= 6 IEnMin= 6 EnMin= -1503.70935811332     IErMin= 6 ErrMin= 5.67D-07
 ErrMax= 5.67D-07  0.00D+00 EMaxC= 1.00D-01 BMatC= 2.85D-10 BMatP= 9.08D-10
 IDIUse=1 WtCom= 1.00D+00 WtEn= 0.00D+00
 Coeff-Com: -0.811D-04 0.684D-02 0.518D-02 0.607D-01 0.403D+00 0.524D+00
 Coeff:     -0.811D-04 0.684D-02 0.518D-02 0.607D-01 0.403D+00 0.524D+00
 Gap=     0.153 Goal=   None    Shift=    0.000
 RMSDP=5.28D-08 MaxDP=1.91D-06 DE=-6.55D-10 OVMax= 6.38D-06

 Cycle  15  Pass 1  IDiag  1:
 RMSU=  2.43D-08    CP:  9.98D-01  1.01D+00  5.05D-01  9.59D-01  8.50D-01
                    CP:  5.98D-01
 E= -1503.70935811363     Delta-E=       -0.000000000313 Rises=F Damp=F
 DIIS: error= 1.05D-07 at cycle   7 NSaved=   7.
 NSaved= 7 IEnMin= 7 EnMin= -1503.70935811363     IErMin= 7 ErrMin= 1.05D-07
 ErrMax= 1.05D-07  0.00D+00 EMaxC= 1.00D-01 BMatC= 1.92D-11 BMatP= 2.85D-10
 IDIUse=1 WtCom= 1.00D+00 WtEn= 0.00D+00
 Coeff-Com:  0.186D-04-0.276D-02-0.468D-03 0.259D-01 0.219D+00 0.325D+00
 Coeff-Com:  0.434D+00
 Coeff:      0.186D-04-0.276D-02-0.468D-03 0.259D-01 0.219D+00 0.325D+00
 Coeff:      0.434D+00
 Gap=     0.153 Goal=   None    Shift=    0.000
 RMSDP=1.18D-08 MaxDP=4.43D-07 DE=-3.13D-10 OVMax= 1.16D-06

 Cycle  16  Pass 1  IDiag  1:
 RMSU=  8.29D-09    CP:  9.98D-01  1.01D+00  5.05D-01  9.60D-01  8.49D-01
                    CP:  6.21D-01  6.88D-01
 E= -1503.70935811361     Delta-E=        0.000000000027 Rises=F Damp=F
 DIIS: error= 2.19D-08 at cycle   8 NSaved=   8.
 NSaved= 8 IEnMin= 7 EnMin= -1503.70935811363     IErMin= 8 ErrMin= 2.19D-08
 ErrMax= 2.19D-08  0.00D+00 EMaxC= 1.00D-01 BMatC= 7.27D-13 BMatP= 1.92D-11
 IDIUse=1 WtCom= 1.00D+00 WtEn= 0.00D+00
 Coeff-Com:  0.150D-04-0.186D-02-0.569D-03 0.837D-02 0.822D-01 0.126D+00
 Coeff-Com:  0.225D+00 0.561D+00
 Coeff:      0.150D-04-0.186D-02-0.569D-03 0.837D-02 0.822D-01 0.126D+00
 Coeff:      0.225D+00 0.561D+00
 Gap=     0.153 Goal=   None    Shift=    0.000
 RMSDP=3.42D-09 MaxDP=1.63D-07 DE= 2.73D-11 OVMax= 2.85D-07

 SCF Done:  E(RB3LYP) =  -1503.70935811     A.U. after   16 cycles
            NFock= 16  Conv=0.34D-08     -V/T= 2.0097
 KE= 1.489326241424D+03 PE=-1.134059699620D+04 EE= 4.419655857978D+03
 Leave Link  502 at Mon Mar 24 15:55:46 2025, MaxMem= 13421772800 cpu:            1887.1 elap:              62.6
 (Enter /public/software/apps/Gaussian/g16/l601.exe)
 Copying SCF densities to generalized density rwf, IOpCl= 0 IROHF=0.

 **********************************************************************

            Population analysis using the SCF Density.

 **********************************************************************

 Alpha  occ. eigenvalues --  -19.16529 -19.15088 -10.25405 -10.23978 -10.20205
 Alpha  occ. eigenvalues --  -10.20156 -10.20100 -10.20024 -10.19836 -10.19627
 Alpha  occ. eigenvalues --  -10.19456 -10.19337 -10.19325 -10.19294 -10.19271
 Alpha  occ. eigenvalues --  -10.18707 -10.18599 -10.18553 -10.18458 -10.18343
 Alpha  occ. eigenvalues --  -10.18266 -10.18155 -10.18110 -10.18094 -10.18050
 Alpha  occ. eigenvalues --  -10.17960 -10.17720 -10.17698 -10.17612 -10.17578
 Alpha  occ. eigenvalues --  -10.17531 -10.17300 -10.17287 -10.17205 -10.17202
 Alpha  occ. eigenvalues --  -10.17185 -10.17149  -1.05903  -1.04310  -0.88608
 Alpha  occ. eigenvalues --   -0.87832  -0.86362  -0.84453  -0.82149  -0.81687
 Alpha  occ. eigenvalues --   -0.80996  -0.79326  -0.76907  -0.75816  -0.75221
 Alpha  occ. eigenvalues --   -0.73021  -0.72809  -0.72526  -0.71756  -0.69928
 Alpha  occ. eigenvalues --   -0.69085  -0.68863  -0.68619  -0.64732  -0.63637
 Alpha  occ. eigenvalues --   -0.63383  -0.62421  -0.60866  -0.60759  -0.60318
 Alpha  occ. eigenvalues --   -0.59619  -0.57468  -0.56821  -0.55920  -0.54378
 Alpha  occ. eigenvalues --   -0.52990  -0.51935  -0.51221  -0.50729  -0.49841
 Alpha  occ. eigenvalues --   -0.49685  -0.48507  -0.48027  -0.46832  -0.45543
 Alpha  occ. eigenvalues --   -0.45168  -0.44978  -0.44890  -0.44470  -0.44212
 Alpha  occ. eigenvalues --   -0.43967  -0.43787  -0.43499  -0.43289  -0.42792
 Alpha  occ. eigenvalues --   -0.42519  -0.42102  -0.41587  -0.41433  -0.40945
 Alpha  occ. eigenvalues --   -0.40728  -0.40416  -0.40222  -0.39993  -0.39217
 Alpha  occ. eigenvalues --   -0.38649  -0.38530  -0.38046  -0.37951  -0.37368
 Alpha  occ. eigenvalues --   -0.37083  -0.37011  -0.36959  -0.36673  -0.36353
 Alpha  occ. eigenvalues --   -0.35445  -0.34703  -0.34615  -0.34390  -0.33904
 Alpha  occ. eigenvalues --   -0.33810  -0.32626  -0.32212  -0.31818  -0.30962
 Alpha  occ. eigenvalues --   -0.30652  -0.30558  -0.28790  -0.27658  -0.26003
 Alpha  occ. eigenvalues --   -0.24901  -0.23537  -0.23028  -0.21629  -0.20177
 Alpha virt. eigenvalues --   -0.04918  -0.03468  -0.02294  -0.01369  -0.00397
 Alpha virt. eigenvalues --    0.00274   0.02313   0.03667   0.04158   0.05200
 Alpha virt. eigenvalues --    0.05927   0.07066   0.07363   0.07585   0.07791
 Alpha virt. eigenvalues --    0.08156   0.08900   0.08983   0.09209   0.09434
 Alpha virt. eigenvalues --    0.09624   0.10851   0.11112   0.11511   0.11892
 Alpha virt. eigenvalues --    0.12092   0.12417   0.12772   0.13133   0.13163
 Alpha virt. eigenvalues --    0.13607   0.13726   0.14499   0.14797   0.15161
 Alpha virt. eigenvalues --    0.15863   0.15955   0.16438   0.17016   0.17056
 Alpha virt. eigenvalues --    0.17364   0.17646   0.18639   0.18817   0.18972
 Alpha virt. eigenvalues --    0.19128   0.19949   0.20075   0.20260   0.20535
 Alpha virt. eigenvalues --    0.20590   0.22737   0.23698   0.23975   0.24720
 Alpha virt. eigenvalues --    0.25262   0.25860   0.26165   0.26432   0.26641
 Alpha virt. eigenvalues --    0.27588   0.27703   0.28803   0.28973   0.29347
 Alpha virt. eigenvalues --    0.29922   0.30026   0.30273   0.30818   0.31310
 Alpha virt. eigenvalues --    0.31562   0.32335   0.32646   0.33426   0.34232
 Alpha virt. eigenvalues --    0.34575   0.34901   0.35276   0.35885   0.36399
 Alpha virt. eigenvalues --    0.37549   0.37761   0.38142   0.38414   0.38921
 Alpha virt. eigenvalues --    0.39357   0.40022   0.40523   0.40736   0.41341
 Alpha virt. eigenvalues --    0.41675   0.41775   0.42335   0.43100   0.43614
 Alpha virt. eigenvalues --    0.44047   0.44386   0.45206   0.45394   0.45686
 Alpha virt. eigenvalues --    0.46265   0.46736   0.46987   0.47057   0.47442
 Alpha virt. eigenvalues --    0.47742   0.48706   0.48797   0.49159   0.49512
 Alpha virt. eigenvalues --    0.49576   0.49823   0.50273   0.50637   0.51405
 Alpha virt. eigenvalues --    0.51553   0.51846   0.51958   0.52789   0.53641
 Alpha virt. eigenvalues --    0.53832   0.54259   0.55089   0.55453   0.55947
 Alpha virt. eigenvalues --    0.56448   0.57144   0.57610   0.57999   0.58235
 Alpha virt. eigenvalues --    0.58735   0.59265   0.59322   0.60088   0.60622
 Alpha virt. eigenvalues --    0.60697   0.61387   0.61760   0.62078   0.62577
 Alpha virt. eigenvalues --    0.63501   0.63849   0.64059   0.64661   0.65187
 Alpha virt. eigenvalues --    0.65377   0.65665   0.66027   0.66932   0.67088
 Alpha virt. eigenvalues --    0.67165   0.67432   0.67616   0.67725   0.68266
 Alpha virt. eigenvalues --    0.68442   0.68714   0.68937   0.69198   0.69536
 Alpha virt. eigenvalues --    0.69809   0.70086   0.70111   0.70293   0.70437
 Alpha virt. eigenvalues --    0.70985   0.71143   0.71811   0.72034   0.72105
 Alpha virt. eigenvalues --    0.72462   0.72812   0.72887   0.73301   0.73391
 Alpha virt. eigenvalues --    0.73640   0.73942   0.74136   0.74449   0.74687
 Alpha virt. eigenvalues --    0.75158   0.75487   0.75551   0.75671   0.76109
 Alpha virt. eigenvalues --    0.76296   0.76594   0.76890   0.76974   0.77723
 Alpha virt. eigenvalues --    0.78227   0.78358   0.78705   0.78968   0.80134
 Alpha virt. eigenvalues --    0.80267   0.80869   0.81294   0.81403   0.81681
 Alpha virt. eigenvalues --    0.82075   0.82388   0.82723   0.82844   0.83594
 Alpha virt. eigenvalues --    0.84182   0.84833   0.85504   0.86316   0.87020
 Alpha virt. eigenvalues --    0.87370   0.87993   0.88663   0.89158   0.89759
 Alpha virt. eigenvalues --    0.90707   0.90999   0.92201   0.92741   0.93511
 Alpha virt. eigenvalues --    0.94974   0.95474   0.96624   0.97273   0.98508
 Alpha virt. eigenvalues --    0.99938   1.01165   1.01360   1.05451   1.05828
 Alpha virt. eigenvalues --    1.06731   1.07252   1.07680   1.08755   1.09914
 Alpha virt. eigenvalues --    1.10837   1.11418   1.12101   1.13137   1.13702
 Alpha virt. eigenvalues --    1.14411   1.14569   1.16319   1.16553   1.18086
 Alpha virt. eigenvalues --    1.18715   1.19865   1.21338   1.23376   1.24233
 Alpha virt. eigenvalues --    1.25377   1.25960   1.27048   1.27556   1.28478
 Alpha virt. eigenvalues --    1.29900   1.30346   1.31782   1.32068   1.32307
 Alpha virt. eigenvalues --    1.33183   1.33747   1.34446   1.35609   1.35861
 Alpha virt. eigenvalues --    1.37896   1.38896   1.39945   1.41146   1.41574
 Alpha virt. eigenvalues --    1.42078   1.42990   1.44221   1.45014   1.45740
 Alpha virt. eigenvalues --    1.46437   1.47674   1.47874   1.48442   1.48984
 Alpha virt. eigenvalues --    1.49109   1.50284   1.50730   1.51166   1.51752
 Alpha virt. eigenvalues --    1.52998   1.53842   1.55416   1.56464   1.57934
 Alpha virt. eigenvalues --    1.62538   1.63488   1.64612   1.65287   1.66018
 Alpha virt. eigenvalues --    1.66963   1.68525   1.70762   1.72329   1.73423
 Alpha virt. eigenvalues --    1.73970   1.74325   1.74827   1.75637   1.76399
 Alpha virt. eigenvalues --    1.77034   1.78033   1.78565   1.78785   1.80157
[...]
 0.00000557,-0.00000140,0.00000521,-0.00000952,0.00000164,0.00000093,-0
 .00000066,-0.00000095,0.00000070,0.00000089,0.00000034,-0.00000075,-0.
 00000039,0.00000068,0.00000022,0.00000089,0.00000031,-0.00000155,-0.00
 000007,0.00000451,0.00000073,0.00000003,-0.00000023,0.00000016,0.00000
 198,0.00000638,-0.00000039,-0.00000935,-0.00000978,-0.00000150,0.00000
 762,-0.00000156,0.00000048,0.00000130,0.00000038,-0.00000014,-0.000000
 63,-0.00000057,0.00000014,0.00000052,0.00000023,-0.00000029,-0.0000002
 3,-0.00000014,-0.00000016,-0.00000003,-0.00000023,-0.00000026,0.000000
 18,-0.00000022,-0.00000012,0.,0.00000049,-0.00000028,0.00000009,-0.000
 00010,-0.00000469,-0.00000932,0.00001161,-0.00000041,0.00001608,0.0001
 4679,0.00000425,0.00006461,-0.00005672,-0.00000438,-0.00000173,-0.0000
 4554,-0.00000601,-0.00000940,-0.00006612,-0.00020407,-0.00004483,0.001
 03895,0.00078351,0.00021993,0.00610965,0.00329873,-0.00059874,-0.00056
 594,-0.00042191,-0.00020906,-0.02617535,-0.01104591,-0.05105791,-0.000
 01573,-0.00000664,-0.00000355,-0.00000432,0.00000463,-0.00000503,0.000
 01001,-0.00000081,0.00002851,0.00013438,-0.00001928,0.00055762,0.00003
 432,0.00001379,-0.00000014,-0.00000012,-0.00000116,0.00000365,0.000000
 05,0.00000015,0.00000003,0.00000008,-0.00000020,0.00000024,-0.00000017
 ,-0.00000002,-0.00000004,0.00000016,0.00000014,0.00000008,0.00000691,0
 .00000353,-0.00000358,0.00000049,-0.00000014,-0.00000010,-0.00000019,0
 .00000018,0.00000025,-0.00000006,0.00000021,0.00000002,0.00000014,0.00
 000005,0.00000016,0.00000023,0.00000020,-0.00000005,0.00000005,0.00000
 011,0.00000028,-0.00001485,0.00000655,-0.00001838,-0.00001195,-0.00000
 776,0.00001124,0.00002512,-0.00001485,0.00000539,0.00000313,0.00000790
 ,-0.00001728,0.00000174,0.00001495,-0.00001010,-0.00000871,-0.00001376
 ,0.00000131,0.00000253,-0.00000533,0.00000036,0.00000398,-0.00001056,0
 .00000047,-0.00000993,-0.00010341,0.00000990,0.00025209,-0.00010261,-0
 .00016855,-0.00019261,0.00039667,0.00011940,0.00012819,0.00009054,-0.0
 0009117,-0.00008556,-0.00005489,0.00001122,0.00019096,-0.00035522,0.00
 015337,0.02869960,0.00860212,0.04924558,0.00000867,0.00001164,-0.00000
 317,-0.00007376,0.00006937,0.00006040,0.00008142,0.00008345,0.00006893
 ,0.00057637,-0.00081331,-0.00076615,0.00029483,0.00003730,0.00004323,-
 0.00004701,0.00006827,-0.00003437,0.00004641,-0.00003236,-0.00002323,-
 0.00002791,-0.00000189,-0.00000598,0.00000722,-0.00001384,-0.00000214,
 0.00000442,0.00000503,-0.00000263,0.00000254,-0.00000798,-0.00000198,0
 .00000711,0.00000048,0.00000047,0.00000139,0.00000561,0.00000059,-0.00
 000482,0.00000235,0.00000014,0.00000692,0.00000052,0.00000033,0.000001
 15,0.00000157,0.00000357,-0.00000119,0.00000879,-0.00000782,-0.0000103
 8,0.00000092,0.00001563,0.00002014,-0.00000372,-0.00001208,0.00000041,
 0.00000005,-0.00000291,0.00000124,-0.00000107,-0.00000105,0.00000329,-
 0.00000335,-0.00000082,-0.00000115,0.00000060,-0.00000019,0.00000108,-
 0.00000161,-0.00000100,-0.00000204,-0.00000002,0.00000147,-0.00000024,
 0.00000239,-0.00000501,-0.00000310,-0.00000494,0.00001181,0.00000044,-
 0.00002369,-0.00000564,0.00003470,0.00002929,-0.00000391,0.00005436,0.
 00000062,0.00004810,-0.00003372,0.00008952,-0.00001743,-0.00002305,-0.
 00000780,-0.00003177,0.00012229,-0.00016595,-0.00034418,-0.00033832,0.
 00014673,0.00069847,-0.00012339,-0.00187699,-0.00107224,0.00039333,0.0
 0005837,-0.00047288,-0.14212029,0.07727200,0.10071254,0.00000460,0.000
 00413,0.00000702,0.00000022,-0.00000630,0.00000465,-0.00000097,-0.0000
 0126,-0.00000366,0.00013751,0.00003544,-0.00007776,0.00002305,0.000023
 74,0.00000406,-0.00000198,-0.00000445,0.00000057,-0.00000140,-0.000000
 67,0.00000026,0.00000092,0.00000167,0.00000066,0.00000174,0.00000084,0
 .00000027,0.00000178,-0.00000014,0.00000059,-0.00001066,0.00000168,-0.
 00000265,0.,-0.00000020,0.00000088,0.00000171,-0.00000062,-0.00000042,
 0.00000155,-0.00000087,0.00000019,0.00000159,0.00000013,-0.00000112,0.
 00000015,0.00000126,-0.00000061,0.00000015,-0.00000099,0.00000311,-0.0
 0003804,0.,0.00001267,-0.00001121,-0.00002547,0.00000811,0.00002033,-0
 .00002244,-0.00001678,-0.00000199,-0.00000635,-0.00002219,-0.00000606,
 0.00001288,-0.00001073,-0.00000259,-0.00000335,0.00000757,0.00000363,-
 0.00001509,0.00000121,-0.00000826,0.00004451,-0.00002191,-0.00000678,-
 0.00017787,0.00004441,0.00007834,0.00013133,-0.00069488,0.00012893,0.0
 0002541,0.00004473,0.00048377,0.00002464,0.00017937,-0.00003370,-0.000
 03752,0.00019498,0.00042739,-0.00017432,-0.00017172,-0.01424733,0.0143
 9403,0.01841280,0.14733936,0.00000088,-0.00000634,-0.00000754,-0.00024
 693,-0.00008681,-0.00003118,-0.00015546,0.00034990,0.00000267,0.001649
 43,0.00143873,-0.00057800,-0.00034651,-0.00008544,0.00038881,0.0002024
 3,-0.00006926,0.00005977,-0.00002041,0.00007743,-0.00015851,-0.0000390
 6,0.00003019,0.00001235,0.00001707,-0.00002282,0.00000182,0.00000263,0
 .00001237,-0.00000324,0.00000622,-0.00001201,-0.00000169,0.00000686,0.
 00000220,0.00000196,0.00000213,0.00000492,0.00000103,-0.00000394,0.000
 00522,0.00000133,0.00000421,-0.00000488,-0.00000107,0.00000703,0.00000
 896,0.00000648,-0.00000098,0.00000757,-0.00000377,-0.00000326,0.000000
 07,0.00000282,0.00001138,-0.00000167,0.00000142,-0.00000110,0.00000218
 ,-0.00000135,0.00000166,0.00000013,-0.00000206,0.00000241,-0.00000302,
 0.00000049,-0.00000018,0.00000116,-0.00000074,0.00000112,-0.00000112,0
 .00000113,-0.00000113,0.00000103,0.00000240,0.00000078,0.00000312,-0.0
 0000317,-0.00000180,-0.00000442,0.00000837,-0.00001062,-0.00006293,-0.
 00001907,0.00003893,0.00006451,0.00002103,0.00007283,-0.00002021,-0.00
 001102,-0.00004946,-0.00011209,-0.00000793,-0.00002770,-0.00001740,-0.
 00001464,-0.00019855,0.00012034,0.00013595,-0.00036774,0.00064150,-0.0
 0197075,0.01829863,-0.01555630,-0.02040254,-0.00073005,-0.00647569,0.0
 0260106,0.07500520,-0.10787871,-0.07991555,0.00000758,0.00000445,0.000
 00673,-0.00000202,-0.00000522,0.00000590,0.00000372,-0.00000917,0.0000
 0272,0.00002993,-0.00008246,-0.00000572,0.00000725,-0.00001710,-0.0000
 1486,-0.00000156,-0.00000302,-0.00000114,-0.00000238,0.00000090,-0.000
 00090,0.00000168,0.00000251,0.00000012,0.00000187,0.00000105,-0.000000
 22,0.00000107,-0.00000048,-0.00000014,-0.00000801,0.00000048,-0.000007
 71,-0.00000014,-0.00000093,0.00000060,0.00000117,-0.00000094,-0.000000
 76,0.00000093,-0.00000123,-0.00000006,0.00000070,-0.00000040,-0.000001
 27,-0.00000087,0.00000002,-0.00000048,-0.00000058,-0.00000229,0.000001
 50,-0.00005517,-0.00001602,-0.00001793,-0.00000382,0.00002430,0.000010
 70,0.00000980,0.00003286,0.00005464,-0.00000258,0.00003555,-0.00001256
 ,0.00000077,0.00001333,-0.00000777,-0.00000702,-0.00000639,0.00001102,
 0.00000616,0.00002532,0.00001239,-0.00002416,-0.00000440,0.00004518,-0
 .00001150,0.00024393,-0.00007975,0.00007588,0.00039843,0.00094030,-0.0
 0010028,0.00006635,0.00006284,0.00117813,-0.00103888,-0.00151063,-0.00
 023941,0.00015246,0.00007483,0.00007349,0.00022394,0.00024001,-0.00607
 344,0.00590254,0.00856958,-0.08291678,0.11852709,0.00000667,0.00003192
 ,0.00001082,-0.00021561,-0.00007932,0.00015956,-0.00010585,0.00047108,
 -0.00010635,0.00030167,0.00005422,0.00065126,-0.00033100,-0.00027480,0
 .00001620,0.00015759,0.00000688,0.00005437,-0.00007805,0.00002703,-0.0
 0013637,-0.00000114,0.00000886,-0.00000168,-0.00000511,-0.00000519,-0.
 00000141,-0.00000019,0.00000602,0.00000144,0.00000221,-0.00000489,-0.0
 0000061,0.00000108,0.00000277,0.00000059,0.00000020,-0.00000046,0.0000
 0004,0.00000161,0.00000494,0.00000061,-0.00000300,-0.00001032,-0.00000
 201,0.00001078,0.00001603,0.00000499,0.00000049,0.00000210,-0.00000259
 ,-0.00001131,-0.00000177,0.00001129,0.00001675,0.00000899,-0.00000691,
 0.00000481,0.00000062,-0.00000154,-0.00000102,0.00000168,0.00000401,0.
 00000090,-0.00000013,-0.00000146,-0.00000158,0.00000150,0.00000228,0.0
 0000020,0.00000174,-0.00000095,0.00000108,-0.00000031,0.00000077,0.000
 00237,-0.00000044,-0.00000028,-0.00000267,0.00000054,0.00000289,-0.000
 01790,-0.00009051,-0.00002009,0.00001535,0.00010438,0.00001316,0.00005
 756,0.00002870,0.00000409,-0.00002823,0.00001180,-0.00001073,-0.000017
 08,0.00000108,-0.00001074,0.00006484,-0.00006342,0.00011343,-0.0007172
 5,0.00068604,0.00096303,-0.00456403,0.00295421,0.00287515,-0.00033005,
 0.00019624,0.00029274,0.10084414,-0.08214367,-0.15686007,0.00000674,0.
 00001075,0.00000105,-0.00002804,-0.00001678,0.00000027,0.00001435,-0.0
 0001962,-0.00001595,0.00025174,-0.00004607,-0.00006959,-0.00001366,0.0
 0000097,0.00000512,-0.00000060,0.00000169,0.00000020,-0.00000145,0.000
 00148,0.,0.00000067,0.00000134,0.00000011,0.00000074,0.00000036,0.0000
 0003,-0.00000118,-0.00000097,-0.00000034,-0.00000469,-0.00000918,-0.00
 000251,-0.00000268,-0.00000077,-0.00000184,-0.00000106,-0.00000082,-0.
 00000046,-0.00000051,-0.00000079,-0.00000002,0.00000015,-0.00000050,-0
 .00000093,-0.00000030,0.00000027,-0.00000118,-0.00000097,-0.00000070,0
 .00000022,-0.00002114,-0.00007671,-0.00000295,-0.00001651,-0.00001633,
 0.00001207,0.00002293,0.00000114,-0.00000213,0.00000008,-0.00000029,-0
 .00000922,-0.00000251,0.00000881,-0.00000597,-0.00001081,-0.00000939,0
 .00000708,0.00000356,0.00000159,-0.00000060,-0.00002633,-0.00004418,0.
 00003629,-0.00003214,0.00005422,0.00001561,0.00007190,0.00028918,0.000
 00269,-0.00003695,0.00013244,-0.00004746,0.00010245,0.00016155,0.00033
 533,0.00006812,0.00025605,0.00034413,-0.00006913,0.00016835,-0.0000988
 1,-0.00317162,0.00343259,0.00320255,-0.11012362,0.08755236,0.16395978,
 0.00001554,0.00000874,0.00001340,-0.00011313,-0.00001778,0.00007240,-0
 .00097965,-0.00137441,-0.00003909,0.00009640,0.00073741,0.00032795,-0.
 00009969,-0.00000477,0.00005042,0.00010623,0.00001137,-0.00001043,-0.0
 0003178,0.00006129,-0.00004899,-0.00002805,0.00001385,-0.00000088,0.00
 000839,-0.00001979,-0.00000183,0.00000382,0.00000665,-0.00000096,0.000
 00423,-0.00001072,-0.00000155,0.00000767,0.00000111,0.00000143,0.00000
 174,0.00000563,0.00000108,-0.00000440,0.00000411,0.00000066,0.00000492
 ,-0.00000242,-0.00000076,0.00000343,0.00000356,0.00000491,-0.00000044,
 0.00000877,-0.00000744,-0.00001251,0.00000041,0.00001743,0.00002596,-0
 .00000012,-0.00001107,0.00000149,0.00000095,-0.00000323,0.00000125,-0.
 00000012,-0.00000045,0.00000353,-0.00000351,-0.00000077,-0.00000101,0.
 00000132,0.00000004,0.00000135,-0.00000103,-0.00000009,-0.00000137,0.0
 0000060,0.00000177,0.00000053,0.00000289,-0.00000437,-0.00000307,-0.00
 000487,0.00001096,-0.00000803,-0.00003582,-0.00001093,0.00003461,0.000
 04506,-0.00000692,-0.00002410,0.00013246,-0.00002989,-0.00000513,0.000
 05252,-0.00000542,0.00004730,-0.00000679,-0.00003291,0.00031356,-0.000
 28796,-0.00021696,0.00052129,0.00083533,0.00012546,-0.00098611,0.00006
 962,0.00115988,0.00008650,0.00011409,-0.00052281,-0.07106521,0.0165265
 1,-0.07414570,0.00001403,0.00001592,0.00000130,-0.00000582,-0.00001395
 ,0.00001069,0.00000046,-0.00001381,-0.00003570,-0.00131796,-0.00159436
 ,-0.00035264,0.00000678,0.00000022,-0.00001602,-0.00000195,-0.00000467
 ,-0.00000178,-0.00000224,-0.00000011,-0.00000076,0.00000142,0.00000263
 ,0.00000017,0.00000228,0.00000106,-0.00000010,0.00000142,-0.00000055,0
 .00000007,-0.00001507,-0.00000260,-0.00000432,-0.00000094,-0.00000076,
 0.00000037,0.00000135,-0.00000110,-0.00000090,0.00000119,-0.00000138,0
 .00000001,0.00000109,-0.00000026,-0.00000149,-0.00000055,0.00000062,-0
 .00000069,-0.00000031,-0.00000162,0.00000235,-0.00003059,-0.00000335,0
 .00002208,0.00000467,-0.00000563,0.00000341,-0.00000635,-0.00000348,-0
 .00001505,-0.00000089,-0.00001635,-0.00000838,-0.00000824,0.00000191,-
 0.00000356,0.00001075,0.00001705,0.00000445,0.00000195,-0.00000443,0.0
 0000434,-0.00000647,0.00004405,-0.00000939,-0.00000654,0.00001177,0.00
 003339,-0.00005639,-0.00025111,-0.00011519,0.00039819,-0.00024813,0.00
 023671,-0.00008542,-0.00013983,0.00017668,0.00024335,0.00030248,0.0001
 4785,-0.00015154,0.00002402,-0.00016206,-0.00677075,0.00641166,-0.0273
 0997,0.00685494,-0.00507737,0.01796321,0.07299815,-0.00001142,-0.00001
 561,-0.00000530,-0.00026641,0.00010311,-0.00026832,-0.00037156,-0.0006
 6251,0.00048755,0.00100498,0.00129478,-0.00028165,-0.00027780,-0.00006
 556,0.00034746,0.00021758,0.00004298,0.00001032,0.00003705,0.00017224,
 -0.00015681,-0.00001701,0.00001332,-0.00005281,0.00000671,-0.00001405,
 -0.00000376,0.00000418,0.00000351,0.00000209,0.00000285,-0.00000810,-0
 .00000215,0.00000639,0.00000011,-0.00000053,0.00000179,0.00000537,0.00
 000066,-0.00000476,0.00000193,-0.00000031,0.00000570,0.00000241,0.0000
 0027,-0.00000234,-0.00000151,0.00000367,-0.00000061,0.00000695,-0.0000
 0638,-0.00000869,0.00000069,0.00001397,0.00001746,-0.00000400,-0.00001
 153,0.00000020,0.00000047,-0.00000309,0.00000128,-0.00000114,-0.000001
 16,0.00000251,-0.00000224,-0.00000075,-0.00000063,0.00000063,-0.000000
 18,0.00000117,-0.00000103,-0.00000058,-0.00000144,-0.00000014,0.000001
 79,0.00000032,0.00000172,-0.00000396,-0.00000253,-0.00000380,0.0000088
 2,0.00000178,-0.00000498,0.00000372,0.00001491,0.00001121,-0.00000971,
 0.00030724,0.00007888,-0.00010447,-0.00006894,-0.00002624,-0.00004540,
 -0.00011458,0.00001000,0.00001088,0.00123083,0.00048857,0.00180319,-0.
 00116765,-0.00657611,0.00007972,0.01075196,-0.00507096,0.02902753,-0.0
 0011862,0.00177866,0.00145559,0.01550297,-0.05774886,0.04682933,0.0000
 0417,0.00000364,0.00000813,0.00001519,0.00000016,0.00000204,-0.0000157
 7,0.00001667,-0.00001955,-0.00145183,-0.00059930,-0.00072721,0.0000113
 3,-0.00001859,-0.00002049,-0.00000157,-0.00000404,0.00000087,-0.000001
 46,-0.00000031,0.00000109,0.00000100,0.00000153,0.00000079,0.00000136,
 0.00000067,0.00000035,0.00000141,-0.00000013,0.00000048,-0.00001218,0.
 00000092,0.00000060,0.00000035,-0.00000012,0.00000095,0.00000129,-0.00
 000046,-0.00000057,0.00000092,-0.00000066,-0.00000008,0.00000086,-0.00
 000012,-0.00000078,0.00000013,0.00000065,-0.00000068,0.00000007,-0.000
 00094,0.00000259,-0.00002073,0.00000782,0.00001114,-0.00003998,-0.0000
 0171,0.00003139,0.00002468,-0.00000838,0.00000364,0.00001291,0.0000032
 9,-0.00003762,-0.00000890,0.00003803,-0.00003381,-0.00003931,-0.000049
 47,0.00001167,0.00000992,-0.00000606,-0.00000242,-0.00015278,-0.000660
 21,0.00031938,0.00001633,0.00004608,-0.00010938,-0.00027205,0.00009673
 ,0.00004115,0.00016437,-0.00001087,-0.00009806,-0.00029554,0.00031238,
 -0.00011479,-0.00002239,-0.00034521,-0.00075741,0.00010518,-0.00005142
 ,-0.00013452,-0.00215587,0.00183160,-0.01077243,-0.00624335,0.00318298
 ,-0.01378620,-0.01632264,0.06240417,0.00006143,-0.00004525,-0.00003721
 ,0.00021160,-0.00026207,0.00042836,-0.00062001,-0.00077431,-0.00137922
 ,-0.00117727,0.00015274,0.00005178,0.00024021,0.00011156,-0.00004497,-
 0.00013248,-0.00009100,0.00001066,-0.00009475,-0.00001797,0.00010815,0
 .00001215,-0.00002756,0.00007927,0.00000059,0.00001451,0.00001063,-0.0
 0000279,-0.00000537,-0.00001013,-0.00000338,0.00000902,0.00000230,-0.0
 0000530,-0.00000142,0.00000176,-0.00000147,-0.00000411,-0.00000012,0.0
 0000316,-0.00000360,0.00000138,-0.00000132,0.00000180,0.00000068,0.000
 00024,-0.00000478,-0.00000233,-0.00000112,-0.00000747,0.00001200,0.000
 03077,-0.00000031,-0.00004391,-0.00004411,-0.00000605,0.00003931,-0.00
 000841,0.00000359,0.00000561,0.00000146,0.00000059,-0.00000540,-0.0000
 0351,0.00000136,0.00000429,0.00000333,-0.00000118,-0.00000324,-0.00000
 078,-0.00000117,0.00000429,0.00000023,0.00000167,-0.00000051,-0.000001
 76,0.00000047,0.00000444,0.00000608,0.00000108,-0.00001083,0.00000836,
 0.00003900,-0.00000178,-0.00001272,-0.00005305,0.00003249,-0.00026042,
 -0.00003711,0.00000497,0.00006429,-0.00008475,0.00003842,0.00010092,-0
 .00001197,0.00002716,-0.00061212,-0.00036339,-0.00003201,0.00089684,0.
 00193788,0.00038065,-0.00105785,0.00019172,-0.00537543,0.00050577,-0.0
 0110514,0.00067437,-0.07327383,0.04966870,-0.27869721,-0.00002320,-0.0
 0001685,-0.00000566,0.00001104,0.00001451,-0.00000210,0.00000290,0.000
 00450,0.00004574,-0.00075515,-0.00085591,0.00131581,0.00000579,-0.0000
 0896,-0.00000144,0.00000164,0.00000031,-0.00000057,0.00000190,-0.00000
 072,-0.00000202,-0.00000114,-0.00000169,-0.00000116,-0.00000112,-0.000
 00047,-0.00000090,-0.00000009,0.00000073,-0.00000084,0.00001970,0.0000
 1083,-0.00000914,0.00000270,-0.00000044,0.00000083,-0.00000025,0.00000
 065,0.00000023,-0.00000062,0.00000067,-0.00000026,-0.00000151,0.000000
 01,0.00000116,-0.00000085,-0.00000188,0.00000185,0.00000031,-0.0000002
 4,-0.00000317,0.00000908,0.00002811,-0.00004709,0.00004211,0.00002674,
 -0.00003276,-0.00003751,0.00003753,0.00003130,-0.00000405,0.00001544,0
 .00003161,0.00000910,-0.00002843,0.00002619,0.00003843,0.00004222,-0.0
 0002216,-0.00001544,0.00001165,0.00000207,0.00004674,0.00022793,-0.000
 03615,0.00002182,0.00021044,-0.00002849,-0.00001525,0.00005786,0.00059
 954,-0.00011415,-0.00007310,0.00003605,0.00013813,0.00003747,0.0002392
 0,-0.00011422,0.00010095,0.00061888,0.00000113,0.00011931,-0.00004582,
 -0.00021946,-0.00019123,-0.00113079,-0.00662716,0.00395341,-0.01568151
 ,0.08274654,-0.05294799,0.29782293\\0.00000154,0.00000166,0.00000419,0
 .00000042,0.00001160,-0.00000961,-0.00000093,-0.00000394,0.00000088,-0
 .00000207,-0.00000605,0.00000203,-0.00000185,0.00000640,-0.00000175,0.
 00000395,0.00000069,-0.00000277,-0.00001170,-0.00001116,0.00001022,0.0
 0001465,0.00000175,-0.00000137,0.00000047,0.00000223,0.00000239,-0.000
 00326,0.00000013,-0.00000111,0.00000219,-0.00000126,0.00000191,-0.0000
 0416,-0.00000014,-0.00000102,-0.00000048,-0.00000556,-0.00000100,0.000
 00013,0.00000386,0.00000065,0.00000111,-0.00000594,0.00000091,0.000002
 70,0.00000227,-0.00000425,0.00000269,-0.00000205,0.00000877,0.00000413
 ,0.00000178,-0.00001123,0.00000385,0.00000096,0.00000767,-0.00000331,-
 0.00000187,0.00000416,0.00000043,0.00000323,-0.00000458,-0.00000469,-0
 .00000019,0.00000493,0.00000048,0.00000213,-0.00000564,0.00000349,-0.0
 0000643,0.00000349,-0.00000581,0.00000266,0.00000560,0.00000314,-0.000
 00260,-0.00000335,-0.00000061,0.00000237,-0.00000397,-0.00001078,0.000
 00396,-0.00000273,0.00000655,-0.00000234,0.00000315,-0.00000329,-0.000
 00874,0.00001114,0.00000135,-0.00000045,-0.00000392,-0.00000026,0.0000
 0624,-0.00000236,0.00000765,0.00001199,-0.00000599,0.00000023,-0.00001
 069,0.00000941,0.00000685,0.00000918,-0.00000931,-0.00000137,0.0000010
 5,0.00000390,0.00000024,-0.00000577,0.00000107,0.00000069,0.00000029,-
 0.00000039,0.00000207,-0.00000219,-0.00000382,-0.00000151,-0.00000142,
 0.00000092,-0.00000095,-0.00000119,-0.00000011,-0.00000090,0.00000047,
 0.00000019,-0.00000081,0.00000051,-0.00000026,-0.00000089,0.00000110,-
 0.00000015,0.00000101,0.00000074,0.00000053,0.00000138,0.00000067,-0.0
 0000007,0.00000077,-0.00000189,-0.00000122,-0.00000377,-0.00000084,-0.
 00000295,0.00000014,-0.00000166,-0.00000102,0.00000081,-0.00000158,-0.
 00000056,0.00000074,-0.00000143,0.00000063,-0.00000036,0.00000088,-0.0
 0000184,0.00000045,0.00000039,-0.00000183,-0.00000174,0.00000154,0.000
 00098,-0.00000484,0.00000051,-0.00000141,0.00000174,0.00000083,0.00000
 124,-0.00000022,-0.00000160,0.00000026,-0.00000206,0.00000148,-0.00000
 122,-0.00000138,-0.00000073,-0.00000190,0.00000105,-0.00000065,-0.0000
 0081,-0.00000096,-0.00000043,0.00000239,-0.00000044,-0.00000063,-0.000
 00076,-0.00000094,0.00000059,0.00000021,-0.00000108,0.00000036,-0.0000
 0100,-0.00000087,0.00000114,0.00000090,0.00000016,0.00000180,0.0000000
 8,0.00000179,-0.00000005,0.00000148,-0.00000190,-0.00000135,-0.0000003
 0,-0.00000255,0.00000137,0.00000052,0.00000083,0.00000074,-0.00000209,
 0.00000091,0.00000128,0.00000289\\\@
 The archive entry for this job was punched.


 MY GROUP MEETINGS AREN'T VERY STRUCTURED.
     -- PROF. M. S. GORDON, OCT. 5, 1984
 Job cpu time:       0 days  8 hours  4 minutes 57.7 seconds.
 Elapsed time:       0 days  0 hours 15 minutes 19.7 seconds.
 File lengths (MBytes):  RWF=   2640 Int=      0 D2E=      0 Chk=     32 Scr=      1
 Normal termination of Gaussian 16 at Mon Mar 24 16:21:46 2025.
