 Entering Gaussian System, Link 0=g16
 Initial command:
 /public/software/apps/Gaussian/g16/l1.exe "/tmp/Gau-77137.inp" -scrdir="/tmp/"
 Entering Link 1 = /public/software/apps/Gaussian/g16/l1.exe PID=     77138.
  
 Copyright (c) 1988-2019, Gaussian, Inc.  All Rights Reserved.
  
 This is part of the Gaussian(R) 16 program.  It is based on
 the Gaussian(R) 09 system (copyright 2009, Gaussian, Inc.),
 the Gaussian(R) 03 system (copyright 2003, Gaussian, Inc.),
 the Gaussian(R) 98 system (copyright 1998, Gaussian, Inc.),
 the Gaussian(R) 94 system (copyright 1995, Gaussian, Inc.),
 the Gaussian 92(TM) system (copyright 1992, Gaussian, Inc.),
 the Gaussian 90(TM) system (copyright 1990, Gaussian, Inc.),
 the Gaussian 88(TM) system (copyright 1988, Gaussian, Inc.),
 the Gaussian 86(TM) system (copyright 1986, Carnegie Mellon
 University), and the Gaussian 82(TM) system (copyright 1983,
 Carnegie Mellon University). Gaussian is a federally registered
 trademark of Gaussian, Inc.
  
 This software contains proprietary and confidential information,
 including trade secrets, belonging to Gaussian, Inc.
  
 This software is provided under written license and may be
 used, copied, transmitted, or stored only in accord with that
 written license.
  
 The following legend is applicable only to US Government
 contracts under FAR:
  
                    RESTRICTED RIGHTS LEGEND
  
 Use, reproduction and disclosure by the US Government is
 subject to restrictions as set forth in subparagraphs (a)
 and (c) of the Commercial Computer Software - Restricted
 Rights clause in FAR 52.227-19.
  
 Gaussian, Inc.
 340 Quinnipiac St., Bldg. 40, Wallingford CT 06492
  
  
 ---------------------------------------------------------------
 Warning -- This program may not be used in any manner that
 competes with the business of Gaussian, Inc. or will provide
 assistance to any competitor of Gaussian, Inc.  The licensee
 of this program is prohibited from giving any competitor of
 Gaussian, Inc. access to this program.  By using this program,
 the user acknowledges that Gaussian, Inc. is engaged in the
 business of creating and licensing software in the field of
 computational chemistry and represents and warrants to the
 licensee that it is not a competitor of Gaussian, Inc. and that
 it will not use this program in any manner prohibited above.
 ---------------------------------------------------------------
  

 Cite this work as:
 Gaussian 16, Revision C.01,
 M. J. Frisch, G. W. Trucks, H. B. Schlegel, G. E. Scuseria, 
 M. A. Robb, J. R. Cheeseman, G. Scalmani, V. Barone, 
 G. A. Petersson, H. Nakatsuji, X. Li, M. Caricato, A. V. Marenich, 
 J. Bloino, B. G. Janesko, R. Gomperts, B. Mennucci, H. P. Hratchian, 
 J. V. Ortiz, A. F. Izmaylov, J. L. Sonnenberg, D. Williams-Young, 
 F. Ding, F. Lipparini, F. Egidi, J. Goings, B. Peng, A. Petrone, 
 T. Henderson, D. Ranasinghe, V. G. Zakrzewski, J. Gao, N. Rega, 
 G. Zheng, W. Liang, M. Hada, M. Ehara, K. Toyota, R. Fukuda, 
 J. Hasegawa, M. Ishida, T. Nakajima, Y. Honda, O. Kitao, H. Nakai, 
 T. Vreven, K. Throssell, J. A. Montgomery, Jr., J. E. Peralta, 
 F. Ogliaro, M. J. Bearpark, J. J. Heyd, E. N. Brothers, K. N. Kudin, 
 V. N. Staroverov, T. A. Keith, R. Kobayashi, J. Normand, 
 K. Raghavachari, A. P. Rendell, J. C. Burant, S. S. Iyengar, 
 J. Tomasi, M. Cossi, J. M. Millam, M. Klene, C. Adamo, R. Cammi, 
 J. W. Ochterski, R. L. Martin, K. Morokuma, O. Farkas, 
 J. B. Foresman, and D. J. Fox, Gaussian, Inc., Wallingford CT, 2019.
 
 ******************************************
 Gaussian 16:  ES64L-G16RevC.01  3-Jul-2019
                24-Mar-2025 
 ******************************************
 %nprocshared=32
 Will use up to   32 processors via shared memory.
 %mem=100GB
 ------------------------------------------
 #p opt freq b3lyp/def2svpp em=gd3bj nosymm
 ------------------------------------------
 1/18=20,19=15,26=3,38=1/1,3;
 2/9=110,12=2,15=1,17=6,18=5,40=1/2;
 3/5=43,7=202,11=2,25=1,30=1,71=1,74=-5,124=41/1,2,3;
 4//1;
 5/5=2,38=5/2;
 6/7=2,8=2,9=2,10=2,28=1/1;
 7/30=1/1,2,3,16;
 1/18=20,19=15,26=3/3(2);
 2/9=110,15=1/2;
 99//99;
 2/9=110,15=1/2;
 3/5=43,7=202,11=2,25=1,30=1,71=1,74=-5,124=41/1,2,3;
 4/5=5,16=3,69=1/1;
 5/5=2,38=5/2;
 7/30=1/1,2,3,16;
 1/18=20,19=15,26=3/3(-5);
 2/9=110,15=1/2;
 6/7=2,8=2,9=2,10=2,19=2,28=1/1;
 99/9=1/99;
 Leave Link    1 at Mon Mar 24 22:07:48 2025, MaxMem= 13421772800 cpu:               1.8 elap:               0.1
 (Enter /public/software/apps/Gaussian/g16/l101.exe)
 ----------------------
 $$$$Singlemol####0????
 ----------------------
 Symbolic Z-matrix:
 Charge =  0 Multiplicity = 1
 C                     9.24747  -3.48784  -1.17613 
 C                     8.87543  -2.01043  -1.18635 
 C                     9.33052  -1.30601   0.08873 
 C                     8.96518   0.1842    0.09468 
 C                     7.47754   0.38608   0.09557 
 C                     6.7399    0.17059   1.25401 
 C                     5.36728   0.31828   1.26036 
 C                     4.68697   0.69582   0.10462 
 C                     3.22719   0.8601    0.10897 
 C                     2.62819   1.92478  -0.5611 
 C                     1.25738   2.08119  -0.55443 
 C                     0.44024   1.17024   0.11067 
 C                    -1.01824   1.36021   0.11997 
 C                    -1.56015   2.59324   0.38318 
 C                    -2.95084   2.80812   0.41222 
 C                    -3.50452   4.07282   0.69801 
 C                    -4.85897   4.25203   0.73463 
 C                    -5.71913   3.16974   0.49684 
 C                    -5.21462   1.93093   0.21387 
 C                    -3.82088   1.71772   0.15212 
 C                    -3.26062   0.44877  -0.14858 
 C                    -4.13754  -0.70191  -0.49232 
 C                    -4.79541  -0.71761  -1.70843 
 O                    -4.69484   0.29669  -2.60527 
 C                    -5.59535  -1.81786  -2.07449 
 C                    -5.7312   -2.88272  -1.23436 
 C                    -5.08684  -2.90383   0.02068 
 C                    -5.21982  -3.99027   0.90857 
 C                    -4.59558  -3.98312   2.12444 
 C                    -3.81739  -2.88112   2.5087 
 C                    -3.66503  -1.81276   1.6701 
 C                    -4.28375  -1.79625   0.40072 
 C                    -1.88973   0.27393  -0.15727 
 O                    -1.32972  -0.9235   -0.47129 
 C                     1.03567   0.1039    0.77816 
 C                     2.40773  -0.04394   0.78128 
 C                     5.42637   0.91698  -1.05434 
 C                     6.7991    0.75983  -1.05717 
 H                     10.32525  -3.61071  -1.08998 
 H                     8.77787  -3.99282  -0.33471 
 H                     8.91918  -3.97228  -2.09273 
 H                     9.33711  -1.52653  -2.05041 
 H                     7.79271  -1.9086   -1.28706 
 H                     10.41407  -1.40627   0.18875 
 H                     8.86896  -1.7921    0.95115 
 H                     9.40412   0.66427  -0.78239 
 H                     9.39492   0.64706   0.98667 
 H                     7.25107  -0.11156   2.16401 
 H                     4.81519   0.16257   2.17609 
 H                     3.24686   2.64618  -1.07531 
 H                     0.80864   2.90903  -1.08503 
 H                    -0.90394   3.42399   0.59869 
 H                    -2.83352   4.89769   0.89069 
 H                    -5.27595   5.22384   0.95369 
 H                    -6.78749   3.32087   0.54192 
 H                    -5.8812    1.09794   0.04239 
 H                    -4.15379   1.00736  -2.23336 
 H                    -6.08421  -1.78397  -3.03509 
 H                    -6.34088  -3.72718  -1.51987 
 H                    -5.8302   -4.82974   0.60761 
 H                    -4.70255  -4.81959   2.79903 
 H                    -3.33983  -2.88068   3.47742 
 H                    -3.07468  -0.96081   1.97559 
 H                    -2.02987  -1.56875  -0.64458 
 H                     0.41896  -0.6084    1.30421 
 H                     2.85248  -0.88407   1.29477 
 H                     4.91698   1.19265  -1.96648 
 H                     7.35348   0.92944  -1.96966 
 
 ITRead=  0  0  0  0  0  0  0  0  0  0  0  0  0  0  0  0  0  0  0  0
 ITRead=  0  0  0  0  0  0  0  0  0  0  0  0  0  0  0  0  0  0  0  0
 ITRead=  0  0  0  0  0  0  0  0  0  0  0  0  0  0  0  0  0  0  0  0
 ITRead=  0  0  0  0  0  0  0  0
 MicOpt= -1 -1 -1 -1 -1 -1 -1 -1 -1 -1 -1 -1 -1 -1 -1 -1 -1 -1 -1 -1
 MicOpt= -1 -1 -1 -1 -1 -1 -1 -1 -1 -1 -1 -1 -1 -1 -1 -1 -1 -1 -1 -1
 MicOpt= -1 -1 -1 -1 -1 -1 -1 -1 -1 -1 -1 -1 -1 -1 -1 -1 -1 -1 -1 -1
 MicOpt= -1 -1 -1 -1 -1 -1 -1 -1
 NAtoms=     68 NQM=       68 NQMF=       0 NMMI=      0 NMMIF=      0
                NMic=       0 NMicF=      0.
                    Isotopes and Nuclear Properties:
 (Nuclear quadrupole moments (NQMom) in fm**2, nuclear magnetic moments (NMagM)
  in nuclear magnetons)

  Atom         1           2           3           4           5           6           7           8           9          10
 IAtWgt=          12          12          12          12          12          12          12          12          12          12
 AtmWgt=  12.0000000  12.0000000  12.0000000  12.0000000  12.0000000  12.0000000  12.0000000  12.0000000  12.0000000  12.0000000
 NucSpn=           0           0           0           0           0           0           0           0           0           0
 AtZEff=  -0.0000000  -0.0000000  -0.0000000  -0.0000000  -0.0000000  -0.0000000  -0.0000000  -0.0000000  -0.0000000  -0.0000000
 NQMom=    0.0000000   0.0000000   0.0000000   0.0000000   0.0000000   0.0000000   0.0000000   0.0000000   0.0000000   0.0000000
 NMagM=    0.0000000   0.0000000   0.0000000   0.0000000   0.0000000   0.0000000   0.0000000   0.0000000   0.0000000   0.0000000
 AtZNuc=   6.0000000   6.0000000   6.0000000   6.0000000   6.0000000   6.0000000   6.0000000   6.0000000   6.0000000   6.0000000

  Atom        11          12          13          14          15          16          17          18          19          20
 IAtWgt=          12          12          12          12          12          12          12          12          12          12
 AtmWgt=  12.0000000  12.0000000  12.0000000  12.0000000  12.0000000  12.0000000  12.0000000  12.0000000  12.0000000  12.0000000
 NucSpn=           0           0           0           0           0           0           0           0           0           0
 AtZEff=  -0.0000000  -0.0000000  -0.0000000  -0.0000000  -0.0000000  -0.0000000  -0.0000000  -0.0000000  -0.0000000  -0.0000000
 NQMom=    0.0000000   0.0000000   0.0000000   0.0000000   0.0000000   0.0000000   0.0000000   0.0000000   0.0000000   0.0000000
 NMagM=    0.0000000   0.0000000   0.0000000   0.0000000   0.0000000   0.0000000   0.0000000   0.0000000   0.0000000   0.0000000
 AtZNuc=   6.0000000   6.0000000   6.0000000   6.0000000   6.0000000   6.0000000   6.0000000   6.0000000   6.0000000   6.0000000

  Atom        21          22          23          24          25          26          27          28          29          30
 IAtWgt=          12          12          12          16          12          12          12          12          12          12
 AtmWgt=  12.0000000  12.0000000  12.0000000  15.9949146  12.0000000  12.0000000  12.0000000  12.0000000  12.0000000  12.0000000
 NucSpn=           0           0           0           0           0           0           0           0           0           0
 AtZEff=  -0.0000000  -0.0000000  -0.0000000  -0.0000000  -0.0000000  -0.0000000  -0.0000000  -0.0000000  -0.0000000  -0.0000000
 NQMom=    0.0000000   0.0000000   0.0000000   0.0000000   0.0000000   0.0000000   0.0000000   0.0000000   0.0000000   0.0000000
 NMagM=    0.0000000   0.0000000   0.0000000   0.0000000   0.0000000   0.0000000   0.0000000   0.0000000   0.0000000   0.0000000
 AtZNuc=   6.0000000   6.0000000   6.0000000   8.0000000   6.0000000   6.0000000   6.0000000   6.0000000   6.0000000   6.0000000

  Atom        31          32          33          34          35          36          37          38          39          40
 IAtWgt=          12          12          12          16          12          12          12          12           1           1
 AtmWgt=  12.0000000  12.0000000  12.0000000  15.9949146  12.0000000  12.0000000  12.0000000  12.0000000   1.0078250   1.0078250
 NucSpn=           0           0           0           0           0           0           0           0           1           1
 AtZEff=  -0.0000000  -0.0000000  -0.0000000  -0.0000000  -0.0000000  -0.0000000  -0.0000000  -0.0000000  -0.0000000  -0.0000000
 NQMom=    0.0000000   0.0000000   0.0000000   0.0000000   0.0000000   0.0000000   0.0000000   0.0000000   0.0000000   0.0000000
 NMagM=    0.0000000   0.0000000   0.0000000   0.0000000   0.0000000   0.0000000   0.0000000   0.0000000   2.7928460   2.7928460
 AtZNuc=   6.0000000   6.0000000   6.0000000   8.0000000   6.0000000   6.0000000   6.0000000   6.0000000   1.0000000   1.0000000

  Atom        41          42          43          44          45          46          47          48          49          50
 IAtWgt=           1           1           1           1           1           1           1           1           1           1
 AtmWgt=   1.0078250   1.0078250   1.0078250   1.0078250   1.0078250   1.0078250   1.0078250   1.0078250   1.0078250   1.0078250
 NucSpn=           1           1           1           1           1           1           1           1           1           1
 AtZEff=  -0.0000000  -0.0000000  -0.0000000  -0.0000000  -0.0000000  -0.0000000  -0.0000000  -0.0000000  -0.0000000  -0.0000000
 NQMom=    0.0000000   0.0000000   0.0000000   0.0000000   0.0000000   0.0000000   0.0000000   0.0000000   0.0000000   0.0000000
 NMagM=    2.7928460   2.7928460   2.7928460   2.7928460   2.7928460   2.7928460   2.7928460   2.7928460   2.7928460   2.7928460
 AtZNuc=   1.0000000   1.0000000   1.0000000   1.0000000   1.0000000   1.0000000   1.0000000   1.0000000   1.0000000   1.0000000

  Atom        51          52          53          54          55          56          57          58          59          60
 IAtWgt=           1           1           1           1           1           1           1           1           1           1
 AtmWgt=   1.0078250   1.0078250   1.0078250   1.0078250   1.0078250   1.0078250   1.0078250   1.0078250   1.0078250   1.0078250
 NucSpn=           1           1           1           1           1           1           1           1           1           1
 AtZEff=  -0.0000000  -0.0000000  -0.0000000  -0.0000000  -0.0000000  -0.0000000  -0.0000000  -0.0000000  -0.0000000  -0.0000000
 NQMom=    0.0000000   0.0000000   0.0000000   0.0000000   0.0000000   0.0000000   0.0000000   0.0000000   0.0000000   0.0000000
 NMagM=    2.7928460   2.7928460   2.7928460   2.7928460   2.7928460   2.7928460   2.7928460   2.7928460   2.7928460   2.7928460
 AtZNuc=   1.0000000   1.0000000   1.0000000   1.0000000   1.0000000   1.0000000   1.0000000   1.0000000   1.0000000   1.0000000

  Atom        61          62          63          64          65          66          67          68
 IAtWgt=           1           1           1           1           1           1           1           1
 AtmWgt=   1.0078250   1.0078250   1.0078250   1.0078250   1.0078250   1.0078250   1.0078250   1.0078250
 NucSpn=           1           1           1           1           1           1           1           1
 AtZEff=  -0.0000000  -0.0000000  -0.0000000  -0.0000000  -0.0000000  -0.0000000  -0.0000000  -0.0000000
 NQMom=    0.0000000   0.0000000   0.0000000   0.0000000   0.0000000   0.0000000   0.0000000   0.0000000
 NMagM=    2.7928460   2.7928460   2.7928460   2.7928460   2.7928460   2.7928460   2.7928460   2.7928460
 AtZNuc=   1.0000000   1.0000000   1.0000000   1.0000000   1.0000000   1.0000000   1.0000000   1.0000000
 Leave Link  101 at Mon Mar 24 22:07:48 2025, MaxMem= 13421772800 cpu:               5.3 elap:               0.2
 (Enter /public/software/apps/Gaussian/g16/l103.exe)

 GradGradGradGradGradGradGradGradGradGradGradGradGradGradGradGradGradGrad
 Berny optimization.
 Initialization pass.
                           ----------------------------
                           !    Initial Parameters    !
                           ! (Angstroms and Degrees)  !
 --------------------------                            --------------------------
 ! Name  Definition              Value          Derivative Info.                !
 --------------------------------------------------------------------------------
 ! R1    R(1,2)                  1.5236         estimate D2E/DX2                !
 ! R2    R(1,39)                 1.0882         estimate D2E/DX2                !
 ! R3    R(1,40)                 1.0879         estimate D2E/DX2                !
 ! R4    R(1,41)                 1.0875         estimate D2E/DX2                !
 ! R5    R(2,3)                  1.5262         estimate D2E/DX2                !
 ! R6    R(2,42)                 1.0927         estimate D2E/DX2                !
 ! R7    R(2,43)                 1.0921         estimate D2E/DX2                !
 ! R8    R(3,4)                  1.5343         estimate D2E/DX2                !
 ! R9    R(3,44)                 1.0928         estimate D2E/DX2                !
 ! R10   R(3,45)                 1.0923         estimate D2E/DX2                !
 ! R11   R(4,5)                  1.5013         estimate D2E/DX2                !
 ! R12   R(4,46)                 1.092          estimate D2E/DX2                !
 ! R13   R(4,47)                 1.093          estimate D2E/DX2                !
 ! R14   R(5,6)                  1.3902         estimate D2E/DX2                !
 ! R15   R(5,38)                 1.3888         estimate D2E/DX2                !
 ! R16   R(6,7)                  1.3806         estimate D2E/DX2                !
 ! R17   R(6,48)                 1.0812         estimate D2E/DX2                !
 ! R18   R(7,8)                  1.3932         estimate D2E/DX2                !
 ! R19   R(7,49)                 1.0806         estimate D2E/DX2                !
 ! R20   R(8,9)                  1.469          estimate D2E/DX2                !
 ! R21   R(8,37)                 1.3924         estimate D2E/DX2                !
 ! R22   R(9,10)                 1.3933         estimate D2E/DX2                !
 ! R23   R(9,36)                 1.3931         estimate D2E/DX2                !
 ! R24   R(10,11)                1.3797         estimate D2E/DX2                !
 ! R25   R(10,50)                1.0805         estimate D2E/DX2                !
 ! R26   R(11,12)                1.3928         estimate D2E/DX2                !
 ! R27   R(11,51)                1.0808         estimate D2E/DX2                !
 ! R28   R(12,13)                1.4708         estimate D2E/DX2                !
 ! R29   R(12,35)                1.3918         estimate D2E/DX2                !
 ! R30   R(13,14)                1.3723         estimate D2E/DX2                !
 ! R31   R(13,33)                1.42           estimate D2E/DX2                !
 ! R32   R(14,15)                1.4075         estimate D2E/DX2                !
 ! R33   R(14,52)                1.0804         estimate D2E/DX2                !
 ! R34   R(15,16)                1.4099         estimate D2E/DX2                !
 ! R35   R(15,20)                1.419          estimate D2E/DX2                !
 ! R36   R(16,17)                1.3667         estimate D2E/DX2                !
 ! R37   R(16,53)                1.0806         estimate D2E/DX2                !
 ! R38   R(17,18)                1.4028         estimate D2E/DX2                !
 ! R39   R(17,54)                1.0799         estimate D2E/DX2                !
 ! R40   R(18,19)                1.3672         estimate D2E/DX2                !
 ! R41   R(18,55)                1.0799         estimate D2E/DX2                !
 ! R42   R(19,20)                1.4113         estimate D2E/DX2                !
 ! R43   R(19,56)                1.0806         estimate D2E/DX2                !
 ! R44   R(20,21)                1.4193         estimate D2E/DX2                !
 ! R45   R(21,22)                1.487          estimate D2E/DX2                !
 ! R46   R(21,33)                1.382          estimate D2E/DX2                !
 ! R47   R(22,23)                1.3827         estimate D2E/DX2                !
 ! R48   R(22,32)                1.42           estimate D2E/DX2                !
 ! R49   R(23,24)                1.3577         estimate D2E/DX2                !
 ! R50   R(23,25)                1.4087         estimate D2E/DX2                !
 ! R51   R(24,57)                0.9675         estimate D2E/DX2                !
 ! R52   R(25,26)                1.3632         estimate D2E/DX2                !
 ! R53   R(25,58)                1.0784         estimate D2E/DX2                !
 ! R54   R(26,27)                1.4109         estimate D2E/DX2                !
 ! R55   R(26,59)                1.08           estimate D2E/DX2                !
 ! R56   R(27,28)                1.4094         estimate D2E/DX2                !
 ! R57   R(27,32)                1.4199         estimate D2E/DX2                !
 ! R58   R(28,29)                1.3668         estimate D2E/DX2                !
 ! R59   R(28,60)                1.0807         estimate D2E/DX2                !
 ! R60   R(29,30)                1.4027         estimate D2E/DX2                !
 ! R61   R(29,61)                1.0799         estimate D2E/DX2                !
 ! R62   R(30,31)                1.3667         estimate D2E/DX2                !
 ! R63   R(30,62)                1.08           estimate D2E/DX2                !
 ! R64   R(31,32)                1.4122         estimate D2E/DX2                !
 ! R65   R(31,63)                1.0806         estimate D2E/DX2                !
 ! R66   R(33,34)                1.3587         estimate D2E/DX2                !
 ! R67   R(34,64)                0.9678         estimate D2E/DX2                !
 ! R68   R(35,36)                1.38           estimate D2E/DX2                !
 ! R69   R(35,65)                1.0791         estimate D2E/DX2                !
 ! R70   R(36,66)                1.0804         estimate D2E/DX2                !
 ! R71   R(37,38)                1.3817         estimate D2E/DX2                !
 ! R72   R(37,67)                1.0805         estimate D2E/DX2                !
 ! R73   R(38,68)                1.0811         estimate D2E/DX2                !
 ! A1    A(2,1,39)             110.6027         estimate D2E/DX2                !
 ! A2    A(2,1,40)             110.4809         estimate D2E/DX2                !
 ! A3    A(2,1,41)             110.6462         estimate D2E/DX2                !
 ! A4    A(39,1,40)            108.2938         estimate D2E/DX2                !
 ! A5    A(39,1,41)            108.387          estimate D2E/DX2                !
 ! A6    A(40,1,41)            108.3498         estimate D2E/DX2                !
 ! A7    A(1,2,3)              111.6642         estimate D2E/DX2                !
 ! A8    A(1,2,42)             109.3643         estimate D2E/DX2                !
 ! A9    A(1,2,43)             109.4581         estimate D2E/DX2                !
 ! A10   A(3,2,42)             109.2856         estimate D2E/DX2                !
 ! A11   A(3,2,43)             109.246          estimate D2E/DX2                !
 ! A12   A(42,2,43)            107.7381         estimate D2E/DX2                !
 ! A13   A(2,3,4)              112.3666         estimate D2E/DX2                !
 ! A14   A(2,3,44)             109.2564         estimate D2E/DX2                !
 ! A15   A(2,3,45)             109.1624         estimate D2E/DX2                !
 ! A16   A(4,3,44)             108.9572         estimate D2E/DX2                !
 ! A17   A(4,3,45)             109.18           estimate D2E/DX2                !
 ! A18   A(44,3,45)            107.8124         estimate D2E/DX2                !
 ! A19   A(3,4,5)              111.5032         estimate D2E/DX2                !
 ! A20   A(3,4,46)             109.1574         estimate D2E/DX2                !
 ! A21   A(3,4,47)             108.7145         estimate D2E/DX2                !
 ! A22   A(5,4,46)             109.8569         estimate D2E/DX2                !
 ! A23   A(5,4,47)             109.4019         estimate D2E/DX2                !
 ! A24   A(46,4,47)            108.136          estimate D2E/DX2                !
 ! A25   A(4,5,6)              120.3611         estimate D2E/DX2                !
 ! A26   A(4,5,38)             121.3173         estimate D2E/DX2                !
 ! A27   A(6,5,38)             118.3051         estimate D2E/DX2                !
 ! A28   A(5,6,7)              120.9858         estimate D2E/DX2                !
 ! A29   A(5,6,48)             119.4026         estimate D2E/DX2                !
 ! A30   A(7,6,48)             119.6107         estimate D2E/DX2                !
 ! A31   A(6,7,8)              120.7074         estimate D2E/DX2                !
 ! A32   A(6,7,49)             119.7672         estimate D2E/DX2                !
 ! A33   A(8,7,49)             119.5096         estimate D2E/DX2                !
 ! A34   A(7,8,9)              120.8689         estimate D2E/DX2                !
 ! A35   A(7,8,37)             118.3078         estimate D2E/DX2                !
 ! A36   A(9,8,37)             120.8231         estimate D2E/DX2                !
 ! A37   A(8,9,10)             120.7462         estimate D2E/DX2                !
 ! A38   A(8,9,36)             120.8895         estimate D2E/DX2                !
 ! A39   A(10,9,36)            118.3644         estimate D2E/DX2                !
 ! A40   A(9,10,11)            120.7591         estimate D2E/DX2                !
 ! A41   A(9,10,50)            119.5298         estimate D2E/DX2                !
 ! A42   A(11,10,50)           119.7004         estimate D2E/DX2                !
 ! A43   A(10,11,12)           120.7347         estimate D2E/DX2                !
 ! A44   A(10,11,51)           119.7982         estimate D2E/DX2                !
 ! A45   A(12,11,51)           119.4582         estimate D2E/DX2                !
 ! A46   A(11,12,13)           120.02           estimate D2E/DX2                !
 ! A47   A(11,12,35)           118.6275         estimate D2E/DX2                !
 ! A48   A(13,12,35)           121.3417         estimate D2E/DX2                !
 ! A49   A(12,13,14)           120.586          estimate D2E/DX2                !
 ! A50   A(12,13,33)           120.5664         estimate D2E/DX2                !
 ! A51   A(14,13,33)           118.8443         estimate D2E/DX2                !
 ! A52   A(13,14,15)           122.0934         estimate D2E/DX2                !
 ! A53   A(13,14,52)           119.2944         estimate D2E/DX2                !
 ! A54   A(15,14,52)           118.5962         estimate D2E/DX2                !
 ! A55   A(14,15,16)           121.9492         estimate D2E/DX2                !
 ! A56   A(14,15,20)           118.9935         estimate D2E/DX2                !
 ! A57   A(16,15,20)           119.0567         estimate D2E/DX2                !
 ! A58   A(15,16,17)           120.8131         estimate D2E/DX2                !
 ! A59   A(15,16,53)           118.4908         estimate D2E/DX2                !
 ! A60   A(17,16,53)           120.6958         estimate D2E/DX2                !
 ! A61   A(16,17,18)           120.1299         estimate D2E/DX2                !
 ! A62   A(16,17,54)           120.4023         estimate D2E/DX2                !
 ! A63   A(18,17,54)           119.4662         estimate D2E/DX2                !
 ! A64   A(17,18,19)           120.5237         estimate D2E/DX2                !
 ! A65   A(17,18,55)           119.4434         estimate D2E/DX2                !
 ! A66   A(19,18,55)           120.0326         estimate D2E/DX2                !
 ! A67   A(18,19,20)           120.6875         estimate D2E/DX2                !
 ! A68   A(18,19,56)           120.2451         estimate D2E/DX2                !
 ! A69   A(20,19,56)           119.0654         estimate D2E/DX2                !
 ! A70   A(15,20,19)           118.7762         estimate D2E/DX2                !
 ! A71   A(15,20,21)           118.9348         estimate D2E/DX2                !
 ! A72   A(19,20,21)           122.2863         estimate D2E/DX2                !
 ! A73   A(20,21,22)           120.5318         estimate D2E/DX2                !
 ! A74   A(20,21,33)           120.3969         estimate D2E/DX2                !
 ! A75   A(22,21,33)           119.0532         estimate D2E/DX2                !
 ! A76   A(21,22,23)           119.5161         estimate D2E/DX2                !
 ! A77   A(21,22,32)           120.7758         estimate D2E/DX2                !
 ! A78   A(23,22,32)           119.6941         estimate D2E/DX2                !
 ! A79   A(22,23,24)           122.4964         estimate D2E/DX2                !
 ! A80   A(22,23,25)           120.5027         estimate D2E/DX2                !
 ! A81   A(24,23,25)           116.9955         estimate D2E/DX2                !
 ! A82   A(23,24,57)           109.6492         estimate D2E/DX2                !
 ! A83   A(23,25,26)           120.4354         estimate D2E/DX2                !
 ! A84   A(23,25,58)           117.6688         estimate D2E/DX2                !
 ! A85   A(26,25,58)           121.8951         estimate D2E/DX2                !
 ! A86   A(25,26,27)           120.956          estimate D2E/DX2                !
 ! A87   A(25,26,59)           120.2751         estimate D2E/DX2                !
 ! A88   A(27,26,59)           118.7686         estimate D2E/DX2                !
 ! A89   A(26,27,28)           121.9251         estimate D2E/DX2                !
 ! A90   A(26,27,32)           118.9938         estimate D2E/DX2                !
 ! A91   A(28,27,32)           119.0809         estimate D2E/DX2                !
 ! A92   A(27,28,29)           120.8839         estimate D2E/DX2                !
 ! A93   A(27,28,60)           118.4671         estimate D2E/DX2                !
 ! A94   A(29,28,60)           120.6487         estimate D2E/DX2                !
 ! A95   A(28,29,30)           120.078          estimate D2E/DX2                !
 ! A96   A(28,29,61)           120.4252         estimate D2E/DX2                !
 ! A97   A(30,29,61)           119.4952         estimate D2E/DX2                !
 ! A98   A(29,30,31)           120.5229         estimate D2E/DX2                !
 ! A99   A(29,30,62)           119.4277         estimate D2E/DX2                !
 ! A100  A(31,30,62)           120.049          estimate D2E/DX2                !
 ! A101  A(30,31,32)           120.7855         estimate D2E/DX2                !
 ! A102  A(30,31,63)           120.2481         estimate D2E/DX2                !
 ! A103  A(32,31,63)           118.9634         estimate D2E/DX2                !
 ! A104  A(22,32,27)           119.4089         estimate D2E/DX2                !
 ! A105  A(22,32,31)           121.9497         estimate D2E/DX2                !
 ! A106  A(27,32,31)           118.6371         estimate D2E/DX2                !
 ! A107  A(13,33,21)           120.7159         estimate D2E/DX2                !
 ! A108  A(13,33,34)           117.7979         estimate D2E/DX2                !
 ! A109  A(21,33,34)           121.4529         estimate D2E/DX2                !
 ! A110  A(33,34,64)           109.3171         estimate D2E/DX2                !
 ! A111  A(12,35,36)           120.5642         estimate D2E/DX2                !
 ! A112  A(12,35,65)           119.6715         estimate D2E/DX2                !
 ! A113  A(36,35,65)           119.7624         estimate D2E/DX2                !
 ! A114  A(9,36,35)            120.9454         estimate D2E/DX2                !
 ! A115  A(9,36,66)            119.4612         estimate D2E/DX2                !
 ! A116  A(35,36,66)           119.5809         estimate D2E/DX2                !
 ! A117  A(8,37,38)            120.7447         estimate D2E/DX2                !
 ! A118  A(8,37,67)            119.5271         estimate D2E/DX2                !
 ! A119  A(38,37,67)           119.7135         estimate D2E/DX2                !
 ! A120  A(5,38,37)            120.9474         estimate D2E/DX2                !
 ! A121  A(5,38,68)            119.4909         estimate D2E/DX2                !
 ! A122  A(37,38,68)           119.5617         estimate D2E/DX2                !
 ! D1    D(39,1,2,3)           -59.6713         estimate D2E/DX2                !
 ! D2    D(39,1,2,42)           61.4128         estimate D2E/DX2                !
 ! D3    D(39,1,2,43)          179.2308         estimate D2E/DX2                !
 ! D4    D(40,1,2,3)            60.2212         estimate D2E/DX2                !
 ! D5    D(40,1,2,42)         -178.6947         estimate D2E/DX2                !
 ! D6    D(40,1,2,43)          -60.8767         estimate D2E/DX2                !
 ! D7    D(41,1,2,3)          -179.7881         estimate D2E/DX2                !
 ! D8    D(41,1,2,42)          -58.7039         estimate D2E/DX2                !
 ! D9    D(41,1,2,43)           59.1141         estimate D2E/DX2                !
 ! D10   D(1,2,3,4)            179.9332         estimate D2E/DX2                !
 ! D11   D(1,2,3,44)            58.8784         estimate D2E/DX2                !
 ! D12   D(1,2,3,45)           -58.7951         estimate D2E/DX2                !
 ! D13   D(42,2,3,4)            58.8034         estimate D2E/DX2                !
 ! D14   D(42,2,3,44)          -62.2515         estimate D2E/DX2                !
 ! D15   D(42,2,3,45)         -179.925          estimate D2E/DX2                !
 ! D16   D(43,2,3,4)           -58.8457         estimate D2E/DX2                !
 ! D17   D(43,2,3,44)         -179.9006         estimate D2E/DX2                !
 ! D18   D(43,2,3,45)           62.4259         estimate D2E/DX2                !
 ! D19   D(2,3,4,5)             64.3526         estimate D2E/DX2                !
 ! D20   D(2,3,4,46)           -57.2049         estimate D2E/DX2                !
 ! D21   D(2,3,4,47)          -174.9542         estimate D2E/DX2                !
 ! D22   D(44,3,4,5)          -174.421          estimate D2E/DX2                !
 ! D23   D(44,3,4,46)           64.0215         estimate D2E/DX2                !
 ! D24   D(44,3,4,47)          -53.7278         estimate D2E/DX2                !
 ! D25   D(45,3,4,5)           -56.9089         estimate D2E/DX2                !
 ! D26   D(45,3,4,46)         -178.4664         estimate D2E/DX2                !
 ! D27   D(45,3,4,47)           63.7842         estimate D2E/DX2                !
 ! D28   D(3,4,5,6)             75.1132         estimate D2E/DX2                !
 ! D29   D(3,4,5,38)          -103.3807         estimate D2E/DX2                !
 ! D30   D(46,4,5,6)          -163.736          estimate D2E/DX2                !
 ! D31   D(46,4,5,38)           17.7701         estimate D2E/DX2                !
 ! D32   D(47,4,5,6)           -45.1767         estimate D2E/DX2                !
 ! D33   D(47,4,5,38)          136.3294         estimate D2E/DX2                !
 ! D34   D(4,5,6,7)           -178.2829         estimate D2E/DX2                !
 ! D35   D(4,5,6,48)             2.0551         estimate D2E/DX2                !
 ! D36   D(38,5,6,7)             0.2557         estimate D2E/DX2                !
 ! D37   D(38,5,6,48)         -179.4063         estimate D2E/DX2                !
 ! D38   D(4,5,38,37)          178.6662         estimate D2E/DX2                !
 ! D39   D(4,5,38,68)           -1.2924         estimate D2E/DX2                !
 ! D40   D(6,5,38,37)            0.1422         estimate D2E/DX2                !
 ! D41   D(6,5,38,68)         -179.8164         estimate D2E/DX2                !
 ! D42   D(5,6,7,8)             -0.3913         estimate D2E/DX2                !
 ! D43   D(5,6,7,49)          -178.9406         estimate D2E/DX2                !
 ! D44   D(48,6,7,8)           179.27           estimate D2E/DX2                !
 ! D45   D(48,6,7,49)            0.7207         estimate D2E/DX2                !
 ! D46   D(6,7,8,9)           -179.7128         estimate D2E/DX2                !
 ! D47   D(6,7,8,37)             0.1231         estimate D2E/DX2                !
 ! D48   D(49,7,8,9)            -1.1598         estimate D2E/DX2                !
 ! D49   D(49,7,8,37)          178.6762         estimate D2E/DX2                !
 ! D50   D(7,8,9,10)           138.6314         estimate D2E/DX2                !
 ! D51   D(7,8,9,36)           -41.4194         estimate D2E/DX2                !
 ! D52   D(37,8,9,10)          -41.2004         estimate D2E/DX2                !
 ! D53   D(37,8,9,36)          138.7487         estimate D2E/DX2                !
 ! D54   D(7,8,37,38)            0.2728         estimate D2E/DX2                !
 ! D55   D(7,8,37,67)          178.8715         estimate D2E/DX2                !
 ! D56   D(9,8,37,38)         -179.8912         estimate D2E/DX2                !
 ! D57   D(9,8,37,67)           -1.2924         estimate D2E/DX2                !
 ! D58   D(8,9,10,11)         -179.8388         estimate D2E/DX2                !
 ! D59   D(8,9,10,50)           -1.0352         estimate D2E/DX2                !
 ! D60   D(36,9,10,11)           0.2108         estimate D2E/DX2                !
 ! D61   D(36,9,10,50)         179.0144         estimate D2E/DX2                !
 ! D62   D(8,9,36,35)         -179.5338         estimate D2E/DX2                !
 ! D63   D(8,9,36,66)           -0.8289         estimate D2E/DX2                !
 ! D64   D(10,9,36,35)           0.4165         estimate D2E/DX2                !
 ! D65   D(10,9,36,66)         179.1215         estimate D2E/DX2                !
 ! D66   D(9,10,11,12)          -0.679          estimate D2E/DX2                !
 ! D67   D(9,10,11,51)        -179.5859         estimate D2E/DX2                !
 ! D68   D(50,10,11,12)       -179.4806         estimate D2E/DX2                !
 ! D69   D(50,10,11,51)          1.6126         estimate D2E/DX2                !
 ! D70   D(10,11,12,13)        179.3358         estimate D2E/DX2                !
 ! D71   D(10,11,12,35)          0.5111         estimate D2E/DX2                !
 ! D72   D(51,11,12,13)         -1.7537         estimate D2E/DX2                !
 ! D73   D(51,11,12,35)        179.4216         estimate D2E/DX2                !
 ! D74   D(11,12,13,14)        -45.875          estimate D2E/DX2                !
 ! D75   D(11,12,13,33)        133.454          estimate D2E/DX2                !
 ! D76   D(35,12,13,14)        132.9171         estimate D2E/DX2                !
 ! D77   D(35,12,13,33)        -47.7539         estimate D2E/DX2                !
 ! D78   D(11,12,35,36)          0.1147         estimate D2E/DX2                !
 ! D79   D(11,12,35,65)        179.6148         estimate D2E/DX2                !
 ! D80   D(13,12,35,36)       -178.6939         estimate D2E/DX2                !
 ! D81   D(13,12,35,65)          0.8063         estimate D2E/DX2                !
 ! D82   D(12,13,14,15)       -179.4076         estimate D2E/DX2                !
 ! D83   D(12,13,14,52)         -0.8866         estimate D2E/DX2                !
 ! D84   D(33,13,14,15)          1.252          estimate D2E/DX2                !
 ! D85   D(33,13,14,52)        179.7729         estimate D2E/DX2                !
 ! D86   D(12,13,33,21)        179.9612         estimate D2E/DX2                !
 ! D87   D(12,13,33,34)         -2.1074         estimate D2E/DX2                !
 ! D88   D(14,13,33,21)         -0.6983         estimate D2E/DX2                !
 ! D89   D(14,13,33,34)        177.2331         estimate D2E/DX2                !
 ! D90   D(13,14,15,16)        179.2617         estimate D2E/DX2                !
 ! D91   D(13,14,15,20)         -0.4427         estimate D2E/DX2                !
 ! D92   D(52,14,15,16)          0.7309         estimate D2E/DX2                !
 ! D93   D(52,14,15,20)       -178.9736         estimate D2E/DX2                !
 ! D94   D(14,15,16,17)       -179.2711         estimate D2E/DX2                !
 ! D95   D(14,15,16,53)          0.5438         estimate D2E/DX2                !
 ! D96   D(20,15,16,17)          0.4332         estimate D2E/DX2                !
 ! D97   D(20,15,16,53)       -179.752          estimate D2E/DX2                !
 ! D98   D(14,15,20,19)        178.5035         estimate D2E/DX2                !
 ! D99   D(14,15,20,21)         -0.9158         estimate D2E/DX2                !
 ! D100  D(16,15,20,19)         -1.2096         estimate D2E/DX2                !
 ! D101  D(16,15,20,21)        179.3711         estimate D2E/DX2                !
 ! D102  D(15,16,17,18)          0.4982         estimate D2E/DX2                !
 ! D103  D(15,16,17,54)       -179.9655         estimate D2E/DX2                !
 ! D104  D(53,16,17,18)       -179.3125         estimate D2E/DX2                !
 ! D105  D(53,16,17,54)          0.2238         estimate D2E/DX2                !
 ! D106  D(16,17,18,19)         -0.6426         estimate D2E/DX2                !
 ! D107  D(16,17,18,55)        179.1631         estimate D2E/DX2                !
 ! D108  D(54,17,18,19)        179.8168         estimate D2E/DX2                !
 ! D109  D(54,17,18,55)         -0.3775         estimate D2E/DX2                !
 ! D110  D(17,18,19,20)         -0.1651         estimate D2E/DX2                !
 ! D111  D(17,18,19,56)        179.3103         estimate D2E/DX2                !
 ! D112  D(55,18,19,20)       -179.9697         estimate D2E/DX2                !
 ! D113  D(55,18,19,56)         -0.4942         estimate D2E/DX2                !
 ! D114  D(18,19,20,15)          1.0859         estimate D2E/DX2                !
 ! D115  D(18,19,20,21)       -179.5153         estimate D2E/DX2                !
 ! D116  D(56,19,20,15)       -178.3957         estimate D2E/DX2                !
 ! D117  D(56,19,20,21)          1.0031         estimate D2E/DX2                !
 ! D118  D(15,20,21,22)       -176.982          estimate D2E/DX2                !
 ! D119  D(15,20,21,33)          1.4541         estimate D2E/DX2                !
 ! D120  D(19,20,21,22)          3.6201         estimate D2E/DX2                !
 ! D121  D(19,20,21,33)       -177.9438         estimate D2E/DX2                !
 ! D122  D(20,21,22,23)         71.1957         estimate D2E/DX2                !
 ! D123  D(20,21,22,32)       -110.1698         estimate D2E/DX2                !
 ! D124  D(33,21,22,23)       -107.2612         estimate D2E/DX2                !
 ! D125  D(33,21,22,32)         71.3733         estimate D2E/DX2                !
 ! D126  D(20,21,33,13)         -0.6545         estimate D2E/DX2                !
 ! D127  D(20,21,33,34)       -178.5094         estimate D2E/DX2                !
 ! D128  D(22,21,33,13)        177.8045         estimate D2E/DX2                !
 ! D129  D(22,21,33,34)         -0.0504         estimate D2E/DX2                !
 ! D130  D(21,22,23,24)         -1.2742         estimate D2E/DX2                !
 ! D131  D(21,22,23,25)        177.8489         estimate D2E/DX2                !
 ! D132  D(32,22,23,24)       -179.9236         estimate D2E/DX2                !
 ! D133  D(32,22,23,25)         -0.8005         estimate D2E/DX2                !
 ! D134  D(21,22,32,27)       -177.5367         estimate D2E/DX2                !
 ! D135  D(21,22,32,31)          3.225          estimate D2E/DX2                !
 ! D136  D(23,22,32,27)          1.0953         estimate D2E/DX2                !
 ! D137  D(23,22,32,31)       -178.1429         estimate D2E/DX2                !
 ! D138  D(22,23,24,57)         -3.1309         estimate D2E/DX2                !
 ! D139  D(25,23,24,57)        177.717          estimate D2E/DX2                !
 ! D140  D(22,23,25,26)         -0.0272         estimate D2E/DX2                !
 ! D141  D(22,23,25,58)       -179.7448         estimate D2E/DX2                !
 ! D142  D(24,23,25,26)        179.1428         estimate D2E/DX2                !
 ! D143  D(24,23,25,58)         -0.5748         estimate D2E/DX2                !
 ! D144  D(23,25,26,27)          0.5568         estimate D2E/DX2                !
 ! D145  D(23,25,26,59)       -179.6719         estimate D2E/DX2                !
 ! D146  D(58,25,26,27)       -179.7378         estimate D2E/DX2                !
 ! D147  D(58,25,26,59)          0.0335         estimate D2E/DX2                !
 ! D148  D(25,26,27,28)        179.6003         estimate D2E/DX2                !
 ! D149  D(25,26,27,32)         -0.2453         estimate D2E/DX2                !
 ! D150  D(59,26,27,28)         -0.1743         estimate D2E/DX2                !
 ! D151  D(59,26,27,32)        179.98           estimate D2E/DX2                !
 ! D152  D(26,27,28,29)       -179.4091         estimate D2E/DX2                !
 ! D153  D(26,27,28,60)          0.3962         estimate D2E/DX2                !
 ! D154  D(32,27,28,29)          0.4364         estimate D2E/DX2                !
 ! D155  D(32,27,28,60)       -179.7583         estimate D2E/DX2                !
 ! D156  D(26,27,32,22)         -0.5784         estimate D2E/DX2                !
 ! D157  D(26,27,32,31)        178.6852         estimate D2E/DX2                !
 ! D158  D(28,27,32,22)        179.5715         estimate D2E/DX2                !
 ! D159  D(28,27,32,31)         -1.1649         estimate D2E/DX2                !
 ! D160  D(27,28,29,30)          0.4647         estimate D2E/DX2                !
 ! D161  D(27,28,29,61)       -179.9992         estimate D2E/DX2                !
 ! D162  D(60,28,29,30)       -179.3363         estimate D2E/DX2                !
 ! D163  D(60,28,29,61)          0.1997         estimate D2E/DX2                !
 ! D164  D(28,29,30,31)         -0.6253         estimate D2E/DX2                !
 ! D165  D(28,29,30,62)        179.1643         estimate D2E/DX2                !
 ! D166  D(61,29,30,31)        179.8343         estimate D2E/DX2                !
 ! D167  D(61,29,30,62)         -0.3761         estimate D2E/DX2                !
 ! D168  D(29,30,31,32)         -0.1352         estimate D2E/DX2                !
 ! D169  D(29,30,31,63)        179.2333         estimate D2E/DX2                !
 ! D170  D(62,30,31,32)       -179.9235         estimate D2E/DX2                !
 ! D171  D(62,30,31,63)         -0.555          estimate D2E/DX2                !
 ! D172  D(30,31,32,22)       -179.7311         estimate D2E/DX2                !
 ! D173  D(30,31,32,27)          1.025          estimate D2E/DX2                !
 ! D174  D(63,31,32,22)          0.8924         estimate D2E/DX2                !
 ! D175  D(63,31,32,27)       -178.3515         estimate D2E/DX2                !
 ! D176  D(13,33,34,64)       -179.4159         estimate D2E/DX2                !
 ! D177  D(21,33,34,64)         -1.5006         estimate D2E/DX2                !
 ! D178  D(12,35,36,9)          -0.5822         estimate D2E/DX2                !
 ! D179  D(12,35,36,66)       -179.2856         estimate D2E/DX2                !
 ! D180  D(65,35,36,9)         179.9181         estimate D2E/DX2                !
 ! D181  D(65,35,36,66)          1.2147         estimate D2E/DX2                !
 ! D182  D(8,37,38,5)           -0.4098         estimate D2E/DX2                !
 ! D183  D(8,37,38,68)         179.5488         estimate D2E/DX2                !
 ! D184  D(67,37,38,5)        -179.0059         estimate D2E/DX2                !
 ! D185  D(67,37,38,68)          0.9526         estimate D2E/DX2                !
 --------------------------------------------------------------------------------
 Trust Radius=3.00D-01 FncErr=1.00D-07 GrdErr=1.00D-06 EigMax=2.50D+02 EigMin=1.00D-04
 Number of steps in this run=    390 maximum allowed number of steps=    408.
 GradGradGradGradGradGradGradGradGradGradGradGradGradGradGradGradGradGrad

 Leave Link  103 at Mon Mar 24 22:07:48 2025, MaxMem= 13421772800 cpu:               0.8 elap:               0.0
 (Enter /public/software/apps/Gaussian/g16/l202.exe)
 Symmetry turned off by external request.
 Stoichiometry    C36H30O2
 Framework group  C1[X(C36H30O2)]
 Deg. of freedom   198
 Full point group                 C1      NOp   1
                          Input orientation:                          
 ---------------------------------------------------------------------
 Center     Atomic      Atomic             Coordinates (Angstroms)
 Number     Number       Type             X           Y           Z
 ---------------------------------------------------------------------
      1          6           0        9.247473   -3.487840   -1.176129
      2          6           0        8.875430   -2.010433   -1.186348
      3          6           0        9.330520   -1.306005    0.088730
      4          6           0        8.965180    0.184199    0.094684
      5          6           0        7.477544    0.386082    0.095568
      6          6           0        6.739896    0.170591    1.254005
      7          6           0        5.367277    0.318283    1.260364
      8          6           0        4.686971    0.695823    0.104618
      9          6           0        3.227188    0.860098    0.108966
     10          6           0        2.628194    1.924780   -0.561096
     11          6           0        1.257381    2.081189   -0.554427
     12          6           0        0.440239    1.170236    0.110668
     13          6           0       -1.018238    1.360210    0.119965
     14          6           0       -1.560153    2.593239    0.383183
     15          6           0       -2.950837    2.808123    0.412224
     16          6           0       -3.504515    4.072819    0.698011
     17          6           0       -4.858966    4.252028    0.734634
     18          6           0       -5.719126    3.169739    0.496836
     19          6           0       -5.214616    1.930929    0.213865
     20          6           0       -3.820875    1.717720    0.152115
     21          6           0       -3.260618    0.448769   -0.148578
     22          6           0       -4.137538   -0.701905   -0.492324
     23          6           0       -4.795407   -0.717605   -1.708431
     24          8           0       -4.694835    0.296693   -2.605266
     25          6           0       -5.595349   -1.817855   -2.074489
     26          6           0       -5.731201   -2.882720   -1.234363
     27          6           0       -5.086842   -2.903827    0.020675
     28          6           0       -5.219822   -3.990272    0.908566
     29          6           0       -4.595583   -3.983120    2.124444
     30          6           0       -3.817387   -2.881123    2.508696
     31          6           0       -3.665034   -1.812760    1.670099
     32          6           0       -4.283748   -1.796252    0.400724
     33          6           0       -1.889729    0.273929   -0.157266
     34          8           0       -1.329715   -0.923496   -0.471292
     35          6           0        1.035670    0.103897    0.778156
     36          6           0        2.407733   -0.043935    0.781280
     37          6           0        5.426366    0.916981   -1.054335
     38          6           0        6.799095    0.759825   -1.057166
     39          1           0       10.325246   -3.610712   -1.089977
     40          1           0        8.777869   -3.992820   -0.334705
     41          1           0        8.919175   -3.972276   -2.092734
     42          1           0        9.337112   -1.526533   -2.050405
     43          1           0        7.792714   -1.908600   -1.287060
     44          1           0       10.414074   -1.406274    0.188748
     45          1           0        8.868958   -1.792096    0.951153
     46          1           0        9.404117    0.664271   -0.782385
     47          1           0        9.394923    0.647057    0.986666
     48          1           0        7.251072   -0.111560    2.164007
     49          1           0        4.815190    0.162565    2.176090
     50          1           0        3.246855    2.646180   -1.075311
     51          1           0        0.808643    2.909032   -1.085027
     52          1           0       -0.903936    3.423991    0.598687
     53          1           0       -2.833517    4.897685    0.890689
     54          1           0       -5.275946    5.223837    0.953687
     55          1           0       -6.787486    3.320869    0.541917
     56          1           0       -5.881202    1.097936    0.042393
     57          1           0       -4.153793    1.007355   -2.233357
     58          1           0       -6.084211   -1.783971   -3.035093
     59          1           0       -6.340877   -3.727182   -1.519874
     60          1           0       -5.830197   -4.829740    0.607609
     61          1           0       -4.702549   -4.819585    2.799027
     62          1           0       -3.339833   -2.880676    3.477424
     63          1           0       -3.074680   -0.960814    1.975592
     64          1           0       -2.029865   -1.568754   -0.644577
     65          1           0        0.418961   -0.608401    1.304206
     66          1           0        2.852482   -0.884070    1.294772
     67          1           0        4.916980    1.192650   -1.966484
     68          1           0        7.353484    0.929439   -1.969658
 ---------------------------------------------------------------------
 Rotational constants (GHZ):           0.1774083           0.0371142           0.0331662
 Leave Link  202 at Mon Mar 24 22:07:48 2025, MaxMem= 13421772800 cpu:               1.3 elap:               0.1
 (Enter /public/software/apps/Gaussian/g16/l301.exe)
 Standard basis: def2SVPP (5D, 7F)
 Ernie: Thresh=  0.10000D-02 Tol=  0.10000D-05 Strict=F.
   592 basis functions,  1070 primitive gaussians,   630 cartesian basis functions
   131 alpha electrons      131 beta electrons
       nuclear repulsion energy      3688.0734563311 Hartrees.
 IExCor=  402 DFT=T Ex+Corr=B3LYP ExCW=0 ScaHFX=  0.200000
 ScaDFX=  0.800000  0.720000  1.000000  0.810000 ScalE2=  1.000000  1.000000
 IRadAn=      5 IRanWt=     -1 IRanGd=            0 ICorTp=0 IEmpDi=141
 NAtoms=   68 NActive=   68 NUniq=   68 SFac= 1.00D+00 NAtFMM=   60 NAOKFM=T Big=T
 Integral buffers will be    131072 words long.
 Raffenetti 2 integral format.
 Two-electron integral symmetry is turned off.
 R6Disp:  Grimme-D3(BJ) Dispersion energy=       -0.1702259366 Hartrees.
 Nuclear repulsion after empirical dispersion term =     3687.9032303945 Hartrees.
 Leave Link  301 at Mon Mar 24 22:07:48 2025, MaxMem= 13421772800 cpu:               0.6 elap:               0.0
 (Enter /public/software/apps/Gaussian/g16/l302.exe)
 NPDir=0 NMtPBC=     1 NCelOv=     1 NCel=       1 NClECP=     1 NCelD=      1
         NCelK=      1 NCelE2=     1 NClLst=     1 CellRange=     0.0.
 One-electron integrals computed using PRISM.
   1 Symmetry operations used in ECPInt.
 ECPInt:  NShTT=   41616 NPrTT=  166760 LenC2=   29852 LenP2D=   74631.
 LDataN:  DoStor=T MaxTD1= 4 Len=   56
 NBasis=   592 RedAO= T EigKep=  1.61D-04  NBF=   592
 NBsUse=   592 1.00D-06 EigRej= -1.00D+00 NBFU=   592
 Precomputing XC quadrature grid using
 IXCGrd= 4 IRadAn=           5 IRanWt=          -1 IRanGd=           0 AccXCQ= 0.00D+00.
 Generated NRdTot=       0 NPtTot=           0 NUsed=           0 NTot=          32
 NSgBfM=   602   602   602   602   602 MxSgAt=    68 MxSgA2=    68.
 Leave Link  302 at Mon Mar 24 22:07:49 2025, MaxMem= 13421772800 cpu:              25.0 elap:               0.8
 (Enter /public/software/apps/Gaussian/g16/l303.exe)
 DipDrv:  MaxL=1.
 Leave Link  303 at Mon Mar 24 22:07:49 2025, MaxMem= 13421772800 cpu:               4.6 elap:               0.2
 (Enter /public/software/apps/Gaussian/g16/l401.exe)
 ExpMin= 1.22D-01 ExpMax= 2.27D+03 ExpMxC= 3.41D+02 IAcc=3 IRadAn=         5 AccDes= 0.00D+00
 Harris functional with IExCor=  402 and IRadAn=       5 diagonalized for initial guess.
 HarFok:  IExCor=  402 AccDes= 0.00D+00 IRadAn=         5 IDoV= 1 UseB2=F ITyADJ=14
 ICtDFT=  3500011 ScaDFX=  1.000000  1.000000  1.000000  1.000000
 FoFCou: FMM=F IPFlag=           0 FMFlag=      100000 FMFlg1=        2001
         NFxFlg=           0 DoJE=T BraDBF=F KetDBF=T FulRan=T
         wScrn=  0.000000 ICntrl=       500 IOpCl=  0 I1Cent=   200000004 NGrid=           0
         NMat0=    1 NMatS0=      1 NMatT0=    0 NMatD0=    1 NMtDS0=    0 NMtDT0=    0
 Symmetry not used in FoFCou.
 Harris En= -1539.39412405231    
 JPrj=0 DoOrth=F DoCkMO=F.
 Leave Link  401 at Mon Mar 24 22:07:51 2025, MaxMem= 13421772800 cpu:              47.0 elap:               1.5
 (Enter /public/software/apps/Gaussian/g16/l502.exe)
 Two-electron integral symmetry not used.
 Closed shell SCF:
 Using DIIS extrapolation, IDIIS=  1040.
 NGot= 13421772800 LenX= 13420951852 LenY= 13420554322
 Requested convergence on RMS density matrix=1.00D-08 within 128 cycles.
 Requested convergence on MAX density matrix=1.00D-06.
 Requested convergence on             energy=1.00D-06.
 No special actions if energy rises.
 Fock matrices will be formed incrementally for  20 cycles.
 Integral accuracy reduced to 1.0D-05 until final iterations.

 Cycle   1  Pass 0  IDiag  1:
 FoFJK:  IHMeth= 1 ICntrl=       0 DoSepK=F KAlg= 0 I1Cent=           0 FoldK=F
 IRaf= 820000000 NMat=       1 IRICut=       1 DoRegI=T DoRafI=F ISym2E= 0 IDoP0=0 IntGTp=1.
 FoFCou: FMM=T IPFlag=           0 FMFlag=      100000 FMFlg1=        2001
         NFxFlg=           0 DoJE=F BraDBF=F KetDBF=F FulRan=T
         wScrn=  0.000000 ICntrl=         0 IOpCl=  0 I1Cent=           0 NGrid=           0
         NMat0=    1 NMatS0=      1 NMatT0=    0 NMatD0=    1 NMtDS0=    0 NMtDT0=    0
 Symmetry not used in FoFCou.
 FMM levels:  10  Number of levels for PrismC:   9
 E= -1538.57022815056    
 DIIS: error= 2.36D-02 at cycle   1 NSaved=   1.
 NSaved= 1 IEnMin= 1 EnMin= -1538.57022815056     IErMin= 1 ErrMin= 2.36D-02
 ErrMax= 2.36D-02  0.00D+00 EMaxC= 1.00D-01 BMatC= 6.91D-01 BMatP= 6.91D-01
 IDIUse=3 WtCom= 7.64D-01 WtEn= 2.36D-01
 Coeff-Com:  0.100D+01
 Coeff-En:   0.100D+01
 Coeff:      0.100D+01
 Gap=     0.181 Goal=   None    Shift=    0.000
 GapD=    0.181 DampG=1.000 DampE=0.500 DampFc=0.5000 IDamp=-1.
 Damping current iteration by 5.00D-01
 RMSDP=5.16D-03 MaxDP=1.76D-01              OVMax= 1.62D-01

 Cycle   2  Pass 0  IDiag  1:
 RMSU=  2.31D-03    CP:  9.35D-01
 E= -1538.94929665226     Delta-E=       -0.379068501698 Rises=F Damp=T
 DIIS: error= 3.58D-03 at cycle   2 NSaved=   2.
 NSaved= 2 IEnMin= 2 EnMin= -1538.94929665226     IErMin= 2 ErrMin= 3.58D-03
 ErrMax= 3.58D-03  0.00D+00 EMaxC= 1.00D-01 BMatC= 3.42D-02 BMatP= 6.91D-01
 IDIUse=3 WtCom= 9.64D-01 WtEn= 3.58D-02
 Coeff-Com:  0.245D-01 0.975D+00
 Coeff-En:   0.187D-01 0.981D+00
 Coeff:      0.243D-01 0.976D+00
 Gap=     0.182 Goal=   None    Shift=    0.000
 RMSDP=1.77D-03 MaxDP=1.10D-01 DE=-3.79D-01 OVMax= 1.47D-01

 Cycle   3  Pass 0  IDiag  1:
 RMSU=  1.59D-03    CP:  8.92D-01  1.09D+00
 E= -1539.33672254692     Delta-E=       -0.387425894667 Rises=F Damp=F
 DIIS: error= 6.36D-03 at cycle   3 NSaved=   3.
 NSaved= 3 IEnMin= 3 EnMin= -1539.33672254692     IErMin= 2 ErrMin= 3.58D-03
 ErrMax= 6.36D-03  0.00D+00 EMaxC= 1.00D-01 BMatC= 3.84D-02 BMatP= 3.42D-02
 IDIUse=3 WtCom= 1.11D-01 WtEn= 8.89D-01
 Coeff-Com: -0.290D-01 0.529D+00 0.500D+00
 Coeff-En:   0.000D+00 0.000D+00 0.100D+01
 Coeff:     -0.323D-02 0.589D-01 0.944D+00
 Gap=     0.183 Goal=   None    Shift=    0.000
 RMSDP=1.51D-03 MaxDP=8.58D-02 DE=-3.87D-01 OVMax= 1.52D-01

 Cycle   4  Pass 0  IDiag  1:
 RMSU=  1.15D-03    CP:  8.91D-01  1.29D+00  4.53D-01
 E= -1539.22141954195     Delta-E=        0.115303004975 Rises=F Damp=F
 DIIS: error= 1.29D-02 at cycle   4 NSaved=   4.
 NSaved= 4 IEnMin= 3 EnMin= -1539.33672254692     IErMin= 2 ErrMin= 3.58D-03
 ErrMax= 1.29D-02  0.00D+00 EMaxC= 1.00D-01 BMatC= 1.38D-01 BMatP= 3.42D-02
 IDIUse=2 WtCom= 0.00D+00 WtEn= 1.00D+00
 Coeff-En:   0.000D+00 0.000D+00 0.734D+00 0.266D+00
 Coeff:      0.000D+00 0.000D+00 0.734D+00 0.266D+00
 Gap=     0.161 Goal=   None    Shift=    0.000
 RMSDP=8.05D-04 MaxDP=5.80D-02 DE= 1.15D-01 OVMax= 8.20D-02

 Cycle   5  Pass 0  IDiag  1:
 RMSU=  2.01D-04    CP:  8.90D-01  1.19D+00  7.26D-01  4.69D-01
 E= -1539.37193640708     Delta-E=       -0.150516865135 Rises=F Damp=F
 DIIS: error= 2.38D-03 at cycle   5 NSaved=   5.
 NSaved= 5 IEnMin= 5 EnMin= -1539.37193640708     IErMin= 5 ErrMin= 2.38D-03
 ErrMax= 2.38D-03  0.00D+00 EMaxC= 1.00D-01 BMatC= 7.43D-03 BMatP= 3.42D-02
 IDIUse=3 WtCom= 9.76D-01 WtEn= 2.38D-02
 Coeff-Com:  0.460D-02 0.140D-01 0.358D+00 0.602D-01 0.563D+00
 Coeff-En:   0.000D+00 0.000D+00 0.197D+00 0.000D+00 0.803D+00
 Coeff:      0.449D-02 0.137D-01 0.354D+00 0.588D-01 0.569D+00
 Gap=     0.157 Goal=   None    Shift=    0.000
 RMSDP=2.39D-04 MaxDP=1.17D-02 DE=-1.51D-01 OVMax= 2.14D-02

 Cycle   6  Pass 0  IDiag  1:
 RMSU=  7.85D-05    CP:  8.90D-01  1.16D+00  8.15D-01  3.36D-01  7.25D-01
 E= -1539.37998442406     Delta-E=       -0.008048016979 Rises=F Damp=F
 DIIS: error= 4.48D-04 at cycle   6 NSaved=   6.
 NSaved= 6 IEnMin= 6 EnMin= -1539.37998442406     IErMin= 6 ErrMin= 4.48D-04
 ErrMax= 4.48D-04  0.00D+00 EMaxC= 1.00D-01 BMatC= 2.00D-04 BMatP= 7.43D-03
 IDIUse=3 WtCom= 9.96D-01 WtEn= 4.48D-03
 Coeff-Com:  0.274D-02-0.811D-02 0.124D+00-0.132D-01 0.368D+00 0.526D+00
 Coeff-En:   0.000D+00 0.000D+00 0.000D+00 0.000D+00 0.000D+00 0.100D+01
 Coeff:      0.273D-02-0.808D-02 0.124D+00-0.132D-01 0.367D+00 0.528D+00
 Gap=     0.156 Goal=   None    Shift=    0.000
 RMSDP=4.31D-05 MaxDP=1.40D-03 DE=-8.05D-03 OVMax= 5.49D-03

 Cycle   7  Pass 0  IDiag  1:
 RMSU=  3.00D-05    CP:  8.89D-01  1.16D+00  8.15D-01  3.36D-01  8.00D-01
                    CP:  6.58D-01
 E= -1539.38021916962     Delta-E=       -0.000234745556 Rises=F Damp=F
 DIIS: error= 9.58D-05 at cycle   7 NSaved=   7.
 NSaved= 7 IEnMin= 7 EnMin= -1539.38021916962     IErMin= 7 ErrMin= 9.58D-05
 ErrMax= 9.58D-05  0.00D+00 EMaxC= 1.00D-01 BMatC= 1.88D-05 BMatP= 2.00D-04
 IDIUse=1 WtCom= 1.00D+00 WtEn= 0.00D+00
 Coeff-Com:  0.122D-02-0.508D-02 0.468D-01-0.139D-01 0.179D+00 0.325D+00
 Coeff-Com:  0.467D+00
 Coeff:      0.122D-02-0.508D-02 0.468D-01-0.139D-01 0.179D+00 0.325D+00
 Coeff:      0.467D+00
 Gap=     0.156 Goal=   None    Shift=    0.000
 RMSDP=1.61D-05 MaxDP=6.69D-04 DE=-2.35D-04 OVMax= 1.08D-03

 Cycle   8  Pass 0  IDiag  1:
 RMSU=  1.46D-05    CP:  8.90D-01  1.16D+00  8.16D-01  3.36D-01  7.80D-01
                    CP:  7.13D-01  9.24D-01
 E= -1539.38024706256     Delta-E=       -0.000027892946 Rises=F Damp=F
 DIIS: error= 3.40D-05 at cycle   8 NSaved=   8.
 NSaved= 8 IEnMin= 8 EnMin= -1539.38024706256     IErMin= 8 ErrMin= 3.40D-05
 ErrMax= 3.40D-05  0.00D+00 EMaxC= 1.00D-01 BMatC= 8.75D-07 BMatP= 1.88D-05
 IDIUse=1 WtCom= 1.00D+00 WtEn= 0.00D+00
 Coeff-Com:  0.444D-03-0.188D-02 0.143D-01-0.675D-02 0.646D-01 0.128D+00
 Coeff-Com:  0.238D+00 0.563D+00
 Coeff:      0.444D-03-0.188D-02 0.143D-01-0.675D-02 0.646D-01 0.128D+00
 Coeff:      0.238D+00 0.563D+00
 Gap=     0.156 Goal=   None    Shift=    0.000
 RMSDP=1.16D-05 MaxDP=3.93D-04 DE=-2.79D-05 OVMax= 2.29D-04

 Cycle   9  Pass 0  IDiag  1:
 RMSU=  1.02D-05    CP:  8.90D-01  1.16D+00  8.16D-01  3.36D-01  7.80D-01
                    CP:  7.21D-01  1.07D+00  1.22D+00
 E= -1539.38024782172     Delta-E=       -0.000000759153 Rises=F Damp=F
 DIIS: error= 1.75D-05 at cycle   9 NSaved=   9.
 NSaved= 9 IEnMin= 9 EnMin= -1539.38024782172     IErMin= 9 ErrMin= 1.75D-05
 ErrMax= 1.75D-05  0.00D+00 EMaxC= 1.00D-01 BMatC= 2.44D-07 BMatP= 8.75D-07
 IDIUse=1 WtCom= 1.00D+00 WtEn= 0.00D+00
 Coeff-Com:  0.144D-03-0.593D-03 0.392D-02-0.286D-02 0.213D-01 0.449D-01
 Coeff-Com:  0.100D+00 0.363D+00 0.470D+00
 Coeff:      0.144D-03-0.593D-03 0.392D-02-0.286D-02 0.213D-01 0.449D-01
 Coeff:      0.100D+00 0.363D+00 0.470D+00
 Gap=     0.156 Goal=   None    Shift=    0.000
 RMSDP=9.99D-06 MaxDP=2.94D-04 DE=-7.59D-07 OVMax= 1.27D-04

 Initial convergence to 1.0D-05 achieved.  Increase integral accuracy.
 Cycle  10  Pass 1  IDiag  1:
 E= -1539.38004378036     Delta-E=        0.000204041353 Rises=F Damp=F
 DIIS: error= 5.36D-04 at cycle   1 NSaved=   1.
 NSaved= 1 IEnMin= 1 EnMin= -1539.38004378036     IErMin= 1 ErrMin= 5.36D-04
 ErrMax= 5.36D-04  0.00D+00 EMaxC= 1.00D-01 BMatC= 5.30D-05 BMatP= 5.30D-05
 IDIUse=3 WtCom= 9.95D-01 WtEn= 5.36D-03
 Coeff-Com:  0.100D+01
 Coeff-En:   0.100D+01
 Coeff:      0.100D+01
 Gap=     0.156 Goal=   None    Shift=    0.000
 RMSDP=9.99D-06 MaxDP=2.94D-04 DE= 2.04D-04 OVMax= 8.81D-04

 Cycle  11  Pass 1  IDiag  1:
 RMSU=  4.89D-04    CP:  9.99D-01
 E= -1539.38009979336     Delta-E=       -0.000056012997 Rises=F Damp=F
 DIIS: error= 7.43D-06 at cycle   2 NSaved=   2.
 NSaved= 2 IEnMin= 2 EnMin= -1539.38009979336     IErMin= 2 ErrMin= 7.43D-06
 ErrMax= 7.43D-06  0.00D+00 EMaxC= 1.00D-01 BMatC= 4.76D-08 BMatP= 5.30D-05
 IDIUse=1 WtCom= 1.00D+00 WtEn= 0.00D+00
 Coeff-Com: -0.867D-02 0.101D+01
 Coeff:     -0.867D-02 0.101D+01
 Gap=     0.156 Goal=   None    Shift=    0.000
 RMSDP=6.68D-06 MaxDP=2.19D-04 DE=-5.60D-05 OVMax= 1.73D-04

 Cycle  12  Pass 1  IDiag  1:
 RMSU=  2.58D-06    CP:  9.99D-01  1.01D+00
 E= -1539.38009961073     Delta-E=        0.000000182633 Rises=F Damp=F
 DIIS: error= 1.78D-05 at cycle   3 NSaved=   3.
 NSaved= 3 IEnMin= 2 EnMin= -1539.38009979336     IErMin= 2 ErrMin= 7.43D-06
 ErrMax= 1.78D-05  0.00D+00 EMaxC= 1.00D-01 BMatC= 2.09D-07 BMatP= 4.76D-08
 IDIUse=1 WtCom= 1.00D+00 WtEn= 0.00D+00
 Coeff-Com: -0.678D-02 0.697D+00 0.310D+00
 Coeff:     -0.678D-02 0.697D+00 0.310D+00
 Gap=     0.156 Goal=   None    Shift=    0.000
 RMSDP=1.21D-06 MaxDP=4.43D-05 DE= 1.83D-07 OVMax= 1.26D-04

 Cycle  13  Pass 1  IDiag  1:
 RMSU=  8.99D-07    CP:  9.99D-01  1.01D+00  6.86D-01
 E= -1539.38009985197     Delta-E=       -0.000000241245 Rises=F Damp=F
 DIIS: error= 1.10D-06 at cycle   4 NSaved=   4.
 NSaved= 4 IEnMin= 4 EnMin= -1539.38009985197     IErMin= 4 ErrMin= 1.10D-06
 ErrMax= 1.10D-06  0.00D+00 EMaxC= 1.00D-01 BMatC= 1.29D-09 BMatP= 4.76D-08
 IDIUse=1 WtCom= 1.00D+00 WtEn= 0.00D+00
 Coeff-Com: -0.275D-02 0.278D+00 0.140D+00 0.585D+00
 Coeff:     -0.275D-02 0.278D+00 0.140D+00 0.585D+00
 Gap=     0.156 Goal=   None    Shift=    0.000
 RMSDP=1.46D-07 MaxDP=1.23D-05 DE=-2.41D-07 OVMax= 1.19D-05

 Cycle  14  Pass 1  IDiag  1:
 RMSU=  1.33D-07    CP:  9.99D-01  1.01D+00  7.04D-01  9.78D-01
 E= -1539.38009985288     Delta-E=       -0.000000000909 Rises=F Damp=F
 DIIS: error= 7.37D-07 at cycle   5 NSaved=   5.
 NSaved= 5 IEnMin= 5 EnMin= -1539.38009985288     IErMin= 5 ErrMin= 7.37D-07
 ErrMax= 7.37D-07  0.00D+00 EMaxC= 1.00D-01 BMatC= 4.18D-10 BMatP= 1.29D-09
 IDIUse=1 WtCom= 1.00D+00 WtEn= 0.00D+00
 Coeff-Com: -0.294D-03 0.278D-01 0.227D-01 0.373D+00 0.577D+00
 Coeff:     -0.294D-03 0.278D-01 0.227D-01 0.373D+00 0.577D+00
 Gap=     0.156 Goal=   None    Shift=    0.000
 RMSDP=6.45D-08 MaxDP=4.51D-06 DE=-9.09D-10 OVMax= 7.39D-06

 Cycle  15  Pass 1  IDiag  1:
 RMSU=  4.03D-08    CP:  9.99D-01  1.01D+00  7.07D-01  9.93D-01  6.48D-01
 E= -1539.38009985328     Delta-E=       -0.000000000399 Rises=F Damp=F
 DIIS: error= 2.22D-07 at cycle   6 NSaved=   6.
 NSaved= 6 IEnMin= 6 EnMin= -1539.38009985328     IErMin= 6 ErrMin= 2.22D-07
 ErrMax= 2.22D-07  0.00D+00 EMaxC= 1.00D-01 BMatC= 4.93D-11 BMatP= 4.18D-10
 IDIUse=1 WtCom= 1.00D+00 WtEn= 0.00D+00
 Coeff-Com:  0.112D-04-0.247D-02 0.431D-02 0.193D+00 0.364D+00 0.441D+00
 Coeff:      0.112D-04-0.247D-02 0.431D-02 0.193D+00 0.364D+00 0.441D+00
 Gap=     0.156 Goal=   None    Shift=    0.000
 RMSDP=2.12D-08 MaxDP=9.80D-07 DE=-3.99D-10 OVMax= 2.56D-06

 Cycle  16  Pass 1  IDiag  1:
 RMSU=  1.06D-08    CP:  9.99D-01  1.01D+00  7.08D-01  9.96D-01  6.91D-01
                    CP:  5.77D-01
 E= -1539.38009985331     Delta-E=       -0.000000000029 Rises=F Damp=F
 DIIS: error= 4.18D-08 at cycle   7 NSaved=   7.
 NSaved= 7 IEnMin= 7 EnMin= -1539.38009985331     IErMin= 7 ErrMin= 4.18D-08
 ErrMax= 4.18D-08  0.00D+00 EMaxC= 1.00D-01 BMatC= 2.52D-12 BMatP= 4.93D-11
 IDIUse=1 WtCom= 1.00D+00 WtEn= 0.00D+00
 Coeff-Com:  0.242D-04-0.312D-02 0.120D-02 0.898D-01 0.178D+00 0.260D+00
 Coeff-Com:  0.475D+00
 Coeff:      0.242D-04-0.312D-02 0.120D-02 0.898D-01 0.178D+00 0.260D+00
 Coeff:      0.475D+00
 Gap=     0.156 Goal=   None    Shift=    0.000
 RMSDP=5.41D-09 MaxDP=2.03D-07 DE=-2.91D-11 OVMax= 5.88D-07

 SCF Done:  E(RB3LYP) =  -1539.38009985     A.U. after   16 cycles
            NFock= 16  Conv=0.54D-08     -V/T= 2.0096
 KE= 1.524787455835D+03 PE=-1.094395970533D+04 EE= 4.191888919244D+03
 Leave Link  502 at Mon Mar 24 22:08:29 2025, MaxMem= 13421772800 cpu:            1206.2 elap:              38.3
 (Enter /public/software/apps/Gaussian/g16/l601.exe)
 Copying SCF densities to generalized density rwf, IOpCl= 0 IROHF=0.

 **********************************************************************

            Population analysis using the SCF Density.

 **********************************************************************

 Alpha  occ. eigenvalues --  -19.16552 -19.16459 -10.25742 -10.25709 -10.20336
 Alpha  occ. eigenvalues --  -10.20168 -10.20031 -10.19822 -10.19794 -10.19666
 Alpha  occ. eigenvalues --  -10.19629 -10.19522 -10.19242 -10.19221 -10.19095
 Alpha  occ. eigenvalues --  -10.19048 -10.18990 -10.18907 -10.18875 -10.18854
 Alpha  occ. eigenvalues --  -10.18773 -10.18705 -10.18643 -10.18632 -10.18554
 Alpha  occ. eigenvalues --  -10.18551 -10.18287 -10.18117 -10.18105 -10.18061
 Alpha  occ. eigenvalues --  -10.18050 -10.18001 -10.17955 -10.17918 -10.17786
 Alpha  occ. eigenvalues --  -10.17423 -10.16959 -10.16274  -1.06072  -1.05728
 Alpha  occ. eigenvalues --   -0.88654  -0.87752  -0.86812  -0.85230  -0.82779
 Alpha  occ. eigenvalues --   -0.82393  -0.80651  -0.79862  -0.77470  -0.76397
 Alpha  occ. eigenvalues --   -0.75214  -0.74546  -0.74320  -0.73784  -0.72999
 Alpha  occ. eigenvalues --   -0.72669  -0.71030  -0.69396  -0.65796  -0.64580
 Alpha  occ. eigenvalues --   -0.63486  -0.62176  -0.61832  -0.61691  -0.61394
 Alpha  occ. eigenvalues --   -0.59742  -0.59214  -0.58436  -0.57578  -0.56395
 Alpha  occ. eigenvalues --   -0.55925  -0.55663  -0.53570  -0.52920  -0.52682
 Alpha  occ. eigenvalues --   -0.51433  -0.50195  -0.48391  -0.47659  -0.47143
 Alpha  occ. eigenvalues --   -0.46705  -0.46551  -0.46156  -0.45618  -0.45408
 Alpha  occ. eigenvalues --   -0.45143  -0.44629  -0.44142  -0.43718  -0.43478
 Alpha  occ. eigenvalues --   -0.43067  -0.42866  -0.42609  -0.42340  -0.42103
 Alpha  occ. eigenvalues --   -0.41840  -0.41436  -0.41322  -0.40373  -0.39631
 Alpha  occ. eigenvalues --   -0.39370  -0.38836  -0.38559  -0.38103  -0.38034
 Alpha  occ. eigenvalues --   -0.37874  -0.37165  -0.36470  -0.35904  -0.35515
 Alpha  occ. eigenvalues --   -0.35293  -0.35122  -0.34767  -0.34207  -0.33714
 Alpha  occ. eigenvalues --   -0.33311  -0.33040  -0.32789  -0.32219  -0.32085
 Alpha  occ. eigenvalues --   -0.31784  -0.30096  -0.28712  -0.27479  -0.25645
 Alpha  occ. eigenvalues --   -0.25621  -0.24561  -0.24446  -0.22490  -0.21748
 Alpha  occ. eigenvalues --   -0.21227
 Alpha virt. eigenvalues --   -0.05655  -0.04711  -0.03017  -0.01522  -0.00859
 Alpha virt. eigenvalues --   -0.00736  -0.00479   0.01236   0.02201   0.03073
 Alpha virt. eigenvalues --    0.06089   0.06195   0.06543   0.06858   0.07595
 Alpha virt. eigenvalues --    0.07820   0.07972   0.08138   0.08552   0.09021
 Alpha virt. eigenvalues --    0.09434   0.09633   0.09939   0.10139   0.10653
 Alpha virt. eigenvalues --    0.11425   0.11806   0.12257   0.12690   0.13189
 Alpha virt. eigenvalues --    0.13769   0.14078   0.14515   0.15021   0.15292
 Alpha virt. eigenvalues --    0.15400   0.15681   0.15874   0.16305   0.16418
 Alpha virt. eigenvalues --    0.17390   0.17503   0.17902   0.18616   0.18793
 Alpha virt. eigenvalues --    0.19416   0.19851   0.21721   0.22647   0.23542
 Alpha virt. eigenvalues --    0.24928   0.25011   0.25141   0.25419   0.25646
 Alpha virt. eigenvalues --    0.26844   0.27392   0.27740   0.27750   0.28800
 Alpha virt. eigenvalues --    0.29136   0.29626   0.29746   0.30040   0.30306
 Alpha virt. eigenvalues --    0.30948   0.31108   0.31262   0.31852   0.32056
 Alpha virt. eigenvalues --    0.32551   0.32803   0.33482   0.33648   0.34113
 Alpha virt. eigenvalues --    0.34742   0.35454   0.35933   0.36713   0.36833
 Alpha virt. eigenvalues --    0.37118   0.37497   0.38217   0.38546   0.39218
 Alpha virt. eigenvalues --    0.39927   0.40426   0.40567   0.41339   0.41680
 Alpha virt. eigenvalues --    0.42002   0.42578   0.42991   0.43529   0.43779
 Alpha virt. eigenvalues --    0.44162   0.44591   0.44662   0.45196   0.45503
 Alpha virt. eigenvalues --    0.45790   0.45881   0.46227   0.46557   0.46748
 Alpha virt. eigenvalues --    0.47020   0.47519   0.47870   0.48179   0.48315
 Alpha virt. eigenvalues --    0.48715   0.48886   0.49226   0.49331   0.49691
 Alpha virt. eigenvalues --    0.50079   0.50335   0.50643   0.50854   0.51329
 Alpha virt. eigenvalues --    0.51666   0.52177   0.53165   0.53282   0.53572
 Alpha virt. eigenvalues --    0.54362   0.54844   0.55353   0.55802   0.56446
 Alpha virt. eigenvalues --    0.56644   0.57282   0.57476   0.58116   0.58592
 Alpha virt. eigenvalues --    0.58995   0.59216   0.60398   0.60862   0.61384
 Alpha virt. eigenvalues --    0.61543   0.62280   0.62651   0.63304   0.63754
 Alpha virt. eigenvalues --    0.63860   0.64291   0.64940   0.65631   0.66037
 Alpha virt. eigenvalues --    0.66183   0.66508   0.67255   0.67374   0.67533
 Alpha virt. eigenvalues --    0.67715   0.68245   0.68369   0.68753   0.68771
 Alpha virt. eigenvalues --    0.68968   0.69225   0.69343   0.69503   0.69847
 Alpha virt. eigenvalues --    0.70213   0.70340   0.70717   0.70875   0.71260
 Alpha virt. eigenvalues --    0.71900   0.72005   0.72282   0.72331   0.72727
 Alpha virt. eigenvalues --    0.73040   0.73241   0.73598   0.73816   0.74203
 Alpha virt. eigenvalues --    0.74510   0.74662   0.75128   0.75288   0.75524
 Alpha virt. eigenvalues --    0.75741   0.75946   0.76470   0.76912   0.77177
 Alpha virt. eigenvalues --    0.77260   0.77397   0.77728   0.78723   0.78831
 Alpha virt. eigenvalues --    0.79258   0.79571   0.80327   0.80440   0.80470
 Alpha virt. eigenvalues --    0.81515   0.81800   0.82041   0.83038   0.83479
 Alpha virt. eigenvalues --    0.83694   0.83919   0.84551   0.84800   0.85936
 Alpha virt. eigenvalues --    0.86266   0.87275   0.87663   0.87903   0.88618
 Alpha virt. eigenvalues --    0.89477   0.90076   0.90480   0.91642   0.92832
 Alpha virt. eigenvalues --    0.94096   0.94937   0.95356   0.96345   0.97111
 Alpha virt. eigenvalues --    0.98331   0.99340   1.00913   1.02691   1.03653
 Alpha virt. eigenvalues --    1.04534   1.04893   1.05297   1.06190   1.07583
 Alpha virt. eigenvalues --    1.08640   1.08747   1.10896   1.11064   1.12320
 Alpha virt. eigenvalues --    1.13157   1.13602   1.14173   1.15330   1.16470
 Alpha virt. eigenvalues --    1.16949   1.17995   1.19374   1.21239   1.23115
 Alpha virt. eigenvalues --    1.23385   1.25006   1.25393   1.25918   1.27075
 Alpha virt. eigenvalues --    1.27942   1.28101   1.29239   1.29928   1.30248
 Alpha virt. eigenvalues --    1.30508   1.31324   1.34095   1.34961   1.35895
 Alpha virt. eigenvalues --    1.36805   1.38403   1.38736   1.39633   1.40755
 Alpha virt. eigenvalues --    1.42834   1.43703   1.44558   1.45181   1.46002
 Alpha virt. eigenvalues --    1.46186   1.46698   1.47153   1.47364   1.47471
 Alpha virt. eigenvalues --    1.47932   1.48826   1.49074   1.49159   1.49502
 Alpha virt. eigenvalues --    1.50624   1.50830   1.51171   1.51513   1.52026
 Alpha virt. eigenvalues --    1.52738   1.53484   1.54456   1.55354   1.57304
 Alpha virt. eigenvalues --    1.60039   1.60565   1.62635   1.65030   1.66380
 Alpha virt. eigenvalues --    1.69580   1.71007   1.72126   1.73396   1.73538
 Alpha virt. eigenvalues --    1.73958   1.74988   1.75254   1.76035   1.76171
 Alpha virt. eigenvalues --    1.76656   1.77294   1.78624   1.79141   1.79732
 Alpha virt. eigenvalues --    1.80427   1.81464   1.82128   1.84118   1.84778
 Alpha virt. eigenvalues --    1.84896   1.85082   1.85129   1.86007   1.87637
 Alpha virt. eigenvalues --    1.88091   1.88113   1.88609   1.89143   1.89708
 Alpha virt. eigenvalues --    1.90825   1.91466   1.93416   1.93939   1.94534
 Alpha virt. eigenvalues --    1.94910   1.95761   1.96158   1.96609   1.97981
 Alpha virt. eigenvalues --    1.99272   2.00668   2.01220   2.02642   2.04241
 Alpha virt. eigenvalues --    2.04503   2.05236   2.06133   2.06474   2.07451
 Alpha virt. eigenvalues --    2.07903   2.07976   2.08603   2.08714   2.08861
 Alpha virt. eigenvalues --    2.09515   2.10061   2.12710   2.13978   2.14915
 Alpha virt. eigenvalues --    2.15613   2.15944   2.16659   2.17374   2.18070
 Alpha virt. eigenvalues --    2.18960   2.19088   2.20441   2.20764   2.20881
 Alpha virt. eigenvalues --    2.22030   2.23436   2.23815   2.24645   2.25243
 Alpha virt. eigenvalues --    2.25366   2.25709   2.26665   2.28314   2.28441
 Alpha virt. eigenvalues --    2.29056   2.30751   2.31426   2.31799   2.32191
 Alpha virt. eigenvalues --    2.32325   2.33028   2.33340   2.33626   2.34462
 Alpha virt. eigenvalues --    2.36013   2.36688   2.37310   2.38433   2.40522
 Alpha virt. eigenvalues --    2.42302   2.43885   2.45802   2.46701   2.48507
 Alpha virt. eigenvalues --    2.49038   2.49394   2.50330   2.50658   2.52772
 Alpha virt. eigenvalues --    2.53761   2.53783   2.55261   2.57095   2.57600
 Alpha virt. eigenvalues --    2.58713   2.58919   2.59695   2.61980   2.62990
 Alpha virt. eigenvalues --    2.64010   2.64392   2.64872   2.65611   2.66933
 Alpha virt. eigenvalues --    2.67710   2.68249   2.68626   2.69017   2.69165
 Alpha virt. eigenvalues --    2.70336   2.71515   2.72147   2.72297   2.73734
 Alpha virt. eigenvalues --    2.75573   2.76853   2.78581   2.79282   2.80130
 Alpha virt. eigenvalues --    2.81507   2.82561   2.84995   2.85934   2.87983
 Alpha virt. eigenvalues --    2.89613   2.92162   2.93206   2.94422   2.95523
 Alpha virt. eigenvalues --    2.96735   2.98722   3.02651   3.04352   3.07263
 Alpha virt. eigenvalues --    3.19291   3.19945   3.24349   3.30990   3.33425
 Alpha virt. eigenvalues --    3.37694   3.42236   3.43943   3.47433   3.56504
 Alpha virt. eigenvalues --    3.62250
          Condensed to atoms (all electrons):
 Mulliken charges:
               1
     1  C   -0.217988
     2  C   -0.179833
     3  C   -0.154662
     4  C   -0.028413
     5  C    0.077779
     6  C   -0.118302
     7  C   -0.114834
     8  C    0.144408
     9  C    0.153377
    10  C   -0.121106
    11  C   -0.111848
    12  C    0.129563
    13  C    0.106075
    14  C   -0.265088
    15  C    0.184052
    16  C   -0.133122
    17  C   -0.033633
    18  C   -0.022670
    19  C   -0.159484
    20  C    0.087502
    21  C   -0.103027
    22  C   -0.133603
    23  C    0.203195
    24  O   -0.360975
    25  C   -0.123710
    26  C   -0.109583
    27  C    0.148154
    28  C   -0.126843
    29  C   -0.034345
    30  C   -0.022704
    31  C   -0.158416
    32  C    0.099711
    33  C    0.119400
    34  O   -0.355496
    35  C   -0.073927
    36  C   -0.126203
    37  C   -0.118004
    38  C   -0.109839
    39  H    0.080511
    40  H    0.082862
    41  H    0.087888
    42  H    0.064173
    43  H    0.096162
    44  H    0.068469
    45  H    0.070264
    46  H    0.062081
    47  H    0.071235
    48  H    0.033480
    49  H    0.038285
    50  H    0.039146
    51  H    0.038066
    52  H    0.032689
    53  H    0.034951
    54  H    0.046631
[...]
 -0.00062750,0.00057619,0.00005120,-0.00028226,-0.00038678,-0.00002743,
 0.00000719,-0.00000511,-0.00000448,0.00000061,0.00000285,0.00000396,-0
 .00000447,0.00000034,0.00000426,-0.00000140,0.00000104,0.00000447,0.00
 000173,0.00000092,-0.00001152,-0.00000505,-0.00001601,0.00000089,0.000
 00091,0.00000142,0.00000095,0.00000215,-0.00000032,0.00000105,0.000001
 98,0.00000046,0.00000082,0.00000291,-0.00000117,-0.00000043,0.00000104
 ,-0.00000281,-0.00000115,-0.00000006,0.00001077,-0.00001527,-0.0000115
 9,-0.00001644,0.00015191,-0.00041357,-0.00232513,-0.09512493,0.2421159
 7,-0.00000419,-0.00000179,-0.00000373,0.00002326,0.00000150,-0.0000006
 2,-0.00001621,-0.00000116,0.00000273,0.00003415,0.00005404,0.00002215,
 -0.00005594,-0.00019912,0.00046171,0.00053622,-0.00011391,-0.00024184,
 -0.00091270,-0.00068414,0.00022949,-0.00214387,-0.00139529,-0.00251047
 ,-0.00531406,0.01060676,-0.00229900,0.00209616,0.00386875,0.00363733,0
 .00058933,-0.00054282,-0.00031240,0.00038370,0.00226782,0.00607647,-0.
 00010316,0.00013929,0.00015254,-0.00002742,-0.00002434,-0.00010343,-0.
 00006910,0.00000112,0.00001316,0.00000790,-0.00002096,-0.00000195,-0.0
 0001228,-0.00000493,-0.00000072,0.00000167,0.00000256,-0.00000023,-0.0
 0000450,0.00000760,-0.00000268,0.00001032,0.00001502,0.00000574,0.0000
 0171,-0.00000923,-0.00001204,-0.00000074,0.00000533,0.00000508,-0.0000
 0168,-0.00000310,0.00000745,0.00000097,-0.00000331,-0.00001249,0.00000
 349,0.00000191,-0.00000193,0.00000025,-0.00000482,0.00000293,-0.000003
 13,-0.00000351,-0.00000482,0.00000027,-0.00000377,0.00000103,-0.000000
 77,-0.00000128,-0.00000466,0.00000394,0.00000113,0.00000485,0.00000461
 ,0.00000470,0.00000246,-0.00000368,-0.00000143,-0.00000810,-0.00000507
 ,0.00015531,-0.00000094,-0.00004165,-0.00014421,-0.00006475,0.00035032
 ,0.00097985,0.00344126,-0.04710382,0.10804324,-0.09825456,0.00095153,0
 .00006372,-0.00034888,-0.00042659,0.00028116,-0.00025141,-0.00000836,0
 .00000134,0.00000003,0.00000450,-0.00000289,0.00000446,0.00000435,-0.0
 0000021,-0.00000256,-0.00000663,-0.00000319,0.00000142,-0.00000969,0.0
 0000338,-0.00000584,-0.00000947,0.00000443,-0.00000251,0.00000276,0.00
 000154,0.00000258,0.00000379,-0.00000071,0.00000646,-0.00000405,-0.000
 00189,-0.00001566,-0.00001972,-0.00000382,-0.00000978,-0.00079503,-0.0
 0005611,0.00012770,-0.00028147,0.00061658,-0.00010742,-0.00008021,-0.0
 0038430,-0.00068521,-0.00002830,-0.00001109,-0.00002388,0.00000194,-0.
 00000133,0.00000099,-0.00000133,0.00000139,0.00000057,-0.00000187,0.00
 000026,0.00000065,-0.00000335,-0.00000042,0.00000081,0.00000141,0.0000
 0585,0.00001316,-0.00000226,0.00000035,-0.00000080,-0.00000230,-0.0000
 0095,0.00000046,-0.00000244,-0.00000101,-0.00000040,-0.00000104,-0.000
 00027,0.00000163,0.00000094,0.00000268,-0.00000205,-0.00000031,-0.0000
 0156,0.00000102,-0.00002428,0.00003645,-0.00001391,-0.00018756,-0.0023
 2060,-0.00312644,0.05268945,-0.12117901,0.09419640,0.00000834,-0.00000
 818,0.00002743,-0.00000755,0.00003271,-0.00004062,-0.00013843,-0.00011
 525,-0.00002462,0.00009725,0.00034984,-0.00118171,-0.00521716,0.000808
 12,0.00152486,-0.00066333,-0.00035955,0.00067102,-0.00165889,-0.000476
 53,0.00298427,0.01062856,-0.00638891,0.01411518,0.00073798,-0.00031158
 ,-0.00000098,-0.00061498,0.00033772,0.00062777,-0.00034169,-0.00014301
 ,-0.00011733,0.00002006,0.00018322,-0.00012947,-0.00006474,0.00000845,
 -0.00000928,0.00001691,0.00001652,0.00000355,-0.00000022,-0.00000394,0
 .00000279,0.00000451,0.00001396,0.00000372,0.00001095,0.00000282,0.,0.
 00000715,-0.00001023,-0.00000135,-0.00000906,-0.00000376,-0.00000141,0
 .00001656,-0.00000488,0.00000190,-0.00000194,0.00000604,0.00000235,0.0
 0000285,-0.00000857,-0.00000634,-0.00000068,0.00000393,-0.00000661,0.0
 0000586,0.00000203,0.00000939,-0.00000192,-0.00000189,-0.00000123,0.00
 000075,0.00000314,-0.00000255,0.00000257,0.00000283,0.00000250,-0.0000
 0055,0.00000062,-0.00000178,0.00000173,0.00000104,0.00000217,-0.000000
 04,-0.00000342,0.00000220,-0.00000143,-0.00000176,-0.00000657,0.000005
 08,-0.00000302,0.00001251,0.00000658,-0.00000213,0.00000062,0.00002815
 ,0.00000915,0.00000504,0.00017877,-0.00002245,0.00002974,-0.00001041,-
 0.00012929,0.00006433,-0.10893667,0.04489980,-0.09810342,-0.00873988,0
 .01234888,-0.02708542,0.00000117,-0.00000136,-0.00000376,-0.00000156,-
 0.00000446,-0.00000121,-0.00000201,0.00002387,0.00001553,-0.00002248,-
 0.00001235,0.00001072,0.00001417,-0.00000358,-0.00001708,-0.00002815,0
 .00008845,0.00004205,0.00001727,0.00000630,0.00000616,0.00001239,-0.00
 003555,0.00006445,-0.00034343,0.00007023,-0.00005815,-0.00000366,-0.00
 004310,-0.00011521,0.00051017,-0.00032291,0.00085405,-0.00111419,0.000
 64693,0.00071199,0.00002873,0.00002464,0.00005775,-0.00000496,0.000007
 78,0.00000347,-0.00000318,0.00000039,0.,0.00000267,-0.00000302,-0.0000
 0085,0.00000292,-0.00000081,0.,0.00000257,0.00000124,0.00000007,-0.000
 00750,-0.00000134,-0.00001277,0.00000091,0.00000057,0.00000118,0.00000
 095,0.00000169,-0.00000030,0.00000106,0.00000152,0.00000059,0.00000027
 ,0.00000162,-0.00000097,-0.00000107,-0.00000046,-0.00000004,-0.0000008
 1,0.00000096,0.00000428,-0.00000710,-0.00001203,-0.00000232,0.00001335
 ,-0.00000210,-0.00001438,0.00002467,0.00005815,-0.00000975,0.11434363,
 -0.00001533,-0.00000714,-0.00000382,0.00008398,-0.00000027,0.00002936,
 -0.00003278,0.00009155,0.00006305,0.00014410,0.00005288,0.00009105,0.0
 0095863,0.00651553,0.00145157,-0.00054049,-0.00042769,-0.00038522,-0.0
 0081570,0.00497741,0.00306526,0.00321864,0.00057831,0.00733012,0.00159
 124,-0.00324446,-0.00124147,0.00095875,0.00014642,-0.00085714,-0.00050
 740,-0.00024334,0.00002132,0.00004414,0.00038575,-0.00023187,-0.000005
 07,0.00001448,0.00003504,0.00000308,0.00001406,-0.00000133,-0.00000328
 ,-0.00000643,-0.00000498,0.00000407,0.00000546,0.00000115,0.00000061,-
 0.00000185,-0.00000070,0.00000176,0.00000019,-0.00000017,0.00000033,-0
 .00000376,-0.00000085,-0.00000221,0.00000662,0.00000109,0.00000853,-0.
 00000257,-0.00000310,0.00000352,-0.00000176,-0.00000224,-0.00000200,-0
 .00000325,0.00000330,0.00000541,0.00000085,-0.00000563,0.00000129,0.00
 000103,-0.00000159,0.00000071,-0.00000129,0.00000102,-0.00000032,0.000
 00013,-0.00000089,-0.00000004,-0.00000148,0.00000026,0.00000017,-0.000
 00038,-0.00000112,0.00000105,-0.00000026,0.00000117,0.00000127,0.00000
 091,-0.00000084,0.00000025,-0.00000197,0.00000223,-0.00000970,0.000031
 42,0.00001307,0.00002120,-0.00002911,-0.00002183,0.00040016,-0.0002613
 3,0.00030476,-0.00098125,-0.00020017,0.00022433,0.04462986,-0.07807144
 ,0.09083567,0.00094238,0.00246272,0.00326956,-0.00001060,0.00000324,-0
 .00000268,0.00000383,0.00000133,0.00000215,0.00000625,-0.00001173,-0.0
 0001129,-0.00000300,0.00000597,0.00000010,-0.00003628,0.00002021,0.000
 01324,-0.00002493,-0.00002491,0.00000626,-0.00001126,-0.00002524,0.000
 00461,-0.00002229,-0.00003714,0.00000373,0.00013102,-0.00003466,-0.000
 02328,-0.00004547,-0.00085553,-0.00032215,0.00021163,0.00005722,0.0004
 3342,0.00096463,-0.00014041,-0.00017816,0.00001050,-0.00000676,-0.0000
 1262,-0.00000091,-0.00000434,0.00000614,-0.00000103,-0.00000152,-0.000
 00023,0.00000112,-0.00000096,0.,0.00000040,-0.00000027,0.00000022,-0.0
 0000063,0.00000027,0.00000035,-0.00000398,0.00000306,0.00000290,-0.000
 00121,0.00000044,0.00000018,-0.00000064,0.00000027,0.00000023,-0.00000
 047,0.00000024,0.00000029,-0.00000027,0.00000060,0.00000006,-0.0000004
 8,0.00000054,-0.00000055,-0.00000029,-0.00000008,0.00000112,-0.0000068
 9,0.00000209,0.00000793,-0.00002347,0.00000272,0.00000035,-0.00000475,
 -0.00002037,-0.00004644,-0.05093871,0.07179518,-0.00000107,-0.00001057
 ,0.00000381,0.00001707,0.00001279,-0.00000415,-0.00002064,-0.00001870,
 0.00000502,0.00027174,-0.00002931,-0.00005417,0.00041394,0.00187958,0.
 00239386,0.00062712,-0.00050285,0.00023289,0.00413050,0.00267767,-0.00
 141160,-0.01286716,0.00935262,-0.01514877,-0.00153292,-0.00139713,-0.0
 0010805,0.00028636,0.00091970,-0.00001298,0.00012068,-0.00034813,0.000
 34049,-0.00004439,-0.00013965,0.00001273,0.00002391,-0.00004727,0.0000
 1644,0.00000712,-0.00000335,-0.00000002,-0.00000572,-0.00000501,0.0000
 0109,0.00000039,-0.00000905,-0.00000122,-0.00001004,-0.00000238,0.0000
 0027,-0.00000286,0.00000796,0.00000156,0.00000582,0.00000176,0.0000008
 1,-0.00001235,0.00000411,-0.00000180,-0.00000101,-0.00000742,-0.000005
 62,-0.00000151,0.00000735,0.00000985,0.00000184,0.00000349,-0.00000113
 ,-0.00000781,-0.00001030,-0.00000100,0.00000098,-0.00000030,0.00000192
 ,-0.00000113,-0.00000271,0.00000108,-0.00000257,-0.00000347,-0.0000015
 1,0.00000092,0.,0.00000095,-0.00000093,-0.00000172,-0.00000106,0.00000
 009,0.00000289,-0.00000352,0.00000224,0.00000081,0.00000756,-0.0000054
 9,0.00000476,-0.00001514,-0.00000519,0.00001155,0.00000061,-0.00002797
 ,-0.00001685,-0.00000449,-0.00018984,-0.00001670,0.00007251,0.00019662
 ,0.00018805,0.00013690,-0.09728056,0.09171867,-0.24452790,0.00204580,0
 .00027751,0.00296251,-0.00000660,0.00000591,-0.00000177,-0.00000018,0.
 00000220,-0.00000429,0.00000021,0.00000833,0.00000952,0.00000050,0.000
 00032,0.00000302,-0.00001673,-0.00001306,-0.00000594,-0.00002518,0.000
 01975,0.00001559,0.00000623,-0.00000921,0.00000511,-0.00002814,-0.0000
 0606,0.00000909,-0.00001465,0.00001860,-0.00001735,-0.00011870,-0.0003
 3060,-0.00017560,-0.00067822,0.00057035,-0.00079555,0.00026557,-0.0009
 4256,0.00019773,0.00002692,0.00002381,0.00000964,0.00000506,-0.0000108
 3,-0.00000733,0.00000249,-0.00000186,-0.00000148,-0.00000155,0.0000024
 2,0.,-0.00000293,0.00000067,-0.00000033,-0.00000283,-0.00000098,-0.000
 00029,0.00000842,0.00000362,0.00000968,-0.00000068,-0.00000038,-0.0000
 0101,-0.00000101,-0.00000155,0.00000022,-0.00000126,-0.00000143,-0.000
 00055,-0.00000093,-0.00000188,0.00000126,0.00000060,0.00000075,0.00000
 118,0.00000027,0.,-0.00000486,0.00000563,0.00001361,0.00000003,0.00000
 581,-0.00002117,-0.00001918,-0.00007458,-0.00013222,0.00001029,0.10494
 612,-0.10196644,0.25572169,-0.00006845,-0.00002252,-0.00003223,0.00009
 912,0.00013072,-0.00001147,0.00009035,0.00002750,0.00011323,0.00116852
 ,0.00031128,-0.00141522,0.00927430,0.00406626,-0.01108725,-0.00053805,
 0.00172383,-0.00228852,-0.00045669,0.00030727,-0.00078496,-0.00489656,
 0.00189670,-0.00145237,0.00000939,-0.00063951,0.00126807,-0.00005839,-
 0.00008208,-0.00003699,-0.00000326,0.00002122,-0.00002259,-0.00002370,
 -0.00000093,-0.00000947,0.00006641,0.00001628,0.00001387,-0.00002288,-
 0.00001578,0.00000002,0.00000069,0.00000482,-0.00000792,-0.00000480,-0
 .00001293,-0.00000427,-0.00001053,-0.00000350,-0.00000030,-0.00000799,
 0.00001017,0.00000101,0.00000921,0.00000355,0.00000141,-0.00001778,0.0
 0000665,-0.00000197,0.00000388,-0.00000584,-0.00000214,-0.00000257,0.0
 0000828,0.00000446,-0.00000061,-0.00000902,0.00001181,-0.00000236,0.00
 000258,-0.00001564,0.00000272,0.00000327,0.00000032,-0.00000037,-0.000
 00370,0.00000347,-0.00000260,-0.00000241,-0.00000321,0.00000035,-0.000
 00136,0.00000213,-0.00000190,-0.00000068,-0.00000301,0.00000031,0.0000
 0344,-0.00000133,0.00000154,0.00000258,0.00000577,-0.00000487,0.000001
 41,-0.00001045,-0.00000817,0.00001279,0.00000208,-0.00002027,-0.000016
 28,-0.00001582,-0.00002180,-0.00012265,0.00000753,-0.00039877,0.000174
 95,-0.00010031,-0.01244659,-0.00920450,0.02629103,-0.13875507,-0.04003
 022,0.11881191,-0.00001039,0.00002197,0.00000184,0.00000396,0.00000046
 ,-0.00000357,0.00000709,-0.00002630,-0.00001547,0.00004828,0.00006703,
 0.00003687,-0.00012518,-0.00001795,0.00006596,0.00000627,-0.00005253,-
 0.00004941,-0.00001637,-0.00004901,-0.00002675,-0.00002706,-0.00021247
 ,0.00006758,-0.00001146,0.00000410,0.00007589,0.00048994,0.00028105,-0
 .00058719,-0.00003173,-0.00012080,0.00005289,0.00003558,0.00001976,0.0
 0001513,-0.00002751,0.00001395,-0.00000460,0.00000448,-0.00000835,0.00
 000111,0.00000304,-0.00000041,0.00000061,-0.00000255,0.00000282,0.0000
 0118,-0.00000273,0.00000074,0.00000020,-0.00000267,-0.00000122,0.00000
 017,0.00000465,0.00000113,0.00001571,-0.00000136,-0.00000056,-0.000001
 15,-0.00000106,-0.00000158,0.00000034,-0.00000110,-0.00000144,-0.00000
 054,-0.00000015,-0.00000135,0.00000086,0.00000114,0.00000061,-0.000000
 60,0.00000095,-0.00000136,-0.00000353,0.00000595,0.00001099,0.00000562
 ,-0.00004005,0.00000448,0.00000779,0.00002363,-0.00000069,0.00002099,0
 .00119219,-0.00030144,-0.00043163,0.14552245,-0.00007768,-0.00005261,-
 0.00015678,0.00003749,0.00008178,0.00015615,0.00072045,0.00013555,0.00
 047043,-0.00097618,-0.00325928,-0.00208925,-0.00757888,0.00064470,0.00
 982720,0.00235178,0.00453470,0.00356318,0.00031009,-0.00053528,-0.0002
 4218,0.00115218,0.00617057,0.00208595,0.00017875,0.00028310,0.00001707
 ,-0.00000955,-0.00005706,-0.00004054,0.00001118,0.00000789,0.00000926,
 -0.00002378,0.00001241,-0.00000877,0.00002536,-0.00000630,-0.00000330,
 -0.00000534,0.00000172,0.00000080,0.00000085,-0.00000229,-0.00000239,0
 .00000025,-0.00000114,-0.00000028,-0.00000334,-0.00000216,-0.00000008,
 -0.00000189,0.00000380,0.00000057,0.00000399,-0.00000053,0.00000007,-0
 .00000832,0.00000419,-0.00000043,0.00000498,-0.00000439,-0.00000066,0.
 00000069,0.00000230,0.00000282,0.00000011,0.00000071,0.00000066,-0.000
 00138,-0.00000402,-0.00000249,0.00000095,0.00000023,0.00000015,0.,-0.0
 0000144,0.00000099,-0.00000130,-0.00000150,-0.00000120,0.00000049,-0.0
 0000053,0.00000064,-0.00000041,-0.00000072,-0.00000123,0.00000071,0.00
 000115,-0.00000035,0.00000126,0.00000065,0.00000256,-0.00000195,0.0000
 0106,-0.00000508,-0.00001014,0.00001715,0.00000408,-0.00000013,-0.0000
 1784,-0.00000696,0.00005143,-0.00001395,0.00002020,0.00006840,-0.00005
 886,-0.00008278,0.00273692,0.00446574,-0.00295189,-0.03969765,-0.06192
 044,0.06740109,-0.00005614,0.00007497,0.00000514,-0.00000673,0.0000750
 7,-0.00001142,0.00000812,-0.00001870,0.00000327,0.00025984,-0.00002035
 ,-0.00014031,-0.00022118,-0.00023249,0.00013095,0.00003340,-0.00021293
 ,-0.00009143,-0.00004876,0.00002585,-0.00008300,0.00029281,0.00011336,
 0.00017479,-0.00035261,0.00035318,-0.00024470,-0.00034866,0.00000220,0
 .00055737,-0.00011416,-0.00081922,-0.00033657,0.00005966,0.00000280,-0
 .00000232,0.00000124,0.00000212,-0.00000015,0.00000114,-0.00000275,-0.
 00000063,0.00000043,-0.00000096,-0.00000036,-0.00000016,0.00000063,0.0
 0000013,-0.00000096,0.00000023,-0.00000004,-0.00000132,-0.00000036,0.0
 0000005,0.00000191,0.00000260,0.00000491,-0.00000071,0.00000012,-0.000
 00039,-0.00000077,-0.00000061,0.00000021,-0.00000083,-0.00000055,-0.00
 000019,-0.00000040,-0.00000046,0.00000065,0.00000014,0.00000057,0.0000
 0002,-0.00000008,-0.00000015,-0.00000128,0.00000066,0.00000593,0.00000
 282,0.00000309,0.00000573,0.00001053,0.00000896,-0.00002159,0.00000385
 ,-0.00058502,-0.00350517,-0.00172854,0.04180673,0.05374188,-0.00000898
 ,0.00003262,0.00009348,0.00002662,-0.00006180,-0.00014493,-0.00002580,
 0.00004193,0.00016153,0.00211347,-0.00144302,-0.00020328,0.01541816,0.
 00678128,-0.01565201,-0.00316778,0.00381426,-0.00189518,-0.00095288,-0
 .00023841,0.00013294,-0.00054284,0.00210761,0.00256485,-0.00016697,0.0
 0011978,0.00011651,0.00007126,-0.00003847,-0.00003708,-0.00000359,0.00
 001306,0.00000266,0.00000558,0.00001810,0.00000232,-0.00003186,-0.0000
 1463,-0.00001292,0.00001070,0.00001356,-0.00000080,0.00000078,-0.00000
 352,0.00000472,0.00000274,0.00000915,0.00000267,0.00000689,0.00000230,
 -0.00000010,0.00000442,-0.00000604,-0.00000074,-0.00000497,-0.00000309
 ,-0.00000121,0.00000926,-0.00000277,0.00000125,-0.00000048,0.00000166,
 0.00000094,0.00000184,-0.00000485,-0.00000401,-0.00000087,0.00000204,-
 0.00000378,0.00000425,0.00000107,0.00000544,-0.00000089,-0.00000125,-0
 .00000083,0.00000027,0.00000150,-0.00000192,0.00000186,0.00000196,0.00
 000188,-0.00000035,0.00000024,-0.00000142,0.00000142,0.00000009,0.0000
 0189,-0.00000007,-0.00000233,0.00000046,-0.00000045,-0.00000133,-0.000
 00390,0.00000309,-0.00000152,0.00000714,-0.00000008,-0.00000130,0.0000
 0203,0.00001516,0.00000211,0.00000333,0.00002605,-0.00002142,0.0000110
 4,0.00002922,-0.00006633,-0.00004296,-0.00243947,0.00005845,0.00380712
 ,0.11843372,0.06772546,-0.22739888,0.00001726,-0.00002036,0.00000080,0
 .00000764,-0.00005300,0.00001035,0.00000027,-0.00000830,-0.00001404,-0
 .00014514,-0.00004883,0.00010689,0.00010836,0.00004043,-0.00003493,0.0
 0001847,-0.00000237,0.00002401,0.00004020,-0.00019004,0.00003833,-0.00
 122670,-0.00030158,0.00048283,-0.00020816,-0.00013717,0.00025161,0.000
 81210,0.00035486,-0.00084970,0.00005140,-0.00035152,-0.00016935,0.0000
 2158,0.00002298,-0.00000488,0.00000943,-0.00000644,0.00000383,-0.00000
 263,0.00000515,-0.00000015,-0.00000211,0.00000030,0.,0.00000169,-0.000
 00207,-0.00000057,0.00000199,-0.00000049,0.00000003,0.00000148,0.00000
 088,0.00000007,-0.00000486,-0.00000060,-0.00000747,0.00000029,0.000000
 32,0.00000086,0.00000052,0.00000124,-0.00000011,0.00000065,0.00000111,
 0.00000060,-0.00000015,0.00000108,-0.00000065,-0.00000111,-0.00000031,
 0.00000053,-0.00000075,0.00000104,0.00000228,-0.00000612,-0.00000556,-
 0.00000140,0.00000485,0.00000430,0.00000161,-0.00000766,-0.00002163,0.
 00000313,0.00014570,-0.00189902,0.00014278,-0.12847694,-0.07622056,0.2
 3849446\\0.00000108,-0.00000127,0.00000140,-0.00000302,0.00000564,-0.0
 0000074,0.00000153,-0.00000444,0.00000109,-0.00000446,0.,0.00000088,-0
 .00000243,0.00000121,-0.00000333,-0.00000054,-0.00000053,-0.00000477,0
 .00000122,0.00000044,-0.00000173,0.00000692,0.00000094,-0.00000080,-0.
 00000832,-0.00000402,0.00000244,-0.00000340,0.00000150,0.00000096,0.00
 000185,-0.00000374,0.00000101,0.00000740,-0.00000299,-0.00000150,0.000
 00039,-0.00000141,0.00000242,-0.00000818,-0.00000190,-0.00000086,0.000
 00294,-0.00000150,-0.00000029,-0.00000478,-0.00000254,0.00000057,0.000
 00555,-0.00000097,-0.00000025,0.00000385,-0.00000602,-0.00000110,0.000
 00191,0.00000585,0.00000014,-0.00000055,-0.00000357,0.00000054,-0.0000
 0442,0.00000564,-0.00000129,0.00000045,-0.00000274,-0.00000150,0.00000
 298,-0.00000176,0.00000361,-0.00000366,-0.00000545,-0.00000308,-0.0000
 0040,0.00000254,-0.00000242,0.00000473,0.00000238,0.00000510,-0.000000
 79,0.00000128,-0.00000185,0.00000221,0.00000298,0.00000174,-0.00000100
 ,0.00000031,-0.00000485,-0.00000028,0.00000279,-0.00000534,-0.00000252
 ,-0.00000438,0.00000037,-0.00000143,0.00000152,0.00000300,0.00000079,0
 .00000089,-0.00000057,0.00000707,0.00000636,0.00000071,-0.00000545,0.0
 0000740,-0.00000274,0.00000541,0.00000331,-0.00000202,-0.00000042,-0.0
 0000176,0.00000177,0.00000050,0.00000012,0.00000719,0.00000450,0.00000
 073,0.00000034,-0.00000264,-0.00000180,0.00000321,-0.00000148,-0.00000
 097,-0.00000490,0.00000125,0.00000106,-0.00000074,-0.00000195,0.000000
 38,-0.00000041,0.00000174,0.00000066,0.00000082,-0.00000024,-0.0000014
 5,0.00000169,0.00000091,0.00000085,-0.00000249,0.00000188,0.00000207,0
 .00000130,0.00000066,-0.00000060,0.00000327,-0.00000307,-0.00000073,0.
 00000166,0.00000334,0.00000065,-0.00000041,-0.00000207,0.00000235,-0.0
 0000055,0.00000301,0.00000174,0.00000117,0.00000197,0.00000173,0.00000
 025,-0.00000187,0.00000199,0.00000066,-0.00000281,0.00000120,0.0000004
 0,-0.00000109,-0.00000372,-0.00000123,0.00000475,0.00000603,0.00000470
 ,-0.00000133,-0.00000101,-0.00000132,-0.00000213,-0.00000234,-0.000000
 91,-0.00000128,-0.00000214,-0.00000120,-0.00000039,-0.00000144,0.00000
 219,0.00000112,-0.00000076,0.00000263,0.00000147,0.00000226,-0.0000001
 3,-0.00000724,-0.00000498,-0.00000145,-0.00000095,-0.00000298,0.000000
 05,0.00000213,-0.00000177,0.00000172,-0.00000269,0.00000094,-0.0000013
 8,0.00000176,-0.00000008,-0.00000284\\\@
 The archive entry for this job was punched.


 TELEVISION IS CALLED A MEDIUM BECAUSE IT ISN'T
 RARE, AND IT ISN'T WELL DONE.
 Job cpu time:       0 days  6 hours  3 minutes 27.5 seconds.
 Elapsed time:       0 days  0 hours 11 minutes 24.7 seconds.
 File lengths (MBytes):  RWF=   2591 Int=      0 D2E=      0 Chk=     32 Scr=      1
 Normal termination of Gaussian 16 at Mon Mar 24 22:26:56 2025.
