 Entering Gaussian System, Link 0=g16
 Initial command:
 /public/software/apps/Gaussian/g16/l1.exe "/tmp/Gau-64005.inp" -scrdir="/tmp/"
 Entering Link 1 = /public/software/apps/Gaussian/g16/l1.exe PID=     64007.
  
 Copyright (c) 1988-2019, Gaussian, Inc.  All Rights Reserved.
  
 This is part of the Gaussian(R) 16 program.  It is based on
 the Gaussian(R) 09 system (copyright 2009, Gaussian, Inc.),
 the Gaussian(R) 03 system (copyright 2003, Gaussian, Inc.),
 the Gaussian(R) 98 system (copyright 1998, Gaussian, Inc.),
 the Gaussian(R) 94 system (copyright 1995, Gaussian, Inc.),
 the Gaussian 92(TM) system (copyright 1992, Gaussian, Inc.),
 the Gaussian 90(TM) system (copyright 1990, Gaussian, Inc.),
 the Gaussian 88(TM) system (copyright 1988, Gaussian, Inc.),
 the Gaussian 86(TM) system (copyright 1986, Carnegie Mellon
 University), and the Gaussian 82(TM) system (copyright 1983,
 Carnegie Mellon University). Gaussian is a federally registered
 trademark of Gaussian, Inc.
  
 This software contains proprietary and confidential information,
 including trade secrets, belonging to Gaussian, Inc.
  
 This software is provided under written license and may be
 used, copied, transmitted, or stored only in accord with that
 written license.
  
 The following legend is applicable only to US Government
 contracts under FAR:
  
                    RESTRICTED RIGHTS LEGEND
  
 Use, reproduction and disclosure by the US Government is
 subject to restrictions as set forth in subparagraphs (a)
 and (c) of the Commercial Computer Software - Restricted
 Rights clause in FAR 52.227-19.
  
 Gaussian, Inc.
 340 Quinnipiac St., Bldg. 40, Wallingford CT 06492
  
  
 ---------------------------------------------------------------
 Warning -- This program may not be used in any manner that
 competes with the business of Gaussian, Inc. or will provide
 assistance to any competitor of Gaussian, Inc.  The licensee
 of this program is prohibited from giving any competitor of
 Gaussian, Inc. access to this program.  By using this program,
 the user acknowledges that Gaussian, Inc. is engaged in the
 business of creating and licensing software in the field of
 computational chemistry and represents and warrants to the
 licensee that it is not a competitor of Gaussian, Inc. and that
 it will not use this program in any manner prohibited above.
 ---------------------------------------------------------------
  

 Cite this work as:
 Gaussian 16, Revision C.01,
 M. J. Frisch, G. W. Trucks, H. B. Schlegel, G. E. Scuseria, 
 M. A. Robb, J. R. Cheeseman, G. Scalmani, V. Barone, 
 G. A. Petersson, H. Nakatsuji, X. Li, M. Caricato, A. V. Marenich, 
 J. Bloino, B. G. Janesko, R. Gomperts, B. Mennucci, H. P. Hratchian, 
 J. V. Ortiz, A. F. Izmaylov, J. L. Sonnenberg, D. Williams-Young, 
 F. Ding, F. Lipparini, F. Egidi, J. Goings, B. Peng, A. Petrone, 
 T. Henderson, D. Ranasinghe, V. G. Zakrzewski, J. Gao, N. Rega, 
 G. Zheng, W. Liang, M. Hada, M. Ehara, K. Toyota, R. Fukuda, 
 J. Hasegawa, M. Ishida, T. Nakajima, Y. Honda, O. Kitao, H. Nakai, 
 T. Vreven, K. Throssell, J. A. Montgomery, Jr., J. E. Peralta, 
 F. Ogliaro, M. J. Bearpark, J. J. Heyd, E. N. Brothers, K. N. Kudin, 
 V. N. Staroverov, T. A. Keith, R. Kobayashi, J. Normand, 
 K. Raghavachari, A. P. Rendell, J. C. Burant, S. S. Iyengar, 
 J. Tomasi, M. Cossi, J. M. Millam, M. Klene, C. Adamo, R. Cammi, 
 J. W. Ochterski, R. L. Martin, K. Morokuma, O. Farkas, 
 J. B. Foresman, and D. J. Fox, Gaussian, Inc., Wallingford CT, 2019.
 
 ******************************************
 Gaussian 16:  ES64L-G16RevC.01  3-Jul-2019
                24-Mar-2025 
 ******************************************
 %nprocshared=32
 Will use up to   32 processors via shared memory.
 %mem=100GB
 ------------------------------------------
 #p opt freq b3lyp/def2svpp em=gd3bj nosymm
 ------------------------------------------
 1/18=20,19=15,26=3,38=1/1,3;
 2/9=110,12=2,15=1,17=6,18=5,40=1/2;
 3/5=43,7=202,11=2,25=1,30=1,71=1,74=-5,124=41/1,2,3;
 4//1;
 5/5=2,38=5/2;
 6/7=2,8=2,9=2,10=2,28=1/1;
 7/30=1/1,2,3,16;
 1/18=20,19=15,26=3/3(2);
 2/9=110,15=1/2;
 99//99;
 2/9=110,15=1/2;
 3/5=43,7=202,11=2,25=1,30=1,71=1,74=-5,124=41/1,2,3;
 4/5=5,16=3,69=1/1;
 5/5=2,38=5/2;
 7/30=1/1,2,3,16;
 1/18=20,19=15,26=3/3(-5);
 2/9=110,15=1/2;
 6/7=2,8=2,9=2,10=2,19=2,28=1/1;
 99/9=1/99;
 Leave Link    1 at Mon Mar 24 23:47:21 2025, MaxMem= 13421772800 cpu:               1.7 elap:               0.1
 (Enter /public/software/apps/Gaussian/g16/l101.exe)
 ----------------------
 $$$$Singlemol####0????
 ----------------------
 Symbolic Z-matrix:
 Charge =  0 Multiplicity = 1
 C                    -4.09663   3.02229   0.48843 
 C                    -4.26878   1.57691   0.96031 
 C                    -5.41117   1.52633   1.97921 
 C                    -2.98089   1.13559   1.66274 
 Si                   -4.67061   0.42465  -0.53673 
 C                    -6.44803   0.65373  -1.16005 
 C                    -3.43459   0.74027  -1.95859 
 O                    -4.73473  -1.14144  -0.02288 
 C                    -3.83745  -2.08512   0.31642 
 C                    -4.28248  -3.22911   0.97643 
 C                    -3.38392  -4.22463   1.31441 
 C                    -2.039    -4.10083   1.01224 
 C                    -1.58199  -2.96012   0.36184 
 C                    -0.16492  -2.77618  -0.0037 
 C                     0.52085  -3.72736  -0.71476 
 C                     1.82876  -3.49654  -1.1824 
 C                     2.5291   -4.46578  -1.93025 
 C                     3.77574  -4.20227  -2.42333 
 C                     4.37099  -2.95116  -2.20033 
 C                     3.72198  -1.99206  -1.47443 
 C                     2.44467  -2.24211  -0.92979 
 C                     1.75795  -1.28234  -0.14447 
 C                     2.34183   0.04286   0.17455 
 C                     1.72364   1.17493  -0.32036 
 O                     0.65149   1.09989  -1.15554 
 C                     2.21846   2.46784  -0.01289 
 C                     1.51585   3.66549  -0.50274 
 C                     0.14259   3.80394  -0.32367 
 C                    -0.50854   4.94266  -0.75917 
 C                     0.20044   5.95634  -1.38196 
 C                     1.56716   5.82758  -1.56278 
 C                     2.22184   4.69174  -1.12322 
 C                     3.34993   2.58056   0.75314 
 C                     4.00597   1.45123   1.27852 
 C                     5.15654   1.57046   2.08475 
 C                     5.75765   0.46434   2.61634 
 C                     5.22368  -0.80961   2.37259 
 C                     4.11254  -0.95945   1.59032 
 C                     3.48243   0.16035   1.00789 
 C                     0.48585  -1.55891   0.32378 
 O                    -0.11484  -0.62817   1.11659 
 C                    -2.48878  -1.96061   0.01622 
 H                    -3.89409   3.67617   1.3361 
 H                    -3.26921   3.10454  -0.21148 
 H                    -4.99852   3.37573  -0.00589 
 H                    -5.17344   2.13981   2.84799 
 H                    -6.33416   1.89899   1.54223 
 H                    -5.58061   0.50655   2.31861 
 H                    -2.76496   1.7908    2.50624 
 H                    -3.08331   0.12072   2.04491 
 H                    -2.12972   1.17257   0.98686 
 H                    -7.17448   0.30495  -0.43411 
 H                    -6.65395   1.69846  -1.36393 
 H                    -6.61322   0.10191  -2.07961 
 H                    -3.77297   1.56444  -2.57858 
 H                    -2.43615   0.99706  -1.61356 
 H                    -3.35035  -0.13185  -2.60184 
 H                    -5.33135  -3.32312   1.20923 
 H                    -3.73848  -5.10931   1.82197 
 H                    -1.34051  -4.87663   1.28638 
 H                     0.03473  -4.66094  -0.95851 
 H                     2.05572  -5.42084  -2.10852 
 H                     4.30672  -4.94975  -2.99406 
 H                     5.35009  -2.74991  -2.60929 
 H                     4.18135  -1.02994  -1.305 
 H                     0.4526    0.16814  -1.32054 
 H                    -0.40834   3.02047   0.17353 
 H                    -1.574     5.04406  -0.60947 
 H                    -0.31032   6.84463  -1.72436 
 H                     2.12479   6.61546  -2.04873 
 H                     3.28694   4.58793  -1.27409 
 H                     3.73498   3.56233   0.98942 
 H                     5.55115   2.55811   2.27765 
 H                     6.63925   0.56305   3.23274 
 H                     5.6973   -1.67591   2.81126 
 H                     3.70381  -1.94302   1.41233 
 H                    -0.96492  -0.96548   1.43031 
 H                    -2.16115  -1.08772  -0.52495 
 
 ITRead=  0  0  0  0  0  0  0  0  0  0  0  0  0  0  0  0  0  0  0  0
 ITRead=  0  0  0  0  0  0  0  0  0  0  0  0  0  0  0  0  0  0  0  0
 ITRead=  0  0  0  0  0  0  0  0  0  0  0  0  0  0  0  0  0  0  0  0
 ITRead=  0  0  0  0  0  0  0  0  0  0  0  0  0  0  0  0  0  0
 MicOpt= -1 -1 -1 -1 -1 -1 -1 -1 -1 -1 -1 -1 -1 -1 -1 -1 -1 -1 -1 -1
 MicOpt= -1 -1 -1 -1 -1 -1 -1 -1 -1 -1 -1 -1 -1 -1 -1 -1 -1 -1 -1 -1
 MicOpt= -1 -1 -1 -1 -1 -1 -1 -1 -1 -1 -1 -1 -1 -1 -1 -1 -1 -1 -1 -1
 MicOpt= -1 -1 -1 -1 -1 -1 -1 -1 -1 -1 -1 -1 -1 -1 -1 -1 -1 -1
 NAtoms=     78 NQM=       78 NQMF=       0 NMMI=      0 NMMIF=      0
                NMic=       0 NMicF=      0.
                    Isotopes and Nuclear Properties:
 (Nuclear quadrupole moments (NQMom) in fm**2, nuclear magnetic moments (NMagM)
  in nuclear magnetons)

  Atom         1           2           3           4           5           6           7           8           9          10
 IAtWgt=          12          12          12          12          28          12          12          16          12          12
 AtmWgt=  12.0000000  12.0000000  12.0000000  12.0000000  27.9769284  12.0000000  12.0000000  15.9949146  12.0000000  12.0000000
 NucSpn=           0           0           0           0           0           0           0           0           0           0
 AtZEff=  -0.0000000  -0.0000000  -0.0000000  -0.0000000  -0.0000000  -0.0000000  -0.0000000  -0.0000000  -0.0000000  -0.0000000
 NQMom=    0.0000000   0.0000000   0.0000000   0.0000000   0.0000000   0.0000000   0.0000000   0.0000000   0.0000000   0.0000000
 NMagM=    0.0000000   0.0000000   0.0000000   0.0000000   0.0000000   0.0000000   0.0000000   0.0000000   0.0000000   0.0000000
 AtZNuc=   6.0000000   6.0000000   6.0000000   6.0000000  14.0000000   6.0000000   6.0000000   8.0000000   6.0000000   6.0000000

  Atom        11          12          13          14          15          16          17          18          19          20
 IAtWgt=          12          12          12          12          12          12          12          12          12          12
 AtmWgt=  12.0000000  12.0000000  12.0000000  12.0000000  12.0000000  12.0000000  12.0000000  12.0000000  12.0000000  12.0000000
 NucSpn=           0           0           0           0           0           0           0           0           0           0
 AtZEff=  -0.0000000  -0.0000000  -0.0000000  -0.0000000  -0.0000000  -0.0000000  -0.0000000  -0.0000000  -0.0000000  -0.0000000
 NQMom=    0.0000000   0.0000000   0.0000000   0.0000000   0.0000000   0.0000000   0.0000000   0.0000000   0.0000000   0.0000000
 NMagM=    0.0000000   0.0000000   0.0000000   0.0000000   0.0000000   0.0000000   0.0000000   0.0000000   0.0000000   0.0000000
 AtZNuc=   6.0000000   6.0000000   6.0000000   6.0000000   6.0000000   6.0000000   6.0000000   6.0000000   6.0000000   6.0000000

  Atom        21          22          23          24          25          26          27          28          29          30
 IAtWgt=          12          12          12          12          16          12          12          12          12          12
 AtmWgt=  12.0000000  12.0000000  12.0000000  12.0000000  15.9949146  12.0000000  12.0000000  12.0000000  12.0000000  12.0000000
 NucSpn=           0           0           0           0           0           0           0           0           0           0
 AtZEff=  -0.0000000  -0.0000000  -0.0000000  -0.0000000  -0.0000000  -0.0000000  -0.0000000  -0.0000000  -0.0000000  -0.0000000
 NQMom=    0.0000000   0.0000000   0.0000000   0.0000000   0.0000000   0.0000000   0.0000000   0.0000000   0.0000000   0.0000000
 NMagM=    0.0000000   0.0000000   0.0000000   0.0000000   0.0000000   0.0000000   0.0000000   0.0000000   0.0000000   0.0000000
 AtZNuc=   6.0000000   6.0000000   6.0000000   6.0000000   8.0000000   6.0000000   6.0000000   6.0000000   6.0000000   6.0000000

  Atom        31          32          33          34          35          36          37          38          39          40
 IAtWgt=          12          12          12          12          12          12          12          12          12          12
 AtmWgt=  12.0000000  12.0000000  12.0000000  12.0000000  12.0000000  12.0000000  12.0000000  12.0000000  12.0000000  12.0000000
 NucSpn=           0           0           0           0           0           0           0           0           0           0
 AtZEff=  -0.0000000  -0.0000000  -0.0000000  -0.0000000  -0.0000000  -0.0000000  -0.0000000  -0.0000000  -0.0000000  -0.0000000
 NQMom=    0.0000000   0.0000000   0.0000000   0.0000000   0.0000000   0.0000000   0.0000000   0.0000000   0.0000000   0.0000000
 NMagM=    0.0000000   0.0000000   0.0000000   0.0000000   0.0000000   0.0000000   0.0000000   0.0000000   0.0000000   0.0000000
 AtZNuc=   6.0000000   6.0000000   6.0000000   6.0000000   6.0000000   6.0000000   6.0000000   6.0000000   6.0000000   6.0000000

  Atom        41          42          43          44          45          46          47          48          49          50
 IAtWgt=          16          12           1           1           1           1           1           1           1           1
 AtmWgt=  15.9949146  12.0000000   1.0078250   1.0078250   1.0078250   1.0078250   1.0078250   1.0078250   1.0078250   1.0078250
 NucSpn=           0           0           1           1           1           1           1           1           1           1
 AtZEff=  -0.0000000  -0.0000000  -0.0000000  -0.0000000  -0.0000000  -0.0000000  -0.0000000  -0.0000000  -0.0000000  -0.0000000
 NQMom=    0.0000000   0.0000000   0.0000000   0.0000000   0.0000000   0.0000000   0.0000000   0.0000000   0.0000000   0.0000000
 NMagM=    0.0000000   0.0000000   2.7928460   2.7928460   2.7928460   2.7928460   2.7928460   2.7928460   2.7928460   2.7928460
 AtZNuc=   8.0000000   6.0000000   1.0000000   1.0000000   1.0000000   1.0000000   1.0000000   1.0000000   1.0000000   1.0000000

  Atom        51          52          53          54          55          56          57          58          59          60
 IAtWgt=           1           1           1           1           1           1           1           1           1           1
 AtmWgt=   1.0078250   1.0078250   1.0078250   1.0078250   1.0078250   1.0078250   1.0078250   1.0078250   1.0078250   1.0078250
 NucSpn=           1           1           1           1           1           1           1           1           1           1
 AtZEff=  -0.0000000  -0.0000000  -0.0000000  -0.0000000  -0.0000000  -0.0000000  -0.0000000  -0.0000000  -0.0000000  -0.0000000
 NQMom=    0.0000000   0.0000000   0.0000000   0.0000000   0.0000000   0.0000000   0.0000000   0.0000000   0.0000000   0.0000000
 NMagM=    2.7928460   2.7928460   2.7928460   2.7928460   2.7928460   2.7928460   2.7928460   2.7928460   2.7928460   2.7928460
 AtZNuc=   1.0000000   1.0000000   1.0000000   1.0000000   1.0000000   1.0000000   1.0000000   1.0000000   1.0000000   1.0000000

  Atom        61          62          63          64          65          66          67          68          69          70
 IAtWgt=           1           1           1           1           1           1           1           1           1           1
 AtmWgt=   1.0078250   1.0078250   1.0078250   1.0078250   1.0078250   1.0078250   1.0078250   1.0078250   1.0078250   1.0078250
 NucSpn=           1           1           1           1           1           1           1           1           1           1
 AtZEff=  -0.0000000  -0.0000000  -0.0000000  -0.0000000  -0.0000000  -0.0000000  -0.0000000  -0.0000000  -0.0000000  -0.0000000
 NQMom=    0.0000000   0.0000000   0.0000000   0.0000000   0.0000000   0.0000000   0.0000000   0.0000000   0.0000000   0.0000000
 NMagM=    2.7928460   2.7928460   2.7928460   2.7928460   2.7928460   2.7928460   2.7928460   2.7928460   2.7928460   2.7928460
 AtZNuc=   1.0000000   1.0000000   1.0000000   1.0000000   1.0000000   1.0000000   1.0000000   1.0000000   1.0000000   1.0000000

  Atom        71          72          73          74          75          76          77          78
 IAtWgt=           1           1           1           1           1           1           1           1
 AtmWgt=   1.0078250   1.0078250   1.0078250   1.0078250   1.0078250   1.0078250   1.0078250   1.0078250
 NucSpn=           1           1           1           1           1           1           1           1
 AtZEff=  -0.0000000  -0.0000000  -0.0000000  -0.0000000  -0.0000000  -0.0000000  -0.0000000  -0.0000000
 NQMom=    0.0000000   0.0000000   0.0000000   0.0000000   0.0000000   0.0000000   0.0000000   0.0000000
 NMagM=    2.7928460   2.7928460   2.7928460   2.7928460   2.7928460   2.7928460   2.7928460   2.7928460
 AtZNuc=   1.0000000   1.0000000   1.0000000   1.0000000   1.0000000   1.0000000   1.0000000   1.0000000
 Leave Link  101 at Mon Mar 24 23:47:22 2025, MaxMem= 13421772800 cpu:              11.5 elap:               0.4
 (Enter /public/software/apps/Gaussian/g16/l103.exe)

 GradGradGradGradGradGradGradGradGradGradGradGradGradGradGradGradGradGrad
 Berny optimization.
 Initialization pass.
                           ----------------------------
                           !    Initial Parameters    !
                           ! (Angstroms and Degrees)  !
 --------------------------                            --------------------------
 ! Name  Definition              Value          Derivative Info.                !
 --------------------------------------------------------------------------------
 ! R1    R(1,2)                  1.5302         estimate D2E/DX2                !
 ! R2    R(1,43)                 1.0896         estimate D2E/DX2                !
 ! R3    R(1,44)                 1.0869         estimate D2E/DX2                !
 ! R4    R(1,45)                 1.0875         estimate D2E/DX2                !
 ! R5    R(2,3)                  1.5316         estimate D2E/DX2                !
 ! R6    R(2,4)                  1.5319         estimate D2E/DX2                !
 ! R7    R(2,5)                  1.9314         estimate D2E/DX2                !
 ! R8    R(3,46)                 1.0898         estimate D2E/DX2                !
 ! R9    R(3,47)                 1.0871         estimate D2E/DX2                !
 ! R10   R(3,48)                 1.088          estimate D2E/DX2                !
 ! R11   R(4,49)                 1.0897         estimate D2E/DX2                !
 ! R12   R(4,50)                 1.0893         estimate D2E/DX2                !
 ! R13   R(4,51)                 1.0875         estimate D2E/DX2                !
 ! R14   R(5,6)                  1.8974         estimate D2E/DX2                !
 ! R15   R(5,7)                  1.9102         estimate D2E/DX2                !
 ! R16   R(5,8)                  1.6495         estimate D2E/DX2                !
 ! R17   R(6,52)                 1.0846         estimate D2E/DX2                !
 ! R18   R(6,53)                 1.0842         estimate D2E/DX2                !
 ! R19   R(6,54)                 1.0851         estimate D2E/DX2                !
 ! R20   R(7,55)                 1.0854         estimate D2E/DX2                !
 ! R21   R(7,56)                 1.0871         estimate D2E/DX2                !
 ! R22   R(7,57)                 1.0869         estimate D2E/DX2                !
 ! R23   R(8,9)                  1.3457         estimate D2E/DX2                !
 ! R24   R(9,10)                 1.3937         estimate D2E/DX2                !
 ! R25   R(9,42)                 1.3873         estimate D2E/DX2                !
 ! R26   R(10,11)                1.383          estimate D2E/DX2                !
 ! R27   R(10,58)                1.0785         estimate D2E/DX2                !
 ! R28   R(11,12)                1.384          estimate D2E/DX2                !
 ! R29   R(11,59)                1.0798         estimate D2E/DX2                !
 ! R30   R(12,13)                1.3904         estimate D2E/DX2                !
 ! R31   R(12,60)                1.0793         estimate D2E/DX2                !
 ! R32   R(13,14)                1.475          estimate D2E/DX2                !
 ! R33   R(13,42)                1.3931         estimate D2E/DX2                !
 ! R34   R(14,15)                1.3714         estimate D2E/DX2                !
 ! R35   R(14,40)                1.4186         estimate D2E/DX2                !
 ! R36   R(15,16)                1.408          estimate D2E/DX2                !
 ! R37   R(15,61)                1.0804         estimate D2E/DX2                !
 ! R38   R(16,17)                1.4104         estimate D2E/DX2                !
 ! R39   R(16,21)                1.4201         estimate D2E/DX2                !
 ! R40   R(17,18)                1.3663         estimate D2E/DX2                !
 ! R41   R(17,62)                1.0808         estimate D2E/DX2                !
 ! R42   R(18,19)                1.4033         estimate D2E/DX2                !
 ! R43   R(18,63)                1.08           estimate D2E/DX2                !
 ! R44   R(19,20)                1.3668         estimate D2E/DX2                !
 ! R45   R(19,64)                1.08           estimate D2E/DX2                !
 ! R46   R(20,21)                1.4109         estimate D2E/DX2                !
 ! R47   R(20,65)                1.0795         estimate D2E/DX2                !
 ! R48   R(21,22)                1.4176         estimate D2E/DX2                !
 ! R49   R(22,23)                1.4829         estimate D2E/DX2                !
 ! R50   R(22,40)                1.3835         estimate D2E/DX2                !
 ! R51   R(23,24)                1.3815         estimate D2E/DX2                !
 ! R52   R(23,39)                1.4175         estimate D2E/DX2                !
 ! R53   R(24,25)                1.3611         estimate D2E/DX2                !
 ! R54   R(24,26)                1.4181         estimate D2E/DX2                !
 ! R55   R(25,66)                0.9669         estimate D2E/DX2                !
 ! R56   R(26,27)                1.4724         estimate D2E/DX2                !
 ! R57   R(26,33)                1.371          estimate D2E/DX2                !
 ! R58   R(27,28)                1.3918         estimate D2E/DX2                !
 ! R59   R(27,32)                1.3916         estimate D2E/DX2                !
 ! R60   R(28,29)                1.3821         estimate D2E/DX2                !
 ! R61   R(28,67)                1.0791         estimate D2E/DX2                !
 ! R62   R(29,30)                1.3849         estimate D2E/DX2                !
 ! R63   R(29,68)                1.0807         estimate D2E/DX2                !
 ! R64   R(30,31)                1.3846         estimate D2E/DX2                !
 ! R65   R(30,69)                1.0804         estimate D2E/DX2                !
 ! R66   R(31,32)                1.3827         estimate D2E/DX2                !
 ! R67   R(31,70)                1.0807         estimate D2E/DX2                !
 ! R68   R(32,71)                1.0807         estimate D2E/DX2                !
 ! R69   R(33,34)                1.4078         estimate D2E/DX2                !
 ! R70   R(33,72)                1.0807         estimate D2E/DX2                !
 ! R71   R(34,35)                1.41           estimate D2E/DX2                !
 ! R72   R(34,39)                1.4191         estimate D2E/DX2                !
 ! R73   R(35,36)                1.3665         estimate D2E/DX2                !
 ! R74   R(35,73)                1.0809         estimate D2E/DX2                !
 ! R75   R(36,37)                1.4027         estimate D2E/DX2                !
 ! R76   R(36,74)                1.0802         estimate D2E/DX2                !
 ! R77   R(37,38)                1.3671         estimate D2E/DX2                !
 ! R78   R(37,75)                1.0804         estimate D2E/DX2                !
 ! R79   R(38,39)                1.4108         estimate D2E/DX2                !
 ! R80   R(38,76)                1.0799         estimate D2E/DX2                !
 ! R81   R(40,41)                1.3622         estimate D2E/DX2                !
 ! R82   R(41,77)                0.9669         estimate D2E/DX2                !
 ! R83   R(42,78)                1.078          estimate D2E/DX2                !
 ! A1    A(2,1,43)             110.3567         estimate D2E/DX2                !
 ! A2    A(2,1,44)             110.8376         estimate D2E/DX2                !
 ! A3    A(2,1,45)             110.7236         estimate D2E/DX2                !
 ! A4    A(43,1,44)            108.305          estimate D2E/DX2                !
 ! A5    A(43,1,45)            108.2252         estimate D2E/DX2                !
 ! A6    A(44,1,45)            108.304          estimate D2E/DX2                !
 ! A7    A(1,2,3)              108.6791         estimate D2E/DX2                !
 ! A8    A(1,2,4)              108.5988         estimate D2E/DX2                !
 ! A9    A(1,2,5)              110.3592         estimate D2E/DX2                !
 ! A10   A(3,2,4)              108.2108         estimate D2E/DX2                !
 ! A11   A(3,2,5)              109.9229         estimate D2E/DX2                !
 ! A12   A(4,2,5)              111.0048         estimate D2E/DX2                !
 ! A13   A(2,3,46)             110.4286         estimate D2E/DX2                !
 ! A14   A(2,3,47)             110.7663         estimate D2E/DX2                !
 ! A15   A(2,3,48)             110.7709         estimate D2E/DX2                !
 ! A16   A(46,3,47)            108.221          estimate D2E/DX2                !
 ! A17   A(46,3,48)            108.2346         estimate D2E/DX2                !
 ! A18   A(47,3,48)            108.3287         estimate D2E/DX2                !
 ! A19   A(2,4,49)             110.384          estimate D2E/DX2                !
 ! A20   A(2,4,50)             110.5014         estimate D2E/DX2                !
 ! A21   A(2,4,51)             111.2989         estimate D2E/DX2                !
 ! A22   A(49,4,50)            107.8939         estimate D2E/DX2                !
 ! A23   A(49,4,51)            107.7905         estimate D2E/DX2                !
 ! A24   A(50,4,51)            108.8641         estimate D2E/DX2                !
 ! A25   A(2,5,6)              112.1787         estimate D2E/DX2                !
 ! A26   A(2,5,7)              110.1054         estimate D2E/DX2                !
 ! A27   A(2,5,8)              109.4545         estimate D2E/DX2                !
 ! A28   A(6,5,7)              109.9778         estimate D2E/DX2                !
 ! A29   A(6,5,8)              100.4017         estimate D2E/DX2                !
 ! A30   A(7,5,8)              114.4499         estimate D2E/DX2                !
 ! A31   A(5,6,52)             111.637          estimate D2E/DX2                !
 ! A32   A(5,6,53)             110.8568         estimate D2E/DX2                !
 ! A33   A(5,6,54)             111.0767         estimate D2E/DX2                !
 ! A34   A(52,6,53)            107.9704         estimate D2E/DX2                !
 ! A35   A(52,6,54)            107.5604         estimate D2E/DX2                !
 ! A36   A(53,6,54)            107.5638         estimate D2E/DX2                !
 ! A37   A(5,7,55)             110.4201         estimate D2E/DX2                !
 ! A38   A(5,7,56)             113.394          estimate D2E/DX2                !
 ! A39   A(5,7,57)             110.9821         estimate D2E/DX2                !
 ! A40   A(55,7,56)            106.7524         estimate D2E/DX2                !
 ! A41   A(55,7,57)            107.1793         estimate D2E/DX2                !
 ! A42   A(56,7,57)            107.8282         estimate D2E/DX2                !
 ! A43   A(5,8,9)              135.927          estimate D2E/DX2                !
 ! A44   A(8,9,10)             118.8241         estimate D2E/DX2                !
 ! A45   A(8,9,42)             122.0554         estimate D2E/DX2                !
 ! A46   A(10,9,42)            119.1164         estimate D2E/DX2                !
 ! A47   A(9,10,11)            119.9419         estimate D2E/DX2                !
 ! A48   A(9,10,58)            118.9679         estimate D2E/DX2                !
 ! A49   A(11,10,58)           121.089          estimate D2E/DX2                !
 ! A50   A(10,11,12)           120.9056         estimate D2E/DX2                !
 ! A51   A(10,11,59)           119.4244         estimate D2E/DX2                !
 ! A52   A(12,11,59)           119.67           estimate D2E/DX2                !
 ! A53   A(11,12,13)           119.6658         estimate D2E/DX2                !
 ! A54   A(11,12,60)           120.6067         estimate D2E/DX2                !
 ! A55   A(13,12,60)           119.7242         estimate D2E/DX2                !
 ! A56   A(12,13,14)           122.2787         estimate D2E/DX2                !
 ! A57   A(12,13,42)           119.3897         estimate D2E/DX2                !
 ! A58   A(14,13,42)           118.3206         estimate D2E/DX2                !
 ! A59   A(13,14,15)           121.4955         estimate D2E/DX2                !
 ! A60   A(13,14,40)           119.3749         estimate D2E/DX2                !
 ! A61   A(15,14,40)           119.0427         estimate D2E/DX2                !
 ! A62   A(14,15,16)           121.5335         estimate D2E/DX2                !
 ! A63   A(14,15,61)           119.4279         estimate D2E/DX2                !
 ! A64   A(16,15,61)           118.9903         estimate D2E/DX2                !
 ! A65   A(15,16,17)           121.6477         estimate D2E/DX2                !
 ! A66   A(15,16,21)           119.2477         estimate D2E/DX2                !
 ! A67   A(17,16,21)           119.0777         estimate D2E/DX2                !
 ! A68   A(16,17,18)           120.791          estimate D2E/DX2                !
 ! A69   A(16,17,62)           118.5064         estimate D2E/DX2                !
 ! A70   A(18,17,62)           120.7021         estimate D2E/DX2                !
 ! A71   A(17,18,19)           120.1083         estimate D2E/DX2                !
 ! A72   A(17,18,63)           120.3868         estimate D2E/DX2                !
 ! A73   A(19,18,63)           119.5027         estimate D2E/DX2                !
 ! A74   A(18,19,20)           120.5697         estimate D2E/DX2                !
 ! A75   A(18,19,64)           119.3741         estimate D2E/DX2                !
 ! A76   A(20,19,64)           120.0562         estimate D2E/DX2                !
 ! A77   A(19,20,21)           120.7006         estimate D2E/DX2                !
 ! A78   A(19,20,65)           120.4441         estimate D2E/DX2                !
 ! A79   A(21,20,65)           118.8549         estimate D2E/DX2                !
 ! A80   A(16,21,20)           118.7189         estimate D2E/DX2                !
 ! A81   A(16,21,22)           119.1113         estimate D2E/DX2                !
 ! A82   A(20,21,22)           122.1695         estimate D2E/DX2                !
 ! A83   A(21,22,23)           122.2436         estimate D2E/DX2                !
 ! A84   A(21,22,40)           119.8411         estimate D2E/DX2                !
 ! A85   A(23,22,40)           117.8974         estimate D2E/DX2                !
 ! A86   A(22,23,24)           118.6235         estimate D2E/DX2                !
 ! A87   A(22,23,39)           121.1577         estimate D2E/DX2                !
 ! A88   A(24,23,39)           120.1816         estimate D2E/DX2                !
 ! A89   A(23,24,25)           121.8091         estimate D2E/DX2                !
 ! A90   A(23,24,26)           120.8829         estimate D2E/DX2                !
 ! A91   A(25,24,26)           117.268          estimate D2E/DX2                !
 ! A92   A(24,25,66)           108.6542         estimate D2E/DX2                !
 ! A93   A(24,26,27)           120.1958         estimate D2E/DX2                !
 ! A94   A(24,26,33)           118.9508         estimate D2E/DX2                !
 ! A95   A(27,26,33)           120.8514         estimate D2E/DX2                !
 ! A96   A(26,27,28)           120.593          estimate D2E/DX2                !
 ! A97   A(26,27,32)           120.4041         estimate D2E/DX2                !
 ! A98   A(28,27,32)           118.9843         estimate D2E/DX2                !
 ! A99   A(27,28,29)           120.4142         estimate D2E/DX2                !
 ! A100  A(27,28,67)           119.3924         estimate D2E/DX2                !
 ! A101  A(29,28,67)           120.1858         estimate D2E/DX2                !
 ! A102  A(28,29,30)           120.235          estimate D2E/DX2                !
 ! A103  A(28,29,68)           119.8757         estimate D2E/DX2                !
 ! A104  A(30,29,68)           119.8889         estimate D2E/DX2                !
 ! A105  A(29,30,31)           119.7332         estimate D2E/DX2                !
 ! A106  A(29,30,69)           120.1529         estimate D2E/DX2                !
 ! A107  A(31,30,69)           120.1138         estimate D2E/DX2                !
 ! A108  A(30,31,32)           120.1466         estimate D2E/DX2                !
 ! A109  A(30,31,70)           120.0172         estimate D2E/DX2                !
 ! A110  A(32,31,70)           119.8362         estimate D2E/DX2                !
 ! A111  A(27,32,31)           120.4854         estimate D2E/DX2                !
 ! A112  A(27,32,71)           119.4315         estimate D2E/DX2                !
 ! A113  A(31,32,71)           120.076          estimate D2E/DX2                !
 ! A114  A(26,33,34)           121.8131         estimate D2E/DX2                !
 ! A115  A(26,33,72)           119.3979         estimate D2E/DX2                !
 ! A116  A(34,33,72)           118.7597         estimate D2E/DX2                !
 ! A117  A(33,34,35)           121.7249         estimate D2E/DX2                !
 ! A118  A(33,34,39)           119.1206         estimate D2E/DX2                !
 ! A119  A(35,34,39)           119.1459         estimate D2E/DX2                !
 ! A120  A(34,35,36)           120.8603         estimate D2E/DX2                !
 ! A121  A(34,35,73)           118.5035         estimate D2E/DX2                !
 ! A122  A(36,35,73)           120.6356         estimate D2E/DX2                !
 ! A123  A(35,36,37)           120.006          estimate D2E/DX2                !
 ! A124  A(35,36,74)           120.4647         estimate D2E/DX2                !
 ! A125  A(37,36,74)           119.527          estimate D2E/DX2                !
 ! A126  A(36,37,38)           120.5564         estimate D2E/DX2                !
 ! A127  A(36,37,75)           119.3945         estimate D2E/DX2                !
 ! A128  A(38,37,75)           120.049          estimate D2E/DX2                !
 ! A129  A(37,38,39)           120.814          estimate D2E/DX2                !
 ! A130  A(37,38,76)           120.1167         estimate D2E/DX2                !
 ! A131  A(39,38,76)           119.0692         estimate D2E/DX2                !
 ! A132  A(23,39,34)           118.973          estimate D2E/DX2                !
 ! A133  A(23,39,38)           122.4344         estimate D2E/DX2                !
 ! A134  A(34,39,38)           118.5901         estimate D2E/DX2                !
 ! A135  A(14,40,22)           121.0112         estimate D2E/DX2                !
 ! A136  A(14,40,41)           121.2211         estimate D2E/DX2                !
 ! A137  A(22,40,41)           117.7659         estimate D2E/DX2                !
 ! A138  A(40,41,77)           109.7656         estimate D2E/DX2                !
 ! A139  A(9,42,13)            120.9785         estimate D2E/DX2                !
 ! A140  A(9,42,78)            118.4747         estimate D2E/DX2                !
 ! A141  A(13,42,78)           120.5079         estimate D2E/DX2                !
 ! D1    D(43,1,2,3)            58.0117         estimate D2E/DX2                !
 ! D2    D(43,1,2,4)           -59.4939         estimate D2E/DX2                !
 ! D3    D(43,1,2,5)           178.6173         estimate D2E/DX2                !
 ! D4    D(44,1,2,3)           177.9895         estimate D2E/DX2                !
 ! D5    D(44,1,2,4)            60.4839         estimate D2E/DX2                !
 ! D6    D(44,1,2,5)           -61.4049         estimate D2E/DX2                !
 ! D7    D(45,1,2,3)           -61.7928         estimate D2E/DX2                !
 ! D8    D(45,1,2,4)          -179.2984         estimate D2E/DX2                !
 ! D9    D(45,1,2,5)            58.8128         estimate D2E/DX2                !
 ! D10   D(1,2,3,46)           -61.6008         estimate D2E/DX2                !
 ! D11   D(1,2,3,47)            58.2728         estimate D2E/DX2                !
 ! D12   D(1,2,3,48)           178.5057         estimate D2E/DX2                !
 ! D13   D(4,2,3,46)            56.1515         estimate D2E/DX2                !
 ! D14   D(4,2,3,47)           176.025          estimate D2E/DX2                !
 ! D15   D(4,2,3,48)           -63.7421         estimate D2E/DX2                !
 ! D16   D(5,2,3,46)           177.5246         estimate D2E/DX2                !
 ! D17   D(5,2,3,47)           -62.6019         estimate D2E/DX2                !
 ! D18   D(5,2,3,48)            57.631          estimate D2E/DX2                !
 ! D19   D(1,2,4,49)            58.6192         estimate D2E/DX2                !
 ! D20   D(1,2,4,50)           177.8864         estimate D2E/DX2                !
 ! D21   D(1,2,4,51)           -61.0313         estimate D2E/DX2                !
 ! D22   D(3,2,4,49)           -59.1845         estimate D2E/DX2                !
 ! D23   D(3,2,4,50)            60.0827         estimate D2E/DX2                !
 ! D24   D(3,2,4,51)          -178.835          estimate D2E/DX2                !
 ! D25   D(5,2,4,49)          -179.8867         estimate D2E/DX2                !
 ! D26   D(5,2,4,50)           -60.6195         estimate D2E/DX2                !
 ! D27   D(5,2,4,51)            60.4628         estimate D2E/DX2                !
 ! D28   D(1,2,5,6)            -73.8629         estimate D2E/DX2                !
 ! D29   D(1,2,5,7)             48.9654         estimate D2E/DX2                !
 ! D30   D(1,2,5,8)            175.6024         estimate D2E/DX2                !
 ! D31   D(3,2,5,6)             45.9952         estimate D2E/DX2                !
 ! D32   D(3,2,5,7)            168.8235         estimate D2E/DX2                !
 ! D33   D(3,2,5,8)            -64.5395         estimate D2E/DX2                !
 ! D34   D(4,2,5,6)            165.6803         estimate D2E/DX2                !
 ! D35   D(4,2,5,7)            -71.4914         estimate D2E/DX2                !
 ! D36   D(4,2,5,8)             55.1456         estimate D2E/DX2                !
 ! D37   D(2,5,6,52)           -67.6886         estimate D2E/DX2                !
 ! D38   D(2,5,6,53)            52.7304         estimate D2E/DX2                !
 ! D39   D(2,5,6,54)           172.263          estimate D2E/DX2                !
 ! D40   D(7,5,6,52)           169.4111         estimate D2E/DX2                !
 ! D41   D(7,5,6,53)           -70.1699         estimate D2E/DX2                !
 ! D42   D(7,5,6,54)            49.3627         estimate D2E/DX2                !
 ! D43   D(8,5,6,52)            48.4479         estimate D2E/DX2                !
 ! D44   D(8,5,6,53)           168.8669         estimate D2E/DX2                !
 ! D45   D(8,5,6,54)           -71.6005         estimate D2E/DX2                !
 ! D46   D(2,5,7,55)           -85.7425         estimate D2E/DX2                !
 ! D47   D(2,5,7,56)            34.0045         estimate D2E/DX2                !
 ! D48   D(2,5,7,57)           155.5507         estimate D2E/DX2                !
 ! D49   D(6,5,7,55)            38.369          estimate D2E/DX2                !
 ! D50   D(6,5,7,56)           158.116          estimate D2E/DX2                !
 ! D51   D(6,5,7,57)           -80.3378         estimate D2E/DX2                !
 ! D52   D(8,5,7,55)           150.4749         estimate D2E/DX2                !
 ! D53   D(8,5,7,56)           -89.7781         estimate D2E/DX2                !
 ! D54   D(8,5,7,57)            31.7681         estimate D2E/DX2                !
 ! D55   D(2,5,8,9)            -76.3231         estimate D2E/DX2                !
 ! D56   D(6,5,8,9)            165.5202         estimate D2E/DX2                !
 ! D57   D(7,5,8,9)             47.8072         estimate D2E/DX2                !
 ! D58   D(5,8,9,10)           166.636          estimate D2E/DX2                !
 ! D59   D(5,8,9,42)           -14.111          estimate D2E/DX2                !
 ! D60   D(8,9,10,11)          178.8324         estimate D2E/DX2                !
 ! D61   D(8,9,10,58)           -0.7658         estimate D2E/DX2                !
 ! D62   D(42,9,10,11)          -0.4429         estimate D2E/DX2                !
 ! D63   D(42,9,10,58)         179.9589         estimate D2E/DX2                !
 ! D64   D(8,9,42,13)         -179.1043         estimate D2E/DX2                !
 ! D65   D(8,9,42,78)           -1.3637         estimate D2E/DX2                !
 ! D66   D(10,9,42,13)           0.1466         estimate D2E/DX2                !
 ! D67   D(10,9,42,78)         177.8872         estimate D2E/DX2                !
 ! D68   D(9,10,11,12)           0.3237         estimate D2E/DX2                !
 ! D69   D(9,10,11,59)        -179.7452         estimate D2E/DX2                !
 ! D70   D(58,10,11,12)        179.9132         estimate D2E/DX2                !
 ! D71   D(58,10,11,59)         -0.1557         estimate D2E/DX2                !
 ! D72   D(10,11,12,13)          0.0995         estimate D2E/DX2                !
 ! D73   D(10,11,12,60)        179.4314         estimate D2E/DX2                !
 ! D74   D(59,11,12,13)       -179.8315         estimate D2E/DX2                !
 ! D75   D(59,11,12,60)         -0.4995         estimate D2E/DX2                !
 ! D76   D(11,12,13,14)       -179.1684         estimate D2E/DX2                !
 ! D77   D(11,12,13,42)         -0.394          estimate D2E/DX2                !
 ! D78   D(60,12,13,14)          1.4936         estimate D2E/DX2                !
 ! D79   D(60,12,13,42)       -179.732          estimate D2E/DX2                !
 ! D80   D(12,13,14,15)         52.2708         estimate D2E/DX2                !
 ! D81   D(12,13,14,40)       -131.1525         estimate D2E/DX2                !
 ! D82   D(42,13,14,15)       -126.5162         estimate D2E/DX2                !
 ! D83   D(42,13,14,40)         50.0606         estimate D2E/DX2                !
 ! D84   D(12,13,42,9)           0.2719         estimate D2E/DX2                !
 ! D85   D(12,13,42,78)       -177.4228         estimate D2E/DX2                !
 ! D86   D(14,13,42,9)         179.0949         estimate D2E/DX2                !
 ! D87   D(14,13,42,78)          1.4002         estimate D2E/DX2                !
 ! D88   D(13,14,15,16)        173.3911         estimate D2E/DX2                !
 ! D89   D(13,14,15,61)         -4.0552         estimate D2E/DX2                !
 ! D90   D(40,14,15,16)         -3.1968         estimate D2E/DX2                !
 ! D91   D(40,14,15,61)        179.3569         estimate D2E/DX2                !
 ! D92   D(13,14,40,22)       -171.9405         estimate D2E/DX2                !
 ! D93   D(13,14,40,41)          8.5525         estimate D2E/DX2                !
 ! D94   D(15,14,40,22)          4.7208         estimate D2E/DX2                !
 ! D95   D(15,14,40,41)       -174.7861         estimate D2E/DX2                !
 ! D96   D(14,15,16,17)       -179.0804         estimate D2E/DX2                !
 ! D97   D(14,15,16,21)         -0.9842         estimate D2E/DX2                !
 ! D98   D(61,15,16,17)         -1.6232         estimate D2E/DX2                !
 ! D99   D(61,15,16,21)        176.473          estimate D2E/DX2                !
 ! D100  D(15,16,17,18)        177.2274         estimate D2E/DX2                !
 ! D101  D(15,16,17,62)         -2.5088         estimate D2E/DX2                !
 ! D102  D(21,16,17,18)         -0.872          estimate D2E/DX2                !
 ! D103  D(21,16,17,62)        179.3917         estimate D2E/DX2                !
 ! D104  D(15,16,21,20)       -176.0953         estimate D2E/DX2                !
 ! D105  D(15,16,21,22)          3.7254         estimate D2E/DX2                !
 ! D106  D(17,16,21,20)          2.0504         estimate D2E/DX2                !
 ! D107  D(17,16,21,22)       -178.1289         estimate D2E/DX2                !
 ! D108  D(16,17,18,19)         -0.6265         estimate D2E/DX2                !
 ! D109  D(16,17,18,63)        179.9174         estimate D2E/DX2                !
 ! D110  D(62,17,18,19)        179.104          estimate D2E/DX2                !
 ! D111  D(62,17,18,63)         -0.3521         estimate D2E/DX2                !
 ! D112  D(17,18,19,20)          0.9294         estimate D2E/DX2                !
 ! D113  D(17,18,19,64)       -179.0028         estimate D2E/DX2                !
 ! D114  D(63,18,19,20)       -179.6096         estimate D2E/DX2                !
 ! D115  D(63,18,19,64)          0.4581         estimate D2E/DX2                !
 ! D116  D(18,19,20,21)          0.3025         estimate D2E/DX2                !
 ! D117  D(18,19,20,65)       -179.9359         estimate D2E/DX2                !
 ! D118  D(64,19,20,21)       -179.7657         estimate D2E/DX2                !
 ! D119  D(64,19,20,65)         -0.0041         estimate D2E/DX2                !
 ! D120  D(19,20,21,16)         -1.7841         estimate D2E/DX2                !
 ! D121  D(19,20,21,22)        178.4009         estimate D2E/DX2                !
 ! D122  D(65,20,21,16)        178.4505         estimate D2E/DX2                !
 ! D123  D(65,20,21,22)         -1.3644         estimate D2E/DX2                !
 ! D124  D(16,21,22,23)        179.3206         estimate D2E/DX2                !
 ! D125  D(16,21,22,40)         -2.2503         estimate D2E/DX2                !
 ! D126  D(20,21,22,23)         -0.8652         estimate D2E/DX2                !
 ! D127  D(20,21,22,40)        177.564          estimate D2E/DX2                !
 ! D128  D(21,22,23,24)        115.3202         estimate D2E/DX2                !
 ! D129  D(21,22,23,39)        -66.8939         estimate D2E/DX2                !
 ! D130  D(40,22,23,24)        -63.138          estimate D2E/DX2                !
 ! D131  D(40,22,23,39)        114.6478         estimate D2E/DX2                !
 ! D132  D(21,22,40,14)         -1.9716         estimate D2E/DX2                !
 ! D133  D(21,22,40,41)        177.5519         estimate D2E/DX2                !
 ! D134  D(23,22,40,14)        176.5251         estimate D2E/DX2                !
 ! D135  D(23,22,40,41)         -3.9514         estimate D2E/DX2                !
 ! D136  D(22,23,24,25)         -4.2107         estimate D2E/DX2                !
 ! D137  D(22,23,24,26)        178.1534         estimate D2E/DX2                !
 ! D138  D(39,23,24,25)        177.9812         estimate D2E/DX2                !
 ! D139  D(39,23,24,26)          0.3452         estimate D2E/DX2                !
 ! D140  D(22,23,39,34)        179.7518         estimate D2E/DX2                !
 ! D141  D(22,23,39,38)         -0.8237         estimate D2E/DX2                !
 ! D142  D(24,23,39,34)         -2.4966         estimate D2E/DX2                !
 ! D143  D(24,23,39,38)        176.9279         estimate D2E/DX2                !
 ! D144  D(23,24,25,66)         -1.011          estimate D2E/DX2                !
 ! D145  D(26,24,25,66)        176.7065         estimate D2E/DX2                !
 ! D146  D(23,24,26,27)       -177.4854         estimate D2E/DX2                !
 ! D147  D(23,24,26,33)          1.9981         estimate D2E/DX2                !
 ! D148  D(25,24,26,27)          4.7748         estimate D2E/DX2                !
 ! D149  D(25,24,26,33)       -175.7418         estimate D2E/DX2                !
 ! D150  D(24,26,27,28)         49.6545         estimate D2E/DX2                !
 ! D151  D(24,26,27,32)       -131.932          estimate D2E/DX2                !
 ! D152  D(33,26,27,28)       -129.819          estimate D2E/DX2                !
 ! D153  D(33,26,27,32)         48.5945         estimate D2E/DX2                !
 ! D154  D(24,26,33,34)         -2.171          estimate D2E/DX2                !
 ! D155  D(24,26,33,72)        179.8224         estimate D2E/DX2                !
 ! D156  D(27,26,33,34)        177.309          estimate D2E/DX2                !
 ! D157  D(27,26,33,72)         -0.6976         estimate D2E/DX2                !
 ! D158  D(26,27,28,29)        178.5941         estimate D2E/DX2                !
 ! D159  D(26,27,28,67)         -0.4064         estimate D2E/DX2                !
 ! D160  D(32,27,28,29)          0.1583         estimate D2E/DX2                !
 ! D161  D(32,27,28,67)       -178.8422         estimate D2E/DX2                !
 ! D162  D(26,27,32,31)       -178.8574         estimate D2E/DX2                !
 ! D163  D(26,27,32,71)          2.117          estimate D2E/DX2                !
 ! D164  D(28,27,32,31)         -0.4186         estimate D2E/DX2                !
 ! D165  D(28,27,32,71)       -179.4442         estimate D2E/DX2                !
 ! D166  D(27,28,29,30)          0.1737         estimate D2E/DX2                !
 ! D167  D(27,28,29,68)       -179.5739         estimate D2E/DX2                !
 ! D168  D(67,28,29,30)        179.1663         estimate D2E/DX2                !
 ! D169  D(67,28,29,68)         -0.5813         estimate D2E/DX2                !
 ! D170  D(28,29,30,31)         -0.2484         estimate D2E/DX2                !
 ! D171  D(28,29,30,69)        179.8263         estimate D2E/DX2                !
 ! D172  D(68,29,30,31)        179.4992         estimate D2E/DX2                !
 ! D173  D(68,29,30,69)         -0.4261         estimate D2E/DX2                !
 ! D174  D(29,30,31,32)         -0.0114         estimate D2E/DX2                !
 ! D175  D(29,30,31,70)        179.9619         estimate D2E/DX2                !
 ! D176  D(69,30,31,32)        179.9139         estimate D2E/DX2                !
 ! D177  D(69,30,31,70)         -0.1128         estimate D2E/DX2                !
 ! D178  D(30,31,32,27)          0.3476         estimate D2E/DX2                !
 ! D179  D(30,31,32,71)        179.3669         estimate D2E/DX2                !
 ! D180  D(70,31,32,27)       -179.6257         estimate D2E/DX2                !
 ! D181  D(70,31,32,71)         -0.6064         estimate D2E/DX2                !
 ! D182  D(26,33,34,35)       -178.9134         estimate D2E/DX2                !
 ! D183  D(26,33,34,39)          0.0154         estimate D2E/DX2                !
 ! D184  D(72,33,34,35)         -0.8945         estimate D2E/DX2                !
 ! D185  D(72,33,34,39)        178.0343         estimate D2E/DX2                !
 ! D186  D(33,34,35,36)        178.155          estimate D2E/DX2                !
 ! D187  D(33,34,35,73)         -1.5597         estimate D2E/DX2                !
 ! D188  D(39,34,35,36)         -0.7736         estimate D2E/DX2                !
 ! D189  D(39,34,35,73)        179.5117         estimate D2E/DX2                !
 ! D190  D(33,34,39,23)          2.3235         estimate D2E/DX2                !
 ! D191  D(33,34,39,38)       -177.1234         estimate D2E/DX2                !
 ! D192  D(35,34,39,23)       -178.7197         estimate D2E/DX2                !
 ! D193  D(35,34,39,38)          1.8335         estimate D2E/DX2                !
 ! D194  D(34,35,36,37)         -0.5863         estimate D2E/DX2                !
 ! D195  D(34,35,36,74)        179.9668         estimate D2E/DX2                !
 ! D196  D(73,35,36,37)        179.1223         estimate D2E/DX2                !
 ! D197  D(73,35,36,74)         -0.3246         estimate D2E/DX2                !
 ! D198  D(35,36,37,38)          0.8673         estimate D2E/DX2                !
 ! D199  D(35,36,37,75)       -178.9873         estimate D2E/DX2                !
 ! D200  D(74,36,37,38)       -179.6806         estimate D2E/DX2                !
 ! D201  D(74,36,37,75)          0.4647         estimate D2E/DX2                !
 ! D202  D(36,37,38,39)          0.2426         estimate D2E/DX2                !
 ! D203  D(36,37,38,76)       -179.6197         estimate D2E/DX2                !
 ! D204  D(75,37,38,39)       -179.9037         estimate D2E/DX2                !
 ! D205  D(75,37,38,76)          0.234          estimate D2E/DX2                !
 ! D206  D(37,38,39,23)        178.988          estimate D2E/DX2                !
 ! D207  D(37,38,39,34)         -1.5854         estimate D2E/DX2                !
 ! D208  D(76,38,39,23)         -1.1482         estimate D2E/DX2                !
 ! D209  D(76,38,39,34)        178.2783         estimate D2E/DX2                !
 ! D210  D(14,40,41,77)          3.7557         estimate D2E/DX2                !
 ! D211  D(22,40,41,77)       -175.7668         estimate D2E/DX2                !
 --------------------------------------------------------------------------------
 Trust Radius=3.00D-01 FncErr=1.00D-07 GrdErr=1.00D-06 EigMax=2.50D+02 EigMin=1.00D-04
 Number of steps in this run=    445 maximum allowed number of steps=    468.
 GradGradGradGradGradGradGradGradGradGradGradGradGradGradGradGradGradGrad

 Leave Link  103 at Mon Mar 24 23:47:22 2025, MaxMem= 13421772800 cpu:               0.2 elap:               0.0
 (Enter /public/software/apps/Gaussian/g16/l202.exe)
 Symmetry turned off by external request.
 Stoichiometry    C38H36O3Si
 Framework group  C1[X(C38H36O3Si)]
 Deg. of freedom   228
 Full point group                 C1      NOp   1
                          Input orientation:                          
 ---------------------------------------------------------------------
 Center     Atomic      Atomic             Coordinates (Angstroms)
 Number     Number       Type             X           Y           Z
 ---------------------------------------------------------------------
      1          6           0       -4.096631    3.022291    0.488425
      2          6           0       -4.268779    1.576910    0.960314
      3          6           0       -5.411167    1.526325    1.979208
      4          6           0       -2.980894    1.135590    1.662738
      5         14           0       -4.670611    0.424653   -0.536725
      6          6           0       -6.448026    0.653729   -1.160046
      7          6           0       -3.434591    0.740266   -1.958586
      8          8           0       -4.734734   -1.141440   -0.022877
      9          6           0       -3.837450   -2.085121    0.316421
     10          6           0       -4.282481   -3.229111    0.976425
     11          6           0       -3.383916   -4.224633    1.314412
     12          6           0       -2.038996   -4.100833    1.012237
     13          6           0       -1.581990   -2.960115    0.361835
     14          6           0       -0.164917   -2.776175   -0.003702
     15          6           0        0.520846   -3.727362   -0.714760
     16          6           0        1.828758   -3.496535   -1.182402
     17          6           0        2.529104   -4.465778   -1.930252
     18          6           0        3.775735   -4.202270   -2.423333
     19          6           0        4.370995   -2.951159   -2.200335
     20          6           0        3.721976   -1.992063   -1.474433
     21          6           0        2.444666   -2.242110   -0.929791
     22          6           0        1.757954   -1.282344   -0.144469
     23          6           0        2.341825    0.042861    0.174552
     24          6           0        1.723644    1.174932   -0.320362
     25          8           0        0.651494    1.099890   -1.155543
     26          6           0        2.218455    2.467843   -0.012886
     27          6           0        1.515848    3.665494   -0.502741
     28          6           0        0.142591    3.803940   -0.323671
     29          6           0       -0.508541    4.942659   -0.759167
     30          6           0        0.200435    5.956337   -1.381961
     31          6           0        1.567158    5.827582   -1.562783
     32          6           0        2.221835    4.691743   -1.123224
     33          6           0        3.349932    2.580562    0.753142
     34          6           0        4.005973    1.451230    1.278520
     35          6           0        5.156536    1.570455    2.084751
     36          6           0        5.757653    0.464342    2.616344
     37          6           0        5.223684   -0.809605    2.372587
     38          6           0        4.112538   -0.959450    1.590320
     39          6           0        3.482425    0.160349    1.007886
     40          6           0        0.485848   -1.558906    0.323775
     41          8           0       -0.114835   -0.628168    1.116592
     42          6           0       -2.488783   -1.960606    0.016216
     43          1           0       -3.894089    3.676170    1.336099
     44          1           0       -3.269210    3.104536   -0.211480
     45          1           0       -4.998522    3.375727   -0.005885
     46          1           0       -5.173444    2.139811    2.847986
     47          1           0       -6.334157    1.898987    1.542225
     48          1           0       -5.580611    0.506548    2.318613
     49          1           0       -2.764958    1.790795    2.506243
     50          1           0       -3.083313    0.120722    2.044908
     51          1           0       -2.129720    1.172570    0.986862
     52          1           0       -7.174476    0.304949   -0.434112
     53          1           0       -6.653945    1.698463   -1.363925
     54          1           0       -6.613222    0.101913   -2.079612
     55          1           0       -3.772968    1.564443   -2.578581
     56          1           0       -2.436153    0.997058   -1.613559
     57          1           0       -3.350350   -0.131846   -2.601835
     58          1           0       -5.331350   -3.323121    1.209228
     59          1           0       -3.738481   -5.109306    1.821972
     60          1           0       -1.340507   -4.876626    1.286376
     61          1           0        0.034729   -4.660945   -0.958511
     62          1           0        2.055716   -5.420842   -2.108521
     63          1           0        4.306721   -4.949754   -2.994061
     64          1           0        5.350094   -2.749908   -2.609289
     65          1           0        4.181353   -1.029935   -1.304996
     66          1           0        0.452602    0.168140   -1.320537
     67          1           0       -0.408341    3.020468    0.173525
     68          1           0       -1.573996    5.044056   -0.609470
     69          1           0       -0.310319    6.844625   -1.724358
     70          1           0        2.124790    6.615462   -2.048725
     71          1           0        3.286935    4.587931   -1.274093
     72          1           0        3.734977    3.562329    0.989420
     73          1           0        5.551150    2.558109    2.277651
     74          1           0        6.639245    0.563050    3.232742
     75          1           0        5.697301   -1.675908    2.811258
     76          1           0        3.703814   -1.943018    1.412331
     77          1           0       -0.964921   -0.965478    1.430310
     78          1           0       -2.161151   -1.087724   -0.524954
 ---------------------------------------------------------------------
 Rotational constants (GHZ):           0.0932939           0.0668492           0.0457029
 Leave Link  202 at Mon Mar 24 23:47:22 2025, MaxMem= 13421772800 cpu:               0.7 elap:               0.0
 (Enter /public/software/apps/Gaussian/g16/l301.exe)
 Standard basis: def2SVPP (5D, 7F)
 Ernie: Thresh=  0.10000D-02 Tol=  0.10000D-05 Strict=F.
   664 basis functions,  1206 primitive gaussians,   706 cartesian basis functions
   151 alpha electrons      151 beta electrons
       nuclear repulsion energy      5053.6787852081 Hartrees.
 IExCor=  402 DFT=T Ex+Corr=B3LYP ExCW=0 ScaHFX=  0.200000
 ScaDFX=  0.800000  0.720000  1.000000  0.810000 ScalE2=  1.000000  1.000000
 IRadAn=      5 IRanWt=     -1 IRanGd=            0 ICorTp=0 IEmpDi=141
 NAtoms=   78 NActive=   78 NUniq=   78 SFac= 1.00D+00 NAtFMM=   60 NAOKFM=T Big=T
 Integral buffers will be    131072 words long.
 Raffenetti 2 integral format.
 Two-electron integral symmetry is turned off.
 R6Disp:  Grimme-D3(BJ) Dispersion energy=       -0.2063697128 Hartrees.
 Nuclear repulsion after empirical dispersion term =     5053.4724154953 Hartrees.
 Leave Link  301 at Mon Mar 24 23:47:22 2025, MaxMem= 13421772800 cpu:               0.5 elap:               0.0
 (Enter /public/software/apps/Gaussian/g16/l302.exe)
 NPDir=0 NMtPBC=     1 NCelOv=     1 NCel=       1 NClECP=     1 NCelD=      1
         NCelK=      1 NCelE2=     1 NClLst=     1 CellRange=     0.0.
 One-electron integrals computed using PRISM.
   1 Symmetry operations used in ECPInt.
 ECPInt:  NShTT=   53301 NPrTT=  214849 LenC2=   44422 LenP2D=  110152.
 LDataN:  DoStor=T MaxTD1= 4 Len=   56
 NBasis=   664 RedAO= T EigKep=  1.55D-04  NBF=   664
 NBsUse=   664 1.00D-06 EigRej= -1.00D+00 NBFU=   664
 Precomputing XC quadrature grid using
 IXCGrd= 4 IRadAn=           5 IRanWt=          -1 IRanGd=           0 AccXCQ= 0.00D+00.
 Generated NRdTot=       0 NPtTot=           0 NUsed=           0 NTot=          32
 NSgBfM=   692   692   692   692   692 MxSgAt=    78 MxSgA2=    78.
 Leave Link  302 at Mon Mar 24 23:47:23 2025, MaxMem= 13421772800 cpu:              34.4 elap:               1.1
 (Enter /public/software/apps/Gaussian/g16/l303.exe)
 DipDrv:  MaxL=1.
 Leave Link  303 at Mon Mar 24 23:47:23 2025, MaxMem= 13421772800 cpu:               3.3 elap:               0.1
 (Enter /public/software/apps/Gaussian/g16/l401.exe)
 ExpMin= 7.80D-02 ExpMax= 6.90D+03 ExpMxC= 1.04D+03 IAcc=3 IRadAn=         5 AccDes= 0.00D+00
 Harris functional with IExCor=  402 and IRadAn=       5 diagonalized for initial guess.
 HarFok:  IExCor=  402 AccDes= 0.00D+00 IRadAn=         5 IDoV= 1 UseB2=F ITyADJ=14
 ICtDFT=  3500011 ScaDFX=  1.000000  1.000000  1.000000  1.000000
 FoFCou: FMM=F IPFlag=           0 FMFlag=      100000 FMFlg1=        2001
         NFxFlg=           0 DoJE=T BraDBF=F KetDBF=T FulRan=T
         wScrn=  0.000000 ICntrl=       500 IOpCl=  0 I1Cent=   200000004 NGrid=           0
         NMat0=    1 NMatS0=      1 NMatT0=    0 NMatD0=    1 NMtDS0=    0 NMtDT0=    0
 Symmetry not used in FoFCou.
 Harris En= -1983.84437585261    
 JPrj=0 DoOrth=F DoCkMO=F.
 Leave Link  401 at Mon Mar 24 23:47:26 2025, MaxMem= 13421772800 cpu:              75.4 elap:               2.5
 (Enter /public/software/apps/Gaussian/g16/l502.exe)
 Two-electron integral symmetry not used.
 Closed shell SCF:
 Using DIIS extrapolation, IDIIS=  1040.
 NGot= 13421772800 LenX= 13420745428 LenY= 13420246286
 Requested convergence on RMS density matrix=1.00D-08 within 128 cycles.
 Requested convergence on MAX density matrix=1.00D-06.
 Requested convergence on             energy=1.00D-06.
 No special actions if energy rises.
 Fock matrices will be formed incrementally for  20 cycles.
 Integral accuracy reduced to 1.0D-05 until final iterations.

 Cycle   1  Pass 0  IDiag  1:
 FoFJK:  IHMeth= 1 ICntrl=       0 DoSepK=F KAlg= 0 I1Cent=           0 FoldK=F
 IRaf= 990000000 NMat=       1 IRICut=       1 DoRegI=T DoRafI=F ISym2E= 0 IDoP0=0 IntGTp=1.
 FoFCou: FMM=T IPFlag=           0 FMFlag=      100000 FMFlg1=        2001
         NFxFlg=           0 DoJE=F BraDBF=F KetDBF=F FulRan=T
         wScrn=  0.000000 ICntrl=         0 IOpCl=  0 I1Cent=           0 NGrid=           0
         NMat0=    1 NMatS0=      1 NMatT0=    0 NMatD0=    1 NMtDS0=    0 NMtDT0=    0
 Symmetry not used in FoFCou.
 FMM levels:  10  Number of levels for PrismC:   9
 E= -1982.76246483429    
 DIIS: error= 2.50D-02 at cycle   1 NSaved=   1.
 NSaved= 1 IEnMin= 1 EnMin= -1982.76246483429     IErMin= 1 ErrMin= 2.50D-02
 ErrMax= 2.50D-02  0.00D+00 EMaxC= 1.00D-01 BMatC= 9.36D-01 BMatP= 9.36D-01
 IDIUse=3 WtCom= 7.50D-01 WtEn= 2.50D-01
 Coeff-Com:  0.100D+01
 Coeff-En:   0.100D+01
 Coeff:      0.100D+01
 Gap=     0.177 Goal=   None    Shift=    0.000
 GapD=    0.177 DampG=1.000 DampE=0.500 DampFc=0.5000 IDamp=-1.
 Damping current iteration by 5.00D-01
 RMSDP=4.96D-03 MaxDP=2.07D-01              OVMax= 1.92D-01

 Cycle   2  Pass 0  IDiag  1:
 RMSU=  2.26D-03    CP:  9.39D-01
 E= -1983.23738051668     Delta-E=       -0.474915682389 Rises=F Damp=T
 DIIS: error= 4.55D-03 at cycle   2 NSaved=   2.
 NSaved= 2 IEnMin= 2 EnMin= -1983.23738051668     IErMin= 2 ErrMin= 4.55D-03
 ErrMax= 4.55D-03  0.00D+00 EMaxC= 1.00D-01 BMatC= 4.36D-02 BMatP= 9.36D-01
 IDIUse=3 WtCom= 9.54D-01 WtEn= 4.55D-02
 Coeff-Com:  0.510D-01 0.949D+00
 Coeff-En:   0.784D-01 0.922D+00
 Coeff:      0.522D-01 0.948D+00
 Gap=     0.169 Goal=   None    Shift=    0.000
 RMSDP=1.71D-03 MaxDP=1.15D-01 DE=-4.75D-01 OVMax= 1.79D-01

 Cycle   3  Pass 0  IDiag  1:
 RMSU=  1.57D-03    CP:  8.99D-01  1.08D+00
 E= -1983.74753063327     Delta-E=       -0.510150116593 Rises=F Damp=F
 DIIS: error= 6.95D-03 at cycle   3 NSaved=   3.
 NSaved= 3 IEnMin= 3 EnMin= -1983.74753063327     IErMin= 2 ErrMin= 4.55D-03
 ErrMax= 6.95D-03  0.00D+00 EMaxC= 1.00D-01 BMatC= 5.18D-02 BMatP= 4.36D-02
 IDIUse=3 WtCom= 1.07D-01 WtEn= 8.93D-01
 Coeff-Com: -0.693D-02 0.527D+00 0.480D+00
 Coeff-En:   0.000D+00 0.000D+00 0.100D+01
 Coeff:     -0.743D-03 0.565D-01 0.944D+00
 Gap=     0.175 Goal=   None    Shift=    0.000
 RMSDP=1.64D-03 MaxDP=9.83D-02 DE=-5.10D-01 OVMax= 1.92D-01

 Cycle   4  Pass 0  IDiag  1:
 RMSU=  1.17D-03    CP:  9.03D-01  1.26D+00  3.22D-01
 E= -1983.56994198529     Delta-E=        0.177588647979 Rises=F Damp=F
 DIIS: error= 1.39D-02 at cycle   4 NSaved=   4.
 NSaved= 4 IEnMin= 3 EnMin= -1983.74753063327     IErMin= 2 ErrMin= 4.55D-03
 ErrMax= 1.39D-02  0.00D+00 EMaxC= 1.00D-01 BMatC= 2.01D-01 BMatP= 4.36D-02
 IDIUse=2 WtCom= 0.00D+00 WtEn= 1.00D+00
 Coeff-En:   0.000D+00 0.000D+00 0.743D+00 0.257D+00
 Coeff:      0.000D+00 0.000D+00 0.743D+00 0.257D+00
 Gap=     0.155 Goal=   None    Shift=    0.000
 RMSDP=8.66D-04 MaxDP=6.04D-02 DE= 1.78D-01 OVMax= 1.02D-01

 Cycle   5  Pass 0  IDiag  1:
 RMSU=  1.85D-04    CP:  9.00D-01  1.17D+00  6.69D-01  4.81D-01
 E= -1983.79487245144     Delta-E=       -0.224930466150 Rises=F Damp=F
 DIIS: error= 3.19D-03 at cycle   5 NSaved=   5.
 NSaved= 5 IEnMin= 5 EnMin= -1983.79487245144     IErMin= 5 ErrMin= 3.19D-03
 ErrMax= 3.19D-03  0.00D+00 EMaxC= 1.00D-01 BMatC= 1.15D-02 BMatP= 4.36D-02
 IDIUse=3 WtCom= 9.68D-01 WtEn= 3.19D-02
 Coeff-Com:  0.465D-02 0.802D-02 0.332D+00 0.161D-01 0.640D+00
 Coeff-En:   0.000D+00 0.000D+00 0.225D+00 0.000D+00 0.775D+00
 Coeff:      0.450D-02 0.777D-02 0.328D+00 0.156D-01 0.644D+00
 Gap=     0.149 Goal=   None    Shift=    0.000
 RMSDP=2.68D-04 MaxDP=1.63D-02 DE=-2.25D-01 OVMax= 2.76D-02

 Cycle   6  Pass 0  IDiag  1:
 RMSU=  7.71D-05    CP:  8.99D-01  1.14D+00  7.80D-01  3.35D-01  8.00D-01
 E= -1983.80791057944     Delta-E=       -0.013038128000 Rises=F Damp=F
 DIIS: error= 4.31D-04 at cycle   6 NSaved=   6.
 NSaved= 6 IEnMin= 6 EnMin= -1983.80791057944     IErMin= 6 ErrMin= 4.31D-04
 ErrMax= 4.31D-04  0.00D+00 EMaxC= 1.00D-01 BMatC= 2.20D-04 BMatP= 1.15D-02
 IDIUse=3 WtCom= 9.96D-01 WtEn= 4.31D-03
 Coeff-Com:  0.173D-02-0.685D-02 0.113D+00-0.329D-01 0.394D+00 0.531D+00
 Coeff-En:   0.000D+00 0.000D+00 0.000D+00 0.000D+00 0.000D+00 0.100D+01
 Coeff:      0.172D-02-0.682D-02 0.113D+00-0.328D-01 0.392D+00 0.533D+00
 Gap=     0.148 Goal=   None    Shift=    0.000
 RMSDP=3.69D-05 MaxDP=1.77D-03 DE=-1.30D-02 OVMax= 3.77D-03

 Cycle   7  Pass 0  IDiag  1:
 RMSU=  2.74D-05    CP:  8.99D-01  1.14D+00  7.81D-01  3.33D-01  8.36D-01
                    CP:  6.93D-01
 E= -1983.80817080210     Delta-E=       -0.000260222651 Rises=F Damp=F
 DIIS: error= 1.24D-04 at cycle   7 NSaved=   7.
 NSaved= 7 IEnMin= 7 EnMin= -1983.80817080210     IErMin= 7 ErrMin= 1.24D-04
 ErrMax= 1.24D-04  0.00D+00 EMaxC= 1.00D-01 BMatC= 1.52D-05 BMatP= 2.20D-04
 IDIUse=3 WtCom= 9.99D-01 WtEn= 1.24D-03
 Coeff-Com:  0.708D-03-0.356D-02 0.480D-01-0.216D-01 0.197D+00 0.315D+00
 Coeff-Com:  0.465D+00
 Coeff-En:   0.000D+00 0.000D+00 0.000D+00 0.000D+00 0.000D+00 0.000D+00
 Coeff-En:   0.100D+01
 Coeff:      0.707D-03-0.355D-02 0.480D-01-0.216D-01 0.197D+00 0.314D+00
 Coeff:      0.465D+00
 Gap=     0.148 Goal=   None    Shift=    0.000
 RMSDP=1.35D-05 MaxDP=5.50D-04 DE=-2.60D-04 OVMax= 1.16D-03

 Cycle   8  Pass 0  IDiag  1:
 RMSU=  1.28D-05    CP:  8.99D-01  1.14D+00  7.81D-01  3.33D-01  8.24D-01
                    CP:  6.96D-01  9.19D-01
 E= -1983.80819104410     Delta-E=       -0.000020242001 Rises=F Damp=F
 DIIS: error= 2.76D-05 at cycle   8 NSaved=   8.
 NSaved= 8 IEnMin= 8 EnMin= -1983.80819104410     IErMin= 8 ErrMin= 2.76D-05
 ErrMax= 2.76D-05  0.00D+00 EMaxC= 1.00D-01 BMatC= 8.64D-07 BMatP= 1.52D-05
 IDIUse=1 WtCom= 1.00D+00 WtEn= 0.00D+00
 Coeff-Com:  0.250D-03-0.120D-02 0.165D-01-0.923D-02 0.732D-01 0.122D+00
 Coeff-Com:  0.242D+00 0.557D+00
 Coeff:      0.250D-03-0.120D-02 0.165D-01-0.923D-02 0.732D-01 0.122D+00
 Coeff:      0.242D+00 0.557D+00
 Gap=     0.148 Goal=   None    Shift=    0.000
 RMSDP=1.01D-05 MaxDP=3.09D-04 DE=-2.02D-05 OVMax= 3.07D-04

 Cycle   9  Pass 0  IDiag  1:
 RMSU=  8.16D-06    CP:  8.99D-01  1.14D+00  7.82D-01  3.33D-01  8.21D-01
                    CP:  6.93D-01  1.06D+00  1.34D+00
 E= -1983.80819001391     Delta-E=        0.000001030187 Rises=F Damp=F
 DIIS: error= 1.92D-05 at cycle   9 NSaved=   9.
 NSaved= 9 IEnMin= 8 EnMin= -1983.80819104410     IErMin= 9 ErrMin= 1.92D-05
 ErrMax= 1.92D-05  0.00D+00 EMaxC= 1.00D-01 BMatC= 2.31D-07 BMatP= 8.64D-07
 IDIUse=1 WtCom= 1.00D+00 WtEn= 0.00D+00
 Coeff-Com:  0.925D-04-0.431D-03 0.600D-02-0.394D-02 0.282D-01 0.481D-01
 Coeff-Com:  0.110D+00 0.360D+00 0.452D+00
 Coeff:      0.925D-04-0.431D-03 0.600D-02-0.394D-02 0.282D-01 0.481D-01
 Coeff:      0.110D+00 0.360D+00 0.452D+00
 Gap=     0.148 Goal=   None    Shift=    0.000
 RMSDP=1.12D-05 MaxDP=4.23D-04 DE= 1.03D-06 OVMax= 9.07D-05

 Cycle  10  Pass 0  IDiag  1:
 RMSU=  6.58D-06    CP:  8.99D-01  1.14D+00  7.82D-01  3.33D-01  8.19D-01
                    CP:  6.97D-01  1.16D+00  1.74D+00  1.84D+00
 E= -1983.80818838103     Delta-E=        0.000001632875 Rises=F Damp=F
 DIIS: error= 3.57D-05 at cycle  10 NSaved=  10.
 NSaved=10 IEnMin= 8 EnMin= -1983.80819104410     IErMin= 9 ErrMin= 1.92D-05
 ErrMax= 3.57D-05  0.00D+00 EMaxC= 1.00D-01 BMatC= 2.51D-07 BMatP= 2.31D-07
 IDIUse=1 WtCom= 1.00D+00 WtEn= 0.00D+00
 Coeff-Com:  0.937D-04-0.419D-03 0.602D-02-0.418D-02 0.289D-01 0.497D-01
 Coeff-Com:  0.120D+00 0.428D+00 0.640D+00-0.267D+00
 Coeff:      0.937D-04-0.419D-03 0.602D-02-0.418D-02 0.289D-01 0.497D-01
 Coeff:      0.120D+00 0.428D+00 0.640D+00-0.267D+00
 Gap=     0.148 Goal=   None    Shift=    0.000
 RMSDP=7.48D-06 MaxDP=2.17D-04 DE= 1.63D-06 OVMax= 2.22D-05

 Initial convergence to 1.0D-05 achieved.  Increase integral accuracy.
 Cycle  11  Pass 1  IDiag  1:
 E= -1983.80786964190     Delta-E=        0.000318739134 Rises=F Damp=F
 DIIS: error= 5.67D-04 at cycle   1 NSaved=   1.
 NSaved= 1 IEnMin= 1 EnMin= -1983.80786964190     IErMin= 1 ErrMin= 5.67D-04
 ErrMax= 5.67D-04  0.00D+00 EMaxC= 1.00D-01 BMatC= 1.09D-04 BMatP= 1.09D-04
 IDIUse=3 WtCom= 9.94D-01 WtEn= 5.67D-03
 Coeff-Com:  0.100D+01
 Coeff-En:   0.100D+01
 Coeff:      0.100D+01
 Gap=     0.148 Goal=   None    Shift=    0.000
 RMSDP=7.48D-06 MaxDP=2.17D-04 DE= 3.19D-04 OVMax= 1.16D-03

 Cycle  12  Pass 1  IDiag  1:
 RMSU=  5.74D-04    CP:  9.97D-01
 E= -1983.80799159605     Delta-E=       -0.000121954152 Rises=F Damp=F
 DIIS: error= 7.30D-06 at cycle   2 NSaved=   2.
 NSaved= 2 IEnMin= 2 EnMin= -1983.80799159605     IErMin= 2 ErrMin= 7.30D-06
 ErrMax= 7.30D-06  0.00D+00 EMaxC= 1.00D-01 BMatC= 8.17D-08 BMatP= 1.09D-04
 IDIUse=1 WtCom= 1.00D+00 WtEn= 0.00D+00
 Coeff-Com: -0.900D-02 0.101D+01
 Coeff:     -0.900D-02 0.101D+01
 Gap=     0.148 Goal=   None    Shift=    0.000
 RMSDP=7.49D-06 MaxDP=2.28D-04 DE=-1.22D-04 OVMax= 2.89D-04

 Cycle  13  Pass 1  IDiag  1:
 RMSU=  2.89D-06    CP:  9.97D-01  1.01D+00
 E= -1983.80799130100     Delta-E=        0.000000295051 Rises=F Damp=F
 DIIS: error= 1.70D-05 at cycle   3 NSaved=   3.
 NSaved= 3 IEnMin= 2 EnMin= -1983.80799159605     IErMin= 2 ErrMin= 7.30D-06
 ErrMax= 1.70D-05  0.00D+00 EMaxC= 1.00D-01 BMatC= 3.44D-07 BMatP= 8.17D-08
 IDIUse=1 WtCom= 1.00D+00 WtEn= 0.00D+00
 Coeff-Com: -0.684D-02 0.696D+00 0.311D+00
 Coeff:     -0.684D-02 0.696D+00 0.311D+00
 Gap=     0.148 Goal=   None    Shift=    0.000
 RMSDP=1.41D-06 MaxDP=6.61D-05 DE= 2.95D-07 OVMax= 2.08D-04

 Cycle  14  Pass 1  IDiag  1:
 RMSU=  1.12D-06    CP:  9.97D-01  1.01D+00  7.04D-01
 E= -1983.80799169860     Delta-E=       -0.000000397597 Rises=F Damp=F
 DIIS: error= 1.52D-06 at cycle   4 NSaved=   4.
 NSaved= 4 IEnMin= 4 EnMin= -1983.80799169860     IErMin= 4 ErrMin= 1.52D-06
 ErrMax= 1.52D-06  0.00D+00 EMaxC= 1.00D-01 BMatC= 3.82D-09 BMatP= 8.17D-08
 IDIUse=1 WtCom= 1.00D+00 WtEn= 0.00D+00
 Coeff-Com: -0.321D-02 0.323D+00 0.161D+00 0.520D+00
 Coeff:     -0.321D-02 0.323D+00 0.161D+00 0.520D+00
 Gap=     0.148 Goal=   None    Shift=    0.000
 RMSDP=2.07D-07 MaxDP=1.30D-05 DE=-3.98D-07 OVMax= 2.92D-05

 Cycle  15  Pass 1  IDiag  1:
 RMSU=  1.81D-07    CP:  9.97D-01  1.01D+00  7.26D-01  9.33D-01
 E= -1983.80799170186     Delta-E=       -0.000000003260 Rises=F Damp=F
 DIIS: error= 7.26D-07 at cycle   5 NSaved=   5.
 NSaved= 5 IEnMin= 5 EnMin= -1983.80799170186     IErMin= 5 ErrMin= 7.26D-07
 ErrMax= 7.26D-07  0.00D+00 EMaxC= 1.00D-01 BMatC= 8.80D-10 BMatP= 3.82D-09
 IDIUse=1 WtCom= 1.00D+00 WtEn= 0.00D+00
 Coeff-Com: -0.389D-03 0.372D-01 0.259D-01 0.332D+00 0.606D+00
 Coeff:     -0.389D-03 0.372D-01 0.259D-01 0.332D+00 0.606D+00
 Gap=     0.148 Goal=   None    Shift=    0.000
 RMSDP=8.50D-08 MaxDP=4.23D-06 DE=-3.26D-09 OVMax= 1.20D-05

 Cycle  16  Pass 1  IDiag  1:
 RMSU=  4.86D-08    CP:  9.97D-01  1.01D+00  7.30D-01  9.64D-01  6.80D-01
 E= -1983.80799170277     Delta-E=       -0.000000000908 Rises=F Damp=F
 DIIS: error= 2.62D-07 at cycle   6 NSaved=   6.
 NSaved= 6 IEnMin= 6 EnMin= -1983.80799170277     IErMin= 6 ErrMin= 2.62D-07
 ErrMax= 2.62D-07  0.00D+00 EMaxC= 1.00D-01 BMatC= 1.02D-10 BMatP= 8.80D-10
 IDIUse=1 WtCom= 1.00D+00 WtEn= 0.00D+00
 Coeff-Com:  0.130D-05-0.135D-02 0.360D-02 0.167D+00 0.373D+00 0.458D+00
 Coeff:      0.130D-05-0.135D-02 0.360D-02 0.167D+00 0.373D+00 0.458D+00
 Gap=     0.148 Goal=   None    Shift=    0.000
 RMSDP=2.58D-08 MaxDP=1.24D-06 DE=-9.08D-10 OVMax= 3.04D-06

 Cycle  17  Pass 1  IDiag  1:
 RMSU=  1.52D-08    CP:  9.97D-01  1.01D+00  7.30D-01  9.67D-01  7.25D-01
                    CP:  6.15D-01
 E= -1983.80799170283     Delta-E=       -0.000000000068 Rises=F Damp=F
 DIIS: error= 6.76D-08 at cycle   7 NSaved=   7.
 NSaved= 7 IEnMin= 7 EnMin= -1983.80799170283     IErMin= 7 ErrMin= 6.76D-08
 ErrMax= 6.76D-08  0.00D+00 EMaxC= 1.00D-01 BMatC= 5.67D-12 BMatP= 1.02D-10
 IDIUse=1 WtCom= 1.00D+00 WtEn= 0.00D+00
 Coeff-Com:  0.247D-04-0.308D-02 0.401D-03 0.762D-01 0.176D+00 0.266D+00
 Coeff-Com:  0.484D+00
 Coeff:      0.247D-04-0.308D-02 0.401D-03 0.762D-01 0.176D+00 0.266D+00
 Coeff:      0.484D+00
 Gap=     0.148 Goal=   None    Shift=    0.000
 RMSDP=7.38D-09 MaxDP=3.30D-07 DE=-6.82D-11 OVMax= 8.47D-07

 SCF Done:  E(RB3LYP) =  -1983.80799170     A.U. after   17 cycles
            NFock= 17  Conv=0.74D-08     -V/T= 2.0086
 KE= 1.966821797753D+03 PE=-1.472555774338D+04 EE= 5.721455538429D+03
 Leave Link  502 at Mon Mar 24 23:48:37 2025, MaxMem= 13421772800 cpu:            2251.5 elap:              71.5
 (Enter /public/software/apps/Gaussian/g16/l601.exe)
 Copying SCF densities to generalized density rwf, IOpCl= 0 IROHF=0.

 **********************************************************************

            Population analysis using the SCF Density.

 **********************************************************************

 Alpha  occ. eigenvalues --  -66.13633 -19.16829 -19.15762 -19.15405 -10.26271
 Alpha  occ. eigenvalues --  -10.25859 -10.24482 -10.21239 -10.20665 -10.20001
 Alpha  occ. eigenvalues --  -10.19862 -10.19741 -10.19734 -10.19641 -10.19496
 Alpha  occ. eigenvalues --  -10.19178 -10.19066 -10.18908 -10.18876 -10.18852
 Alpha  occ. eigenvalues --  -10.18700 -10.18657 -10.18612 -10.18553 -10.18369
 Alpha  occ. eigenvalues --  -10.18280 -10.18227 -10.18144 -10.17830 -10.17782
 Alpha  occ. eigenvalues --  -10.17752 -10.17739 -10.17700 -10.17690 -10.17548
 Alpha  occ. eigenvalues --  -10.17519 -10.17444 -10.17181 -10.17152 -10.16877
 Alpha  occ. eigenvalues --  -10.16373 -10.15692  -5.29802  -3.66251  -3.65897
 Alpha  occ. eigenvalues --   -3.65848  -1.06422  -1.04940  -1.04441  -0.88591
 Alpha  occ. eigenvalues --   -0.87192  -0.86601  -0.85120  -0.82762  -0.81555
 Alpha  occ. eigenvalues --   -0.80495  -0.80189  -0.77125  -0.75924  -0.75251
 Alpha  occ. eigenvalues --   -0.75175  -0.73636  -0.73470  -0.72455  -0.71595
 Alpha  occ. eigenvalues --   -0.70545  -0.69883  -0.68753  -0.68492  -0.67749
 Alpha  occ. eigenvalues --   -0.65222  -0.64274  -0.63330  -0.62885  -0.61930
 Alpha  occ. eigenvalues --   -0.60989  -0.60157  -0.59714  -0.58058  -0.57899
 Alpha  occ. eigenvalues --   -0.56407  -0.56208  -0.54872  -0.54471  -0.52937
 Alpha  occ. eigenvalues --   -0.52185  -0.51649  -0.51121  -0.49968  -0.49313
 Alpha  occ. eigenvalues --   -0.48173  -0.47752  -0.47703  -0.46144  -0.45902
 Alpha  occ. eigenvalues --   -0.45513  -0.44973  -0.44836  -0.44735  -0.44512
 Alpha  occ. eigenvalues --   -0.44346  -0.43753  -0.43491  -0.43456  -0.43141
 Alpha  occ. eigenvalues --   -0.42536  -0.42189  -0.42032  -0.41817  -0.41489
 Alpha  occ. eigenvalues --   -0.41212  -0.41125  -0.40522  -0.40499  -0.40234
 Alpha  occ. eigenvalues --   -0.39500  -0.39220  -0.39154  -0.38870  -0.38748
 Alpha  occ. eigenvalues --   -0.38467  -0.37929  -0.37791  -0.37336  -0.37158
 Alpha  occ. eigenvalues --   -0.36995  -0.36605  -0.36218  -0.35752  -0.35550
 Alpha  occ. eigenvalues --   -0.34743  -0.34240  -0.34180  -0.33606  -0.33411
 Alpha  occ. eigenvalues --   -0.33074  -0.32395  -0.32049  -0.30899  -0.30074
 Alpha  occ. eigenvalues --   -0.29338  -0.28004  -0.27954  -0.27725  -0.25851
 Alpha  occ. eigenvalues --   -0.25100  -0.24425  -0.23364  -0.22108  -0.21859
 Alpha  occ. eigenvalues --   -0.20438
 Alpha virt. eigenvalues --   -0.05602  -0.04252  -0.02966  -0.01588  -0.01268
 Alpha virt. eigenvalues --   -0.00080   0.00110   0.01297   0.02140   0.03116
 Alpha virt. eigenvalues --    0.03761   0.05206   0.06109   0.06634   0.06823
 Alpha virt. eigenvalues --    0.07050   0.07321   0.07576   0.08204   0.08477
 Alpha virt. eigenvalues --    0.08986   0.09326   0.09488   0.09912   0.10187
 Alpha virt. eigenvalues --    0.10662   0.10832   0.11034   0.11292   0.11668
[...]
 0002384,0.00000221,0.00000132,0.00000451,-0.00000271,0.00000378,0.0000
 0080,-0.00000093,0.00000154,0.00000029,0.00000038,0.00000260,0.0000003
 9,-0.00000117,-0.00000433,0.00000758,-0.00018443,0.00017748,0.00005216
 ,0.00054350,-0.00006181,-0.00068940,-0.00035776,-0.00074099,0.00006518
 ,0.00303639,-0.00006385,-0.00290439,0.03488202,0.04990277,0.04801718,0
 .00029280,-0.00002205,-0.00004858,-0.00038156,-0.00053146,0.00021392,-
 0.00000547,0.00004185,0.00006949,0.00028704,0.00112328,-0.00100947,-0.
 00029675,0.00150976,-0.00114458,0.00007700,-0.00015364,0.00016323,0.00
 002914,-0.00023961,0.00031978,0.00129749,-0.00193327,0.00081169,-0.003
 78815,0.00055341,0.00043810,-0.00042198,0.00046735,0.00015157,0.000192
 63,0.00018218,-0.00042696,0.00007793,0.00034308,0.00027915,0.00441331,
 -0.00363819,-0.00100090,0.00111650,-0.00369409,-0.00372398,-0.00166622
 ,-0.00024004,0.00033204,0.00057035,-0.00030408,-0.00055169,-0.00024674
 ,0.00033619,0.00024121,0.00036678,-0.00011715,-0.00024223,-0.00024660,
 -0.00017583,-0.00010826,0.00001664,0.00004690,-0.00006338,-0.00018174,
 -0.00033735,0.00118373,0.00224347,0.00089568,-0.00017709,-0.00026988,-
 0.00012453,0.00017175,0.00017770,0.00019763,0.00007794,-0.00029286,0.0
 0027949,-0.00020517,-0.00012663,-0.00029658,-0.00008986,0.00013767,-0.
 00014906,0.00010173,-0.00002098,0.00014096,-0.00004937,0.00004819,-0.0
 0004754,0.00000286,-0.00002513,0.00006808,-0.00003173,-0.00003593,-0.0
 0000530,0.00001303,-0.00007522,0.00003620,-0.00002082,0.00016532,0.000
 06699,0.00010891,-0.00000137,0.00013153,-0.00002495,0.00004460,-0.0000
 0737,0.00002453,0.00000393,0.00008514,-0.00000585,-0.00008304,-0.00003
 447,-0.00006652,0.00009804,-0.00009189,0.00003342,-0.00027348,0.000238
 10,-0.00016052,-0.02555757,0.00205133,0.01403751,-0.36367921,-0.127558
 31,0.11106119,0.00006340,0.00329729,0.00104459,-0.00001198,-0.00005582
 ,-0.00004481,-0.00000817,0.00003723,0.00004232,0.00001163,-0.00010641,
 0.00007372,-0.00002217,-0.00003324,-0.00003172,0.00005872,-0.00003067,
 0.00000633,-0.00005909,-0.00000907,0.00005444,0.00012468,-0.00046589,0
 .00004080,-0.00099050,0.00005164,0.00087579,0.00015619,0.00033170,0.00
 015844,-0.00003885,0.00001738,-0.00001601,0.00005058,-0.00003339,0.000
 01524,0.00000722,0.00001658,-0.00000242,-0.00001198,-0.00002940,0.0000
 7962,0.00007470,0.00002602,-0.00006151,0.00001359,0.00002587,-0.000068
 83,0.00006487,0.00005195,-0.00004547,-0.00003073,0.00002252,-0.0000441
 9,0.00001801,0.00026451,-0.00010100,0.00029119,-0.00029711,-0.00024352
 ,-0.00001700,-0.00006024,-0.00002533,0.00002565,-0.00001799,0.00000169
 ,0.00004462,0.00000239,-0.00000325,0.00001692,-0.00000781,0.00003428,0
 .00046706,-0.00031655,0.00033432,0.00007879,-0.00003270,-0.00002112,-0
 .00003855,0.00005468,-0.00001250,-0.00000489,0.00001272,-0.00000469,-0
 .00000460,0.00001379,-0.00000356,-0.00002292,-0.00002596,0.00001897,0.
 00002588,0.00002135,0.00002117,0.00001706,0.00002513,0.00000674,0.0000
 2276,0.00000962,0.00001402,0.00000310,-0.00001294,0.00001184,-0.000055
 67,0.00005882,-0.00003049,0.38637736,-0.00049297,-0.00005868,-0.000205
 61,0.00031389,0.00024991,0.00032465,-0.00026528,0.00013593,-0.00031804
 ,-0.00089459,-0.00043886,-0.00021996,0.00055234,0.00252079,0.00038759,
 -0.00010115,-0.00041967,-0.00018021,0.00002429,-0.00044209,-0.00004851
 ,0.00132343,-0.00281520,0.00049078,-0.00261177,0.00130557,0.00025243,0
 .00018526,0.00048849,-0.00032842,0.00067932,-0.00048371,-0.00014438,-0
 .00089806,-0.00120088,0.00147166,0.00114233,-0.00082896,-0.00038864,0.
 00176674,-0.00133976,-0.00172272,0.00046766,-0.00025392,-0.00020711,-0
 .00018774,-0.00020604,0.00005144,0.00004265,-0.00005557,-0.00002868,-0
 .00007705,-0.00024438,-0.00009119,0.00000456,0.00015011,0.00023774,0.0
 0030224,-0.00032207,-0.00027606,-0.00002910,0.00150797,-0.00044652,0.0
 0196753,-0.00337807,-0.00464666,-0.00053989,-0.00071985,0.00035790,-0.
 00063518,0.00008425,-0.00011436,0.00050562,0.00014016,-0.00007155,0.00
 012108,0.00028904,0.00009960,-0.00003841,0.00009410,-0.00005232,-0.000
 06731,-0.00014850,0.00004191,0.00003013,0.00003987,-0.00002463,0.00001
 027,-0.00002409,0.00000872,0.00001785,0.00001377,-0.00001128,0.0000360
 9,-0.00001669,0.00000868,-0.00017039,0.00000183,-0.00014806,0.00009620
 ,-0.00017563,0.00004656,-0.00005742,0.00002698,-0.00004142,0.00001013,
 -0.00008712,0.00000861,0.00006465,0.00007244,0.00004310,-0.00006251,0.
 00006964,-0.00006462,0.00029053,0.00007051,0.00026682,0.02966371,0.010
 54710,-0.00717974,-0.16144663,-0.09188229,0.03167773,-0.00052161,0.001
 93207,-0.00097677,0.00001898,-0.00008096,0.00003307,0.00004099,-0.0000
 2002,0.00002526,-0.00005683,0.00020426,-0.00010867,0.00005477,-0.00005
 666,-0.00002627,-0.00018928,0.00005344,0.00007420,0.00005333,-0.000003
 35,0.00005985,-0.00017893,0.00012767,0.00003936,0.00126143,0.00054850,
 -0.00086412,0.00001086,-0.00107653,0.00079462,0.00000177,0.00003838,0.
 00001500,0.00009717,-0.00002220,0.00005383,-0.00012727,0.00002152,-0.0
 0006366,-0.00004697,-0.00004388,0.00003715,-0.00004861,0.00005871,0.00
 012513,0.00000220,0.00000234,-0.00020530,0.00005785,0.00004059,0.00005
 027,0.00005511,0.00001824,-0.00006364,-0.00000659,0.00005508,-0.000031
 27,0.00001929,0.00005671,-0.00003778,0.00000840,-0.00003630,-0.0000268
 5,-0.00001851,0.00000340,-0.00000639,0.00001718,-0.00001458,-0.0000229
 7,-0.00003598,0.00002519,-0.00002892,-0.00017722,0.00001266,0.00002381
 ,-0.00002757,-0.00000927,0.00004827,0.00001412,-0.00003340,0.00001820,
 0.00000175,0.00001194,-0.00000287,0.00000916,0.00000373,-0.00000307,0.
 00001943,0.00001220,-0.00000866,-0.00001651,-0.00000377,0.00000194,-0.
 00000465,-0.00000243,0.00000199,0.00000004,0.00000029,0.00000199,0.000
 00946,-0.00000176,0.00000292,-0.00002443,0.00001006,-0.00002888,0.1287
 1823,0.08615657,-0.00024350,0.00000056,-0.00013800,0.00029091,0.000140
 65,-0.00041020,-0.00001364,-0.00008326,0.00002472,-0.00077582,-0.00103
 001,0.00051778,-0.00037152,0.00150482,0.00007807,0.00005345,-0.0002089
 3,-0.00008963,0.00005351,-0.00038053,0.00007263,0.00111141,-0.00172694
 ,0.00031053,-0.00241464,0.00129205,0.00065368,0.00013469,0.00040864,-0
 .00033931,0.00058971,0.00029666,-0.00030928,-0.00013430,-0.00001733,0.
 00003599,-0.00044431,-0.00220602,-0.00083740,-0.00022078,0.00072776,0.
 00037916,0.00042424,0.00032514,-0.00032114,-0.00022349,0.00012807,0.00
 012365,-0.00002433,-0.00010813,-0.00012694,-0.00011673,-0.00005695,0.0
 0006457,-0.00002530,0.00022588,-0.00012376,0.00006948,-0.00024417,-0.0
 0020797,0.00153040,0.00021679,0.00108925,0.00118793,-0.00461316,-0.001
 25363,-0.00039590,-0.00003279,-0.00026307,0.00028678,0.00006269,0.0001
 5150,-0.00052960,-0.00014532,-0.00004259,-0.00007027,-0.00001977,-0.00
 002799,-0.00001333,0.00001420,-0.00001989,0.00000504,-0.00001301,-0.00
 001136,-0.00000601,-0.00000475,-0.00001423,-0.00000069,-0.00000644,-0.
 00000126,0.00000302,-0.00000192,-0.00000277,0.00000248,-0.00000616,-0.
 00000311,0.00001349,-0.00005461,0.00001172,-0.00000873,-0.00000234,-0.
 00004919,0.00002893,0.00000458,0.00000771,-0.00002839,-0.00000060,-0.0
 0004029,0.00000500,0.00001043,-0.00002943,-0.00001195,-0.00000355,-0.0
 0005368,0.00016061,0.00000971,0.00017189,0.02954415,0.01109016,-0.0135
 3892,0.08974417,0.01151198,-0.04713923,0.00107261,-0.00029227,0.000084
 46,0.00000340,-0.00006588,0.00000026,0.00002598,0.00002091,-0.00000656
 ,-0.00000110,0.00008084,-0.00003365,0.00001585,-0.00006752,-0.00003582
 ,-0.00000190,0.00002986,-0.00002778,0.00004679,0.00004217,0.00004866,0
 .00017902,-0.00023552,-0.00017699,0.00054453,0.00037906,0.00019633,0.0
 0004974,0.00059150,-0.00030899,0.00002564,0.00001159,0.00000714,0.0000
 4787,-0.00001742,0.00002732,-0.00005876,0.00001178,-0.00002355,0.00002
 627,-0.00001816,0.00009485,0.00006651,0.00008225,-0.00006266,0.0000222
 6,0.00001269,-0.00009492,0.00008231,0.00008839,-0.00005698,0.00004029,
 0.00004870,-0.00000780,-0.00000730,0.00020571,-0.00001339,-0.00009335,
 0.00010408,0.00012762,0.00001801,-0.00001134,-0.00000913,-0.00000257,-
 0.00001136,0.00003127,0.00000188,-0.00002343,-0.00001244,0.00001765,-0
 .00003322,0.00007125,0.00051963,-0.00010456,-0.00012070,-0.00000148,0.
 00002295,0.00003443,0.00000286,0.00000306,0.00000931,0.00000161,0.0000
 0019,0.00000501,-0.00000027,-0.00000094,0.00000382,0.00000150,0.000004
 59,0.00000255,-0.00001415,-0.00000930,0.00000073,-0.00001028,-0.000007
 99,0.00000369,-0.00001276,-0.00000066,0.00000195,-0.00002401,0.0000088
 7,0.00000639,0.00001439,0.00000126,0.00004326,-0.12071993,-0.01830964,
 0.06425437,-0.00002267,-0.00000617,-0.00007646,0.00014465,-0.00002674,
 -0.00008334,-0.00010083,-0.00011521,-0.00005043,-0.00001276,-0.0001521
 0,-0.00004378,-0.00300841,0.00141272,0.00074387,0.00017948,-0.00001517
 ,-0.00018000,0.00012228,-0.00031850,-0.00007437,0.00287473,0.00012854,
 -0.00157034,-0.00481963,-0.02705284,0.01468044,-0.00534972,0.00117053,
 0.00166487,-0.00105140,0.00073840,-0.00028025,-0.00206728,0.00340600,0
 .00020485,0.00977895,0.01631596,-0.00972911,0.00058899,0.00034966,-0.0
 0097191,0.00007156,0.00003634,0.00009173,0.00010887,-0.00005923,-0.000
 09681,-0.00001055,0.00006584,0.00005738,0.00006789,0.00000614,-0.00003
 419,0.00000049,-0.00005390,-0.00003077,-0.00004635,-0.00002360,0.00000
 284,0.00001727,-0.00000241,0.00000957,0.00004867,-0.00014802,0.0001968
 1,-0.00004487,-0.00005492,-0.00000231,-0.00020121,0.00004754,-0.000291
 73,0.00038751,0.00015725,0.00008723,0.00002842,-0.00002024,0.00006552,
 0.00004159,-0.00005102,0.00001703,-0.00001851,0.00003347,-0.00000524,0
 .00002631,-0.00002026,-0.00000067,-0.00000816,0.00002557,-0.00001505,-
 0.00001309,0.00000149,0.00000246,-0.00002225,0.00000861,-0.00000226,0.
 00000981,0.00003620,-0.00000401,0.00001319,0.00001726,0.00002356,-0.00
 000243,-0.00000297,-0.00000223,0.00001215,0.00001056,0.00000708,-0.000
 01445,0.00000007,-0.00000604,0.00002769,-0.00001401,0.00001395,-0.0000
 6338,0.00003070,-0.00005109,-0.00096090,0.00053460,-0.00036374,-0.0007
 2373,-0.00018400,-0.00104998,-0.09045336,-0.07635633,0.05052822,0.0000
 0444,-0.00004332,-0.00002925,0.00004062,0.00003598,0.00001847,-0.00000
 302,0.00000173,0.00001063,0.00002871,-0.00002035,-0.00005844,0.0000066
 4,0.00000252,0.00000681,0.00000616,0.00001459,0.00000080,0.00005359,-0
 .00007174,-0.00006393,-0.00008050,0.00005907,0.00010607,0.00030780,-0.
 00018740,-0.00012098,0.00009520,-0.00002964,0.00001924,-0.00000204,-0.
 00000288,0.00000411,-0.00002280,-0.00000415,0.00001104,0.00016503,-0.0
 0003693,0.00017698,0.00063864,0.00012292,-0.00019978,-0.00014683,0.000
 13714,-0.00038681,-0.00036704,-0.00137664,0.00063165,0.00001711,-0.000
 08708,-0.00009971,0.00051820,0.00094592,-0.00031231,-0.00000424,-0.000
 01314,-0.00006349,-0.00000480,-0.00001369,-0.00000461,0.00000705,-0.00
 000327,-0.00000854,0.00001106,-0.00000146,-0.00000464,0.00000189,0.000
 00374,0.00000155,-0.00038925,-0.00010044,0.00022821,0.00003139,-0.0000
 1730,-0.00000641,-0.00001460,0.00002223,-0.00000031,-0.00000026,0.0000
 0546,-0.00000109,-0.00000214,0.00000404,-0.00000033,-0.00000668,-0.000
 00761,0.00000475,0.00001341,0.00000685,0.00000709,0.00000454,0.0000068
 0,0.00000211,0.00000571,0.00000173,0.00000289,0.00000366,-0.00000366,0
 .00000205,-0.00000986,0.00000954,-0.00001255,-0.00067685,-0.00003365,-
 0.00104492,0.09423551,-0.00000858,-0.00004639,-0.00006026,-0.00013846,
 -0.00009390,0.00008277,-0.00000370,0.00005605,-0.00002015,0.00013590,-
 0.00060821,-0.00055131,0.00050001,0.00034819,-0.00023214,-0.00004457,0
 .00001445,0.00005032,0.00105123,-0.00181723,0.00178911,-0.00052786,0.0
 0042173,-0.00189932,0.00244697,0.00064503,0.00176792,0.00005461,0.0019
 9209,0.00163348,0.00027926,0.00041360,-0.00051355,0.00445735,-0.000239
 10,0.00212971,-0.00851811,-0.01557077,0.01004305,-0.00198553,-0.000141
 02,-0.00099962,0.00063233,-0.00002245,-0.00051890,-0.00014753,-0.00016
 396,0.00010367,0.00007854,-0.00005042,-0.00007889,-0.00008001,-0.00006
 462,-0.00000023,-0.00001944,0.00006353,0.00004272,0.00004807,0.0000442
 6,-0.00004236,-0.00007019,0.00008167,0.00010829,0.00036720,-0.00000148
 ,0.00006154,0.00003644,0.00001552,0.00000936,-0.00012470,-0.00003000,-
 0.00013918,0.00024647,0.00000847,0.00003394,0.00001778,0.00003620,0.00
 002904,-0.00001814,0.00002137,-0.00002868,-0.00000794,-0.00003086,0.00
 003358,0.00000821,0.00000831,-0.00000559,0.00000217,-0.00000639,0.0000
 0165,0.00000497,0.00000334,-0.00000320,0.00001254,-0.00000266,0.000003
 03,-0.00002231,-0.00001135,-0.00001384,0.00000943,-0.00000980,0.000005
 92,-0.00001050,-0.00000403,-0.00000962,0.00000436,-0.00001368,0.000003
 15,0.00001397,0.00000374,0.00000597,-0.00000374,0.00001734,-0.00000872
 ,0.00001715,-0.00003566,0.00001688,0.00002537,-0.00009638,-0.00048661,
 -0.00071841,0.00057975,-0.00067879,-0.07768089,-0.24201914,0.11753534,
 0.00000391,-0.00000126,0.00002738,-0.00000494,-0.00000620,0.00000918,-
 0.00001502,0.00001716,0.00001068,-0.00000196,0.00000554,0.00001454,-0.
 00001932,0.00000518,0.00000937,0.00000117,0.00000059,0.00000988,0.0000
 3580,-0.00008262,0.00006587,-0.00008691,-0.00019956,0.00003539,-0.0000
 4813,-0.00065531,-0.00059428,-0.00003186,0.00000934,-0.00000694,-0.000
 01861,0.00000061,-0.00000330,-0.00001201,-0.00000270,-0.00001096,0.000
 11733,-0.00034718,0.00013813,0.00037622,-0.00111444,0.00148705,-0.0002
 4218,-0.00007005,-0.00037949,0.00008499,0.00002833,-0.00001989,-0.0000
 9924,-0.00016120,-0.00023826,-0.00044421,-0.00068120,0.00062632,-0.000
 01786,0.00000621,0.00004153,0.00000532,0.00000234,0.00000754,-0.000001
 88,0.00000214,0.00000529,-0.00000367,-0.00000047,0.00000734,-0.0000073
 2,-0.00000550,0.00000645,-0.00010044,0.00022262,0.00006059,0.00000184,
 0.00000710,-0.00001496,0.00000383,-0.00000703,0.00000476,0.00000085,0.
 00000180,-0.00000028,0.00000175,0.00000034,-0.00000005,0.00000533,0.00
 000333,-0.00000250,-0.00000240,-0.00000183,-0.00000131,-0.00000243,-0.
 00000185,-0.00000055,-0.00000258,-0.00000160,-0.00000024,-0.00000106,0
 .00000087,0.00000082,0.00000519,-0.00000964,0.00001058,-0.00061752,-0.
 00025491,0.00045468,0.08081831,0.25959591,-0.00013411,-0.00002522,-0.0
 0006402,0.00014866,-0.00010126,0.00001468,-0.00012660,0.00002468,-0.00
 010249,0.00038508,0.00011219,0.00004854,0.00052942,-0.00010106,0.00131
 003,0.00011661,-0.00006327,-0.00027757,-0.00081828,0.00130467,-0.00174
 834,-0.00107441,-0.00222763,-0.00257608,0.00041830,0.00718492,0.000950
 74,0.00186318,0.00111701,0.00432183,-0.00028864,-0.00052999,-0.0004938
 3,0.00010210,0.00208592,0.00498229,0.00281428,0.00292864,-0.00033050,-
 0.00085695,-0.00192672,-0.00305957,0.00040560,-0.00005922,-0.00002688,
 0.00002458,-0.00021334,-0.00006309,0.00002137,0.00003857,-0.00003894,0
 .00000551,-0.00007154,-0.00004364,-0.00003760,0.00001968,0.00001942,0.
 00005263,-0.00002038,-0.00005004,-0.00005970,0.00017318,0.00015844,0.0
 0024774,-0.00022462,-0.00035160,-0.00006847,-0.00005333,-0.00005688,0.
 00007580,-0.00000150,0.00009827,-0.00005295,0.00002857,-0.00027009,-0.
 00002772,-0.00002308,-0.00001621,0.00000533,0.00001355,-0.00001011,-0.
 00004136,-0.00005357,0.00003766,0.00001800,0.00000922,-0.00001854,-0.0
 0000270,0.00000447,-0.00000591,0.00000032,0.00000339,-0.00000334,0.000
 00519,0.00000092,-0.00000299,0.00001580,-0.00000684,0.00000565,-0.0000
 0052,0.00001687,-0.00000436,0.00000233,-0.00000471,-0.00000137,0.00000
 218,0.00000609,-0.00000014,-0.00000529,-0.00000489,-0.00000591,0.00001
 852,0.00000047,-0.00000287,-0.00004899,0.00002182,-0.00002266,-0.00217
 533,0.00179245,0.00194796,0.00223648,-0.00101897,-0.00032335,0.0511481
 3,0.11872467,-0.09977119,0.00000826,-0.00003545,-0.00000226,0.00003270
 ,0.00000821,0.00001966,-0.00003143,0.00007048,-0.00002452,0.00002916,-
 0.00001844,-0.00003063,-0.00006811,0.00002709,0.00002536,0.00002995,0.
 00000644,0.00000920,-0.00020418,0.00026555,0.00004483,0.00017380,-0.00
 001020,-0.00060592,-0.00033111,-0.00072631,0.00027850,0.00006842,-0.00
 000656,0.00002370,-0.00000595,0.00001015,0.00000913,-0.00007768,0.0000
 0440,-0.00001777,0.00010928,0.00006788,-0.00031945,-0.00035918,0.00121
 007,-0.00040021,-0.00029046,0.00030843,-0.00032111,-0.00001977,0.00022
 566,-0.00014297,-0.00011560,-0.00022210,-0.00057580,0.00026874,0.00036
 838,0.00049744,0.00000518,-0.00003508,-0.00006700,0.00000158,-0.000014
 42,-0.00000181,0.00000626,-0.00000323,0.00000376,0.00000618,-0.0000019
 4,-0.00000132,-0.00000661,-0.00000371,0.00000890,0.00016864,-0.0000012
 2,0.00023928,-0.00000157,-0.00002432,-0.00000174,-0.00000144,-0.000003
 22,0.00001043,0.00000033,0.00000707,-0.00000017,0.00000253,0.00000409,
 -0.00000063,0.00000364,0.00000115,0.00000174,-0.00000209,0.00000164,0.
 00000205,0.00000014,0.00000268,0.00000139,0.00000237,0.00000081,0.0000
 0299,0.00000132,-0.00000220,0.00000322,-0.00001036,0.00000366,-0.00000
 060,-0.00203881,0.00059360,-0.00236189,-0.05219766,-0.13095987,0.09954
 124\\-0.00000080,-0.00000216,0.00000118,0.00000278,0.00000202,-0.00000
 099,-0.00000053,-0.00000169,-0.00000124,-0.00000180,-0.00000032,-0.000
 00187,0.00000081,0.00000494,-0.00000430,0.00000158,0.,-0.00000055,-0.0
 0000077,-0.00000505,0.00000300,-0.00000140,-0.00000171,0.00000835,-0.0
 0000103,0.00000118,-0.00000472,0.00000036,-0.00000076,0.00000017,-0.00
 000189,-0.00000023,0.00000053,0.00000200,0.00000103,0.00000159,-0.0000
 0313,-0.00000054,-0.00000111,0.00000336,-0.00000607,-0.00000214,-0.000
 00290,0.00000306,-0.00000029,0.00000160,0.00000034,-0.00000102,-0.0000
 0100,-0.00000008,0.00000032,0.00000111,0.00000023,-0.00000024,0.000000
 56,-0.00000050,-0.00000073,0.00000021,0.00000087,0.00000073,-0.0000007
 2,-0.00000157,-0.00000008,0.00000027,-0.00000080,0.00000053,0.00000275
 ,0.00000022,0.,-0.00000449,-0.00000085,-0.00000204,0.00000189,0.000004
 07,-0.00000027,0.00000069,-0.00000024,0.,0.00000066,0.00000019,0.00000
 141,-0.00000092,-0.00000059,0.00000034,-0.00000076,-0.00000046,0.00000
 046,0.00000050,0.00000101,0.00000021,-0.00000029,0.00000116,0.00000031
 ,0.00000107,-0.00000074,0.00000028,-0.00000129,0.00000044,-0.00000005,
 0.00000131,-0.00000011,0.00000173,-0.00000117,0.00000074,-0.00000033,0
 .00000058,-0.00000185,0.00000081,0.00000106,0.00000011,0.00000151,-0.0
 0000077,-0.00000100,-0.00000066,-0.00000028,-0.00000019,-0.00000009,-0
 .00000033,0.00000245,0.00000427,-0.00000108,-0.00000014,0.00000054,0.0
 0000046,0.00000048,-0.00000210,0.,0.00000062,0.00000037,0.00000057,0.0
 0000018,-0.00000031,-0.00000017,0.00000083,-0.00000071,-0.00000022,0.0
 0000017,0.00000038,-0.00000083,0.00000051,-0.00000021,-0.00000022,-0.0
 0000021,0.,0.00000055,0.00000018,0.00000017,0.00000046,-0.00000089,-0.
 00000021,0.00000180,-0.00000147,-0.00000032,-0.00000121,0.00000022,-0.
 00000099,-0.00000017,0.00000044,-0.00000050,0.00000054,-0.00000053,-0.
 00000070,-0.00000056,0.00000333,0.00000091,0.00000065,-0.00000012,-0.0
 0000069,0.00000062,0.00000218,-0.00000253,-0.00000077,0.00000012,-0.00
 000044,-0.00000053,-0.00000044,-0.00000067,0.00000010,-0.00000041,-0.0
 0000120,-0.00000020,-0.00000040,-0.00000021,-0.00000006,-0.00000012,-0
 .00000041,0.00000016,0.,-0.00000048,0.00000059,0.00000007,0.00000019,0
 .00000016,0.00000062,0.00000077,-0.00000022,-0.00000021,0.00000064,-0.
 00000013,-0.00000109,0.00000010,-0.00000017,-0.00000016,0.00000046,0.0
 0000018,0.00000042,0.00000046,0.00000058,0.00000042,0.00000044,0.00000
 062,-0.00000014,0.00000048,0.00000015,0.00000013,0.00000074,0.00000017
 ,-0.00000009,0.00000076,-0.00000009,-0.00000024,0.00000092,-0.00000001
 ,-0.00000080,0.00000025,-0.00000032,-0.00000066,-0.00000017,-0.0000019
 1,0.00000002,-0.00000113,0.00000163,0.00000063,0.00000040\\\@
 The archive entry for this job was punched.


 ALTHOUGH J.J. COULD DIAGNOSE THE FAULTS OF AN
 APPARATUS WITH UNCANNY ACCURACY, IT WAS JUST AS
 WELL NOT TO LET HIM HANDLE IT.
   -- GEORGE THOMPSON, ABOUT HIS FATHER
 Job cpu time:       0 days 13 hours 27 minutes  8.8 seconds.
 Elapsed time:       0 days  0 hours 25 minutes 22.1 seconds.
 File lengths (MBytes):  RWF=   3737 Int=      0 D2E=      0 Chk=     40 Scr=      1
 Normal termination of Gaussian 16 at Tue Mar 25 00:51:26 2025.
