 Entering Gaussian System, Link 0=g16
 Initial command:
 /public/software/apps/Gaussian/g16/l1.exe "/tmp/Gau-109003.inp" -scrdir="/tmp/"
 Entering Link 1 = /public/software/apps/Gaussian/g16/l1.exe PID=    109004.
  
 Copyright (c) 1988-2019, Gaussian, Inc.  All Rights Reserved.
  
 This is part of the Gaussian(R) 16 program.  It is based on
 the Gaussian(R) 09 system (copyright 2009, Gaussian, Inc.),
 the Gaussian(R) 03 system (copyright 2003, Gaussian, Inc.),
 the Gaussian(R) 98 system (copyright 1998, Gaussian, Inc.),
 the Gaussian(R) 94 system (copyright 1995, Gaussian, Inc.),
 the Gaussian 92(TM) system (copyright 1992, Gaussian, Inc.),
 the Gaussian 90(TM) system (copyright 1990, Gaussian, Inc.),
 the Gaussian 88(TM) system (copyright 1988, Gaussian, Inc.),
 the Gaussian 86(TM) system (copyright 1986, Carnegie Mellon
 University), and the Gaussian 82(TM) system (copyright 1983,
 Carnegie Mellon University). Gaussian is a federally registered
 trademark of Gaussian, Inc.
  
 This software contains proprietary and confidential information,
 including trade secrets, belonging to Gaussian, Inc.
  
 This software is provided under written license and may be
 used, copied, transmitted, or stored only in accord with that
 written license.
  
 The following legend is applicable only to US Government
 contracts under FAR:
  
                    RESTRICTED RIGHTS LEGEND
  
 Use, reproduction and disclosure by the US Government is
 subject to restrictions as set forth in subparagraphs (a)
 and (c) of the Commercial Computer Software - Restricted
 Rights clause in FAR 52.227-19.
  
 Gaussian, Inc.
 340 Quinnipiac St., Bldg. 40, Wallingford CT 06492
  
  
 ---------------------------------------------------------------
 Warning -- This program may not be used in any manner that
 competes with the business of Gaussian, Inc. or will provide
 assistance to any competitor of Gaussian, Inc.  The licensee
 of this program is prohibited from giving any competitor of
 Gaussian, Inc. access to this program.  By using this program,
 the user acknowledges that Gaussian, Inc. is engaged in the
 business of creating and licensing software in the field of
 computational chemistry and represents and warrants to the
 licensee that it is not a competitor of Gaussian, Inc. and that
 it will not use this program in any manner prohibited above.
 ---------------------------------------------------------------
  

 Cite this work as:
 Gaussian 16, Revision C.01,
 M. J. Frisch, G. W. Trucks, H. B. Schlegel, G. E. Scuseria, 
 M. A. Robb, J. R. Cheeseman, G. Scalmani, V. Barone, 
 G. A. Petersson, H. Nakatsuji, X. Li, M. Caricato, A. V. Marenich, 
 J. Bloino, B. G. Janesko, R. Gomperts, B. Mennucci, H. P. Hratchian, 
 J. V. Ortiz, A. F. Izmaylov, J. L. Sonnenberg, D. Williams-Young, 
 F. Ding, F. Lipparini, F. Egidi, J. Goings, B. Peng, A. Petrone, 
 T. Henderson, D. Ranasinghe, V. G. Zakrzewski, J. Gao, N. Rega, 
 G. Zheng, W. Liang, M. Hada, M. Ehara, K. Toyota, R. Fukuda, 
 J. Hasegawa, M. Ishida, T. Nakajima, Y. Honda, O. Kitao, H. Nakai, 
 T. Vreven, K. Throssell, J. A. Montgomery, Jr., J. E. Peralta, 
 F. Ogliaro, M. J. Bearpark, J. J. Heyd, E. N. Brothers, K. N. Kudin, 
 V. N. Staroverov, T. A. Keith, R. Kobayashi, J. Normand, 
 K. Raghavachari, A. P. Rendell, J. C. Burant, S. S. Iyengar, 
 J. Tomasi, M. Cossi, J. M. Millam, M. Klene, C. Adamo, R. Cammi, 
 J. W. Ochterski, R. L. Martin, K. Morokuma, O. Farkas, 
 J. B. Foresman, and D. J. Fox, Gaussian, Inc., Wallingford CT, 2019.
 
 ******************************************
 Gaussian 16:  ES64L-G16RevC.01  3-Jul-2019
                25-Mar-2025 
 ******************************************
 %nprocshared=32
 Will use up to   32 processors via shared memory.
 %mem=100GB
 ------------------------------------------
 #p opt freq b3lyp/def2svpp em=gd3bj nosymm
 ------------------------------------------
 1/18=20,19=15,26=3,38=1/1,3;
 2/9=110,12=2,15=1,17=6,18=5,40=1/2;
 3/5=43,7=202,11=2,25=1,30=1,71=1,74=-5,124=41/1,2,3;
 4//1;
 5/5=2,38=5/2;
 6/7=2,8=2,9=2,10=2,28=1/1;
 7/30=1/1,2,3,16;
 1/18=20,19=15,26=3/3(2);
 2/9=110,15=1/2;
 99//99;
 2/9=110,15=1/2;
 3/5=43,7=202,11=2,25=1,30=1,71=1,74=-5,124=41/1,2,3;
 4/5=5,16=3,69=1/1;
 5/5=2,38=5/2;
 7/30=1/1,2,3,16;
 1/18=20,19=15,26=3/3(-5);
 2/9=110,15=1/2;
 6/7=2,8=2,9=2,10=2,19=2,28=1/1;
 99/9=1/99;
 Leave Link    1 at Tue Mar 25 02:38:43 2025, MaxMem= 13421772800 cpu:              12.3 elap:               0.4
 (Enter /public/software/apps/Gaussian/g16/l101.exe)
 ----------------------
 $$$$Singlemol####0????
 ----------------------
 Symbolic Z-matrix:
 Charge =  0 Multiplicity = 1
 O                     6.23716  -1.39614  -1.08349 
 C                     6.49607  -0.15543  -0.59402 
 C                     7.61738   0.54437  -1.11282 
 C                     8.46675  -0.06148  -2.15168 
 C                     7.91422  -0.64519  -3.28734 
 C                     8.73131  -1.18668  -4.26234 
 C                     10.10787  -1.1572   -4.11639 
 C                     10.66615  -0.5795   -2.98843 
 C                     9.85223  -0.03262  -2.01431 
 C                     7.90406   1.79314  -0.6216 
 C                     7.12181   2.40243   0.37753 
 C                     7.41821   3.68643   0.87877 
 C                     6.64965   4.2496    1.85862 
 C                     5.55476   3.54838   2.38535 
 C                     5.23844   2.30282   1.919 
 C                     6.00451   1.70033   0.89846 
 C                     5.70573   0.41016   0.3884 
 C                     4.52853  -0.34345   0.90034 
 C                     3.26108   0.04867   0.51466 
 O                     3.0743    1.09345  -0.33407 
 C                     2.11456  -0.6574    0.9662 
 C                     0.76393  -0.23508   0.56657 
 C                    -0.17244  -1.1839    0.16117 
 C                    -1.4525   -0.80772  -0.18965 
 C                    -1.83666   0.53124  -0.15007 
 C                    -3.19753   0.92932  -0.53251 
 C                    -3.40737   2.06595  -1.31406 
 C                    -4.67863   2.44913  -1.70061 
 C                    -5.76027   1.68715  -1.28936 
 C                    -5.5593    0.55141  -0.49184 
 C                    -4.29235   0.16546  -0.12104 
 C                    -6.88097  -0.12207  -0.17456 
 C                    -6.82075  -1.53348  -0.72292 
 C                    -7.24092  -1.81712  -2.01555 
 C                    -7.12503  -3.09816  -2.52637 
 C                    -6.57858  -4.10982  -1.75651 
 C                    -6.14495  -3.83159  -0.47141 
 C                    -6.26252  -2.55262   0.04094 
 C                    -7.24106  -0.08466   1.29775 
 C                    -8.21201  -0.94509   1.798 
 C                    -8.59417  -0.87848   3.12522 
 C                    -8.01558   0.05269   3.97078 
 C                    -7.05563   0.91862   3.47761 
 C                    -6.67367   0.85415   2.14901 
 C                    -7.85826   0.77877  -0.90584 
 C                    -9.23114   0.6812   -0.97832 
 C                    -9.93064   1.64237  -1.69579 
 C                    -9.26564   2.6846   -2.32354 
 C                    -7.88659   2.7919   -2.24914 
 C                    -7.1837    1.83459  -1.53604 
 C                    -0.89906   1.47813   0.25615 
 C                     0.38024   1.10235   0.61149 
 C                     2.28972  -1.74716   1.7826 
 C                     3.56383  -2.1718    2.20291 
 C                     3.73759  -3.282     3.05447 
 C                     4.98534  -3.66288   3.46172 
 C                     6.11408  -2.94419   3.04042 
 C                     5.98074  -1.86496   2.21188 
 C                     4.7069   -1.45494   1.76406 
 H                     5.50134  -1.78677  -0.59092 
 H                     6.8425   -0.66561  -3.41016 
 H                     8.2913   -1.63367  -5.142 
 H                     10.744   -1.58386  -4.87804 
 H                     11.73958  -0.55655  -2.86692 
 H                     10.28931   0.40612  -1.12857 
 H                     8.74867   2.33628  -1.02027 
 H                     8.26893   4.21486   0.47288 
 H                     6.88251   5.23354   2.238 
 H                     4.96228   3.99946   3.16762 
 H                     4.40107   1.76147   2.3354 
 H                     3.93356   1.4779   -0.55952 
 H                     0.11578  -2.22376   0.1012 
 H                    -2.15898  -1.5544   -0.52323 
 H                    -2.55374   2.64069  -1.64274 
 H                    -4.82297   3.32487  -2.31592 
 H                    -4.13917  -0.70413   0.50057 
 H                    -7.66337  -1.03286  -2.6267 
 H                    -7.46218  -3.30494  -3.53171 
 H                    -6.48902  -5.10941  -2.15576 
 H                    -5.71278  -4.61408   0.13565 
 H                    -5.92895  -2.34622   1.04794 
 H                    -8.66367  -1.67991   1.14698 
 H                    -9.34758  -1.55606   3.50024 
 H                    -8.31339   0.104     5.0077 
 H                    -6.6013    1.65113   4.12888 
 H                    -5.92729   1.53851   1.77291 
 H                    -9.75639  -0.12681  -0.49119 
 H                    -11.00661   1.57711  -1.76494 
 H                    -9.83078   3.42149  -2.87562 
 H                    -7.37042   3.60548  -2.73687 
 H                    -1.1852    2.5183    0.3154 
 H                     1.08595   1.85023   0.93805 
 H                     1.42322  -2.28539   2.1383 
 H                     2.86133  -3.82375   3.38069 
 H                     5.11091  -4.51394   4.11454 
 H                     7.09359  -3.24839   3.37836 
 H                     6.85206  -1.30877   1.89715 
 
 ITRead=  0  0  0  0  0  0  0  0  0  0  0  0  0  0  0  0  0  0  0  0
 ITRead=  0  0  0  0  0  0  0  0  0  0  0  0  0  0  0  0  0  0  0  0
 ITRead=  0  0  0  0  0  0  0  0  0  0  0  0  0  0  0  0  0  0  0  0
 ITRead=  0  0  0  0  0  0  0  0  0  0  0  0  0  0  0  0  0  0  0  0
 ITRead=  0  0  0  0  0  0  0  0  0  0  0  0  0  0  0  0  0
 MicOpt= -1 -1 -1 -1 -1 -1 -1 -1 -1 -1 -1 -1 -1 -1 -1 -1 -1 -1 -1 -1
 MicOpt= -1 -1 -1 -1 -1 -1 -1 -1 -1 -1 -1 -1 -1 -1 -1 -1 -1 -1 -1 -1
 MicOpt= -1 -1 -1 -1 -1 -1 -1 -1 -1 -1 -1 -1 -1 -1 -1 -1 -1 -1 -1 -1
 MicOpt= -1 -1 -1 -1 -1 -1 -1 -1 -1 -1 -1 -1 -1 -1 -1 -1 -1 -1 -1 -1
 MicOpt= -1 -1 -1 -1 -1 -1 -1 -1 -1 -1 -1 -1 -1 -1 -1 -1 -1
 NAtoms=     97 NQM=       97 NQMF=       0 NMMI=      0 NMMIF=      0
                NMic=       0 NMicF=      0.
                    Isotopes and Nuclear Properties:
 (Nuclear quadrupole moments (NQMom) in fm**2, nuclear magnetic moments (NMagM)
  in nuclear magnetons)

  Atom         1           2           3           4           5           6           7           8           9          10
 IAtWgt=          16          12          12          12          12          12          12          12          12          12
 AtmWgt=  15.9949146  12.0000000  12.0000000  12.0000000  12.0000000  12.0000000  12.0000000  12.0000000  12.0000000  12.0000000
 NucSpn=           0           0           0           0           0           0           0           0           0           0
 AtZEff=  -0.0000000  -0.0000000  -0.0000000  -0.0000000  -0.0000000  -0.0000000  -0.0000000  -0.0000000  -0.0000000  -0.0000000
 NQMom=    0.0000000   0.0000000   0.0000000   0.0000000   0.0000000   0.0000000   0.0000000   0.0000000   0.0000000   0.0000000
 NMagM=    0.0000000   0.0000000   0.0000000   0.0000000   0.0000000   0.0000000   0.0000000   0.0000000   0.0000000   0.0000000
 AtZNuc=   8.0000000   6.0000000   6.0000000   6.0000000   6.0000000   6.0000000   6.0000000   6.0000000   6.0000000   6.0000000

  Atom        11          12          13          14          15          16          17          18          19          20
 IAtWgt=          12          12          12          12          12          12          12          12          12          16
 AtmWgt=  12.0000000  12.0000000  12.0000000  12.0000000  12.0000000  12.0000000  12.0000000  12.0000000  12.0000000  15.9949146
 NucSpn=           0           0           0           0           0           0           0           0           0           0
 AtZEff=  -0.0000000  -0.0000000  -0.0000000  -0.0000000  -0.0000000  -0.0000000  -0.0000000  -0.0000000  -0.0000000  -0.0000000
 NQMom=    0.0000000   0.0000000   0.0000000   0.0000000   0.0000000   0.0000000   0.0000000   0.0000000   0.0000000   0.0000000
 NMagM=    0.0000000   0.0000000   0.0000000   0.0000000   0.0000000   0.0000000   0.0000000   0.0000000   0.0000000   0.0000000
 AtZNuc=   6.0000000   6.0000000   6.0000000   6.0000000   6.0000000   6.0000000   6.0000000   6.0000000   6.0000000   8.0000000

  Atom        21          22          23          24          25          26          27          28          29          30
 IAtWgt=          12          12          12          12          12          12          12          12          12          12
 AtmWgt=  12.0000000  12.0000000  12.0000000  12.0000000  12.0000000  12.0000000  12.0000000  12.0000000  12.0000000  12.0000000
 NucSpn=           0           0           0           0           0           0           0           0           0           0
 AtZEff=  -0.0000000  -0.0000000  -0.0000000  -0.0000000  -0.0000000  -0.0000000  -0.0000000  -0.0000000  -0.0000000  -0.0000000
 NQMom=    0.0000000   0.0000000   0.0000000   0.0000000   0.0000000   0.0000000   0.0000000   0.0000000   0.0000000   0.0000000
 NMagM=    0.0000000   0.0000000   0.0000000   0.0000000   0.0000000   0.0000000   0.0000000   0.0000000   0.0000000   0.0000000
 AtZNuc=   6.0000000   6.0000000   6.0000000   6.0000000   6.0000000   6.0000000   6.0000000   6.0000000   6.0000000   6.0000000

  Atom        31          32          33          34          35          36          37          38          39          40
 IAtWgt=          12          12          12          12          12          12          12          12          12          12
 AtmWgt=  12.0000000  12.0000000  12.0000000  12.0000000  12.0000000  12.0000000  12.0000000  12.0000000  12.0000000  12.0000000
 NucSpn=           0           0           0           0           0           0           0           0           0           0
 AtZEff=  -0.0000000  -0.0000000  -0.0000000  -0.0000000  -0.0000000  -0.0000000  -0.0000000  -0.0000000  -0.0000000  -0.0000000
 NQMom=    0.0000000   0.0000000   0.0000000   0.0000000   0.0000000   0.0000000   0.0000000   0.0000000   0.0000000   0.0000000
 NMagM=    0.0000000   0.0000000   0.0000000   0.0000000   0.0000000   0.0000000   0.0000000   0.0000000   0.0000000   0.0000000
 AtZNuc=   6.0000000   6.0000000   6.0000000   6.0000000   6.0000000   6.0000000   6.0000000   6.0000000   6.0000000   6.0000000

  Atom        41          42          43          44          45          46          47          48          49          50
 IAtWgt=          12          12          12          12          12          12          12          12          12          12
 AtmWgt=  12.0000000  12.0000000  12.0000000  12.0000000  12.0000000  12.0000000  12.0000000  12.0000000  12.0000000  12.0000000
 NucSpn=           0           0           0           0           0           0           0           0           0           0
 AtZEff=  -0.0000000  -0.0000000  -0.0000000  -0.0000000  -0.0000000  -0.0000000  -0.0000000  -0.0000000  -0.0000000  -0.0000000
 NQMom=    0.0000000   0.0000000   0.0000000   0.0000000   0.0000000   0.0000000   0.0000000   0.0000000   0.0000000   0.0000000
 NMagM=    0.0000000   0.0000000   0.0000000   0.0000000   0.0000000   0.0000000   0.0000000   0.0000000   0.0000000   0.0000000
 AtZNuc=   6.0000000   6.0000000   6.0000000   6.0000000   6.0000000   6.0000000   6.0000000   6.0000000   6.0000000   6.0000000

  Atom        51          52          53          54          55          56          57          58          59          60
 IAtWgt=          12          12          12          12          12          12          12          12          12           1
 AtmWgt=  12.0000000  12.0000000  12.0000000  12.0000000  12.0000000  12.0000000  12.0000000  12.0000000  12.0000000   1.0078250
 NucSpn=           0           0           0           0           0           0           0           0           0           1
 AtZEff=  -0.0000000  -0.0000000  -0.0000000  -0.0000000  -0.0000000  -0.0000000  -0.0000000  -0.0000000  -0.0000000  -0.0000000
 NQMom=    0.0000000   0.0000000   0.0000000   0.0000000   0.0000000   0.0000000   0.0000000   0.0000000   0.0000000   0.0000000
 NMagM=    0.0000000   0.0000000   0.0000000   0.0000000   0.0000000   0.0000000   0.0000000   0.0000000   0.0000000   2.7928460
 AtZNuc=   6.0000000   6.0000000   6.0000000   6.0000000   6.0000000   6.0000000   6.0000000   6.0000000   6.0000000   1.0000000

  Atom        61          62          63          64          65          66          67          68          69          70
 IAtWgt=           1           1           1           1           1           1           1           1           1           1
 AtmWgt=   1.0078250   1.0078250   1.0078250   1.0078250   1.0078250   1.0078250   1.0078250   1.0078250   1.0078250   1.0078250
 NucSpn=           1           1           1           1           1           1           1           1           1           1
 AtZEff=  -0.0000000  -0.0000000  -0.0000000  -0.0000000  -0.0000000  -0.0000000  -0.0000000  -0.0000000  -0.0000000  -0.0000000
 NQMom=    0.0000000   0.0000000   0.0000000   0.0000000   0.0000000   0.0000000   0.0000000   0.0000000   0.0000000   0.0000000
 NMagM=    2.7928460   2.7928460   2.7928460   2.7928460   2.7928460   2.7928460   2.7928460   2.7928460   2.7928460   2.7928460
 AtZNuc=   1.0000000   1.0000000   1.0000000   1.0000000   1.0000000   1.0000000   1.0000000   1.0000000   1.0000000   1.0000000

  Atom        71          72          73          74          75          76          77          78          79          80
 IAtWgt=           1           1           1           1           1           1           1           1           1           1
 AtmWgt=   1.0078250   1.0078250   1.0078250   1.0078250   1.0078250   1.0078250   1.0078250   1.0078250   1.0078250   1.0078250
 NucSpn=           1           1           1           1           1           1           1           1           1           1
 AtZEff=  -0.0000000  -0.0000000  -0.0000000  -0.0000000  -0.0000000  -0.0000000  -0.0000000  -0.0000000  -0.0000000  -0.0000000
 NQMom=    0.0000000   0.0000000   0.0000000   0.0000000   0.0000000   0.0000000   0.0000000   0.0000000   0.0000000   0.0000000
 NMagM=    2.7928460   2.7928460   2.7928460   2.7928460   2.7928460   2.7928460   2.7928460   2.7928460   2.7928460   2.7928460
 AtZNuc=   1.0000000   1.0000000   1.0000000   1.0000000   1.0000000   1.0000000   1.0000000   1.0000000   1.0000000   1.0000000

  Atom        81          82          83          84          85          86          87          88          89          90
 IAtWgt=           1           1           1           1           1           1           1           1           1           1
 AtmWgt=   1.0078250   1.0078250   1.0078250   1.0078250   1.0078250   1.0078250   1.0078250   1.0078250   1.0078250   1.0078250
 NucSpn=           1           1           1           1           1           1           1           1           1           1
 AtZEff=  -0.0000000  -0.0000000  -0.0000000  -0.0000000  -0.0000000  -0.0000000  -0.0000000  -0.0000000  -0.0000000  -0.0000000
 NQMom=    0.0000000   0.0000000   0.0000000   0.0000000   0.0000000   0.0000000   0.0000000   0.0000000   0.0000000   0.0000000
 NMagM=    2.7928460   2.7928460   2.7928460   2.7928460   2.7928460   2.7928460   2.7928460   2.7928460   2.7928460   2.7928460
 AtZNuc=   1.0000000   1.0000000   1.0000000   1.0000000   1.0000000   1.0000000   1.0000000   1.0000000   1.0000000   1.0000000

  Atom        91          92          93          94          95          96          97
 IAtWgt=           1           1           1           1           1           1           1
 AtmWgt=   1.0078250   1.0078250   1.0078250   1.0078250   1.0078250   1.0078250   1.0078250
 NucSpn=           1           1           1           1           1           1           1
 AtZEff=  -0.0000000  -0.0000000  -0.0000000  -0.0000000  -0.0000000  -0.0000000  -0.0000000
 NQMom=    0.0000000   0.0000000   0.0000000   0.0000000   0.0000000   0.0000000   0.0000000
 NMagM=    2.7928460   2.7928460   2.7928460   2.7928460   2.7928460   2.7928460   2.7928460
 AtZNuc=   1.0000000   1.0000000   1.0000000   1.0000000   1.0000000   1.0000000   1.0000000
 Leave Link  101 at Tue Mar 25 02:38:43 2025, MaxMem= 13421772800 cpu:               6.2 elap:               0.2
 (Enter /public/software/apps/Gaussian/g16/l103.exe)

 GradGradGradGradGradGradGradGradGradGradGradGradGradGradGradGradGradGrad
 Berny optimization.
 Initialization pass.
                           ----------------------------
                           !    Initial Parameters    !
                           ! (Angstroms and Degrees)  !
 --------------------------                            --------------------------
 ! Name  Definition              Value          Derivative Info.                !
 --------------------------------------------------------------------------------
 ! R1    R(1,2)                  1.3587         estimate D2E/DX2                !
 ! R2    R(1,60)                 0.9678         estimate D2E/DX2                !
 ! R3    R(2,3)                  1.4199         estimate D2E/DX2                !
 ! R4    R(2,17)                 1.3819         estimate D2E/DX2                !
 ! R5    R(3,4)                  1.4723         estimate D2E/DX2                !
 ! R6    R(3,10)                 1.3722         estimate D2E/DX2                !
 ! R7    R(4,5)                  1.3913         estimate D2E/DX2                !
 ! R8    R(4,9)                  1.3926         estimate D2E/DX2                !
 ! R9    R(5,6)                  1.3826         estimate D2E/DX2                !
 ! R10   R(5,61)                 1.0789         estimate D2E/DX2                !
 ! R11   R(6,7)                  1.3846         estimate D2E/DX2                !
 ! R12   R(6,62)                 1.0804         estimate D2E/DX2                !
 ! R13   R(7,8)                  1.3848         estimate D2E/DX2                !
 ! R14   R(7,63)                 1.0802         estimate D2E/DX2                !
 ! R15   R(8,9)                  1.3822         estimate D2E/DX2                !
 ! R16   R(8,64)                 1.0805         estimate D2E/DX2                !
 ! R17   R(9,65)                 1.0808         estimate D2E/DX2                !
 ! R18   R(10,11)                1.4076         estimate D2E/DX2                !
 ! R19   R(10,66)                1.0804         estimate D2E/DX2                !
 ! R20   R(11,12)                1.4099         estimate D2E/DX2                !
 ! R21   R(11,16)                1.4187         estimate D2E/DX2                !
 ! R22   R(12,13)                1.3667         estimate D2E/DX2                !
 ! R23   R(12,67)                1.0806         estimate D2E/DX2                !
 ! R24   R(13,14)                1.4028         estimate D2E/DX2                !
 ! R25   R(13,68)                1.0799         estimate D2E/DX2                !
 ! R26   R(14,15)                1.3671         estimate D2E/DX2                !
 ! R27   R(14,69)                1.08           estimate D2E/DX2                !
 ! R28   R(15,16)                1.4112         estimate D2E/DX2                !
 ! R29   R(15,70)                1.0806         estimate D2E/DX2                !
 ! R30   R(16,17)                1.4191         estimate D2E/DX2                !
 ! R31   R(17,18)                1.4886         estimate D2E/DX2                !
 ! R32   R(18,19)                1.3816         estimate D2E/DX2                !
 ! R33   R(18,59)                1.4189         estimate D2E/DX2                !
 ! R34   R(19,20)                1.359          estimate D2E/DX2                !
 ! R35   R(19,21)                1.4202         estimate D2E/DX2                !
 ! R36   R(20,71)                0.968          estimate D2E/DX2                !
 ! R37   R(21,22)                1.4705         estimate D2E/DX2                !
 ! R38   R(21,53)                1.3729         estimate D2E/DX2                !
 ! R39   R(22,23)                1.3933         estimate D2E/DX2                !
 ! R40   R(22,52)                1.3921         estimate D2E/DX2                !
 ! R41   R(23,24)                1.3795         estimate D2E/DX2                !
 ! R42   R(23,72)                1.0807         estimate D2E/DX2                !
 ! R43   R(24,25)                1.3935         estimate D2E/DX2                !
 ! R44   R(24,73)                1.0807         estimate D2E/DX2                !
 ! R45   R(25,26)                1.4686         estimate D2E/DX2                !
 ! R46   R(25,51)                1.3931         estimate D2E/DX2                !
 ! R47   R(26,27)                1.3953         estimate D2E/DX2                !
 ! R48   R(26,31)                1.3969         estimate D2E/DX2                !
 ! R49   R(27,28)                1.3829         estimate D2E/DX2                !
 ! R50   R(27,74)                1.0803         estimate D2E/DX2                !
 ! R51   R(28,29)                1.3855         estimate D2E/DX2                !
 ! R52   R(28,75)                1.08           estimate D2E/DX2                !
 ! R53   R(29,30)                1.4023         estimate D2E/DX2                !
 ! R54   R(29,50)                1.4521         estimate D2E/DX2                !
 ! R55   R(30,31)                1.3754         estimate D2E/DX2                !
 ! R56   R(30,32)                1.5169         estimate D2E/DX2                !
 ! R57   R(31,76)                1.0798         estimate D2E/DX2                !
 ! R58   R(32,33)                1.5154         estimate D2E/DX2                !
 ! R59   R(32,39)                1.5162         estimate D2E/DX2                !
 ! R60   R(32,45)                1.517          estimate D2E/DX2                !
 ! R61   R(33,34)                1.3885         estimate D2E/DX2                !
 ! R62   R(33,38)                1.3906         estimate D2E/DX2                !
 ! R63   R(34,35)                1.384          estimate D2E/DX2                !
 ! R64   R(34,77)                1.0803         estimate D2E/DX2                !
 ! R65   R(35,36)                1.3837         estimate D2E/DX2                !
 ! R66   R(35,78)                1.0803         estimate D2E/DX2                !
 ! R67   R(36,37)                1.3845         estimate D2E/DX2                !
 ! R68   R(36,79)                1.0801         estimate D2E/DX2                !
 ! R69   R(37,38)                1.3828         estimate D2E/DX2                !
 ! R70   R(37,80)                1.0805         estimate D2E/DX2                !
 ! R71   R(38,81)                1.0807         estimate D2E/DX2                !
 ! R72   R(39,40)                1.3904         estimate D2E/DX2                !
 ! R73   R(39,44)                1.3885         estimate D2E/DX2                !
 ! R74   R(40,41)                1.3827         estimate D2E/DX2                !
 ! R75   R(40,82)                1.0806         estimate D2E/DX2                !
 ! R76   R(41,42)                1.3845         estimate D2E/DX2                !
 ! R77   R(41,83)                1.0805         estimate D2E/DX2                !
 ! R78   R(42,43)                1.3837         estimate D2E/DX2                !
 ! R79   R(42,84)                1.0801         estimate D2E/DX2                !
 ! R80   R(43,44)                1.3839         estimate D2E/DX2                !
 ! R81   R(43,85)                1.0803         estimate D2E/DX2                !
 ! R82   R(44,86)                1.0802         estimate D2E/DX2                !
 ! R83   R(45,46)                1.3783         estimate D2E/DX2                !
 ! R84   R(45,50)                1.4025         estimate D2E/DX2                !
 ! R85   R(46,47)                1.3885         estimate D2E/DX2                !
 ! R86   R(46,87)                1.0798         estimate D2E/DX2                !
 ! R87   R(47,48)                1.3865         estimate D2E/DX2                !
 ! R88   R(47,88)                1.0802         estimate D2E/DX2                !
 ! R89   R(48,49)                1.3852         estimate D2E/DX2                !
 ! R90   R(48,89)                1.0804         estimate D2E/DX2                !
 ! R91   R(49,50)                1.3853         estimate D2E/DX2                !
 ! R92   R(49,90)                1.0799         estimate D2E/DX2                !
 ! R93   R(51,52)                1.3799         estimate D2E/DX2                !
 ! R94   R(51,91)                1.0804         estimate D2E/DX2                !
 ! R95   R(52,92)                1.0789         estimate D2E/DX2                !
 ! R96   R(53,54)                1.4072         estimate D2E/DX2                !
 ! R97   R(53,93)                1.0803         estimate D2E/DX2                !
 ! R98   R(54,55)                1.4099         estimate D2E/DX2                !
 ! R99   R(54,59)                1.4188         estimate D2E/DX2                !
 ! R100  R(55,56)                1.3667         estimate D2E/DX2                !
 ! R101  R(55,94)                1.0806         estimate D2E/DX2                !
 ! R102  R(56,57)                1.4029         estimate D2E/DX2                !
 ! R103  R(56,95)                1.0799         estimate D2E/DX2                !
 ! R104  R(57,58)                1.3671         estimate D2E/DX2                !
 ! R105  R(57,96)                1.0799         estimate D2E/DX2                !
 ! R106  R(58,59)                1.4112         estimate D2E/DX2                !
 ! R107  R(58,97)                1.0806         estimate D2E/DX2                !
 ! A1    A(2,1,60)             109.2754         estimate D2E/DX2                !
 ! A2    A(1,2,3)              117.9637         estimate D2E/DX2                !
 ! A3    A(1,2,17)             121.3913         estimate D2E/DX2                !
 ! A4    A(3,2,17)             120.6418         estimate D2E/DX2                !
 ! A5    A(2,3,4)              120.7016         estimate D2E/DX2                !
 ! A6    A(2,3,10)             118.862          estimate D2E/DX2                !
 ! A7    A(4,3,10)             120.4343         estimate D2E/DX2                !
 ! A8    A(3,4,5)              121.2972         estimate D2E/DX2                !
 ! A9    A(3,4,9)              119.7241         estimate D2E/DX2                !
 ! A10   A(5,4,9)              118.9684         estimate D2E/DX2                !
 ! A11   A(4,5,6)              120.3476         estimate D2E/DX2                !
 ! A12   A(4,5,61)             119.6927         estimate D2E/DX2                !
 ! A13   A(6,5,61)             119.957          estimate D2E/DX2                !
 ! A14   A(5,6,7)              120.3239         estimate D2E/DX2                !
 ! A15   A(5,6,62)             119.7052         estimate D2E/DX2                !
 ! A16   A(7,6,62)             119.9709         estimate D2E/DX2                !
 ! A17   A(6,7,8)              119.7061         estimate D2E/DX2                !
 ! A18   A(6,7,63)             120.1819         estimate D2E/DX2                !
 ! A19   A(8,7,63)             120.112          estimate D2E/DX2                !
 ! A20   A(7,8,9)              120.1131         estimate D2E/DX2                !
 ! A21   A(7,8,64)             120.063          estimate D2E/DX2                !
 ! A22   A(9,8,64)             119.8238         estimate D2E/DX2                !
 ! A23   A(4,9,8)              120.54           estimate D2E/DX2                !
 ! A24   A(4,9,65)             119.4465         estimate D2E/DX2                !
 ! A25   A(8,9,65)             120.0041         estimate D2E/DX2                !
 ! A26   A(3,10,11)            122.1345         estimate D2E/DX2                !
 ! A27   A(3,10,66)            119.2566         estimate D2E/DX2                !
 ! A28   A(11,10,66)           118.6038         estimate D2E/DX2                !
 ! A29   A(10,11,12)           121.9867         estimate D2E/DX2                !
 ! A30   A(10,11,16)           118.9526         estimate D2E/DX2                !
 ! A31   A(12,11,16)           119.0603         estimate D2E/DX2                !
 ! A32   A(11,12,13)           120.7927         estimate D2E/DX2                !
 ! A33   A(11,12,67)           118.5103         estimate D2E/DX2                !
 ! A34   A(13,12,67)           120.6968         estimate D2E/DX2                !
 ! A35   A(12,13,14)           120.1397         estimate D2E/DX2                !
 ! A36   A(12,13,68)           120.3995         estimate D2E/DX2                !
 ! A37   A(14,13,68)           119.4597         estimate D2E/DX2                !
 ! A38   A(13,14,15)           120.5261         estimate D2E/DX2                !
 ! A39   A(13,14,69)           119.4289         estimate D2E/DX2                !
 ! A40   A(15,14,69)           120.0448         estimate D2E/DX2                !
 ! A41   A(14,15,16)           120.6692         estimate D2E/DX2                !
 ! A42   A(14,15,70)           120.2846         estimate D2E/DX2                !
 ! A43   A(16,15,70)           119.0437         estimate D2E/DX2                !
 ! A44   A(11,16,15)           118.803          estimate D2E/DX2                !
 ! A45   A(11,16,17)           118.9304         estimate D2E/DX2                !
 ! A46   A(15,16,17)           122.2614         estimate D2E/DX2                !
 ! A47   A(2,17,16)            120.4772         estimate D2E/DX2                !
 ! A48   A(2,17,18)            119.3127         estimate D2E/DX2                !
 ! A49   A(16,17,18)           120.2082         estimate D2E/DX2                !
 ! A50   A(17,18,19)           119.064          estimate D2E/DX2                !
 ! A51   A(17,18,59)           120.4326         estimate D2E/DX2                !
 ! A52   A(19,18,59)           120.5017         estimate D2E/DX2                !
 ! A53   A(18,19,20)           121.2393         estimate D2E/DX2                !
 ! A54   A(18,19,21)           120.7127         estimate D2E/DX2                !
 ! A55   A(20,19,21)           118.023          estimate D2E/DX2                !
 ! A56   A(19,20,71)           109.1957         estimate D2E/DX2                !
 ! A57   A(19,21,22)           120.8187         estimate D2E/DX2                !
 ! A58   A(19,21,53)           118.7314         estimate D2E/DX2                !
 ! A59   A(22,21,53)           120.4497         estimate D2E/DX2                !
 ! A60   A(21,22,23)           120.0505         estimate D2E/DX2                !
 ! A61   A(21,22,52)           121.3533         estimate D2E/DX2                !
 ! A62   A(23,22,52)           118.58           estimate D2E/DX2                !
 ! A63   A(22,23,24)           120.7883         estimate D2E/DX2                !
 ! A64   A(22,23,72)           119.4814         estimate D2E/DX2                !
 ! A65   A(24,23,72)           119.7172         estimate D2E/DX2                !
 ! A66   A(23,24,25)           120.7022         estimate D2E/DX2                !
 ! A67   A(23,24,73)           119.78           estimate D2E/DX2                !
 ! A68   A(25,24,73)           119.4991         estimate D2E/DX2                !
 ! A69   A(24,25,26)           120.5643         estimate D2E/DX2                !
 ! A70   A(24,25,51)           118.4131         estimate D2E/DX2                !
 ! A71   A(26,25,51)           121.0224         estimate D2E/DX2                !
 ! A72   A(25,26,27)           120.4011         estimate D2E/DX2                !
 ! A73   A(25,26,31)           120.0881         estimate D2E/DX2                !
 ! A74   A(27,26,31)           119.5098         estimate D2E/DX2                !
 ! A75   A(26,27,28)           121.3692         estimate D2E/DX2                !
 ! A76   A(26,27,74)           119.0113         estimate D2E/DX2                !
 ! A77   A(28,27,74)           119.6003         estimate D2E/DX2                !
 ! A78   A(27,28,29)           118.8357         estimate D2E/DX2                !
 ! A79   A(27,28,75)           120.4511         estimate D2E/DX2                !
 ! A80   A(29,28,75)           120.7127         estimate D2E/DX2                !
 ! A81   A(28,29,30)           120.1566         estimate D2E/DX2                !
 ! A82   A(28,29,50)           131.221          estimate D2E/DX2                !
 ! A83   A(30,29,50)           108.6223         estimate D2E/DX2                !
 ! A84   A(29,30,31)           120.8395         estimate D2E/DX2                !
 ! A85   A(29,30,32)           110.7132         estimate D2E/DX2                !
 ! A86   A(31,30,32)           128.4348         estimate D2E/DX2                !
 ! A87   A(26,31,30)           119.2815         estimate D2E/DX2                !
 ! A88   A(26,31,76)           119.9158         estimate D2E/DX2                !
 ! A89   A(30,31,76)           120.7872         estimate D2E/DX2                !
 ! A90   A(30,32,33)           107.6503         estimate D2E/DX2                !
 ! A91   A(30,32,39)           113.5214         estimate D2E/DX2                !
 ! A92   A(30,32,45)           101.351          estimate D2E/DX2                !
 ! A93   A(33,32,39)           112.5705         estimate D2E/DX2                !
 ! A94   A(33,32,45)           113.8431         estimate D2E/DX2                !
 ! A95   A(39,32,45)           107.4844         estimate D2E/DX2                !
 ! A96   A(32,33,34)           121.0057         estimate D2E/DX2                !
 ! A97   A(32,33,38)           119.9848         estimate D2E/DX2                !
 ! A98   A(34,33,38)           118.8913         estimate D2E/DX2                !
 ! A99   A(33,34,35)           120.4877         estimate D2E/DX2                !
 ! A100  A(33,34,77)           119.7821         estimate D2E/DX2                !
 ! A101  A(35,34,77)           119.7301         estimate D2E/DX2                !
 ! A102  A(34,35,36)           120.2944         estimate D2E/DX2                !
 ! A103  A(34,35,78)           119.6363         estimate D2E/DX2                !
 ! A104  A(36,35,78)           120.0692         estimate D2E/DX2                !
 ! A105  A(35,36,37)           119.5489         estimate D2E/DX2                !
 ! A106  A(35,36,79)           120.2455         estimate D2E/DX2                !
 ! A107  A(37,36,79)           120.2055         estimate D2E/DX2                !
 ! A108  A(36,37,38)           120.2085         estimate D2E/DX2                !
 ! A109  A(36,37,80)           120.0796         estimate D2E/DX2                !
 ! A110  A(38,37,80)           119.7119         estimate D2E/DX2                !
 ! A111  A(33,38,37)           120.5617         estimate D2E/DX2                !
 ! A112  A(33,38,81)           119.7214         estimate D2E/DX2                !
 ! A113  A(37,38,81)           119.7125         estimate D2E/DX2                !
 ! A114  A(32,39,40)           119.9967         estimate D2E/DX2                !
 ! A115  A(32,39,44)           120.9957         estimate D2E/DX2                !
 ! A116  A(40,39,44)           118.8934         estimate D2E/DX2                !
 ! A117  A(39,40,41)           120.5649         estimate D2E/DX2                !
 ! A118  A(39,40,82)           119.729          estimate D2E/DX2                !
 ! A119  A(41,40,82)           119.7022         estimate D2E/DX2                !
 ! A120  A(40,41,42)           120.2061         estimate D2E/DX2                !
 ! A121  A(40,41,83)           119.7137         estimate D2E/DX2                !
 ! A122  A(42,41,83)           120.0801         estimate D2E/DX2                !
 ! A123  A(41,42,43)           119.5486         estimate D2E/DX2                !
 ! A124  A(41,42,84)           120.203          estimate D2E/DX2                !
 ! A125  A(43,42,84)           120.2483         estimate D2E/DX2                !
 ! A126  A(42,43,44)           120.2977         estimate D2E/DX2                !
 ! A127  A(42,43,85)           120.0815         estimate D2E/DX2                !
 ! A128  A(44,43,85)           119.6207         estimate D2E/DX2                !
 ! A129  A(39,44,43)           120.4834         estimate D2E/DX2                !
 ! A130  A(39,44,86)           119.818          estimate D2E/DX2                !
 ! A131  A(43,44,86)           119.6985         estimate D2E/DX2                !
 ! A132  A(32,45,46)           128.6836         estimate D2E/DX2                !
 ! A133  A(32,45,50)           110.7195         estimate D2E/DX2                !
 ! A134  A(46,45,50)           120.5816         estimate D2E/DX2                !
 ! A135  A(45,46,47)           118.6847         estimate D2E/DX2                !
 ! A136  A(45,46,87)           120.9141         estimate D2E/DX2                !
 ! A137  A(47,46,87)           120.4008         estimate D2E/DX2                !
 ! A138  A(46,47,48)           120.8414         estimate D2E/DX2                !
 ! A139  A(46,47,88)           119.5428         estimate D2E/DX2                !
 ! A140  A(48,47,88)           119.6158         estimate D2E/DX2                !
 ! A141  A(47,48,49)           120.7557         estimate D2E/DX2                !
 ! A142  A(47,48,89)           119.5491         estimate D2E/DX2                !
 ! A143  A(49,48,89)           119.6952         estimate D2E/DX2                !
 ! A144  A(48,49,50)           118.6373         estimate D2E/DX2                !
 ! A145  A(48,49,90)           120.6601         estimate D2E/DX2                !
 ! A146  A(50,49,90)           120.7027         estimate D2E/DX2                !
 ! A147  A(29,50,45)           108.5843         estimate D2E/DX2                !
 ! A148  A(29,50,49)           130.9179         estimate D2E/DX2                !
 ! A149  A(45,50,49)           120.4976         estimate D2E/DX2                !
 ! A150  A(25,51,52)           120.928          estimate D2E/DX2                !
 ! A151  A(25,51,91)           119.4801         estimate D2E/DX2                !
 ! A152  A(52,51,91)           119.5766         estimate D2E/DX2                !
 ! A153  A(22,52,51)           120.5875         estimate D2E/DX2                !
 ! A154  A(22,52,92)           119.6996         estimate D2E/DX2                !
 ! A155  A(51,52,92)           119.709          estimate D2E/DX2                !
 ! A156  A(21,53,54)           122.1854         estimate D2E/DX2                !
 ! A157  A(21,53,93)           119.2709         estimate D2E/DX2                !
 ! A158  A(54,53,93)           118.5244         estimate D2E/DX2                !
 ! A159  A(53,54,55)           121.9772         estimate D2E/DX2                !
 ! A160  A(53,54,59)           118.9849         estimate D2E/DX2                !
 ! A161  A(55,54,59)           119.0363         estimate D2E/DX2                !
 ! A162  A(54,55,56)           120.7929         estimate D2E/DX2                !
 ! A163  A(54,55,94)           118.4996         estimate D2E/DX2                !
 ! A164  A(56,55,94)           120.7073         estimate D2E/DX2                !
 ! A165  A(55,56,57)           120.1535         estimate D2E/DX2                !
 ! A166  A(55,56,95)           120.3926         estimate D2E/DX2                !
 ! A167  A(57,56,95)           119.4527         estimate D2E/DX2                !
 ! A168  A(56,57,58)           120.5274         estimate D2E/DX2                !
 ! A169  A(56,57,96)           119.4397         estimate D2E/DX2                !
 ! A170  A(58,57,96)           120.0327         estimate D2E/DX2                !
 ! A171  A(57,58,59)           120.6467         estimate D2E/DX2                !
 ! A172  A(57,58,97)           120.2794         estimate D2E/DX2                !
 ! A173  A(59,58,97)           119.0721         estimate D2E/DX2                !
 ! A174  A(18,59,54)           118.8681         estimate D2E/DX2                !
 ! A175  A(18,59,58)           122.2941         estimate D2E/DX2                !
 ! A176  A(54,59,58)           118.8352         estimate D2E/DX2                !
 ! D1    D(60,1,2,3)           174.9428         estimate D2E/DX2                !
 ! D2    D(60,1,2,17)           -4.404          estimate D2E/DX2                !
 ! D3    D(1,2,3,4)              0.1456         estimate D2E/DX2                !
 ! D4    D(1,2,3,10)          -179.328          estimate D2E/DX2                !
 ! D5    D(17,2,3,4)           179.4975         estimate D2E/DX2                !
 ! D6    D(17,2,3,10)            0.0239         estimate D2E/DX2                !
 ! D7    D(1,2,17,16)          179.1507         estimate D2E/DX2                !
 ! D8    D(1,2,17,18)           -1.3443         estimate D2E/DX2                !
 ! D9    D(3,2,17,16)           -0.1787         estimate D2E/DX2                !
 ! D10   D(3,2,17,18)          179.3263         estimate D2E/DX2                !
 ! D11   D(2,3,4,5)             48.4441         estimate D2E/DX2                !
 ! D12   D(2,3,4,9)           -132.732          estimate D2E/DX2                !
 ! D13   D(10,3,4,5)          -132.0905         estimate D2E/DX2                !
 ! D14   D(10,3,4,9)            46.7334         estimate D2E/DX2                !
 ! D15   D(2,3,10,11)           -0.0946         estimate D2E/DX2                !
 ! D16   D(2,3,10,66)         -179.2631         estimate D2E/DX2                !
 ! D17   D(4,3,10,11)         -179.5697         estimate D2E/DX2                !
 ! D18   D(4,3,10,66)            1.2618         estimate D2E/DX2                !
 ! D19   D(3,4,5,6)            178.8103         estimate D2E/DX2                !
 ! D20   D(3,4,5,61)            -0.5909         estimate D2E/DX2                !
 ! D21   D(9,4,5,6)             -0.0222         estimate D2E/DX2                !
 ! D22   D(9,4,5,61)          -179.4234         estimate D2E/DX2                !
 ! D23   D(3,4,9,8)           -179.0828         estimate D2E/DX2                !
 ! D24   D(3,4,9,65)             2.0272         estimate D2E/DX2                !
 ! D25   D(5,4,9,8)             -0.2315         estimate D2E/DX2                !
 ! D26   D(5,4,9,65)          -179.1215         estimate D2E/DX2                !
 ! D27   D(4,5,6,7)              0.2008         estimate D2E/DX2                !
 ! D28   D(4,5,6,62)          -179.7431         estimate D2E/DX2                !
 ! D29   D(61,5,6,7)           179.6004         estimate D2E/DX2                !
 ! D30   D(61,5,6,62)           -0.3435         estimate D2E/DX2                !
 ! D31   D(5,6,7,8)             -0.1262         estimate D2E/DX2                !
 ! D32   D(5,6,7,63)           179.7976         estimate D2E/DX2                !
 ! D33   D(62,6,7,8)           179.8176         estimate D2E/DX2                !
 ! D34   D(62,6,7,63)           -0.2587         estimate D2E/DX2                !
 ! D35   D(6,7,8,9)             -0.1271         estimate D2E/DX2                !
 ! D36   D(6,7,8,64)           179.7777         estimate D2E/DX2                !
 ! D37   D(63,7,8,9)           179.9491         estimate D2E/DX2                !
 ! D38   D(63,7,8,64)           -0.1461         estimate D2E/DX2                !
 ! D39   D(7,8,9,4)              0.3075         estimate D2E/DX2                !
 ! D40   D(7,8,9,65)           179.1913         estimate D2E/DX2                !
 ! D41   D(64,8,9,4)          -179.5976         estimate D2E/DX2                !
 ! D42   D(64,8,9,65)           -0.7138         estimate D2E/DX2                !
 ! D43   D(3,10,11,12)        -179.9155         estimate D2E/DX2                !
 ! D44   D(3,10,11,16)           0.3148         estimate D2E/DX2                !
 ! D45   D(66,10,11,12)         -0.7418         estimate D2E/DX2                !
 ! D46   D(66,10,11,16)        179.4885         estimate D2E/DX2                !
 ! D47   D(10,11,12,13)       -179.3539         estimate D2E/DX2                !
 ! D48   D(10,11,12,67)          0.4703         estimate D2E/DX2                !
 ! D49   D(16,11,12,13)          0.4156         estimate D2E/DX2                !
 ! D50   D(16,11,12,67)       -179.7603         estimate D2E/DX2                !
 ! D51   D(10,11,16,15)        178.7363         estimate D2E/DX2                !
 ! D52   D(10,11,16,17)         -0.4567         estimate D2E/DX2                !
 ! D53   D(12,11,16,15)         -1.0402         estimate D2E/DX2                !
 ! D54   D(12,11,16,17)        179.7667         estimate D2E/DX2                !
 ! D55   D(11,12,13,14)          0.373          estimate D2E/DX2                !
 ! D56   D(11,12,13,68)        179.9945         estimate D2E/DX2                !
 ! D57   D(67,12,13,14)       -179.4473         estimate D2E/DX2                !
 ! D58   D(67,12,13,68)          0.1742         estimate D2E/DX2                !
 ! D59   D(12,13,14,15)         -0.5289         estimate D2E/DX2                !
 ! D60   D(12,13,14,69)        179.2732         estimate D2E/DX2                !
 ! D61   D(68,13,14,15)        179.8461         estimate D2E/DX2                !
 ! D62   D(68,13,14,69)         -0.3518         estimate D2E/DX2                !
 ! D63   D(13,14,15,16)         -0.1219         estimate D2E/DX2                !
 ! D64   D(13,14,15,70)        179.2974         estimate D2E/DX2                !
 ! D65   D(69,14,15,16)       -179.9227         estimate D2E/DX2                !
 ! D66   D(69,14,15,70)         -0.5034         estimate D2E/DX2                !
 ! D67   D(14,15,16,11)          0.9025         estimate D2E/DX2                !
 ! D68   D(14,15,16,17)       -179.9327         estimate D2E/DX2                !
 ! D69   D(70,15,16,11)       -178.5239         estimate D2E/DX2                !
 ! D70   D(70,15,16,17)          0.6409         estimate D2E/DX2                !
 ! D71   D(11,16,17,2)           0.3959         estimate D2E/DX2                !
 ! D72   D(11,16,17,18)       -179.1047         estimate D2E/DX2                !
 ! D73   D(15,16,17,2)        -178.7679         estimate D2E/DX2                !
 ! D74   D(15,16,17,18)          1.7315         estimate D2E/DX2                !
 ! D75   D(2,17,18,19)        -105.5665         estimate D2E/DX2                !
 ! D76   D(2,17,18,59)          73.9601         estimate D2E/DX2                !
 ! D77   D(16,17,18,19)         73.9399         estimate D2E/DX2                !
 ! D78   D(16,17,18,59)       -106.5335         estimate D2E/DX2                !
 ! D79   D(17,18,19,20)          0.9163         estimate D2E/DX2                !
 ! D80   D(17,18,19,21)        179.0627         estimate D2E/DX2                !
 ! D81   D(59,18,19,20)       -178.6099         estimate D2E/DX2                !
 ! D82   D(59,18,19,21)         -0.4635         estimate D2E/DX2                !
 ! D83   D(17,18,59,54)       -178.2897         estimate D2E/DX2                !
 ! D84   D(17,18,59,58)          2.3075         estimate D2E/DX2                !
 ! D85   D(19,18,59,54)          1.23           estimate D2E/DX2                !
 ! D86   D(19,18,59,58)       -178.1727         estimate D2E/DX2                !
 ! D87   D(18,19,20,71)         -1.7012         estimate D2E/DX2                !
 ! D88   D(21,19,20,71)       -179.896          estimate D2E/DX2                !
 ! D89   D(18,19,21,22)        179.4674         estimate D2E/DX2                !
 ! D90   D(18,19,21,53)         -0.6937         estimate D2E/DX2                !
 ! D91   D(20,19,21,22)         -2.3279         estimate D2E/DX2                !
 ! D92   D(20,19,21,53)        177.511          estimate D2E/DX2                !
 ! D93   D(19,21,22,23)        135.7019         estimate D2E/DX2                !
 ! D94   D(19,21,22,52)        -45.7842         estimate D2E/DX2                !
 ! D95   D(53,21,22,23)        -44.1343         estimate D2E/DX2                !
 ! D96   D(53,21,22,52)        134.3796         estimate D2E/DX2                !
 ! D97   D(19,21,53,54)          1.0853         estimate D2E/DX2                !
 ! D98   D(19,21,53,93)        179.4609         estimate D2E/DX2                !
 ! D99   D(22,21,53,54)       -179.0752         estimate D2E/DX2                !
 ! D100  D(22,21,53,93)         -0.6995         estimate D2E/DX2                !
 ! D101  D(21,22,23,24)        178.6097         estimate D2E/DX2                !
 ! D102  D(21,22,23,72)         -2.7127         estimate D2E/DX2                !
 ! D103  D(52,22,23,24)          0.0549         estimate D2E/DX2                !
 ! D104  D(52,22,23,72)        178.7325         estimate D2E/DX2                !
 ! D105  D(21,22,52,51)       -178.8051         estimate D2E/DX2                !
 ! D106  D(21,22,52,92)          0.4775         estimate D2E/DX2                !
 ! D107  D(23,22,52,51)         -0.2699         estimate D2E/DX2                !
 ! D108  D(23,22,52,92)        179.0127         estimate D2E/DX2                !
 ! D109  D(22,23,24,25)          0.1878         estimate D2E/DX2                !
 ! D110  D(22,23,24,73)        178.611          estimate D2E/DX2                !
 ! D111  D(72,23,24,25)       -178.4867         estimate D2E/DX2                !
 ! D112  D(72,23,24,73)         -0.0634         estimate D2E/DX2                !
 ! D113  D(23,24,25,26)        179.6019         estimate D2E/DX2                !
 ! D114  D(23,24,25,51)         -0.213          estimate D2E/DX2                !
 ! D115  D(73,24,25,26)          1.1742         estimate D2E/DX2                !
 ! D116  D(73,24,25,51)       -178.6407         estimate D2E/DX2                !
 ! D117  D(24,25,26,27)       -137.8885         estimate D2E/DX2                !
 ! D118  D(24,25,26,31)         41.7433         estimate D2E/DX2                !
 ! D119  D(51,25,26,27)         41.9215         estimate D2E/DX2                !
 ! D120  D(51,25,26,31)       -138.4467         estimate D2E/DX2                !
 ! D121  D(24,25,51,52)         -0.0025         estimate D2E/DX2                !
 ! D122  D(24,25,51,91)       -178.5758         estimate D2E/DX2                !
 ! D123  D(26,25,51,52)       -179.8165         estimate D2E/DX2                !
 ! D124  D(26,25,51,91)          1.6102         estimate D2E/DX2                !
 ! D125  D(25,26,27,28)        179.1291         estimate D2E/DX2                !
 ! D126  D(25,26,27,74)          0.7301         estimate D2E/DX2                !
 ! D127  D(31,26,27,28)         -0.5048         estimate D2E/DX2                !
 ! D128  D(31,26,27,74)       -178.9038         estimate D2E/DX2                !
 ! D129  D(25,26,31,30)       -179.8189         estimate D2E/DX2                !
 ! D130  D(25,26,31,76)          1.5996         estimate D2E/DX2                !
 ! D131  D(27,26,31,30)         -0.1838         estimate D2E/DX2                !
 ! D132  D(27,26,31,76)       -178.7653         estimate D2E/DX2                !
 ! D133  D(26,27,28,29)          0.4934         estimate D2E/DX2                !
 ! D134  D(26,27,28,75)       -179.239          estimate D2E/DX2                !
 ! D135  D(74,27,28,29)        178.8831         estimate D2E/DX2                !
 ! D136  D(74,27,28,75)         -0.8493         estimate D2E/DX2                !
 ! D137  D(27,28,29,30)          0.1948         estimate D2E/DX2                !
 ! D138  D(27,28,29,50)       -179.7651         estimate D2E/DX2                !
 ! D139  D(75,28,29,30)        179.9265         estimate D2E/DX2                !
 ! D140  D(75,28,29,50)         -0.0335         estimate D2E/DX2                !
 ! D141  D(28,29,30,31)         -0.8865         estimate D2E/DX2                !
 ! D142  D(28,29,30,32)       -179.7014         estimate D2E/DX2                !
 ! D143  D(50,29,30,31)        179.0817         estimate D2E/DX2                !
 ! D144  D(50,29,30,32)          0.2668         estimate D2E/DX2                !
 ! D145  D(28,29,50,45)        179.1496         estimate D2E/DX2                !
 ! D146  D(28,29,50,49)         -0.6565         estimate D2E/DX2                !
 ! D147  D(30,29,50,45)         -0.8138         estimate D2E/DX2                !
 ! D148  D(30,29,50,49)        179.3801         estimate D2E/DX2                !
 ! D149  D(29,30,31,26)          0.8707         estimate D2E/DX2                !
 ! D150  D(29,30,31,76)        179.4395         estimate D2E/DX2                !
 ! D151  D(32,30,31,26)        179.4556         estimate D2E/DX2                !
 ! D152  D(32,30,31,76)         -1.9756         estimate D2E/DX2                !
 ! D153  D(29,30,32,33)        120.0997         estimate D2E/DX2                !
 ! D154  D(29,30,32,39)       -114.6063         estimate D2E/DX2                !
 ! D155  D(29,30,32,45)          0.3284         estimate D2E/DX2                !
 ! D156  D(31,30,32,33)        -58.6013         estimate D2E/DX2                !
 ! D157  D(31,30,32,39)         66.6927         estimate D2E/DX2                !
 ! D158  D(31,30,32,45)       -178.3726         estimate D2E/DX2                !
 ! D159  D(30,32,33,34)        -90.2415         estimate D2E/DX2                !
 ! D160  D(30,32,33,38)         85.7607         estimate D2E/DX2                !
 ! D161  D(39,32,33,34)        143.8989         estimate D2E/DX2                !
 ! D162  D(39,32,33,38)        -40.0988         estimate D2E/DX2                !
 ! D163  D(45,32,33,34)         21.2544         estimate D2E/DX2                !
 ! D164  D(45,32,33,38)       -162.7433         estimate D2E/DX2                !
 ! D165  D(30,32,39,40)       -162.8748         estimate D2E/DX2                !
 ! D166  D(30,32,39,44)         21.0532         estimate D2E/DX2                !
 ! D167  D(33,32,39,40)        -40.2573         estimate D2E/DX2                !
 ! D168  D(33,32,39,44)        143.6707         estimate D2E/DX2                !
 ! D169  D(45,32,39,40)         85.8924         estimate D2E/DX2                !
 ! D170  D(45,32,39,44)        -90.1795         estimate D2E/DX2                !
 ! D171  D(30,32,45,46)       -179.4052         estimate D2E/DX2                !
 ! D172  D(30,32,45,50)         -0.8387         estimate D2E/DX2                !
 ! D173  D(33,32,45,46)         65.3282         estimate D2E/DX2                !
 ! D174  D(33,32,45,50)       -116.1053         estimate D2E/DX2                !
 ! D175  D(39,32,45,46)        -60.0643         estimate D2E/DX2                !
 ! D176  D(39,32,45,50)        118.5022         estimate D2E/DX2                !
 ! D177  D(32,33,34,35)        177.0631         estimate D2E/DX2                !
 ! D178  D(32,33,34,77)         -3.0644         estimate D2E/DX2                !
 ! D179  D(38,33,34,35)          1.018          estimate D2E/DX2                !
 ! D180  D(38,33,34,77)       -179.1096         estimate D2E/DX2                !
 ! D181  D(32,33,38,37)       -176.9837         estimate D2E/DX2                !
 ! D182  D(32,33,38,81)          3.7783         estimate D2E/DX2                !
 ! D183  D(34,33,38,37)         -0.8972         estimate D2E/DX2                !
 ! D184  D(34,33,38,81)        179.8648         estimate D2E/DX2                !
 ! D185  D(33,34,35,36)         -0.5014         estimate D2E/DX2                !
 ! D186  D(33,34,35,78)        179.6083         estimate D2E/DX2                !
 ! D187  D(77,34,35,36)        179.6261         estimate D2E/DX2                !
 ! D188  D(77,34,35,78)         -0.2642         estimate D2E/DX2                !
 ! D189  D(34,35,36,37)         -0.1529         estimate D2E/DX2                !
 ! D190  D(34,35,36,79)        179.9656         estimate D2E/DX2                !
 ! D191  D(78,35,36,37)        179.737          estimate D2E/DX2                !
 ! D192  D(78,35,36,79)         -0.1446         estimate D2E/DX2                !
 ! D193  D(35,36,37,38)          0.2739         estimate D2E/DX2                !
 ! D194  D(35,36,37,80)       -179.7226         estimate D2E/DX2                !
 ! D195  D(79,36,37,38)       -179.8445         estimate D2E/DX2                !
 ! D196  D(79,36,37,80)          0.159          estimate D2E/DX2                !
 ! D197  D(36,37,38,33)          0.2574         estimate D2E/DX2                !
 ! D198  D(36,37,38,81)        179.4954         estimate D2E/DX2                !
 ! D199  D(80,37,38,33)       -179.7462         estimate D2E/DX2                !
 ! D200  D(80,37,38,81)         -0.5082         estimate D2E/DX2                !
 ! D201  D(32,39,40,41)       -176.966          estimate D2E/DX2                !
 ! D202  D(32,39,40,82)          3.7516         estimate D2E/DX2                !
 ! D203  D(44,39,40,41)         -0.8117         estimate D2E/DX2                !
 ! D204  D(44,39,40,82)        179.9058         estimate D2E/DX2                !
 ! D205  D(32,39,44,43)        177.0154         estimate D2E/DX2                !
 ! D206  D(32,39,44,86)         -3.0936         estimate D2E/DX2                !
 ! D207  D(40,39,44,43)          0.9009         estimate D2E/DX2                !
 ! D208  D(40,39,44,86)       -179.2081         estimate D2E/DX2                !
 ! D209  D(39,40,41,42)          0.2663         estimate D2E/DX2                !
 ! D210  D(39,40,41,83)       -179.7892         estimate D2E/DX2                !
 ! D211  D(82,40,41,42)        179.549          estimate D2E/DX2                !
 ! D212  D(82,40,41,83)         -0.5065         estimate D2E/DX2                !
 ! D213  D(40,41,42,43)          0.2012         estimate D2E/DX2                !
 ! D214  D(40,41,42,84)       -179.9378         estimate D2E/DX2                !
 ! D215  D(83,41,42,43)       -179.7432         estimate D2E/DX2                !
 ! D216  D(83,41,42,84)          0.1178         estimate D2E/DX2                !
 ! D217  D(41,42,43,44)         -0.1117         estimate D2E/DX2                !
 ! D218  D(41,42,43,85)        179.7634         estimate D2E/DX2                !
 ! D219  D(84,42,43,44)       -179.9726         estimate D2E/DX2                !
 ! D220  D(84,42,43,85)         -0.0975         estimate D2E/DX2                !
 ! D221  D(42,43,44,39)         -0.4468         estimate D2E/DX2                !
 ! D222  D(42,43,44,86)        179.662          estimate D2E/DX2                !
 ! D223  D(85,43,44,39)        179.6775         estimate D2E/DX2                !
 ! D224  D(85,43,44,86)         -0.2136         estimate D2E/DX2                !
 ! D225  D(32,45,46,47)        178.9411         estimate D2E/DX2                !
 ! D226  D(32,45,46,87)         -1.262          estimate D2E/DX2                !
 ! D227  D(50,45,46,47)          0.4986         estimate D2E/DX2                !
 ! D228  D(50,45,46,87)       -179.7045         estimate D2E/DX2                !
 ! D229  D(32,45,50,29)          1.0469         estimate D2E/DX2                !
 ! D230  D(32,45,50,49)       -179.1231         estimate D2E/DX2                !
 ! D231  D(46,45,50,29)        179.7471         estimate D2E/DX2                !
 ! D232  D(46,45,50,49)         -0.4229         estimate D2E/DX2                !
 ! D233  D(45,46,47,48)         -0.2771         estimate D2E/DX2                !
 ! D234  D(45,46,47,88)        179.7578         estimate D2E/DX2                !
 ! D235  D(87,46,47,48)        179.9249         estimate D2E/DX2                !
 ! D236  D(87,46,47,88)         -0.0402         estimate D2E/DX2                !
 ! D237  D(46,47,48,49)         -0.0288         estimate D2E/DX2                !
 ! D238  D(46,47,48,89)       -179.9484         estimate D2E/DX2                !
 ! D239  D(88,47,48,49)        179.9363         estimate D2E/DX2                !
 ! D240  D(88,47,48,89)          0.0167         estimate D2E/DX2                !
 ! D241  D(47,48,49,50)          0.1116         estimate D2E/DX2                !
 ! D242  D(47,48,49,90)       -179.8662         estimate D2E/DX2                !
 ! D243  D(89,48,49,50)       -179.9689         estimate D2E/DX2                !
 ! D244  D(89,48,49,90)          0.0533         estimate D2E/DX2                !
 ! D245  D(48,49,50,29)        179.8972         estimate D2E/DX2                !
 ! D246  D(48,49,50,45)          0.1105         estimate D2E/DX2                !
 ! D247  D(90,49,50,29)         -0.125          estimate D2E/DX2                !
 ! D248  D(90,49,50,45)       -179.9117         estimate D2E/DX2                !
 ! D249  D(25,51,52,22)          0.2459         estimate D2E/DX2                !
 ! D250  D(25,51,52,92)       -179.0366         estimate D2E/DX2                !
 ! D251  D(91,51,52,22)        178.8178         estimate D2E/DX2                !
 ! D252  D(91,51,52,92)         -0.4647         estimate D2E/DX2                !
 ! D253  D(21,53,54,55)        179.2206         estimate D2E/DX2                !
 ! D254  D(21,53,54,59)         -0.3128         estimate D2E/DX2                !
 ! D255  D(93,53,54,55)          0.8333         estimate D2E/DX2                !
 ! D256  D(93,53,54,59)       -178.7001         estimate D2E/DX2                !
 ! D257  D(53,54,55,56)       -179.1432         estimate D2E/DX2                !
 ! D258  D(53,54,55,94)          0.6749         estimate D2E/DX2                !
 ! D259  D(59,54,55,56)          0.39           estimate D2E/DX2                !
 ! D260  D(59,54,55,94)       -179.7919         estimate D2E/DX2                !
 ! D261  D(53,54,59,18)         -0.8489         estimate D2E/DX2                !
 ! D262  D(53,54,59,58)        178.5748         estimate D2E/DX2                !
 ! D263  D(55,54,59,18)        179.6038         estimate D2E/DX2                !
 ! D264  D(55,54,59,58)         -0.9725         estimate D2E/DX2                !
 ! D265  D(54,55,56,57)          0.3654         estimate D2E/DX2                !
 ! D266  D(54,55,56,95)        179.9621         estimate D2E/DX2                !
 ! D267  D(94,55,56,57)       -179.4486         estimate D2E/DX2                !
 ! D268  D(94,55,56,95)          0.1481         estimate D2E/DX2                !
 ! D269  D(55,56,57,58)         -0.5321         estimate D2E/DX2                !
 ! D270  D(55,56,57,96)        179.299          estimate D2E/DX2                !
 ! D271  D(95,56,57,58)        179.8675         estimate D2E/DX2                !
 ! D272  D(95,56,57,96)         -0.3015         estimate D2E/DX2                !
 ! D273  D(56,57,58,59)         -0.0743         estimate D2E/DX2                !
 ! D274  D(56,57,58,97)        179.4353         estimate D2E/DX2                !
 ! D275  D(96,57,58,59)       -179.9044         estimate D2E/DX2                !
 ! D276  D(96,57,58,97)         -0.3947         estimate D2E/DX2                !
 ! D277  D(57,58,59,18)       -179.7739         estimate D2E/DX2                !
 ! D278  D(57,58,59,54)          0.8232         estimate D2E/DX2                !
 ! D279  D(97,58,59,18)          0.7106         estimate D2E/DX2                !
 ! D280  D(97,58,59,54)       -178.6924         estimate D2E/DX2                !
 --------------------------------------------------------------------------------
 Trust Radius=3.00D-01 FncErr=1.00D-07 GrdErr=1.00D-06 EigMax=2.50D+02 EigMin=1.00D-04
 Number of steps in this run=    573 maximum allowed number of steps=    582.
 GradGradGradGradGradGradGradGradGradGradGradGradGradGradGradGradGradGrad

 Leave Link  103 at Tue Mar 25 02:38:43 2025, MaxMem= 13421772800 cpu:               0.8 elap:               0.0
 (Enter /public/software/apps/Gaussian/g16/l202.exe)
 Symmetry turned off by external request.
 Stoichiometry    C57H38O2
 Framework group  C1[X(C57H38O2)]
 Deg. of freedom   285
 Full point group                 C1      NOp   1
                          Input orientation:                          
 ---------------------------------------------------------------------
 Center     Atomic      Atomic             Coordinates (Angstroms)
 Number     Number       Type             X           Y           Z
 ---------------------------------------------------------------------
      1          8           0        6.237164   -1.396140   -1.083493
      2          6           0        6.496071   -0.155433   -0.594023
      3          6           0        7.617378    0.544373   -1.112825
      4          6           0        8.466752   -0.061482   -2.151684
      5          6           0        7.914219   -0.645189   -3.287336
      6          6           0        8.731311   -1.186682   -4.262343
      7          6           0       10.107871   -1.157198   -4.116386
      8          6           0       10.666146   -0.579503   -2.988428
      9          6           0        9.852228   -0.032616   -2.014315
     10          6           0        7.904064    1.793144   -0.621596
     11          6           0        7.121811    2.402434    0.377525
     12          6           0        7.418209    3.686434    0.878769
     13          6           0        6.649648    4.249605    1.858617
     14          6           0        5.554755    3.548375    2.385348
     15          6           0        5.238439    2.302823    1.919003
     16          6           0        6.004511    1.700333    0.898462
     17          6           0        5.705734    0.410163    0.388396
     18          6           0        4.528529   -0.343451    0.900337
     19          6           0        3.261084    0.048667    0.514663
     20          8           0        3.074298    1.093452   -0.334074
     21          6           0        2.114557   -0.657400    0.966195
     22          6           0        0.763930   -0.235081    0.566568
     23          6           0       -0.172439   -1.183903    0.161174
     24          6           0       -1.452498   -0.807719   -0.189652
     25          6           0       -1.836663    0.531242   -0.150065
     26          6           0       -3.197533    0.929315   -0.532512
     27          6           0       -3.407370    2.065951   -1.314064
     28          6           0       -4.678632    2.449132   -1.700611
     29          6           0       -5.760268    1.687147   -1.289355
     30          6           0       -5.559304    0.551412   -0.491842
     31          6           0       -4.292354    0.165460   -0.121044
     32          6           0       -6.880968   -0.122074   -0.174556
     33          6           0       -6.820753   -1.533478   -0.722923
     34          6           0       -7.240925   -1.817117   -2.015552
     35          6           0       -7.125028   -3.098161   -2.526371
     36          6           0       -6.578579   -4.109824   -1.756511
     37          6           0       -6.144947   -3.831593   -0.471413
     38          6           0       -6.262522   -2.552617    0.040935
     39          6           0       -7.241065   -0.084660    1.297753
     40          6           0       -8.212009   -0.945086    1.798001
     41          6           0       -8.594165   -0.878479    3.125218
     42          6           0       -8.015577    0.052685    3.970780
     43          6           0       -7.055635    0.918623    3.477613
     44          6           0       -6.673673    0.854146    2.149010
     45          6           0       -7.858260    0.778766   -0.905838
     46          6           0       -9.231145    0.681203   -0.978321
     47          6           0       -9.930637    1.642374   -1.695789
     48          6           0       -9.265638    2.684596   -2.323538
     49          6           0       -7.886594    2.791895   -2.249138
     50          6           0       -7.183696    1.834588   -1.536035
     51          6           0       -0.899062    1.478131    0.256147
     52          6           0        0.380235    1.102349    0.611487
     53          6           0        2.289722   -1.747161    1.782601
     54          6           0        3.563826   -2.171802    2.202909
     55          6           0        3.737588   -3.282004    3.054473
     56          6           0        4.985338   -3.662880    3.461721
     57          6           0        6.114078   -2.944194    3.040418
     58          6           0        5.980742   -1.864964    2.211875
     59          6           0        4.706895   -1.454938    1.764060
     60          1           0        5.501343   -1.786774   -0.590918
     61          1           0        6.842497   -0.665613   -3.410164
     62          1           0        8.291296   -1.633672   -5.141997
     63          1           0       10.743999   -1.583856   -4.878041
     64          1           0       11.739582   -0.556546   -2.866919
     65          1           0       10.289305    0.406115   -1.128569
     66          1           0        8.748667    2.336283   -1.020274
     67          1           0        8.268929    4.214863    0.472875
     68          1           0        6.882512    5.233539    2.238002
     69          1           0        4.962280    3.999455    3.167615
     70          1           0        4.401066    1.761474    2.335404
     71          1           0        3.933556    1.477897   -0.559521
     72          1           0        0.115779   -2.223755    0.101196
     73          1           0       -2.158985   -1.554403   -0.523226
     74          1           0       -2.553739    2.640688   -1.642735
     75          1           0       -4.822967    3.324872   -2.315923
     76          1           0       -4.139173   -0.704134    0.500566
     77          1           0       -7.663365   -1.032857   -2.626695
     78          1           0       -7.462184   -3.304936   -3.531706
     79          1           0       -6.489018   -5.109407   -2.155755
     80          1           0       -5.712780   -4.614077    0.135647
     81          1           0       -5.928948   -2.346221    1.047940
     82          1           0       -8.663666   -1.679909    1.146976
     83          1           0       -9.347575   -1.556056    3.500237
     84          1           0       -8.313395    0.103999    5.007701
     85          1           0       -6.601298    1.651132    4.128880
     86          1           0       -5.927294    1.538508    1.772910
     87          1           0       -9.756386   -0.126811   -0.491187
     88          1           0      -11.006606    1.577105   -1.764938
     89          1           0       -9.830779    3.421490   -2.875618
     90          1           0       -7.370421    3.605479   -2.736865
     91          1           0       -1.185198    2.518299    0.315400
     92          1           0        1.085948    1.850234    0.938045
     93          1           0        1.423215   -2.285390    2.138299
     94          1           0        2.861333   -3.823751    3.380693
     95          1           0        5.110914   -4.513936    4.114545
     96          1           0        7.093590   -3.248391    3.378359
     97          1           0        6.852060   -1.308765    1.897148
 ---------------------------------------------------------------------
 Rotational constants (GHZ):           0.0884271           0.0148128           0.0146709
 Leave Link  202 at Tue Mar 25 02:38:43 2025, MaxMem= 13421772800 cpu:               1.0 elap:               0.0
 (Enter /public/software/apps/Gaussian/g16/l301.exe)
 Standard basis: def2SVPP (5D, 7F)
 Ernie: Thresh=  0.10000D-02 Tol=  0.10000D-05 Strict=F.
   902 basis functions,  1627 primitive gaussians,   961 cartesian basis functions
   198 alpha electrons      198 beta electrons
       nuclear repulsion energy      7072.6395476415 Hartrees.
 IExCor=  402 DFT=T Ex+Corr=B3LYP ExCW=0 ScaHFX=  0.200000
 ScaDFX=  0.800000  0.720000  1.000000  0.810000 ScalE2=  1.000000  1.000000
 IRadAn=      5 IRanWt=     -1 IRanGd=            0 ICorTp=0 IEmpDi=141
 NAtoms=   97 NActive=   97 NUniq=   97 SFac= 1.00D+00 NAtFMM=   60 NAOKFM=T Big=T
 Integral buffers will be    131072 words long.
 Raffenetti 2 integral format.
 Two-electron integral symmetry is turned off.
 R6Disp:  Grimme-D3(BJ) Dispersion energy=       -0.2739265599 Hartrees.
 Nuclear repulsion after empirical dispersion term =     7072.3656210817 Hartrees.
 Leave Link  301 at Tue Mar 25 02:38:43 2025, MaxMem= 13421772800 cpu:               1.1 elap:               0.0
 (Enter /public/software/apps/Gaussian/g16/l302.exe)
 NPDir=0 NMtPBC=     1 NCelOv=     1 NCel=       1 NClECP=     1 NCelD=      1
         NCelK=      1 NCelE2=     1 NClLst=     1 CellRange=     0.0.
 One-electron integrals computed using PRISM.
   1 Symmetry operations used in ECPInt.
 ECPInt:  NShTT=   92665 NPrTT=  371111 LenC2=   55903 LenP2D=  135079.
 LDataN:  DoStor=T MaxTD1= 4 Len=   56
 NBasis=   902 RedAO= T EigKep=  1.55D-04  NBF=   902
 NBsUse=   902 1.00D-06 EigRej= -1.00D+00 NBFU=   902
 Precomputing XC quadrature grid using
 IXCGrd= 4 IRadAn=           5 IRanWt=          -1 IRanGd=           0 AccXCQ= 0.00D+00.
 Generated NRdTot=       0 NPtTot=           0 NUsed=           0 NTot=          32
 NSgBfM=   878   870   876   878   878 MxSgAt=    97 MxSgA2=    97.
 Leave Link  302 at Tue Mar 25 02:38:45 2025, MaxMem= 13421772800 cpu:              46.7 elap:               1.5
 (Enter /public/software/apps/Gaussian/g16/l303.exe)
 DipDrv:  MaxL=1.
 Leave Link  303 at Tue Mar 25 02:38:45 2025, MaxMem= 13421772800 cpu:               3.5 elap:               0.1
 (Enter /public/software/apps/Gaussian/g16/l401.exe)
 ExpMin= 1.22D-01 ExpMax= 2.27D+03 ExpMxC= 3.41D+02 IAcc=3 IRadAn=         5 AccDes= 0.00D+00
 Harris functional with IExCor=  402 and IRadAn=       5 diagonalized for initial guess.
 HarFok:  IExCor=  402 AccDes= 0.00D+00 IRadAn=         5 IDoV= 1 UseB2=F ITyADJ=14
 ICtDFT=  3500011 ScaDFX=  1.000000  1.000000  1.000000  1.000000
 FoFCou: FMM=F IPFlag=           0 FMFlag=      100000 FMFlg1=        2001
         NFxFlg=           0 DoJE=T BraDBF=F KetDBF=T FulRan=T
         wScrn=  0.000000 ICntrl=       500 IOpCl=  0 I1Cent=   200000004 NGrid=           0
         NMat0=    1 NMatS0=      1 NMatT0=    0 NMatD0=    1 NMtDS0=    0 NMtDT0=    0
 Symmetry not used in FoFCou.
 Harris En= -2343.90907433010    
 JPrj=0 DoOrth=F DoCkMO=F.
 Leave Link  401 at Tue Mar 25 02:38:48 2025, MaxMem= 13421772800 cpu:             102.6 elap:               3.3
 (Enter /public/software/apps/Gaussian/g16/l502.exe)
 Two-electron integral symmetry not used.
 Closed shell SCF:
 Using DIIS extrapolation, IDIIS=  1040.
 NGot= 13421772800 LenX= 13419884797 LenY= 13418960315
 Requested convergence on RMS density matrix=1.00D-08 within 128 cycles.
 Requested convergence on MAX density matrix=1.00D-06.
 Requested convergence on             energy=1.00D-06.
 No special actions if energy rises.
 Fock matrices will be formed incrementally for  20 cycles.
 Integral accuracy reduced to 1.0D-05 until final iterations.

 Cycle   1  Pass 0  IDiag  1:
 FoFJK:  IHMeth= 1 ICntrl=       0 DoSepK=F KAlg= 0 I1Cent=           0 FoldK=F
 IRaf= 680000000 NMat=       1 IRICut=       1 DoRegI=T DoRafI=F ISym2E= 0 IDoP0=0 IntGTp=1.
 FoFCou: FMM=T IPFlag=           0 FMFlag=      100000 FMFlg1=        2001
         NFxFlg=           0 DoJE=F BraDBF=F KetDBF=F FulRan=T
         wScrn=  0.000000 ICntrl=         0 IOpCl=  0 I1Cent=           0 NGrid=           0
         NMat0=    1 NMatS0=      1 NMatT0=    0 NMatD0=    1 NMtDS0=    0 NMtDT0=    0
 Symmetry not used in FoFCou.
 FMM levels:  10  Number of levels for PrismC:   9
 E= -2342.82644242726    
 DIIS: error= 2.65D-02 at cycle   1 NSaved=   1.
 NSaved= 1 IEnMin= 1 EnMin= -2342.82644242726     IErMin= 1 ErrMin= 2.65D-02
[...]
 12,0.00000348,-0.00000225,0.00000510,-0.00000213,0.00000177,0.00000024
 ,0.00000264,-0.00000279,0.00000263,0.00000058,-0.00000012,-0.00000217,
 -0.00000410,0.00000416,0.00000388,-0.00000152,-0.00000097,-0.00000143,
 0.00000004,0.00000090,0.00000046,-0.00000057,0.00000028,0.00000036,-0.
 00000039,-0.00000110,0.00000021,-0.00000121,-0.00000033,0.00000051,0.0
 0000069,0.00000054,-0.00000009,-0.00000001,-0.00000164,0.00000199,-0.0
 0000009,0.00000019,0.00000018,0.00000010,0.00000278,-0.00000046,-0.000
 00082,-0.00000106,0.00000055,0.00000035,-0.00000052,0.00000059,0.00000
 046,-0.00000079,-0.00000009,0.00000012,0.00000059,0.00000085,-0.000000
 33,-0.00000040,0.00000470,-0.00000262,0.00000100,-0.00000341,-0.000000
 04,-0.00000019,0.00000223,-0.00000071,0.00000022,-0.00000109,0.0000008
 9,0.00000016,0.00000203,0.00000165,-0.00000132,-0.00000526,-0.00000023
 ,-0.00000069,0.00000079,0.00000465,-0.00000049,0.00000735,0.00000901,-
 0.00001006,-0.00012211,-0.00003815,-0.00057297,-0.00018967,-0.00075349
 ,0.00005569,-0.00263216,0.00084856,0.00338193,-0.01443125,0.00824224,-
 0.00482636,0.07420589,-0.07615612,0.03573305,0.02323418,-0.00281012,0.
 00757185,-0.00106131,-0.00011324,0.00685643,0.00003460,0.00000731,-0.0
 0009163,-0.00000199,0.00000115,-0.00000406,-0.00000041,-0.00000030,-0.
 00000211,-0.00000006,0.00000014,-0.00000093,-0.00000190,0.00000021,0.0
 0000220,-0.00000279,-0.00000724,0.00000026,0.00000002,-0.00000514,0.00
 000464,-0.00000033,-0.00000381,0.00000230,0.00000083,-0.00000478,0.000
 00150,0.00000538,-0.00000688,0.00000131,0.00000252,0.00000123,0.000012
 57,0.00003946,0.00003685,-0.00000767,-0.00000192,-0.00000195,-0.000000
 81,0.00000231,0.00000094,0.00000122,0.00000042,0.00000274,-0.00000089,
 0.00000057,-0.00000068,0.00000042,-0.00000202,-0.00000222,0.00000171,-
 0.00000083,0.00000058,-0.00000029,-0.00000034,0.00000027,0.00000035,-0
 .00000057,0.00000033,0.00000011,-0.00000040,-0.00000011,0.00000027,-0.
 00000083,0.00000004,0.00000095,-0.00000055,-0.00000047,-0.00000009,-0.
 00000006,0.00000017,-0.00000039,0.00000031,0.00000009,0.,-0.00000018,-
 0.00000020,-0.00000003,0.00000016,0.00000122,0.00000092,0.00000080,0.0
 0000003,0.00000008,0.00000054,0.00000032,0.00000047,0.00000054,-0.0000
 0007,0.,-0.00000013,0.00000084,-0.00000079,0.00000194,-0.00000216,0.00
 000164,-0.00000548,0.00000418,0.00000570,0.00005210,0.00001264,0.00003
 019,-0.00071662,0.00028702,-0.00014399,0.00077450,-0.00061482,-0.00189
 288,-0.08017752,0.07245911,0.00001875,-0.00018913,-0.00000893,-0.00000
 705,0.00021145,0.00001942,-0.00005186,-0.00003846,0.00003752,-0.000010
 98,0.00001264,0.00001487,0.00000134,-0.00000673,-0.00000647,0.00000085
 ,-0.00000585,0.00000226,0.00000744,-0.00000688,-0.00000674,0.00000671,
 -0.00000660,0.00000050,0.00000340,-0.00001568,-0.00000301,0.00002386,0
 .00004414,0.00002573,0.00002320,-0.00000332,-0.00002788,0.00000469,0.0
 0002630,0.00001006,0.00002177,-0.00000400,-0.00001944,-0.00001788,-0.0
 0002482,-0.00000276,-0.00002240,0.00001811,0.00002629,0.00005323,-0.00
 005692,-0.00005217,0.00000354,0.00009707,0.00018992,-0.00091473,-0.000
 09491,0.00022335,0.00006002,-0.00017347,-0.00048882,-0.00009073,0.0001
 0867,-0.00015265,0.00006862,0.00014132,0.00003974,0.00002351,0.0000073
 2,0.00003821,-0.00000680,0.00000421,-0.00000337,-0.00000388,-0.0000016
 3,-0.00000240,0.00000345,-0.00000068,0.00000122,0.00000139,-0.00000219
 ,0.00000157,-0.00000250,0.00000062,-0.00000243,-0.00000032,-0.00000256
 ,0.00000265,-0.00000126,-0.00000028,-0.00000075,0.00000180,0.00000309,
 -0.00000231,-0.00000064,-0.00000040,0.00000050,0.00000012,0.00000026,0
 .00000040,-0.00000165,0.00000107,-0.00000043,-0.00000031,0.00000010,-0
 .00000023,-0.00000028,0.00000184,0.00000066,0.00000030,-0.00000128,-0.
 00000102,-0.00000050,0.00000139,0.00000102,0.00000093,-0.00000016,0.00
 000145,-0.00000128,0.00000007,0.00000098,0.00000032,0.00000035,-0.0000
 0079,-0.00000058,-0.00000027,0.00000086,-0.00000043,-0.00000051,0.0000
 0125,-0.00000042,0.00000039,-0.00000074,0.00000104,0.00000009,-0.00000
 163,-0.00000099,0.00000040,-0.00000157,-0.00000025,-0.00000103,0.00000
 061,-0.00000019,0.00000030,0.,0.00000081,0.00000088,-0.00000029,0.0000
 0035,-0.00000176,-0.00000006,0.00000128,0.00000028,0.00000068,-0.00000
 233,0.00000008,-0.00000513,-0.00000505,0.00000887,-0.00001195,0.000085
 96,-0.00050992,-0.00035295,0.00029653,-0.00001424,-0.00060448,0.001448
 79,0.00334320,0.00279648,0.00999680,-0.00287585,0.00663804,-0.07847889
 ,0.03567195,-0.07276361,-0.01870771,0.00569230,-0.00169696,0.00035280,
 0.00684776,0.00313842,-0.00004870,0.00005855,0.00002540,-0.00000021,0.
 00000587,0.00000348,0.00000033,0.00000202,-0.00000338,0.00000072,0.000
 00252,-0.00000181,0.00000292,0.00000340,-0.00000415,-0.00000056,0.0000
 1121,-0.00000190,0.00000171,0.00000618,-0.00000278,0.00000042,0.000004
 42,-0.00000182,0.00000131,0.00000162,-0.00000017,0.00000086,-0.0000024
 7,0.00000046,0.00000785,-0.00001277,-0.00000528,-0.00003478,-0.0000108
 4,0.00002435,0.00000183,0.00000155,0.00000218,-0.00000315,-0.00000085,
 -0.00000049,-0.00000027,-0.00000132,0.00000126,-0.00000063,0.00000123,
 -0.00000057,0.00000118,0.00000185,-0.00000078,0.00000076,-0.00000011,0
 .00000073,-0.00000071,-0.00000050,-0.00000121,-0.00000002,-0.00000108,
 -0.00000071,0.00000027,-0.00000086,0.00000080,0.00000054,0.00000022,-0
 .00000087,-0.00000024,-0.00000041,-0.00000012,-0.00000004,-0.00000023,
 0.00000006,0.00000014,0.00000020,-0.00000038,0.00000043,-0.00000020,0.
 00000028,0.00000008,-0.00000014,0.00000025,0.00000058,0.00000082,0.000
 00008,-0.00000172,-0.00000009,-0.00000017,-0.00000020,-0.00000008,0.00
 000022,-0.00000041,-0.00000024,0.00000031,-0.00000115,0.00000196,0.000
 00051,0.00000203,-0.00000686,0.00000223,-0.00004010,0.00002831,0.00001
 971,0.00048331,-0.00006070,0.00023077,-0.00029345,-0.00193284,-0.00154
 714,0.08521237,-0.04322079,0.06688439,0.00016325,-0.00015915,0.0000443
 7,0.00063916,-0.00019486,0.00016715,0.00019831,0.00017576,-0.00020573,
 0.00002808,-0.00003908,-0.00005469,-0.00001316,0.00000188,0.00001729,-
 0.00000815,-0.00000559,-0.00001484,-0.00001436,0.00001107,0.00001054,-
 0.00000254,0.00000619,0.00000673,0.00000353,0.00003997,0.00003114,-0.0
 0012390,-0.00017461,-0.00010158,-0.00011523,0.00009017,0.00010132,0.00
 003317,-0.00002264,-0.00004126,-0.00006789,-0.00002487,0.00004167,0.00
 009445,0.00009067,-0.00001455,-0.00003898,-0.00011280,-0.00004722,0.00
 040906,0.00053438,0.00027477,0.00016322,-0.00030120,0.00027595,0.00033
 879,-0.00113096,0.00106344,-0.00019662,-0.00016885,0.00019960,0.000216
 56,0.00019007,-0.00018336,0.00014710,0.00002221,-0.00002989,0.00006470
 ,0.00003705,-0.00002157,-0.00001450,0.00001540,-0.00002247,0.00000343,
 0.00001597,0.00000812,-0.00000364,0.00000492,-0.00000037,0.00002200,-0
 .00000336,0.00001006,-0.00001421,-0.00000489,-0.00000826,-0.00000324,0
 .00000053,0.00000804,-0.00000027,0.00000412,-0.00000558,0.00000138,0.0
 0000424,0.00000022,-0.00000224,0.00000179,-0.00000048,0.00000399,0.000
 00065,-0.00000161,-0.00000986,0.00000017,0.00000452,-0.00000094,-0.000
 00162,-0.00000664,-0.00000099,0.00000219,0.00000461,0.00000136,-0.0000
 0303,-0.00000123,-0.00000570,0.00000260,-0.00000003,0.00000865,-0.0000
 0084,0.00000351,-0.00000848,0.00000256,0.00000198,-0.00000221,-0.00000
 107,-0.00000135,0.00000056,0.00000128,0.00000127,0.00000188,0.00000050
 ,0.00000320,-0.00000662,-0.00000440,-0.00000601,0.00000958,0.00000293,
 -0.00000268,-0.00000068,-0.00001320,0.00000415,-0.00000984,0.,0.000003
 01,0.00000088,0.00000413,-0.00000329,-0.00000690,0.00000168,0.00000482
 ,0.00000841,-0.00000400,-0.00000392,-0.00000385,0.00000230,0.00000005,
 -0.00001257,0.00000402,-0.00001107,-0.00005154,-0.00002970,-0.00001610
 ,-0.00065533,-0.00105844,0.00078348,-0.00279664,0.00274112,-0.00284906
 ,0.00015963,0.00074286,-0.00055243,0.00136986,0.00045752,-0.00091228,0
 .00616385,0.00305339,-0.00232304,-0.24868511,-0.11046434,0.06952403,-0
 .01864108,-0.01431118,0.00934265,-0.00050255,-0.00000287,-0.00011062,-
 0.00000579,-0.00000256,-0.00002398,-0.00000015,0.00000306,0.00000719,-
 0.00000477,0.00000233,0.00000521,-0.00001038,-0.00000068,0.00000559,0.
 00000660,-0.00001523,-0.00000064,-0.00000135,-0.00002626,0.00001173,-0
 .00000682,-0.00000647,0.00000635,-0.00000320,-0.00001190,-0.00000560,0
 .00000028,-0.00000960,-0.00001413,-0.00003590,0.00000525,-0.00003081,-
 0.00019845,0.00002319,-0.00001316,0.00000778,0.00001182,0.00001288,-0.
 00000835,-0.00000587,-0.00000309,0.00000569,0.00000060,0.00000107,-0.0
 0000403,0.00000483,-0.00000504,0.00000372,-0.00000148,0.00000183,0.000
 00001,0.00000391,0.00000112,-0.00000312,-0.00000072,-0.00000413,0.0000
 0042,-0.00000092,-0.00000142,0.00000191,-0.00000252,0.00000092,0.00000
 247,0.00000031,-0.00000051,-0.00000072,-0.00000283,-0.00000158,-0.0000
 0126,-0.00000122,-0.00000133,-0.00000026,0.00000024,0.00000172,0.00000
 205,0.00000160,0.00000335,0.00000200,0.00000095,-0.00000067,0.00000588
 ,0.00000127,0.00000030,-0.00000695,0.00000060,0.00000052,-0.00000078,0
 .00000077,-0.00000160,0.00000005,0.00000273,-0.00000377,-0.00000599,0.
 00001282,0.00000194,0.00000167,0.00000721,0.00000998,-0.00035251,0.000
 11870,-0.00011553,-0.00004997,-0.00002571,0.00011192,0.00017034,0.0001
 9005,-0.00016381,0.00081383,-0.00004210,0.00052500,0.26144104,-0.00020
 506,-0.00119436,-0.00032326,0.00035197,0.00072691,0.00154766,-0.000110
 25,0.00007088,-0.00004101,-0.00002794,0.00003237,0.00002737,0.00001995
 ,-0.00001414,-0.00001923,-0.00000312,-0.00001145,0.00000263,0.00001716
 ,-0.00000869,-0.00001383,0.00000406,-0.00000973,-0.00000586,0.00001571
 ,-0.00003126,-0.00000504,0.00004439,0.00003541,0.00007700,-0.00002853,
 -0.00007332,-0.00010698,-0.00000762,0.00002954,0.00004364,0.00004961,-
 0.00000419,-0.00003660,-0.00007721,-0.00006326,-0.00002287,-0.00004095
 ,0.00013300,-0.00004166,0.00012377,-0.00042978,0.00014597,0.00046742,-
 0.00050950,0.00030762,0.00013696,-0.00105085,-0.00091371,-0.00015063,-
 0.00005945,-0.00029981,-0.00003295,0.00009933,0.00012118,0.00008641,0.
 00004079,-0.00013015,-0.00000480,-0.00000650,0.00002169,0.00000791,0.0
 0000977,0.00000752,-0.00000543,-0.00000475,-0.00000193,0.00000115,-0.0
 0000212,-0.00000090,-0.00000003,-0.00000086,0.00000213,0.00000033,-0.0
 0000190,-0.00000380,-0.00000126,-0.00000003,0.00000327,0.00000188,0.00
 000182,-0.00000318,-0.00000012,0.00000087,0.00000313,0.00000427,-0.000
 00170,0.00000015,0.00000085,-0.00000016,0.00000008,-0.00000588,-0.0000
 0035,0.00000184,-0.00000031,-0.00000028,-0.00000362,-0.00000102,0.0000
 0167,0.00000221,0.00000130,-0.00000262,-0.00000106,-0.00000305,0.00000
 205,0.,0.00000654,-0.00000021,0.00000237,-0.00000455,0.00000135,0.0000
 0346,-0.00000114,-0.00000073,-0.00000199,0.00000005,0.00000045,0.00000
 141,0.00000095,-0.00000035,0.00000205,-0.00000308,-0.00000188,-0.00000
 263,0.00000592,0.00000081,-0.00000278,0.00000431,-0.00000608,0.0000009
 3,-0.00000792,-0.00000180,0.00000219,0.00000279,0.00000061,-0.00000029
 ,-0.00000237,0.00000355,0.00000156,0.00000668,-0.00000156,-0.00000331,
 -0.00000636,0.00000007,0.00000080,-0.00000075,-0.00000610,0.00000160,0
 .00000457,0.00000957,-0.00000165,0.00040647,0.00029411,-0.00017391,0.0
 0158176,0.00139718,0.00304210,0.00065822,-0.00032703,-0.00015676,0.001
 47497,0.00027764,0.00620937,-0.02111265,-0.00697073,0.00715405,-0.1109
 3793,-0.11302126,0.05086556,0.00811046,0.00821506,-0.00342752,-0.00018
 118,0.00012974,-0.00017447,-0.00000384,0.00000759,0.00000662,0.0000007
 9,0.00000025,-0.00000764,0.00000151,0.00000260,-0.00000366,0.00000625,
 0.00000437,-0.00000687,-0.00000948,0.00001797,-0.00000255,0.00000012,0
 .00001515,-0.00001725,0.00000708,0.00000823,-0.00000304,0.00000439,0.0
 0000682,0.00000346,0.00000271,0.00000160,0.00001039,0.00002774,-0.0000
 1801,0.00002076,0.00002783,-0.00000873,-0.00000134,0.00000003,-0.00000
 959,-0.00000070,-0.00000232,-0.00000243,-0.00000166,0.00000177,0.00000
 177,0.00000004,-0.00000091,0.00000196,-0.00000196,-0.00000043,-0.00000
 128,0.00000089,0.00000008,0.00000213,0.00000052,-0.00000206,-0.0000005
 3,-0.00000242,0.00000002,-0.00000067,-0.00000113,0.00000070,-0.0000024
 3,0.00000101,0.00000086,0.00000034,0.00000025,-0.00000095,-0.00000200,
 -0.00000099,-0.00000042,-0.00000038,-0.00000107,-0.00000007,0.00000053
 ,0.00000034,0.00000098,0.00000101,0.00000189,0.00000106,0.00000189,0.0
 0000043,0.00000367,0.00000139,0.00000015,-0.00000461,0.00000037,0.0000
 0034,0.00000006,0.00000022,-0.00000060,-0.00000081,0.00000160,-0.00000
 212,0.00000307,0.00000355,0.00000175,0.00000423,-0.00000081,-0.0000000
 1,0.00013749,0.00003508,0.00013442,-0.00003178,-0.00040673,-0.00054675
 ,-0.00091576,-0.00030874,0.00039326,0.00037125,-0.00115074,-0.00308556
 ,0.11973505,0.11410115,0.00015847,-0.00032496,0.00011563,-0.00024674,0
 .00111599,-0.00107641,0.00008682,-0.00001029,-0.00011493,0.00002789,-0
 .00002968,-0.00003541,-0.00001731,-0.00000570,0.00001694,-0.00000758,-
 0.00000566,-0.00000671,-0.00000734,0.00000438,0.00001128,0.00000657,-0
 .00000166,-0.00000017,0.00000982,0.00000823,0.00002755,0.00000300,-0.0
 0004312,0.00003756,-0.00015727,-0.00005811,0.00009043,0.00004265,0.000
 02486,-0.00003879,-0.00004001,-0.00006598,-0.00001402,0.00003643,0.000
 03065,-0.00004423,-0.00000977,-0.00018205,-0.00008077,0.00007940,0.000
 27698,0.00009408,-0.00051099,0.00062213,-0.00069107,0.00009327,-0.0011
 6459,-0.00164888,0.00029625,-0.00033187,-0.00016302,0.00003359,0.00018
 149,0.00008892,-0.00006782,-0.00016867,0.00003494,0.00002989,0.0000295
 6,0.00001642,-0.00000810,-0.00000327,-0.00000532,0.00000945,-0.0000006
 2,0.00000049,-0.00000381,0.00000355,0.00000030,0.00000631,-0.00000109,
 -0.00000050,-0.00000241,0.00000148,0.00000237,0.00000108,0.00000079,-0
 .00000391,-0.00000210,-0.00000087,0.00000295,0.00000059,-0.00000226,-0
 .00000350,-0.00000642,0.00000201,-0.00000120,-0.00000110,0.00000100,0.
 00000029,0.00000612,0.00000236,-0.00000009,0.00000072,-0.00000127,0.00
 000224,0.00000148,-0.00000252,-0.00000212,-0.00000105,0.00000346,0.000
 00181,0.00000265,-0.00000219,-0.00000167,-0.00000607,-0.00000060,-0.00
 000211,0.00000407,-0.00000186,-0.00000290,0.00000090,0.00000063,0.0000
 0242,0.00000041,-0.00000017,-0.00000174,-0.00000106,0.00000067,-0.0000
 0322,0.00000281,0.00000199,0.00000313,-0.00000556,-0.00000010,0.000002
 55,-0.00000545,0.00000325,-0.00000010,0.00000776,0.00000257,-0.0000026
 0,-0.00000343,0.00000010,-0.00000081,0.00000064,-0.00000490,-0.0000007
 2,-0.00000629,0.00000175,0.00000290,0.00000713,0.00000002,-0.00000123,
 0.00000309,0.00000333,-0.00000553,-0.00001343,0.00000057,-0.00000231,-
 0.00043425,-0.00024262,0.00024696,-0.00181617,0.00319804,0.00258500,-0
 .00047598,-0.00011024,-0.00053272,-0.00162799,0.00617566,0.00294272,0.
 01685039,0.00919680,-0.00159405,0.06976271,0.05065654,-0.07121214,-0.0
 0778397,-0.00509814,0.00669962,-0.00035641,0.00000039,-0.00016845,-0.0
 0000327,0.00000358,-0.00001738,0.00000047,0.00000395,0.00000489,-0.000
 00386,0.00000197,0.00000389,-0.00000851,0.00000048,0.00000414,0.000006
 00,-0.00000079,-0.00000097,-0.00001227,-0.00002877,0.00000277,-0.00000
 369,-0.00000597,0.00000599,0.00000477,-0.00000823,-0.00000212,0.000009
 55,-0.00001278,-0.00000563,0.00004961,-0.00002331,-0.00000615,-0.00008
 030,0.00001460,-0.00000496,0.00000376,0.00000311,0.00000538,0.00000097
 ,0.00000164,0.00000234,-0.00000089,-0.00000101,0.00000077,0.00000060,-
 0.00000146,0.00000210,0.00000106,0.00000094,0.00000038,-0.00000069,-0.
 00000127,-0.00000034,0.00000167,0.00000075,0.00000227,-0.00000037,0.00
 000032,0.00000112,-0.00000067,0.00000264,-0.00000061,-0.00000119,-0.00
 000003,-0.00000036,0.00000044,0.00000159,0.00000066,0.00000025,0.00000
 021,0.00000106,0.00000047,-0.00000063,0.,-0.00000082,-0.00000144,-0.00
 000220,-0.00000061,-0.00000194,-0.00000009,-0.00000347,-0.00000183,0.0
 0000033,0.00000461,-0.00000007,0.,-0.00000040,0.00000041,0.00000031,0.
 00000137,-0.00000091,0.00000185,-0.00000339,-0.00000271,-0.00000012,-0
 .00000368,-0.00000191,0.00000195,-0.00016273,0.00012529,0.00004924,0.0
 0009524,-0.00054914,-0.00065458,0.00071811,0.00046840,-0.00006262,0.00
 015171,-0.00309990,-0.00261644,-0.07470632,-0.06057195,0.06771700\\-0.
 00000206,-0.00000144,0.00000047,0.00000076,0.00000550,0.00000212,-0.00
 000130,0.00000262,-0.00000062,0.00000355,-0.00000512,-0.00000190,0.000
 00043,0.00000431,0.00000290,0.00000295,-0.00000031,-0.00000133,-0.0000
 0359,0.00000005,0.00000074,-0.00000153,0.00000125,0.00000148,-0.000001
 22,-0.00000086,-0.00000207,-0.00000145,0.00000016,0.00000171,-0.000000
 42,-0.00000233,-0.00000166,-0.00000142,0.00000105,0.00000183,0.0000022
 1,-0.00000080,-0.00000304,-0.00000150,-0.00000338,-0.00000182,0.000002
 23,0.00000221,-0.00000120,-0.00000010,-0.00000091,0.00000329,0.0000011
 0,-0.00000242,-0.00000436,-0.00000292,-0.00000137,0.00000247,-0.000000
 65,-0.00000422,0.00000387,-0.00000743,0.00000104,-0.00000170,-0.000001
 69,0.00000530,-0.00000396,0.00000217,0.00000343,0.00000224,-0.00000321
 ,0.00000210,-0.00000054,0.00000407,-0.00000253,0.00000013,0.00000104,0
 .00000576,0.00000155,0.00000024,0.00000007,-0.00000173,0.00000028,-0.0
 0000232,0.00000073,-0.00000126,-0.00000316,0.00000173,-0.00000249,0.00
 000310,-0.00000119,0.00000387,0.00000005,0.00000074,-0.00000403,0.0000
 0160,-0.00000031,0.00000042,0.00000287,-0.00000052,-0.00000124,-0.0000
 0393,0.00000343,0.00000040,-0.00000111,-0.00000031,0.00000066,0.000000
 17,0.00000127,-0.00000012,0.00000156,0.00000036,-0.00000044,0.00000164
 ,-0.00000040,-0.00000075,0.00000079,-0.00000274,-0.00000059,-0.0000056
 7,0.00000002,0.00000135,0.00000243,0.00000151,0.00000113,0.00000144,-0
 .00000124,0.00000063,0.00000024,-0.00000118,-0.00000034,-0.00000031,-0
 .00000155,-0.00000080,0.00000046,0.00000155,-0.00000245,-0.00000013,-0
 .00000023,0.00000392,0.00000184,0.00000061,0.00000110,0.00000041,-0.00
 000043,0.00000081,-0.00000125,0.00000035,-0.00000097,-0.00000198,0.000
 00158,0.00000191,-0.00000043,-0.00000056,-0.00000504,-0.00000281,-0.00
 000088,0.00000411,-0.00000800,-0.00000192,0.00000562,-0.00000122,0.000
 00171,-0.00000342,0.00000205,-0.00000255,0.00000292,-0.00000096,0.0000
 0150,-0.00000420,0.00000098,-0.00000057,0.00000006,0.00000336,-0.00000
 320,-0.00000112,-0.00000212,0.00000201,0.00000478,0.00000182,-0.000001
 52,-0.00000094,-0.00000168,0.00000235,-0.00000048,-0.00000034,-0.00000
 124,-0.00000112,-0.00000039,-0.00000095,0.00000137,-0.00000090,-0.0000
 0078,0.00000138,0.00000002,-0.00000041,0.00000005,0.00000174,0.0000015
 5,0.00000212,0.00000011,-0.00000150,0.00000111,0.00000056,-0.00000129,
 0.00000008,0.00000139,0.00000087,-0.00000055,0.00000121,0.00000084,-0.
 00000142,-0.00000073,0.00000038,0.00000241,0.00000138,-0.00000037,-0.0
 0000024,-0.00000193,-0.00000084,-0.00000175,-0.00000114,0.00000029,0.0
 0000199,0.00000092,0.00000005,0.00000036,0.00000139,-0.00000113,0.0000
 0070,-0.00000223,0.00000145,-0.00000035,0.00000013,-0.00000072,-0.0000
 0019,-0.00000013,-0.00000127,-0.00000010,-0.00000176,0.00000024,0.0000
 0067,-0.00000122,0.00000089,0.00000080,0.00000069,0.00000204,-0.000000
 91,-0.00000103,-0.00000149,-0.00000091,-0.00000093,0.00000085,-0.00000
 044,-0.00000049,0.00000145,0.00000060,0.00000130,0.00000059,0.00000116
 ,0.00000076,-0.00000039,-0.00000086,-0.00000219,0.00000113,-0.00000137
 ,-0.00000054,0.00000017,-0.00000071,0.00000078,-0.00000044,0.00000107,
 0.00000093,-0.00000075,-0.00000018,0.00000237,-0.00000058,0.00000132,0
 .00000302,-0.00000007,-0.00000147,-0.00000055,0.00000081,-0.00000136,-
 0.00000061,0.00000024,0.00000088,-0.00000093,0.00000109,0.00000121,-0.
 00000059,0.00000095,0.00000112,0.00000105,-0.00000068\\\@
 The archive entry for this job was punched.


 I HAVE NOT FAILED, I HAVE ONLY DISCOVERED 10,000
 WAYS THAT DIDN'T WORK.  -- THOMAS A. EDISON
 Job cpu time:       0 days 21 hours  8 minutes 58.0 seconds.
 Elapsed time:       0 days  0 hours 39 minutes 53.8 seconds.
 File lengths (MBytes):  RWF=   8522 Int=      0 D2E=      0 Chk=     71 Scr=      1
 Normal termination of Gaussian 16 at Tue Mar 25 03:38:22 2025.
