 Entering Gaussian System, Link 0=g16
 Initial command:
 /public/software/apps/Gaussian/g16/l1.exe "/tmp/Gau-114838.inp" -scrdir="/tmp/"
 Entering Link 1 = /public/software/apps/Gaussian/g16/l1.exe PID=    114845.
  
 Copyright (c) 1988-2019, Gaussian, Inc.  All Rights Reserved.
  
 This is part of the Gaussian(R) 16 program.  It is based on
 the Gaussian(R) 09 system (copyright 2009, Gaussian, Inc.),
 the Gaussian(R) 03 system (copyright 2003, Gaussian, Inc.),
 the Gaussian(R) 98 system (copyright 1998, Gaussian, Inc.),
 the Gaussian(R) 94 system (copyright 1995, Gaussian, Inc.),
 the Gaussian 92(TM) system (copyright 1992, Gaussian, Inc.),
 the Gaussian 90(TM) system (copyright 1990, Gaussian, Inc.),
 the Gaussian 88(TM) system (copyright 1988, Gaussian, Inc.),
 the Gaussian 86(TM) system (copyright 1986, Carnegie Mellon
 University), and the Gaussian 82(TM) system (copyright 1983,
 Carnegie Mellon University). Gaussian is a federally registered
 trademark of Gaussian, Inc.
  
 This software contains proprietary and confidential information,
 including trade secrets, belonging to Gaussian, Inc.
  
 This software is provided under written license and may be
 used, copied, transmitted, or stored only in accord with that
 written license.
  
 The following legend is applicable only to US Government
 contracts under FAR:
  
                    RESTRICTED RIGHTS LEGEND
  
 Use, reproduction and disclosure by the US Government is
 subject to restrictions as set forth in subparagraphs (a)
 and (c) of the Commercial Computer Software - Restricted
 Rights clause in FAR 52.227-19.
  
 Gaussian, Inc.
 340 Quinnipiac St., Bldg. 40, Wallingford CT 06492
  
  
 ---------------------------------------------------------------
 Warning -- This program may not be used in any manner that
 competes with the business of Gaussian, Inc. or will provide
 assistance to any competitor of Gaussian, Inc.  The licensee
 of this program is prohibited from giving any competitor of
 Gaussian, Inc. access to this program.  By using this program,
 the user acknowledges that Gaussian, Inc. is engaged in the
 business of creating and licensing software in the field of
 computational chemistry and represents and warrants to the
 licensee that it is not a competitor of Gaussian, Inc. and that
 it will not use this program in any manner prohibited above.
 ---------------------------------------------------------------
  

 Cite this work as:
 Gaussian 16, Revision C.01,
 M. J. Frisch, G. W. Trucks, H. B. Schlegel, G. E. Scuseria, 
 M. A. Robb, J. R. Cheeseman, G. Scalmani, V. Barone, 
 G. A. Petersson, H. Nakatsuji, X. Li, M. Caricato, A. V. Marenich, 
 J. Bloino, B. G. Janesko, R. Gomperts, B. Mennucci, H. P. Hratchian, 
 J. V. Ortiz, A. F. Izmaylov, J. L. Sonnenberg, D. Williams-Young, 
 F. Ding, F. Lipparini, F. Egidi, J. Goings, B. Peng, A. Petrone, 
 T. Henderson, D. Ranasinghe, V. G. Zakrzewski, J. Gao, N. Rega, 
 G. Zheng, W. Liang, M. Hada, M. Ehara, K. Toyota, R. Fukuda, 
 J. Hasegawa, M. Ishida, T. Nakajima, Y. Honda, O. Kitao, H. Nakai, 
 T. Vreven, K. Throssell, J. A. Montgomery, Jr., J. E. Peralta, 
 F. Ogliaro, M. J. Bearpark, J. J. Heyd, E. N. Brothers, K. N. Kudin, 
 V. N. Staroverov, T. A. Keith, R. Kobayashi, J. Normand, 
 K. Raghavachari, A. P. Rendell, J. C. Burant, S. S. Iyengar, 
 J. Tomasi, M. Cossi, J. M. Millam, M. Klene, C. Adamo, R. Cammi, 
 J. W. Ochterski, R. L. Martin, K. Morokuma, O. Farkas, 
 J. B. Foresman, and D. J. Fox, Gaussian, Inc., Wallingford CT, 2019.
 
 ******************************************
 Gaussian 16:  ES64L-G16RevC.01  3-Jul-2019
                24-Mar-2025 
 ******************************************
 %nprocshared=32
 Will use up to   32 processors via shared memory.
 %mem=100GB
 ------------------------------------------
 #p opt freq b3lyp/def2svpp em=gd3bj nosymm
 ------------------------------------------
 1/18=20,19=15,26=3,38=1/1,3;
 2/9=110,12=2,15=1,17=6,18=5,40=1/2;
 3/5=43,7=202,11=2,25=1,30=1,71=1,74=-5,124=41/1,2,3;
 4//1;
 5/5=2,38=5/2;
 6/7=2,8=2,9=2,10=2,28=1/1;
 7/30=1/1,2,3,16;
 1/18=20,19=15,26=3/3(2);
 2/9=110,15=1/2;
 99//99;
 2/9=110,15=1/2;
 3/5=43,7=202,11=2,25=1,30=1,71=1,74=-5,124=41/1,2,3;
 4/5=5,16=3,69=1/1;
 5/5=2,38=5/2;
 7/30=1/1,2,3,16;
 1/18=20,19=15,26=3/3(-5);
 2/9=110,15=1/2;
 6/7=2,8=2,9=2,10=2,19=2,28=1/1;
 99/9=1/99;
 Leave Link    1 at Mon Mar 24 20:35:32 2025, MaxMem= 13421772800 cpu:               1.7 elap:               0.1
 (Enter /public/software/apps/Gaussian/g16/l101.exe)
 ----------------------
 $$$$Singlemol####0????
 ----------------------
 Symbolic Z-matrix:
 Charge =  0 Multiplicity = 1
 C                    -5.33293  -0.44838  -3.24369 
 C                    -5.30268  -1.17035  -1.89251 
 C                    -4.34002  -2.36019  -1.94262 
 C                    -6.69158  -1.60271  -1.4785 
 C                    -7.54442  -2.48629  -2.10359 
 C                    -8.7876   -2.73286  -1.5359 
 C                    -9.16908  -2.10307  -0.36148 
 C                    -8.31851  -1.21235   0.27291 
 C                    -7.07779  -0.96459  -0.29058 
 C                    -5.99232  -0.10034   0.14125 
 C                    -5.87721   0.7394    1.23683 
 C                    -4.70822   1.4597    1.40392 
 C                    -3.65125   1.34429   0.50213 
 C                    -2.41374   2.1112    0.70699 
 C                    -2.46008   3.45468   1.0718 
 C                    -1.2909    4.17106   1.24961 
 C                    -0.06217   3.55709   1.08782 
 C                     0.00513   2.21049   0.73891 
 C                     1.30462   1.54191   0.54854 
 C                     1.56149   0.91862  -0.64564 
 C                     2.80135   0.31071  -0.90354 
 O                     2.96741  -0.26095  -2.12467 
 C                     3.80199   0.33296   0.0493 
 C                     5.13067  -0.25167  -0.26965 
 C                     6.20214   0.5878   -0.51183 
 O                     6.09713   1.93994  -0.44225 
 C                     7.46021   0.05944  -0.86105 
 C                     7.63828  -1.28826  -0.96342 
 C                     6.57559  -2.18189  -0.71285 
 C                     6.73959  -3.57895  -0.80108 
 C                     5.69863  -4.42539  -0.54011 
 C                     4.44767  -3.90892  -0.17134 
 C                     4.25349  -2.55913  -0.0804 
 C                     5.30496  -1.65778  -0.35651 
 C                     3.55112   0.93219   1.31133 
 C                     4.52578   0.91848   2.33345 
 C                     4.26909   1.46953   3.55688 
 C                     3.01892   2.04428   3.8229 
 C                     2.05261   2.06946   2.8559 
 C                     2.2913    1.53544   1.57281 
 C                    -1.17376   1.50414   0.53721 
 C                    -3.77384   0.49376  -0.59906 
 C                    -4.93901  -0.21483  -0.77797 
 H                    -6.01819   0.39583  -3.20307 
 H                    -4.34187  -0.07936  -3.49735 
 H                    -5.66359  -1.12657  -4.02693 
 H                    -4.65602  -3.07     -2.70354 
 H                    -3.33371  -2.02232  -2.17913 
 H                    -4.31971  -2.86811  -0.98059 
 H                    -7.25822  -2.98315  -3.01946 
 H                    -9.46559  -3.42407  -2.01518 
 H                    -10.1408  -2.31029   0.063 
 H                    -8.61752  -0.72297   1.18809 
 H                    -6.683     0.83137   1.95002 
 H                    -4.59816   2.10839   2.26106 
 H                    -3.41652   3.94211   1.19096 
 H                    -1.33645   5.21753   1.51456 
 H                     0.84967   4.12261   1.21431 
 H                     0.82394   0.90619  -1.43302 
 H                     3.8454   -0.66383  -2.1767 
 H                     5.20247   2.18113  -0.16378 
 H                     8.26297   0.75576  -1.04444 
 H                     8.60288  -1.69093  -1.23502 
 H                     7.70968  -3.96741  -1.07652 
 H                     5.83294  -5.4947   -0.60899 
 H                     3.63584  -4.58767   0.04461 
 H                     3.29132  -2.16601   0.21495 
 H                     5.47859   0.44791   2.13796 
 H                     5.02329   1.45022   4.32955 
 H                     2.8194    2.45669   4.80082 
 H                     1.08149   2.48817   3.07273 
 H                    -1.12291   0.4558    0.28006 
 H                    -2.9625    0.41832  -1.30864 
 
 ITRead=  0  0  0  0  0  0  0  0  0  0  0  0  0  0  0  0  0  0  0  0
 ITRead=  0  0  0  0  0  0  0  0  0  0  0  0  0  0  0  0  0  0  0  0
 ITRead=  0  0  0  0  0  0  0  0  0  0  0  0  0  0  0  0  0  0  0  0
 ITRead=  0  0  0  0  0  0  0  0  0  0  0  0  0
 MicOpt= -1 -1 -1 -1 -1 -1 -1 -1 -1 -1 -1 -1 -1 -1 -1 -1 -1 -1 -1 -1
 MicOpt= -1 -1 -1 -1 -1 -1 -1 -1 -1 -1 -1 -1 -1 -1 -1 -1 -1 -1 -1 -1
 MicOpt= -1 -1 -1 -1 -1 -1 -1 -1 -1 -1 -1 -1 -1 -1 -1 -1 -1 -1 -1 -1
 MicOpt= -1 -1 -1 -1 -1 -1 -1 -1 -1 -1 -1 -1 -1
 NAtoms=     73 NQM=       73 NQMF=       0 NMMI=      0 NMMIF=      0
                NMic=       0 NMicF=      0.
                    Isotopes and Nuclear Properties:
 (Nuclear quadrupole moments (NQMom) in fm**2, nuclear magnetic moments (NMagM)
  in nuclear magnetons)

  Atom         1           2           3           4           5           6           7           8           9          10
 IAtWgt=          12          12          12          12          12          12          12          12          12          12
 AtmWgt=  12.0000000  12.0000000  12.0000000  12.0000000  12.0000000  12.0000000  12.0000000  12.0000000  12.0000000  12.0000000
 NucSpn=           0           0           0           0           0           0           0           0           0           0
 AtZEff=  -0.0000000  -0.0000000  -0.0000000  -0.0000000  -0.0000000  -0.0000000  -0.0000000  -0.0000000  -0.0000000  -0.0000000
 NQMom=    0.0000000   0.0000000   0.0000000   0.0000000   0.0000000   0.0000000   0.0000000   0.0000000   0.0000000   0.0000000
 NMagM=    0.0000000   0.0000000   0.0000000   0.0000000   0.0000000   0.0000000   0.0000000   0.0000000   0.0000000   0.0000000
 AtZNuc=   6.0000000   6.0000000   6.0000000   6.0000000   6.0000000   6.0000000   6.0000000   6.0000000   6.0000000   6.0000000

  Atom        11          12          13          14          15          16          17          18          19          20
 IAtWgt=          12          12          12          12          12          12          12          12          12          12
 AtmWgt=  12.0000000  12.0000000  12.0000000  12.0000000  12.0000000  12.0000000  12.0000000  12.0000000  12.0000000  12.0000000
 NucSpn=           0           0           0           0           0           0           0           0           0           0
 AtZEff=  -0.0000000  -0.0000000  -0.0000000  -0.0000000  -0.0000000  -0.0000000  -0.0000000  -0.0000000  -0.0000000  -0.0000000
 NQMom=    0.0000000   0.0000000   0.0000000   0.0000000   0.0000000   0.0000000   0.0000000   0.0000000   0.0000000   0.0000000
 NMagM=    0.0000000   0.0000000   0.0000000   0.0000000   0.0000000   0.0000000   0.0000000   0.0000000   0.0000000   0.0000000
 AtZNuc=   6.0000000   6.0000000   6.0000000   6.0000000   6.0000000   6.0000000   6.0000000   6.0000000   6.0000000   6.0000000

  Atom        21          22          23          24          25          26          27          28          29          30
 IAtWgt=          12          16          12          12          12          16          12          12          12          12
 AtmWgt=  12.0000000  15.9949146  12.0000000  12.0000000  12.0000000  15.9949146  12.0000000  12.0000000  12.0000000  12.0000000
 NucSpn=           0           0           0           0           0           0           0           0           0           0
 AtZEff=  -0.0000000  -0.0000000  -0.0000000  -0.0000000  -0.0000000  -0.0000000  -0.0000000  -0.0000000  -0.0000000  -0.0000000
 NQMom=    0.0000000   0.0000000   0.0000000   0.0000000   0.0000000   0.0000000   0.0000000   0.0000000   0.0000000   0.0000000
 NMagM=    0.0000000   0.0000000   0.0000000   0.0000000   0.0000000   0.0000000   0.0000000   0.0000000   0.0000000   0.0000000
 AtZNuc=   6.0000000   8.0000000   6.0000000   6.0000000   6.0000000   8.0000000   6.0000000   6.0000000   6.0000000   6.0000000

  Atom        31          32          33          34          35          36          37          38          39          40
 IAtWgt=          12          12          12          12          12          12          12          12          12          12
 AtmWgt=  12.0000000  12.0000000  12.0000000  12.0000000  12.0000000  12.0000000  12.0000000  12.0000000  12.0000000  12.0000000
 NucSpn=           0           0           0           0           0           0           0           0           0           0
 AtZEff=  -0.0000000  -0.0000000  -0.0000000  -0.0000000  -0.0000000  -0.0000000  -0.0000000  -0.0000000  -0.0000000  -0.0000000
 NQMom=    0.0000000   0.0000000   0.0000000   0.0000000   0.0000000   0.0000000   0.0000000   0.0000000   0.0000000   0.0000000
 NMagM=    0.0000000   0.0000000   0.0000000   0.0000000   0.0000000   0.0000000   0.0000000   0.0000000   0.0000000   0.0000000
 AtZNuc=   6.0000000   6.0000000   6.0000000   6.0000000   6.0000000   6.0000000   6.0000000   6.0000000   6.0000000   6.0000000

  Atom        41          42          43          44          45          46          47          48          49          50
 IAtWgt=          12          12          12           1           1           1           1           1           1           1
 AtmWgt=  12.0000000  12.0000000  12.0000000   1.0078250   1.0078250   1.0078250   1.0078250   1.0078250   1.0078250   1.0078250
 NucSpn=           0           0           0           1           1           1           1           1           1           1
 AtZEff=  -0.0000000  -0.0000000  -0.0000000  -0.0000000  -0.0000000  -0.0000000  -0.0000000  -0.0000000  -0.0000000  -0.0000000
 NQMom=    0.0000000   0.0000000   0.0000000   0.0000000   0.0000000   0.0000000   0.0000000   0.0000000   0.0000000   0.0000000
 NMagM=    0.0000000   0.0000000   0.0000000   2.7928460   2.7928460   2.7928460   2.7928460   2.7928460   2.7928460   2.7928460
 AtZNuc=   6.0000000   6.0000000   6.0000000   1.0000000   1.0000000   1.0000000   1.0000000   1.0000000   1.0000000   1.0000000

  Atom        51          52          53          54          55          56          57          58          59          60
 IAtWgt=           1           1           1           1           1           1           1           1           1           1
 AtmWgt=   1.0078250   1.0078250   1.0078250   1.0078250   1.0078250   1.0078250   1.0078250   1.0078250   1.0078250   1.0078250
 NucSpn=           1           1           1           1           1           1           1           1           1           1
 AtZEff=  -0.0000000  -0.0000000  -0.0000000  -0.0000000  -0.0000000  -0.0000000  -0.0000000  -0.0000000  -0.0000000  -0.0000000
 NQMom=    0.0000000   0.0000000   0.0000000   0.0000000   0.0000000   0.0000000   0.0000000   0.0000000   0.0000000   0.0000000
 NMagM=    2.7928460   2.7928460   2.7928460   2.7928460   2.7928460   2.7928460   2.7928460   2.7928460   2.7928460   2.7928460
 AtZNuc=   1.0000000   1.0000000   1.0000000   1.0000000   1.0000000   1.0000000   1.0000000   1.0000000   1.0000000   1.0000000

  Atom        61          62          63          64          65          66          67          68          69          70
 IAtWgt=           1           1           1           1           1           1           1           1           1           1
 AtmWgt=   1.0078250   1.0078250   1.0078250   1.0078250   1.0078250   1.0078250   1.0078250   1.0078250   1.0078250   1.0078250
 NucSpn=           1           1           1           1           1           1           1           1           1           1
 AtZEff=  -0.0000000  -0.0000000  -0.0000000  -0.0000000  -0.0000000  -0.0000000  -0.0000000  -0.0000000  -0.0000000  -0.0000000
 NQMom=    0.0000000   0.0000000   0.0000000   0.0000000   0.0000000   0.0000000   0.0000000   0.0000000   0.0000000   0.0000000
 NMagM=    2.7928460   2.7928460   2.7928460   2.7928460   2.7928460   2.7928460   2.7928460   2.7928460   2.7928460   2.7928460
 AtZNuc=   1.0000000   1.0000000   1.0000000   1.0000000   1.0000000   1.0000000   1.0000000   1.0000000   1.0000000   1.0000000

  Atom        71          72          73
 IAtWgt=           1           1           1
 AtmWgt=   1.0078250   1.0078250   1.0078250
 NucSpn=           1           1           1
 AtZEff=  -0.0000000  -0.0000000  -0.0000000
 NQMom=    0.0000000   0.0000000   0.0000000
 NMagM=    2.7928460   2.7928460   2.7928460
 AtZNuc=   1.0000000   1.0000000   1.0000000
 Leave Link  101 at Mon Mar 24 20:35:32 2025, MaxMem= 13421772800 cpu:               4.5 elap:               0.1
 (Enter /public/software/apps/Gaussian/g16/l103.exe)

 GradGradGradGradGradGradGradGradGradGradGradGradGradGradGradGradGradGrad
 Berny optimization.
 Initialization pass.
                           ----------------------------
                           !    Initial Parameters    !
                           ! (Angstroms and Degrees)  !
 --------------------------                            --------------------------
 ! Name  Definition              Value          Derivative Info.                !
 --------------------------------------------------------------------------------
 ! R1    R(1,2)                  1.5323         estimate D2E/DX2                !
 ! R2    R(1,44)                 1.0881         estimate D2E/DX2                !
 ! R3    R(1,45)                 1.0875         estimate D2E/DX2                !
 ! R4    R(1,46)                 1.0875         estimate D2E/DX2                !
 ! R5    R(2,3)                  1.5313         estimate D2E/DX2                !
 ! R6    R(2,4)                  1.5124         estimate D2E/DX2                !
 ! R7    R(2,43)                 1.5124         estimate D2E/DX2                !
 ! R8    R(3,47)                 1.0875         estimate D2E/DX2                !
 ! R9    R(3,48)                 1.0875         estimate D2E/DX2                !
 ! R10   R(3,49)                 1.0881         estimate D2E/DX2                !
 ! R11   R(4,5)                  1.378          estimate D2E/DX2                !
 ! R12   R(4,9)                  1.4027         estimate D2E/DX2                !
 ! R13   R(5,6)                  1.3887         estimate D2E/DX2                !
 ! R14   R(5,50)                 1.0805         estimate D2E/DX2                !
 ! R15   R(6,7)                  1.3862         estimate D2E/DX2                !
 ! R16   R(6,51)                 1.0804         estimate D2E/DX2                !
 ! R17   R(7,8)                  1.3854         estimate D2E/DX2                !
 ! R18   R(7,52)                 1.0805         estimate D2E/DX2                !
 ! R19   R(8,9)                  1.385          estimate D2E/DX2                !
 ! R20   R(8,53)                 1.08           estimate D2E/DX2                !
 ! R21   R(9,10)                 1.4531         estimate D2E/DX2                !
 ! R22   R(10,11)                1.3852         estimate D2E/DX2                !
 ! R23   R(10,43)                1.4027         estimate D2E/DX2                !
 ! R24   R(11,12)                1.3832         estimate D2E/DX2                !
 ! R25   R(11,54)                1.08           estimate D2E/DX2                !
 ! R26   R(12,13)                1.3942         estimate D2E/DX2                !
 ! R27   R(12,55)                1.0806         estimate D2E/DX2                !
 ! R28   R(13,14)                1.4702         estimate D2E/DX2                !
 ! R29   R(13,42)                1.3968         estimate D2E/DX2                !
 ! R30   R(14,15)                1.3929         estimate D2E/DX2                !
 ! R31   R(14,41)                1.391          estimate D2E/DX2                !
 ! R32   R(15,16)                1.3827         estimate D2E/DX2                !
 ! R33   R(15,56)                1.0801         estimate D2E/DX2                !
 ! R34   R(16,17)                1.3831         estimate D2E/DX2                !
 ! R35   R(16,57)                1.0804         estimate D2E/DX2                !
 ! R36   R(17,18)                1.3927         estimate D2E/DX2                !
 ! R37   R(17,58)                1.0804         estimate D2E/DX2                !
 ! R38   R(18,19)                1.4737         estimate D2E/DX2                !
 ! R39   R(18,41)                1.389          estimate D2E/DX2                !
 ! R40   R(19,20)                1.3713         estimate D2E/DX2                !
 ! R41   R(19,40)                1.4222         estimate D2E/DX2                !
 ! R42   R(20,21)                1.4047         estimate D2E/DX2                !
 ! R43   R(20,59)                1.0789         estimate D2E/DX2                !
 ! R44   R(21,22)                1.3585         estimate D2E/DX2                !
 ! R45   R(21,23)                1.3819         estimate D2E/DX2                !
 ! R46   R(22,60)                0.9674         estimate D2E/DX2                !
 ! R47   R(23,24)                1.4862         estimate D2E/DX2                !
 ! R48   R(23,35)                1.4194         estimate D2E/DX2                !
 ! R49   R(24,25)                1.3825         estimate D2E/DX2                !
 ! R50   R(24,34)                1.4195         estimate D2E/DX2                !
 ! R51   R(25,26)                1.358          estimate D2E/DX2                !
 ! R52   R(25,27)                1.4085         estimate D2E/DX2                !
 ! R53   R(26,61)                0.9675         estimate D2E/DX2                !
 ! R54   R(27,28)                1.3633         estimate D2E/DX2                !
 ! R55   R(27,62)                1.0784         estimate D2E/DX2                !
 ! R56   R(28,29)                1.4109         estimate D2E/DX2                !
 ! R57   R(28,63)                1.08           estimate D2E/DX2                !
 ! R58   R(29,30)                1.4094         estimate D2E/DX2                !
 ! R59   R(29,34)                1.4199         estimate D2E/DX2                !
 ! R60   R(30,31)                1.3668         estimate D2E/DX2                !
 ! R61   R(30,64)                1.0807         estimate D2E/DX2                !
 ! R62   R(31,32)                1.4027         estimate D2E/DX2                !
 ! R63   R(31,65)                1.0799         estimate D2E/DX2                !
 ! R64   R(32,33)                1.3667         estimate D2E/DX2                !
 ! R65   R(32,66)                1.08           estimate D2E/DX2                !
 ! R66   R(33,34)                1.4122         estimate D2E/DX2                !
 ! R67   R(33,67)                1.0805         estimate D2E/DX2                !
 ! R68   R(35,36)                1.4124         estimate D2E/DX2                !
 ! R69   R(35,40)                1.4211         estimate D2E/DX2                !
 ! R70   R(36,37)                1.3661         estimate D2E/DX2                !
 ! R71   R(36,68)                1.0805         estimate D2E/DX2                !
 ! R72   R(37,38)                1.4014         estimate D2E/DX2                !
 ! R73   R(37,69)                1.0799         estimate D2E/DX2                !
 ! R74   R(38,39)                1.3673         estimate D2E/DX2                !
 ! R75   R(38,70)                1.0799         estimate D2E/DX2                !
 ! R76   R(39,40)                1.4101         estimate D2E/DX2                !
 ! R77   R(39,71)                1.0795         estimate D2E/DX2                !
 ! R78   R(41,72)                1.0806         estimate D2E/DX2                !
 ! R79   R(42,43)                1.3754         estimate D2E/DX2                !
 ! R80   R(42,73)                1.0805         estimate D2E/DX2                !
 ! A1    A(2,1,44)             110.1866         estimate D2E/DX2                !
 ! A2    A(2,1,45)             110.3389         estimate D2E/DX2                !
 ! A3    A(2,1,46)             110.3196         estimate D2E/DX2                !
 ! A4    A(44,1,45)            108.6243         estimate D2E/DX2                !
 ! A5    A(44,1,46)            108.6166         estimate D2E/DX2                !
 ! A6    A(45,1,46)            108.7051         estimate D2E/DX2                !
 ! A7    A(1,2,3)              110.4667         estimate D2E/DX2                !
 ! A8    A(1,2,4)              110.9752         estimate D2E/DX2                !
 ! A9    A(1,2,43)             110.9095         estimate D2E/DX2                !
 ! A10   A(3,2,4)              111.3549         estimate D2E/DX2                !
 ! A11   A(3,2,43)             111.336          estimate D2E/DX2                !
 ! A12   A(4,2,43)             101.5194         estimate D2E/DX2                !
 ! A13   A(2,3,47)             110.3264         estimate D2E/DX2                !
 ! A14   A(2,3,48)             110.3291         estimate D2E/DX2                !
 ! A15   A(2,3,49)             110.2133         estimate D2E/DX2                !
 ! A16   A(47,3,48)            108.6312         estimate D2E/DX2                !
 ! A17   A(47,3,49)            108.6254         estimate D2E/DX2                !
 ! A18   A(48,3,49)            108.6651         estimate D2E/DX2                !
 ! A19   A(2,4,5)              128.8654         estimate D2E/DX2                !
 ! A20   A(2,4,9)              110.7707         estimate D2E/DX2                !
 ! A21   A(5,4,9)              120.3637         estimate D2E/DX2                !
 ! A22   A(4,5,6)              118.8456         estimate D2E/DX2                !
 ! A23   A(4,5,50)             121.0251         estimate D2E/DX2                !
 ! A24   A(6,5,50)             120.1293         estimate D2E/DX2                !
 ! A25   A(5,6,7)              120.7998         estimate D2E/DX2                !
 ! A26   A(5,6,51)             119.6066         estimate D2E/DX2                !
 ! A27   A(7,6,51)             119.5935         estimate D2E/DX2                !
 ! A28   A(6,7,8)              120.7385         estimate D2E/DX2                !
 ! A29   A(6,7,52)             119.5536         estimate D2E/DX2                !
 ! A30   A(8,7,52)             119.7079         estimate D2E/DX2                !
 ! A31   A(7,8,9)              118.6004         estimate D2E/DX2                !
 ! A32   A(7,8,53)             120.6225         estimate D2E/DX2                !
 ! A33   A(9,8,53)             120.777          estimate D2E/DX2                !
 ! A34   A(4,9,8)              120.6519         estimate D2E/DX2                !
 ! A35   A(4,9,10)             108.4558         estimate D2E/DX2                !
 ! A36   A(8,9,10)             130.892          estimate D2E/DX2                !
 ! A37   A(9,10,11)            131.1223         estimate D2E/DX2                !
 ! A38   A(9,10,43)            108.5199         estimate D2E/DX2                !
 ! A39   A(11,10,43)           120.3578         estimate D2E/DX2                !
 ! A40   A(10,11,12)           118.781          estimate D2E/DX2                !
 ! A41   A(10,11,54)           120.7924         estimate D2E/DX2                !
 ! A42   A(12,11,54)           120.4265         estimate D2E/DX2                !
 ! A43   A(11,12,13)           121.2973         estimate D2E/DX2                !
 ! A44   A(11,12,55)           119.638          estimate D2E/DX2                !
 ! A45   A(13,12,55)           119.0491         estimate D2E/DX2                !
 ! A46   A(12,13,14)           120.3198         estimate D2E/DX2                !
 ! A47   A(12,13,42)           119.5906         estimate D2E/DX2                !
 ! A48   A(14,13,42)           120.0896         estimate D2E/DX2                !
 ! A49   A(13,14,15)           120.7713         estimate D2E/DX2                !
 ! A50   A(13,14,41)           120.3761         estimate D2E/DX2                !
 ! A51   A(15,14,41)           118.8526         estimate D2E/DX2                !
 ! A52   A(14,15,16)           120.3499         estimate D2E/DX2                !
 ! A53   A(14,15,56)           119.5799         estimate D2E/DX2                !
 ! A54   A(16,15,56)           120.052          estimate D2E/DX2                !
 ! A55   A(15,16,17)           120.4095         estimate D2E/DX2                !
 ! A56   A(15,16,57)           119.8487         estimate D2E/DX2                !
 ! A57   A(17,16,57)           119.7417         estimate D2E/DX2                !
 ! A58   A(16,17,18)           120.097          estimate D2E/DX2                !
 ! A59   A(16,17,58)           120.2475         estimate D2E/DX2                !
 ! A60   A(18,17,58)           119.6471         estimate D2E/DX2                !
 ! A61   A(17,18,19)           120.9052         estimate D2E/DX2                !
 ! A62   A(17,18,41)           119.147          estimate D2E/DX2                !
 ! A63   A(19,18,41)           119.9284         estimate D2E/DX2                !
 ! A64   A(18,19,20)           118.9372         estimate D2E/DX2                !
 ! A65   A(18,19,40)           121.3836         estimate D2E/DX2                !
 ! A66   A(20,19,40)           119.679          estimate D2E/DX2                !
 ! A67   A(19,20,21)           121.4593         estimate D2E/DX2                !
 ! A68   A(19,20,59)           120.8436         estimate D2E/DX2                !
 ! A69   A(21,20,59)           117.6704         estimate D2E/DX2                !
 ! A70   A(20,21,22)           117.066          estimate D2E/DX2                !
 ! A71   A(20,21,23)           120.368          estimate D2E/DX2                !
 ! A72   A(22,21,23)           122.5508         estimate D2E/DX2                !
 ! A73   A(21,22,60)           109.5437         estimate D2E/DX2                !
 ! A74   A(21,23,24)           119.5401         estimate D2E/DX2                !
 ! A75   A(21,23,35)           119.4638         estimate D2E/DX2                !
 ! A76   A(24,23,35)           120.9892         estimate D2E/DX2                !
 ! A77   A(23,24,25)           119.4448         estimate D2E/DX2                !
 ! A78   A(23,24,34)           120.8328         estimate D2E/DX2                !
 ! A79   A(25,24,34)           119.7085         estimate D2E/DX2                !
 ! A80   A(24,25,26)           122.3897         estimate D2E/DX2                !
 ! A81   A(24,25,27)           120.5234         estimate D2E/DX2                !
 ! A82   A(26,25,27)           117.0829         estimate D2E/DX2                !
 ! A83   A(25,26,61)           109.5396         estimate D2E/DX2                !
 ! A84   A(25,27,28)           120.4064         estimate D2E/DX2                !
 ! A85   A(25,27,62)           117.7006         estimate D2E/DX2                !
 ! A86   A(28,27,62)           121.8927         estimate D2E/DX2                !
 ! A87   A(27,28,29)           120.9589         estimate D2E/DX2                !
 ! A88   A(27,28,63)           120.2742         estimate D2E/DX2                !
 ! A89   A(29,28,63)           118.7663         estimate D2E/DX2                !
 ! A90   A(28,29,30)           121.9418         estimate D2E/DX2                !
 ! A91   A(28,29,34)           118.9984         estimate D2E/DX2                !
 ! A92   A(30,29,34)           119.0593         estimate D2E/DX2                !
 ! A93   A(29,30,31)           120.8825         estimate D2E/DX2                !
 ! A94   A(29,30,64)           118.4715         estimate D2E/DX2                !
 ! A95   A(31,30,64)           120.6456         estimate D2E/DX2                !
 ! A96   A(30,31,32)           120.0915         estimate D2E/DX2                !
 ! A97   A(30,31,65)           120.4179         estimate D2E/DX2                !
 ! A98   A(32,31,65)           119.4893         estimate D2E/DX2                !
 ! A99   A(31,32,33)           120.5194         estimate D2E/DX2                !
 ! A100  A(31,32,66)           119.4412         estimate D2E/DX2                !
 ! A101  A(33,32,66)           120.0391         estimate D2E/DX2                !
 ! A102  A(32,33,34)           120.7686         estimate D2E/DX2                !
 ! A103  A(32,33,67)           120.2663         estimate D2E/DX2                !
 ! A104  A(34,33,67)           118.9621         estimate D2E/DX2                !
 ! A105  A(24,34,29)           119.3963         estimate D2E/DX2                !
 ! A106  A(24,34,33)           121.9284         estimate D2E/DX2                !
 ! A107  A(29,34,33)           118.6695         estimate D2E/DX2                !
 ! A108  A(23,35,36)           121.1562         estimate D2E/DX2                !
 ! A109  A(23,35,40)           119.9668         estimate D2E/DX2                !
 ! A110  A(36,35,40)           118.8641         estimate D2E/DX2                !
 ! A111  A(35,36,37)           120.9646         estimate D2E/DX2                !
 ! A112  A(35,36,68)           118.8036         estimate D2E/DX2                !
 ! A113  A(37,36,68)           120.2241         estimate D2E/DX2                !
 ! A114  A(36,37,38)           120.2003         estimate D2E/DX2                !
 ! A115  A(36,37,69)           120.1533         estimate D2E/DX2                !
 ! A116  A(38,37,69)           119.639          estimate D2E/DX2                !
 ! A117  A(37,38,39)           120.2492         estimate D2E/DX2                !
 ! A118  A(37,38,70)           119.5594         estimate D2E/DX2                !
 ! A119  A(39,38,70)           120.1873         estimate D2E/DX2                !
 ! A120  A(38,39,40)           121.1259         estimate D2E/DX2                !
 ! A121  A(38,39,71)           120.0565         estimate D2E/DX2                !
 ! A122  A(40,39,71)           118.8098         estimate D2E/DX2                !
 ! A123  A(19,40,35)           118.9769         estimate D2E/DX2                !
 ! A124  A(19,40,39)           122.4222         estimate D2E/DX2                !
 ! A125  A(35,40,39)           118.5709         estimate D2E/DX2                !
 ! A126  A(14,41,18)           121.1259         estimate D2E/DX2                !
 ! A127  A(14,41,72)           119.6283         estimate D2E/DX2                !
 ! A128  A(18,41,72)           119.206          estimate D2E/DX2                !
 ! A129  A(13,42,43)           119.3807         estimate D2E/DX2                !
 ! A130  A(13,42,73)           119.6265         estimate D2E/DX2                !
 ! A131  A(43,42,73)           120.9789         estimate D2E/DX2                !
 ! A132  A(2,43,10)            110.7273         estimate D2E/DX2                !
 ! A133  A(2,43,42)            128.6855         estimate D2E/DX2                !
 ! A134  A(10,43,42)           120.587          estimate D2E/DX2                !
 ! D1    D(44,1,2,3)           179.9915         estimate D2E/DX2                !
 ! D2    D(44,1,2,4)            55.9811         estimate D2E/DX2                !
 ! D3    D(44,1,2,43)          -56.0689         estimate D2E/DX2                !
 ! D4    D(45,1,2,3)           -60.0632         estimate D2E/DX2                !
 ! D5    D(45,1,2,4)           175.9264         estimate D2E/DX2                !
 ! D6    D(45,1,2,43)           63.8764         estimate D2E/DX2                !
 ! D7    D(46,1,2,3)            60.0681         estimate D2E/DX2                !
 ! D8    D(46,1,2,4)           -63.9424         estimate D2E/DX2                !
 ! D9    D(46,1,2,43)         -175.9924         estimate D2E/DX2                !
 ! D10   D(1,2,3,47)           -60.1962         estimate D2E/DX2                !
 ! D11   D(1,2,3,48)            59.8411         estimate D2E/DX2                !
 ! D12   D(1,2,3,49)           179.848          estimate D2E/DX2                !
 ! D13   D(4,2,3,47)            63.5955         estimate D2E/DX2                !
 ! D14   D(4,2,3,48)          -176.3672         estimate D2E/DX2                !
 ! D15   D(4,2,3,49)           -56.3603         estimate D2E/DX2                !
 ! D16   D(43,2,3,47)          176.1102         estimate D2E/DX2                !
 ! D17   D(43,2,3,48)          -63.8525         estimate D2E/DX2                !
 ! D18   D(43,2,3,49)           56.1544         estimate D2E/DX2                !
 ! D19   D(1,2,4,5)             62.5863         estimate D2E/DX2                !
 ! D20   D(1,2,4,9)           -117.2739         estimate D2E/DX2                !
 ! D21   D(3,2,4,5)            -60.9163         estimate D2E/DX2                !
 ! D22   D(3,2,4,9)            119.2234         estimate D2E/DX2                !
 ! D23   D(43,2,4,5)          -179.4955         estimate D2E/DX2                !
 ! D24   D(43,2,4,9)             0.6442         estimate D2E/DX2                !
 ! D25   D(1,2,43,10)          117.1208         estimate D2E/DX2                !
 ! D26   D(1,2,43,42)          -62.7045         estimate D2E/DX2                !
 ! D27   D(3,2,43,10)         -119.4376         estimate D2E/DX2                !
 ! D28   D(3,2,43,42)           60.7371         estimate D2E/DX2                !
 ! D29   D(4,2,43,10)           -0.8448         estimate D2E/DX2                !
 ! D30   D(4,2,43,42)          179.3299         estimate D2E/DX2                !
 ! D31   D(2,4,5,6)           -179.9337         estimate D2E/DX2                !
 ! D32   D(2,4,5,50)             0.0996         estimate D2E/DX2                !
 ! D33   D(9,4,5,6)             -0.0851         estimate D2E/DX2                !
 ! D34   D(9,4,5,50)           179.9482         estimate D2E/DX2                !
 ! D35   D(2,4,9,8)            179.9428         estimate D2E/DX2                !
 ! D36   D(2,4,9,10)            -0.2384         estimate D2E/DX2                !
 ! D37   D(5,4,9,8)              0.0689         estimate D2E/DX2                !
 ! D38   D(5,4,9,10)           179.8877         estimate D2E/DX2                !
 ! D39   D(4,5,6,7)              0.0398         estimate D2E/DX2                !
 ! D40   D(4,5,6,51)          -179.9438         estimate D2E/DX2                !
 ! D41   D(50,5,6,7)          -179.9932         estimate D2E/DX2                !
 ! D42   D(50,5,6,51)            0.0232         estimate D2E/DX2                !
 ! D43   D(5,6,7,8)              0.0235         estimate D2E/DX2                !
 ! D44   D(5,6,7,52)          -179.958          estimate D2E/DX2                !
 ! D45   D(51,6,7,8)          -179.9928         estimate D2E/DX2                !
 ! D46   D(51,6,7,52)            0.0257         estimate D2E/DX2                !
 ! D47   D(6,7,8,9)             -0.0404         estimate D2E/DX2                !
 ! D48   D(6,7,8,53)          -179.9772         estimate D2E/DX2                !
 ! D49   D(52,7,8,9)           179.9411         estimate D2E/DX2                !
 ! D50   D(52,7,8,53)            0.0043         estimate D2E/DX2                !
 ! D51   D(7,8,9,4)             -0.0052         estimate D2E/DX2                !
 ! D52   D(7,8,9,10)          -179.7778         estimate D2E/DX2                !
 ! D53   D(53,8,9,4)           179.9315         estimate D2E/DX2                !
 ! D54   D(53,8,9,10)            0.1589         estimate D2E/DX2                !
 ! D55   D(4,9,10,11)          179.6638         estimate D2E/DX2                !
 ! D56   D(4,9,10,43)           -0.3195         estimate D2E/DX2                !
 ! D57   D(8,9,10,11)           -0.5424         estimate D2E/DX2                !
 ! D58   D(8,9,10,43)          179.4743         estimate D2E/DX2                !
 ! D59   D(9,10,11,12)        -179.933          estimate D2E/DX2                !
 ! D60   D(9,10,11,54)           0.1448         estimate D2E/DX2                !
 ! D61   D(43,10,11,12)          0.0487         estimate D2E/DX2                !
 ! D62   D(43,10,11,54)       -179.8735         estimate D2E/DX2                !
 ! D63   D(9,10,43,2)            0.7549         estimate D2E/DX2                !
 ! D64   D(9,10,43,42)        -179.4035         estimate D2E/DX2                !
 ! D65   D(11,10,43,2)        -179.2306         estimate D2E/DX2                !
 ! D66   D(11,10,43,42)          0.611          estimate D2E/DX2                !
 ! D67   D(10,11,12,13)         -0.599          estimate D2E/DX2                !
 ! D68   D(10,11,12,55)       -179.149          estimate D2E/DX2                !
 ! D69   D(54,11,12,13)        179.3234         estimate D2E/DX2                !
 ! D70   D(54,11,12,55)          0.7735         estimate D2E/DX2                !
 ! D71   D(11,12,13,14)       -179.4612         estimate D2E/DX2                !
 ! D72   D(11,12,13,42)          0.497          estimate D2E/DX2                !
 ! D73   D(55,12,13,14)         -0.9029         estimate D2E/DX2                !
 ! D74   D(55,12,13,42)        179.0553         estimate D2E/DX2                !
 ! D75   D(12,13,14,15)        -44.087          estimate D2E/DX2                !
 ! D76   D(12,13,14,41)        135.9899         estimate D2E/DX2                !
 ! D77   D(42,13,14,15)        135.9549         estimate D2E/DX2                !
 ! D78   D(42,13,14,41)        -43.9681         estimate D2E/DX2                !
 ! D79   D(12,13,42,43)          0.167          estimate D2E/DX2                !
 ! D80   D(12,13,42,73)        178.8249         estimate D2E/DX2                !
 ! D81   D(14,13,42,43)       -179.8747         estimate D2E/DX2                !
 ! D82   D(14,13,42,73)         -1.2168         estimate D2E/DX2                !
 ! D83   D(13,14,15,16)       -179.3736         estimate D2E/DX2                !
 ! D84   D(13,14,15,56)         -0.9256         estimate D2E/DX2                !
 ! D85   D(41,14,15,16)          0.5506         estimate D2E/DX2                !
 ! D86   D(41,14,15,56)        178.9986         estimate D2E/DX2                !
 ! D87   D(13,14,41,18)       -179.3884         estimate D2E/DX2                !
 ! D88   D(13,14,41,72)         -1.6993         estimate D2E/DX2                !
 ! D89   D(15,14,41,18)          0.6871         estimate D2E/DX2                !
 ! D90   D(15,14,41,72)        178.3762         estimate D2E/DX2                !
 ! D91   D(14,15,16,17)         -1.0124         estimate D2E/DX2                !
 ! D92   D(14,15,16,57)        178.8584         estimate D2E/DX2                !
 ! D93   D(56,15,16,17)       -179.453          estimate D2E/DX2                !
 ! D94   D(56,15,16,57)          0.4178         estimate D2E/DX2                !
 ! D95   D(15,16,17,18)          0.2365         estimate D2E/DX2                !
 ! D96   D(15,16,17,58)        179.1717         estimate D2E/DX2                !
 ! D97   D(57,16,17,18)       -179.6345         estimate D2E/DX2                !
 ! D98   D(57,16,17,58)         -0.6993         estimate D2E/DX2                !
 ! D99   D(16,17,18,19)        179.3737         estimate D2E/DX2                !
 ! D100  D(16,17,18,41)          0.9798         estimate D2E/DX2                !
 ! D101  D(58,17,18,19)          0.4321         estimate D2E/DX2                !
 ! D102  D(58,17,18,41)       -177.9618         estimate D2E/DX2                !
 ! D103  D(17,18,19,20)       -123.8421         estimate D2E/DX2                !
 ! D104  D(17,18,19,40)         55.9648         estimate D2E/DX2                !
 ! D105  D(41,18,19,20)         54.5394         estimate D2E/DX2                !
 ! D106  D(41,18,19,40)       -125.6538         estimate D2E/DX2                !
 ! D107  D(17,18,41,14)         -1.4485         estimate D2E/DX2                !
 ! D108  D(17,18,41,72)       -179.1472         estimate D2E/DX2                !
 ! D109  D(19,18,41,14)       -179.8585         estimate D2E/DX2                !
 ! D110  D(19,18,41,72)          2.4428         estimate D2E/DX2                !
 ! D111  D(18,19,20,21)        177.4647         estimate D2E/DX2                !
 ! D112  D(18,19,20,59)         -0.6116         estimate D2E/DX2                !
 ! D113  D(40,19,20,21)         -2.3454         estimate D2E/DX2                !
 ! D114  D(40,19,20,59)        179.5782         estimate D2E/DX2                !
 ! D115  D(18,19,40,35)       -176.9509         estimate D2E/DX2                !
 ! D116  D(18,19,40,39)          5.071          estimate D2E/DX2                !
 ! D117  D(20,19,40,35)          2.8546         estimate D2E/DX2                !
 ! D118  D(20,19,40,39)       -175.1236         estimate D2E/DX2                !
 ! D119  D(19,20,21,22)       -178.8951         estimate D2E/DX2                !
 ! D120  D(19,20,21,23)         -0.2771         estimate D2E/DX2                !
 ! D121  D(59,20,21,22)         -0.76           estimate D2E/DX2                !
 ! D122  D(59,20,21,23)        177.8581         estimate D2E/DX2                !
 ! D123  D(20,21,22,60)       -178.5657         estimate D2E/DX2                !
 ! D124  D(23,21,22,60)          2.8488         estimate D2E/DX2                !
 ! D125  D(20,21,23,24)       -176.7371         estimate D2E/DX2                !
 ! D126  D(20,21,23,35)          2.3208         estimate D2E/DX2                !
 ! D127  D(22,21,23,24)          1.8029         estimate D2E/DX2                !
 ! D128  D(22,21,23,35)       -179.1392         estimate D2E/DX2                !
 ! D129  D(21,23,24,25)        105.9195         estimate D2E/DX2                !
 ! D130  D(21,23,24,34)        -72.7178         estimate D2E/DX2                !
 ! D131  D(35,23,24,25)        -73.1237         estimate D2E/DX2                !
 ! D132  D(35,23,24,34)        108.2391         estimate D2E/DX2                !
 ! D133  D(21,23,35,36)        176.944          estimate D2E/DX2                !
 ! D134  D(21,23,35,40)         -1.7393         estimate D2E/DX2                !
 ! D135  D(24,23,35,36)         -4.0121         estimate D2E/DX2                !
 ! D136  D(24,23,35,40)        177.3046         estimate D2E/DX2                !
 ! D137  D(23,24,25,26)          1.4303         estimate D2E/DX2                !
 ! D138  D(23,24,25,27)       -177.8156         estimate D2E/DX2                !
 ! D139  D(34,24,25,26)       -179.917          estimate D2E/DX2                !
 ! D140  D(34,24,25,27)          0.8371         estimate D2E/DX2                !
 ! D141  D(23,24,34,29)        177.6281         estimate D2E/DX2                !
 ! D142  D(23,24,34,33)         -3.2599         estimate D2E/DX2                !
 ! D143  D(25,24,34,29)         -1.0056         estimate D2E/DX2                !
 ! D144  D(25,24,34,33)        178.1064         estimate D2E/DX2                !
 ! D145  D(24,25,26,61)          2.8119         estimate D2E/DX2                !
 ! D146  D(27,25,26,61)       -177.9177         estimate D2E/DX2                !
 ! D147  D(24,25,27,28)         -0.0749         estimate D2E/DX2                !
 ! D148  D(24,25,27,62)        179.7197         estimate D2E/DX2                !
 ! D149  D(26,25,27,28)       -179.3598         estimate D2E/DX2                !
 ! D150  D(26,25,27,62)          0.4349         estimate D2E/DX2                !
 ! D151  D(25,27,28,29)         -0.5184         estimate D2E/DX2                !
 ! D152  D(25,27,28,63)        179.7657         estimate D2E/DX2                !
 ! D153  D(62,27,28,29)        179.6958         estimate D2E/DX2                !
 ! D154  D(62,27,28,63)         -0.0202         estimate D2E/DX2                !
 ! D155  D(27,28,29,30)       -179.4294         estimate D2E/DX2                !
 ! D156  D(27,28,29,34)          0.3333         estimate D2E/DX2                !
 ! D157  D(63,28,29,30)          0.2908         estimate D2E/DX2                !
 ! D158  D(63,28,29,34)       -179.9466         estimate D2E/DX2                !
 ! D159  D(28,29,30,31)        179.3113         estimate D2E/DX2                !
 ! D160  D(28,29,30,64)         -0.4564         estimate D2E/DX2                !
 ! D161  D(34,29,30,31)         -0.4512         estimate D2E/DX2                !
 ! D162  D(34,29,30,64)        179.7811         estimate D2E/DX2                !
 ! D163  D(28,29,34,24)          0.4274         estimate D2E/DX2                !
 ! D164  D(28,29,34,33)       -178.7137         estimate D2E/DX2                !
 ! D165  D(30,29,34,24)       -179.8031         estimate D2E/DX2                !
 ! D166  D(30,29,34,33)          1.0559         estimate D2E/DX2                !
 ! D167  D(29,30,31,32)         -0.3616         estimate D2E/DX2                !
 ! D168  D(29,30,31,65)       -179.937          estimate D2E/DX2                !
 ! D169  D(64,30,31,32)        179.4012         estimate D2E/DX2                !
 ! D170  D(64,30,31,65)         -0.1743         estimate D2E/DX2                !
 ! D171  D(30,31,32,33)          0.5604         estimate D2E/DX2                !
 ! D172  D(30,31,32,66)       -179.2324         estimate D2E/DX2                !
 ! D173  D(65,31,32,33)       -179.8602         estimate D2E/DX2                !
 ! D174  D(65,31,32,66)          0.347          estimate D2E/DX2                !
 ! D175  D(31,32,33,34)          0.0723         estimate D2E/DX2                !
 ! D176  D(31,32,33,67)       -179.3022         estimate D2E/DX2                !
 ! D177  D(66,32,33,34)        179.8639         estimate D2E/DX2                !
 ! D178  D(66,32,33,67)          0.4893         estimate D2E/DX2                !
 ! D179  D(32,33,34,24)       -179.995          estimate D2E/DX2                !
 ! D180  D(32,33,34,29)         -0.8767         estimate D2E/DX2                !
 ! D181  D(67,33,34,24)         -0.6124         estimate D2E/DX2                !
 ! D182  D(67,33,34,29)        178.5059         estimate D2E/DX2                !
 ! D183  D(23,35,36,37)       -178.4923         estimate D2E/DX2                !
 ! D184  D(23,35,36,68)          0.4966         estimate D2E/DX2                !
 ! D185  D(40,35,36,37)          0.2052         estimate D2E/DX2                !
 ! D186  D(40,35,36,68)        179.1942         estimate D2E/DX2                !
 ! D187  D(23,35,40,19)         -0.831          estimate D2E/DX2                !
 ! D188  D(23,35,40,39)        177.2258         estimate D2E/DX2                !
 ! D189  D(36,35,40,19)       -179.5444         estimate D2E/DX2                !
 ! D190  D(36,35,40,39)         -1.4876         estimate D2E/DX2                !
 ! D191  D(35,36,37,38)          0.8836         estimate D2E/DX2                !
 ! D192  D(35,36,37,69)        179.8917         estimate D2E/DX2                !
 ! D193  D(68,36,37,38)       -178.091          estimate D2E/DX2                !
 ! D194  D(68,36,37,69)          0.9171         estimate D2E/DX2                !
 ! D195  D(36,37,38,39)         -0.659          estimate D2E/DX2                !
 ! D196  D(36,37,38,70)        178.6052         estimate D2E/DX2                !
 ! D197  D(69,37,38,39)       -179.6722         estimate D2E/DX2                !
 ! D198  D(69,37,38,70)         -0.408          estimate D2E/DX2                !
 ! D199  D(37,38,39,40)         -0.6768         estimate D2E/DX2                !
 ! D200  D(37,38,39,71)        178.2947         estimate D2E/DX2                !
 ! D201  D(70,38,39,40)       -179.9364         estimate D2E/DX2                !
 ! D202  D(70,38,39,71)         -0.9649         estimate D2E/DX2                !
 ! D203  D(38,39,40,19)        179.7257         estimate D2E/DX2                !
 ! D204  D(38,39,40,35)          1.7396         estimate D2E/DX2                !
 ! D205  D(71,39,40,19)          0.7416         estimate D2E/DX2                !
 ! D206  D(71,39,40,35)       -177.2444         estimate D2E/DX2                !
 ! D207  D(13,42,43,2)         179.0982         estimate D2E/DX2                !
 ! D208  D(13,42,43,10)         -0.712          estimate D2E/DX2                !
 ! D209  D(73,42,43,2)           0.4589         estimate D2E/DX2                !
 ! D210  D(73,42,43,10)       -179.3513         estimate D2E/DX2                !
 --------------------------------------------------------------------------------
 Trust Radius=3.00D-01 FncErr=1.00D-07 GrdErr=1.00D-06 EigMax=2.50D+02 EigMin=1.00D-04
 Number of steps in this run=    434 maximum allowed number of steps=    438.
 GradGradGradGradGradGradGradGradGradGradGradGradGradGradGradGradGradGrad

 Leave Link  103 at Mon Mar 24 20:35:32 2025, MaxMem= 13421772800 cpu:               0.7 elap:               0.0
 (Enter /public/software/apps/Gaussian/g16/l202.exe)
 Symmetry turned off by external request.
 Stoichiometry    C41H30O2
 Framework group  C1[X(C41H30O2)]
 Deg. of freedom   213
 Full point group                 C1      NOp   1
                          Input orientation:                          
 ---------------------------------------------------------------------
 Center     Atomic      Atomic             Coordinates (Angstroms)
 Number     Number       Type             X           Y           Z
 ---------------------------------------------------------------------
      1          6           0       -5.332929   -0.448383   -3.243692
      2          6           0       -5.302684   -1.170354   -1.892514
      3          6           0       -4.340021   -2.360191   -1.942618
      4          6           0       -6.691583   -1.602710   -1.478498
      5          6           0       -7.544421   -2.486291   -2.103594
      6          6           0       -8.787598   -2.732856   -1.535902
      7          6           0       -9.169077   -2.103067   -0.361479
      8          6           0       -8.318513   -1.212348    0.272912
      9          6           0       -7.077785   -0.964587   -0.290583
     10          6           0       -5.992323   -0.100342    0.141249
     11          6           0       -5.877213    0.739395    1.236831
     12          6           0       -4.708217    1.459696    1.403919
     13          6           0       -3.651247    1.344292    0.502131
     14          6           0       -2.413739    2.111203    0.706990
     15          6           0       -2.460080    3.454677    1.071801
     16          6           0       -1.290903    4.171062    1.249611
     17          6           0       -0.062174    3.557087    1.087818
     18          6           0        0.005130    2.210486    0.738907
     19          6           0        1.304623    1.541908    0.548535
     20          6           0        1.561488    0.918616   -0.645642
     21          6           0        2.801345    0.310711   -0.903539
     22          8           0        2.967405   -0.260946   -2.124672
     23          6           0        3.801989    0.332962    0.049300
     24          6           0        5.130671   -0.251669   -0.269651
     25          6           0        6.202139    0.587803   -0.511829
     26          8           0        6.097130    1.939936   -0.442246
     27          6           0        7.460214    0.059441   -0.861050
     28          6           0        7.638283   -1.288263   -0.963424
     29          6           0        6.575592   -2.181895   -0.712851
     30          6           0        6.739594   -3.578949   -0.801075
     31          6           0        5.698632   -4.425388   -0.540107
     32          6           0        4.447670   -3.908916   -0.171335
     33          6           0        4.253493   -2.559132   -0.080398
     34          6           0        5.304955   -1.657779   -0.356509
     35          6           0        3.551119    0.932192    1.311329
     36          6           0        4.525778    0.918483    2.333452
     37          6           0        4.269090    1.469529    3.556884
     38          6           0        3.018922    2.044276    3.822898
     39          6           0        2.052614    2.069462    2.855901
     40          6           0        2.291302    1.535435    1.572806
     41          6           0       -1.173757    1.504144    0.537207
     42          6           0       -3.773839    0.493755   -0.599056
     43          6           0       -4.939006   -0.214834   -0.777972
     44          1           0       -6.018191    0.395826   -3.203066
     45          1           0       -4.341867   -0.079357   -3.497351
     46          1           0       -5.663592   -1.126568   -4.026931
     47          1           0       -4.656020   -3.070000   -2.703538
     48          1           0       -3.333714   -2.022319   -2.179131
     49          1           0       -4.319710   -2.868114   -0.980585
     50          1           0       -7.258216   -2.983151   -3.019455
     51          1           0       -9.465592   -3.424071   -2.015175
     52          1           0      -10.140803   -2.310289    0.063004
     53          1           0       -8.617515   -0.722974    1.188090
     54          1           0       -6.682999    0.831370    1.950019
     55          1           0       -4.598157    2.108390    2.261056
     56          1           0       -3.416519    3.942108    1.190957
     57          1           0       -1.336446    5.217526    1.514558
     58          1           0        0.849669    4.122610    1.214306
     59          1           0        0.823942    0.906189   -1.433023
     60          1           0        3.845404   -0.663834   -2.176702
     61          1           0        5.202475    2.181126   -0.163777
     62          1           0        8.262971    0.755759   -1.044436
     63          1           0        8.602879   -1.690927   -1.235023
     64          1           0        7.709683   -3.967410   -1.076518
     65          1           0        5.832940   -5.494698   -0.608992
     66          1           0        3.635839   -4.587674    0.044613
     67          1           0        3.291317   -2.166005    0.214951
     68          1           0        5.478589    0.447908    2.137958
     69          1           0        5.023290    1.450215    4.329549
     70          1           0        2.819398    2.456694    4.800815
     71          1           0        1.081490    2.488166    3.072727
     72          1           0       -1.122912    0.455803    0.280059
     73          1           0       -2.962498    0.418321   -1.308644
 ---------------------------------------------------------------------
 Rotational constants (GHZ):           0.1430160           0.0329927           0.0287880
 Leave Link  202 at Mon Mar 24 20:35:32 2025, MaxMem= 13421772800 cpu:               0.2 elap:               0.0
 (Enter /public/software/apps/Gaussian/g16/l301.exe)
 Standard basis: def2SVPP (5D, 7F)
 Ernie: Thresh=  0.10000D-02 Tol=  0.10000D-05 Strict=F.
   662 basis functions,  1195 primitive gaussians,   705 cartesian basis functions
   146 alpha electrons      146 beta electrons
       nuclear repulsion energy      4450.3509724970 Hartrees.
 IExCor=  402 DFT=T Ex+Corr=B3LYP ExCW=0 ScaHFX=  0.200000
 ScaDFX=  0.800000  0.720000  1.000000  0.810000 ScalE2=  1.000000  1.000000
 IRadAn=      5 IRanWt=     -1 IRanGd=            0 ICorTp=0 IEmpDi=141
 NAtoms=   73 NActive=   73 NUniq=   73 SFac= 1.00D+00 NAtFMM=   60 NAOKFM=T Big=T
 Integral buffers will be    131072 words long.
 Raffenetti 2 integral format.
 Two-electron integral symmetry is turned off.
 R6Disp:  Grimme-D3(BJ) Dispersion energy=       -0.1958468923 Hartrees.
 Nuclear repulsion after empirical dispersion term =     4450.1551256047 Hartrees.
 Leave Link  301 at Mon Mar 24 20:35:32 2025, MaxMem= 13421772800 cpu:               1.4 elap:               0.1
 (Enter /public/software/apps/Gaussian/g16/l302.exe)
 NPDir=0 NMtPBC=     1 NCelOv=     1 NCel=       1 NClECP=     1 NCelD=      1
         NCelK=      1 NCelE2=     1 NClLst=     1 CellRange=     0.0.
 One-electron integrals computed using PRISM.
   1 Symmetry operations used in ECPInt.
 ECPInt:  NShTT=   50721 NPrTT=  203215 LenC2=   36636 LenP2D=   90295.
 LDataN:  DoStor=T MaxTD1= 4 Len=   56
 NBasis=   662 RedAO= T EigKep=  1.64D-04  NBF=   662
 NBsUse=   662 1.00D-06 EigRej= -1.00D+00 NBFU=   662
 Precomputing XC quadrature grid using
 IXCGrd= 4 IRadAn=           5 IRanWt=          -1 IRanGd=           0 AccXCQ= 0.00D+00.
 Generated NRdTot=       0 NPtTot=           0 NUsed=           0 NTot=          32
 NSgBfM=   678   678   678   678   678 MxSgAt=    73 MxSgA2=    73.
 Leave Link  302 at Mon Mar 24 20:35:33 2025, MaxMem= 13421772800 cpu:              27.4 elap:               0.9
 (Enter /public/software/apps/Gaussian/g16/l303.exe)
 DipDrv:  MaxL=1.
 Leave Link  303 at Mon Mar 24 20:35:33 2025, MaxMem= 13421772800 cpu:               2.4 elap:               0.1
 (Enter /public/software/apps/Gaussian/g16/l401.exe)
 ExpMin= 1.22D-01 ExpMax= 2.27D+03 ExpMxC= 3.41D+02 IAcc=3 IRadAn=         5 AccDes= 0.00D+00
 Harris functional with IExCor=  402 and IRadAn=       5 diagonalized for initial guess.
 HarFok:  IExCor=  402 AccDes= 0.00D+00 IRadAn=         5 IDoV= 1 UseB2=F ITyADJ=14
 ICtDFT=  3500011 ScaDFX=  1.000000  1.000000  1.000000  1.000000
 FoFCou: FMM=F IPFlag=           0 FMFlag=      100000 FMFlg1=        2001
         NFxFlg=           0 DoJE=T BraDBF=F KetDBF=T FulRan=T
         wScrn=  0.000000 ICntrl=       500 IOpCl=  0 I1Cent=   200000004 NGrid=           0
         NMat0=    1 NMatS0=      1 NMatT0=    0 NMatD0=    1 NMtDS0=    0 NMtDT0=    0
 Symmetry not used in FoFCou.
 Harris En= -1729.79655961227    
 JPrj=0 DoOrth=F DoCkMO=F.
 Leave Link  401 at Mon Mar 24 20:35:35 2025, MaxMem= 13421772800 cpu:              55.5 elap:               1.8
 (Enter /public/software/apps/Gaussian/g16/l502.exe)
 Two-electron integral symmetry not used.
 Closed shell SCF:
 Using DIIS extrapolation, IDIIS=  1040.
 NGot= 13421772800 LenX= 13420748557 LenY= 13420250827
 Requested convergence on RMS density matrix=1.00D-08 within 128 cycles.
 Requested convergence on MAX density matrix=1.00D-06.
 Requested convergence on             energy=1.00D-06.
 No special actions if energy rises.
 Fock matrices will be formed incrementally for  20 cycles.
 Integral accuracy reduced to 1.0D-05 until final iterations.

 Cycle   1  Pass 0  IDiag  1:
 FoFJK:  IHMeth= 1 ICntrl=       0 DoSepK=F KAlg= 0 I1Cent=           0 FoldK=F
 IRaf= 810000000 NMat=       1 IRICut=       1 DoRegI=T DoRafI=F ISym2E= 0 IDoP0=0 IntGTp=1.
 FoFCou: FMM=T IPFlag=           0 FMFlag=      100000 FMFlg1=        2001
         NFxFlg=           0 DoJE=F BraDBF=F KetDBF=F FulRan=T
         wScrn=  0.000000 ICntrl=         0 IOpCl=  0 I1Cent=           0 NGrid=           0
         NMat0=    1 NMatS0=      1 NMatT0=    0 NMatD0=    1 NMtDS0=    0 NMtDT0=    0
 Symmetry not used in FoFCou.
 FMM levels:  10  Number of levels for PrismC:   9
 E= -1728.95670849557    
 DIIS: error= 3.55D-02 at cycle   1 NSaved=   1.
 NSaved= 1 IEnMin= 1 EnMin= -1728.95670849557     IErMin= 1 ErrMin= 3.55D-02
 ErrMax= 3.55D-02  0.00D+00 EMaxC= 1.00D-01 BMatC= 7.29D-01 BMatP= 7.29D-01
 IDIUse=3 WtCom= 6.45D-01 WtEn= 3.55D-01
 Coeff-Com:  0.100D+01
 Coeff-En:   0.100D+01
 Coeff:      0.100D+01
 Gap=     0.175 Goal=   None    Shift=    0.000
 GapD=    0.175 DampG=1.000 DampE=0.500 DampFc=0.5000 IDamp=-1.
 Damping current iteration by 5.00D-01
 RMSDP=4.92D-03 MaxDP=1.72D-01              OVMax= 1.60D-01

 Cycle   2  Pass 0  IDiag  1:
 RMSU=  2.15D-03    CP:  9.31D-01
 E= -1729.36748396833     Delta-E=       -0.410775472761 Rises=F Damp=T
 DIIS: error= 3.11D-03 at cycle   2 NSaved=   2.
 NSaved= 2 IEnMin= 2 EnMin= -1729.36748396833     IErMin= 2 ErrMin= 3.11D-03
 ErrMax= 3.11D-03  0.00D+00 EMaxC= 1.00D-01 BMatC= 3.41D-02 BMatP= 7.29D-01
 IDIUse=3 WtCom= 9.69D-01 WtEn= 3.11D-02
 Coeff-Com:  0.260D-03 0.100D+01
 Coeff-En:   0.000D+00 0.100D+01
 Coeff:      0.252D-03 0.100D+01
 Gap=     0.178 Goal=   None    Shift=    0.000
 RMSDP=1.76D-03 MaxDP=1.24D-01 DE=-4.11D-01 OVMax= 1.39D-01

 Cycle   3  Pass 0  IDiag  1:
 RMSU=  1.52D-03    CP:  8.83D-01  1.15D+00
 E= -1729.77080120398     Delta-E=       -0.403317235652 Rises=F Damp=F
 DIIS: error= 4.94D-03 at cycle   3 NSaved=   3.
 NSaved= 3 IEnMin= 3 EnMin= -1729.77080120398     IErMin= 2 ErrMin= 3.11D-03
 ErrMax= 4.94D-03  0.00D+00 EMaxC= 1.00D-01 BMatC= 3.57D-02 BMatP= 3.41D-02
 IDIUse=3 WtCom= 9.51D-01 WtEn= 4.94D-02
 Coeff-Com: -0.401D-01 0.527D+00 0.513D+00
 Coeff-En:   0.000D+00 0.000D+00 0.100D+01
 Coeff:     -0.382D-01 0.501D+00 0.537D+00
 Gap=     0.170 Goal=   None    Shift=    0.000
 RMSDP=6.94D-04 MaxDP=4.97D-02 DE=-4.03D-01 OVMax= 8.16D-02

 Cycle   4  Pass 0  IDiag  1:
 RMSU=  5.64D-04    CP:  8.83D-01  1.23D+00  7.57D-01
 E= -1729.79685960171     Delta-E=       -0.026058397728 Rises=F Damp=F
 DIIS: error= 3.22D-03 at cycle   4 NSaved=   4.
 NSaved= 4 IEnMin= 4 EnMin= -1729.79685960171     IErMin= 2 ErrMin= 3.11D-03
 ErrMax= 3.22D-03  0.00D+00 EMaxC= 1.00D-01 BMatC= 1.17D-02 BMatP= 3.41D-02
 IDIUse=3 WtCom= 9.68D-01 WtEn= 3.22D-02
 Coeff-Com: -0.239D-01 0.160D+00 0.371D+00 0.494D+00
 Coeff-En:   0.000D+00 0.000D+00 0.295D+00 0.705D+00
 Coeff:     -0.232D-01 0.154D+00 0.368D+00 0.500D+00
 Gap=     0.156 Goal=   None    Shift=    0.000
 RMSDP=3.25D-04 MaxDP=2.57D-02 DE=-2.61D-02 OVMax= 4.28D-02

 Cycle   5  Pass 0  IDiag  1:
 RMSU=  1.83D-04    CP:  8.81D-01  1.21D+00  8.17D-01  5.59D-01
 E= -1729.80967066674     Delta-E=       -0.012811065034 Rises=F Damp=F
 DIIS: error= 1.17D-03 at cycle   5 NSaved=   5.
 NSaved= 5 IEnMin= 5 EnMin= -1729.80967066674     IErMin= 5 ErrMin= 1.17D-03
 ErrMax= 1.17D-03  0.00D+00 EMaxC= 1.00D-01 BMatC= 9.84D-04 BMatP= 1.17D-02
 IDIUse=3 WtCom= 9.88D-01 WtEn= 1.17D-02
 Coeff-Com: -0.111D-01 0.509D-01 0.181D+00 0.310D+00 0.470D+00
 Coeff-En:   0.000D+00 0.000D+00 0.000D+00 0.134D-01 0.987D+00
 Coeff:     -0.110D-01 0.503D-01 0.179D+00 0.306D+00 0.476D+00
 Gap=     0.155 Goal=   None    Shift=    0.000
 RMSDP=9.47D-05 MaxDP=3.98D-03 DE=-1.28D-02 OVMax= 1.43D-02

 Cycle   6  Pass 0  IDiag  1:
 RMSU=  7.26D-05    CP:  8.81D-01  1.22D+00  8.20D-01  5.94D-01  6.90D-01
 E= -1729.81063695002     Delta-E=       -0.000966283275 Rises=F Damp=F
 DIIS: error= 4.16D-04 at cycle   6 NSaved=   6.
 NSaved= 6 IEnMin= 6 EnMin= -1729.81063695002     IErMin= 6 ErrMin= 4.16D-04
 ErrMax= 4.16D-04  0.00D+00 EMaxC= 1.00D-01 BMatC= 1.42D-04 BMatP= 9.84D-04
 IDIUse=3 WtCom= 9.96D-01 WtEn= 4.16D-03
 Coeff-Com: -0.318D-02 0.654D-02 0.518D-01 0.111D+00 0.307D+00 0.527D+00
 Coeff-En:   0.000D+00 0.000D+00 0.000D+00 0.000D+00 0.132D+00 0.868D+00
 Coeff:     -0.317D-02 0.652D-02 0.516D-01 0.110D+00 0.307D+00 0.528D+00
 Gap=     0.155 Goal=   None    Shift=    0.000
 RMSDP=3.62D-05 MaxDP=1.29D-03 DE=-9.66D-04 OVMax= 4.75D-03

 Cycle   7  Pass 0  IDiag  1:
 RMSU=  2.79D-05    CP:  8.81D-01  1.22D+00  8.21D-01  5.96D-01  7.45D-01
                    CP:  7.18D-01
 E= -1729.81082254831     Delta-E=       -0.000185598290 Rises=F Damp=F
 DIIS: error= 7.68D-05 at cycle   7 NSaved=   7.
 NSaved= 7 IEnMin= 7 EnMin= -1729.81082254831     IErMin= 7 ErrMin= 7.68D-05
 ErrMax= 7.68D-05  0.00D+00 EMaxC= 1.00D-01 BMatC= 1.34D-05 BMatP= 1.42D-04
 IDIUse=1 WtCom= 1.00D+00 WtEn= 0.00D+00
 Coeff-Com: -0.121D-02 0.673D-03 0.188D-01 0.451D-01 0.153D+00 0.325D+00
 Coeff-Com:  0.458D+00
 Coeff:     -0.121D-02 0.673D-03 0.188D-01 0.451D-01 0.153D+00 0.325D+00
 Coeff:      0.458D+00
 Gap=     0.155 Goal=   None    Shift=    0.000
 RMSDP=1.48D-05 MaxDP=7.30D-04 DE=-1.86D-04 OVMax= 1.15D-03

 Cycle   8  Pass 0  IDiag  1:
 RMSU=  1.38D-05    CP:  8.81D-01  1.22D+00  8.22D-01  5.97D-01  7.22D-01
                    CP:  7.53D-01  1.04D+00
 E= -1729.81084648140     Delta-E=       -0.000023933094 Rises=F Damp=F
 DIIS: error= 2.25D-05 at cycle   8 NSaved=   8.
 NSaved= 8 IEnMin= 8 EnMin= -1729.81084648140     IErMin= 8 ErrMin= 2.25D-05
 ErrMax= 2.25D-05  0.00D+00 EMaxC= 1.00D-01 BMatC= 7.51D-07 BMatP= 1.34D-05
 IDIUse=1 WtCom= 1.00D+00 WtEn= 0.00D+00
 Coeff-Com: -0.347D-03-0.260D-03 0.542D-02 0.140D-01 0.550D-01 0.128D+00
 Coeff-Com:  0.243D+00 0.555D+00
 Coeff:     -0.347D-03-0.260D-03 0.542D-02 0.140D-01 0.550D-01 0.128D+00
 Coeff:      0.243D+00 0.555D+00
 Gap=     0.155 Goal=   None    Shift=    0.000
 RMSDP=1.07D-05 MaxDP=4.02D-04 DE=-2.39D-05 OVMax= 2.66D-04

 Cycle   9  Pass 0  IDiag  1:
 RMSU=  9.37D-06    CP:  8.81D-01  1.22D+00  8.23D-01  5.99D-01  7.21D-01
                    CP:  7.53D-01  1.17D+00  1.25D+00
 E= -1729.81085101668     Delta-E=       -0.000004535276 Rises=F Damp=F
 DIIS: error= 2.02D-05 at cycle   9 NSaved=   9.
 NSaved= 9 IEnMin= 9 EnMin= -1729.81085101668     IErMin= 9 ErrMin= 2.02D-05
 ErrMax= 2.02D-05  0.00D+00 EMaxC= 1.00D-01 BMatC= 2.67D-07 BMatP= 7.51D-07
 IDIUse=1 WtCom= 1.00D+00 WtEn= 0.00D+00
 Coeff-Com: -0.104D-03-0.281D-03 0.168D-02 0.467D-02 0.212D-01 0.524D-01
 Coeff-Com:  0.116D+00 0.377D+00 0.428D+00
 Coeff:     -0.104D-03-0.281D-03 0.168D-02 0.467D-02 0.212D-01 0.524D-01
 Coeff:      0.116D+00 0.377D+00 0.428D+00
 Gap=     0.155 Goal=   None    Shift=    0.000
 RMSDP=1.11D-05 MaxDP=3.92D-04 DE=-4.54D-06 OVMax= 9.25D-05

 Cycle  10  Pass 0  IDiag  1:
 RMSU=  8.96D-06    CP:  8.81D-01  1.22D+00  8.23D-01  5.99D-01  7.21D-01
                    CP:  7.67D-01  1.25D+00  1.61D+00  1.38D+00
 E= -1729.81085248129     Delta-E=       -0.000001464613 Rises=F Damp=F
 DIIS: error= 3.07D-05 at cycle  10 NSaved=  10.
 NSaved=10 IEnMin=10 EnMin= -1729.81085248129     IErMin= 9 ErrMin= 2.02D-05
 ErrMax= 3.07D-05  0.00D+00 EMaxC= 1.00D-01 BMatC= 2.15D-07 BMatP= 2.67D-07
 IDIUse=1 WtCom= 1.00D+00 WtEn= 0.00D+00
 Coeff-Com: -0.105D-03-0.302D-03 0.171D-02 0.477D-02 0.219D-01 0.543D-01
 Coeff-Com:  0.121D+00 0.401D+00 0.471D+00-0.759D-01
 Coeff:     -0.105D-03-0.302D-03 0.171D-02 0.477D-02 0.219D-01 0.543D-01
 Coeff:      0.121D+00 0.401D+00 0.471D+00-0.759D-01
 Gap=     0.155 Goal=   None    Shift=    0.000
 RMSDP=2.13D-06 MaxDP=8.64D-05 DE=-1.46D-06 OVMax= 4.85D-06

 Initial convergence to 1.0D-05 achieved.  Increase integral accuracy.
 Cycle  11  Pass 1  IDiag  1:
 E= -1729.81052155260     Delta-E=        0.000330928691 Rises=F Damp=F
 DIIS: error= 3.64D-04 at cycle   1 NSaved=   1.
 NSaved= 1 IEnMin= 1 EnMin= -1729.81052155260     IErMin= 1 ErrMin= 3.64D-04
 ErrMax= 3.64D-04  0.00D+00 EMaxC= 1.00D-01 BMatC= 7.28D-05 BMatP= 7.28D-05
 IDIUse=3 WtCom= 9.96D-01 WtEn= 3.64D-03
 Coeff-Com:  0.100D+01
 Coeff-En:   0.100D+01
 Coeff:      0.100D+01
 Gap=     0.155 Goal=   None    Shift=    0.000
 RMSDP=2.13D-06 MaxDP=8.64D-05 DE= 3.31D-04 OVMax= 8.78D-04

 Cycle  12  Pass 1  IDiag  1:
 RMSU=  5.04D-04    CP:  9.97D-01
 E= -1729.81059696043     Delta-E=       -0.000075407834 Rises=F Damp=F
 DIIS: error= 7.44D-06 at cycle   2 NSaved=   2.
 NSaved= 2 IEnMin= 2 EnMin= -1729.81059696043     IErMin= 2 ErrMin= 7.44D-06
 ErrMax= 7.44D-06  0.00D+00 EMaxC= 1.00D-01 BMatC= 3.62D-08 BMatP= 7.28D-05
 IDIUse=1 WtCom= 1.00D+00 WtEn= 0.00D+00
 Coeff-Com: -0.901D-02 0.101D+01
 Coeff:     -0.901D-02 0.101D+01
 Gap=     0.155 Goal=   None    Shift=    0.000
 RMSDP=6.56D-06 MaxDP=2.04D-04 DE=-7.54D-05 OVMax= 1.06D-04

 Cycle  13  Pass 1  IDiag  1:
 RMSU=  2.22D-06    CP:  9.97D-01  1.01D+00
 E= -1729.81059690245     Delta-E=        0.000000057988 Rises=F Damp=F
 DIIS: error= 1.32D-05 at cycle   3 NSaved=   3.
 NSaved= 3 IEnMin= 2 EnMin= -1729.81059696043     IErMin= 2 ErrMin= 7.44D-06
 ErrMax= 1.32D-05  0.00D+00 EMaxC= 1.00D-01 BMatC= 9.56D-08 BMatP= 3.62D-08
 IDIUse=1 WtCom= 1.00D+00 WtEn= 0.00D+00
 Coeff-Com: -0.620D-02 0.652D+00 0.354D+00
 Coeff:     -0.620D-02 0.652D+00 0.354D+00
 Gap=     0.155 Goal=   None    Shift=    0.000
 RMSDP=7.46D-07 MaxDP=3.63D-05 DE= 5.80D-08 OVMax= 8.17D-05

 Cycle  14  Pass 1  IDiag  1:
 RMSU=  6.77D-07    CP:  9.97D-01  1.01D+00  8.62D-01
 E= -1729.81059700341     Delta-E=       -0.000000100962 Rises=F Damp=F
 DIIS: error= 1.21D-06 at cycle   4 NSaved=   4.
 NSaved= 4 IEnMin= 4 EnMin= -1729.81059700341     IErMin= 4 ErrMin= 1.21D-06
 ErrMax= 1.21D-06  0.00D+00 EMaxC= 1.00D-01 BMatC= 2.07D-09 BMatP= 3.62D-08
 IDIUse=1 WtCom= 1.00D+00 WtEn= 0.00D+00
 Coeff-Com: -0.258D-02 0.268D+00 0.183D+00 0.552D+00
 Coeff:     -0.258D-02 0.268D+00 0.183D+00 0.552D+00
 Gap=     0.155 Goal=   None    Shift=    0.000
 RMSDP=1.62D-07 MaxDP=7.66D-06 DE=-1.01D-07 OVMax= 1.67D-05

 Cycle  15  Pass 1  IDiag  1:
 RMSU=  1.43D-07    CP:  9.97D-01  1.01D+00  8.80D-01  9.08D-01
 E= -1729.81059700513     Delta-E=       -0.000000001723 Rises=F Damp=F
 DIIS: error= 8.89D-07 at cycle   5 NSaved=   5.
 NSaved= 5 IEnMin= 5 EnMin= -1729.81059700513     IErMin= 5 ErrMin= 8.89D-07
 ErrMax= 8.89D-07  0.00D+00 EMaxC= 1.00D-01 BMatC= 6.00D-10 BMatP= 2.07D-09
 IDIUse=1 WtCom= 1.00D+00 WtEn= 0.00D+00
 Coeff-Com: -0.361D-03 0.355D-01 0.447D-01 0.368D+00 0.552D+00
 Coeff:     -0.361D-03 0.355D-01 0.447D-01 0.368D+00 0.552D+00
 Gap=     0.155 Goal=   None    Shift=    0.000
 RMSDP=7.04D-08 MaxDP=6.04D-06 DE=-1.72D-09 OVMax= 8.47D-06

 Cycle  16  Pass 1  IDiag  1:
 RMSU=  5.14D-08    CP:  9.97D-01  1.01D+00  8.84D-01  9.32D-01  7.02D-01
 E= -1729.81059700563     Delta-E=       -0.000000000497 Rises=F Damp=F
 DIIS: error= 3.38D-07 at cycle   6 NSaved=   6.
 NSaved= 6 IEnMin= 6 EnMin= -1729.81059700563     IErMin= 6 ErrMin= 3.38D-07
 ErrMax= 3.38D-07  0.00D+00 EMaxC= 1.00D-01 BMatC= 8.14D-11 BMatP= 6.00D-10
 IDIUse=1 WtCom= 1.00D+00 WtEn= 0.00D+00
 Coeff-Com:  0.645D-06-0.138D-02 0.121D-01 0.187D+00 0.359D+00 0.444D+00
 Coeff:      0.645D-06-0.138D-02 0.121D-01 0.187D+00 0.359D+00 0.444D+00
 Gap=     0.155 Goal=   None    Shift=    0.000
 RMSDP=2.58D-08 MaxDP=1.43D-06 DE=-4.97D-10 OVMax= 3.03D-06

 Cycle  17  Pass 1  IDiag  1:
 RMSU=  1.13D-08    CP:  9.97D-01  1.01D+00  8.86D-01  9.35D-01  7.18D-01
                    CP:  5.60D-01
 E= -1729.81059700573     Delta-E=       -0.000000000100 Rises=F Damp=F
 DIIS: error= 7.55D-08 at cycle   7 NSaved=   7.
 NSaved= 7 IEnMin= 7 EnMin= -1729.81059700573     IErMin= 7 ErrMin= 7.55D-08
 ErrMax= 7.55D-08  0.00D+00 EMaxC= 1.00D-01 BMatC= 4.34D-12 BMatP= 8.14D-11
 IDIUse=1 WtCom= 1.00D+00 WtEn= 0.00D+00
 Coeff-Com:  0.218D-04-0.295D-02 0.470D-02 0.915D-01 0.186D+00 0.267D+00
 Coeff-Com:  0.454D+00
 Coeff:      0.218D-04-0.295D-02 0.470D-02 0.915D-01 0.186D+00 0.267D+00
 Coeff:      0.454D+00
 Gap=     0.155 Goal=   None    Shift=    0.000
 RMSDP=5.55D-09 MaxDP=2.83D-07 DE=-1.00D-10 OVMax= 8.35D-07

 SCF Done:  E(RB3LYP) =  -1729.81059701     A.U. after   17 cycles
            NFock= 17  Conv=0.56D-08     -V/T= 2.0096
 KE= 1.713433716187D+03 PE=-1.290948221759D+04 EE= 5.016082778796D+03
 Leave Link  502 at Mon Mar 24 20:36:26 2025, MaxMem= 13421772800 cpu:            1592.4 elap:              50.5
 (Enter /public/software/apps/Gaussian/g16/l601.exe)
 Copying SCF densities to generalized density rwf, IOpCl= 0 IROHF=0.

 **********************************************************************

            Population analysis using the SCF Density.

 **********************************************************************

 Alpha  occ. eigenvalues --  -19.16373 -19.16364 -10.25581 -10.25538 -10.20446
 Alpha  occ. eigenvalues --  -10.20291 -10.20228 -10.20223 -10.19892 -10.19701
 Alpha  occ. eigenvalues --  -10.19698 -10.19663 -10.19617 -10.19568 -10.19531
 Alpha  occ. eigenvalues --  -10.19473 -10.19007 -10.18927 -10.18905 -10.18808
 Alpha  occ. eigenvalues --  -10.18805 -10.18803 -10.18784 -10.18737 -10.18708
 Alpha  occ. eigenvalues --  -10.18684 -10.18671 -10.18663 -10.18629 -10.18557
 Alpha  occ. eigenvalues --  -10.18557 -10.18531 -10.18508 -10.18497 -10.18490
 Alpha  occ. eigenvalues --  -10.18483 -10.18432 -10.18423 -10.18387 -10.18386
 Alpha  occ. eigenvalues --  -10.18343 -10.17376 -10.17357  -1.05841  -1.05557
 Alpha  occ. eigenvalues --   -0.89346  -0.88787  -0.87867  -0.86666  -0.84576
 Alpha  occ. eigenvalues --   -0.82661  -0.82343  -0.81655  -0.80418  -0.78445
 Alpha  occ. eigenvalues --   -0.76942  -0.75276  -0.74760  -0.74319  -0.74187
 Alpha  occ. eigenvalues --   -0.74069  -0.73117  -0.72678  -0.70653  -0.70207
 Alpha  occ. eigenvalues --   -0.68742  -0.65842  -0.64906  -0.63849  -0.63291
 Alpha  occ. eigenvalues --   -0.62037  -0.61886  -0.61637  -0.60397  -0.59733
 Alpha  occ. eigenvalues --   -0.58612  -0.57843  -0.57577  -0.56229  -0.55733
 Alpha  occ. eigenvalues --   -0.54738  -0.53200  -0.52943  -0.51858  -0.51620
 Alpha  occ. eigenvalues --   -0.51335  -0.49329  -0.48978  -0.48706  -0.47173
 Alpha  occ. eigenvalues --   -0.46470  -0.46310  -0.46287  -0.45946  -0.45723
 Alpha  occ. eigenvalues --   -0.45307  -0.45011  -0.44364  -0.44075  -0.43969
 Alpha  occ. eigenvalues --   -0.43881  -0.43579  -0.43260  -0.42742  -0.42711
 Alpha  occ. eigenvalues --   -0.42621  -0.42316  -0.41486  -0.41474  -0.40524
 Alpha  occ. eigenvalues --   -0.40009  -0.39390  -0.39241  -0.38999  -0.38835
 Alpha  occ. eigenvalues --   -0.38572  -0.38356  -0.38028  -0.37841  -0.37549
 Alpha  occ. eigenvalues --   -0.37221  -0.36120  -0.35736  -0.35376  -0.35209
 Alpha  occ. eigenvalues --   -0.35057  -0.34973  -0.34762  -0.34422  -0.32921
 Alpha  occ. eigenvalues --   -0.32549  -0.32522  -0.31993  -0.31705  -0.29964
 Alpha  occ. eigenvalues --   -0.29603  -0.28636  -0.26121  -0.26041  -0.25679
 Alpha  occ. eigenvalues --   -0.25251  -0.24464  -0.24288  -0.22275  -0.21554
 Alpha  occ. eigenvalues --   -0.20975
 Alpha virt. eigenvalues --   -0.05507  -0.04727  -0.04505  -0.01843  -0.01771
 Alpha virt. eigenvalues --   -0.01251  -0.01112  -0.00583   0.00175   0.01648
 Alpha virt. eigenvalues --    0.02892   0.04518   0.05253   0.06468   0.06644
 Alpha virt. eigenvalues --    0.06918   0.07395   0.07450   0.07901   0.08274
 Alpha virt. eigenvalues --    0.08698   0.08773   0.09458   0.09705   0.10194
 Alpha virt. eigenvalues --    0.10575   0.10938   0.11151   0.11474   0.11796
 Alpha virt. eigenvalues --    0.12342   0.12631   0.12852   0.13471   0.13608
 Alpha virt. eigenvalues --    0.14241   0.14772   0.15056   0.15420   0.15687
 Alpha virt. eigenvalues --    0.15781   0.16319   0.16552   0.17169   0.17413
 Alpha virt. eigenvalues --    0.18513   0.18798   0.18931   0.19095   0.19799
 Alpha virt. eigenvalues --    0.21125   0.21887   0.22739   0.23105   0.24971
 Alpha virt. eigenvalues --    0.25224   0.25782   0.26146   0.26299   0.26485
 Alpha virt. eigenvalues --    0.26560   0.27018   0.27533   0.27984   0.28120
 Alpha virt. eigenvalues --    0.28384   0.28723   0.29110   0.29224   0.29836
 Alpha virt. eigenvalues --    0.30040   0.30410   0.30879   0.31376   0.31478
 Alpha virt. eigenvalues --    0.31602   0.31711   0.32422   0.32553   0.33306
 Alpha virt. eigenvalues --    0.33822   0.34377   0.34533   0.35186   0.35494
 Alpha virt. eigenvalues --    0.36044   0.36432   0.36917   0.37102   0.38022
 Alpha virt. eigenvalues --    0.38175   0.38285   0.38542   0.38943   0.39754
 Alpha virt. eigenvalues --    0.40140   0.40336   0.40635   0.40846   0.41423
 Alpha virt. eigenvalues --    0.42089   0.42968   0.43118   0.43297   0.43414
 Alpha virt. eigenvalues --    0.43717   0.44445   0.44823   0.45314   0.45550
 Alpha virt. eigenvalues --    0.45991   0.46295   0.46342   0.46717   0.46907
 Alpha virt. eigenvalues --    0.47461   0.47808   0.48084   0.48541   0.48653
 Alpha virt. eigenvalues --    0.48788   0.48943   0.49054   0.49160   0.49467
 Alpha virt. eigenvalues --    0.49582   0.50056   0.50182   0.50522   0.50544
 Alpha virt. eigenvalues --    0.51045   0.51386   0.51605   0.52520   0.52630
 Alpha virt. eigenvalues --    0.52803   0.53199   0.53889   0.54504   0.54929
 Alpha virt. eigenvalues --    0.55339   0.55754   0.56058   0.56576   0.57411
 Alpha virt. eigenvalues --    0.57896   0.58239   0.58443   0.58627   0.58942
 Alpha virt. eigenvalues --    0.59113   0.59351   0.59554   0.60282   0.60560
 Alpha virt. eigenvalues --    0.61178   0.61651   0.61963   0.62457   0.62779
 Alpha virt. eigenvalues --    0.63204   0.63404   0.64225   0.64844   0.65089
[...]
 2149,-0.00031923,0.00008062,-0.00086678,-0.00351077,-0.00184853,-0.002
 12578,-0.02120340,0.00946482,0.00867416,0.05370495,-0.03116349,-0.0701
 3698,0.02556963,-0.01158626,-0.00118879,-0.00039111,-0.00003425,0.0002
 1548,0.00005457,0.00000121,-0.00000097,0.00002692,-0.00000471,-0.00003
 729,-0.00000247,-0.00000041,-0.00000493,0.00000039,-0.00000569,-0.0000
 0536,0.00000364,0.00000536,0.00001008,0.00000081,0.00001081,0.00000509
 ,-0.00000080,-0.00000623,-0.00000442,0.00000148,-0.00000384,-0.0000025
 9,-0.00000223,0.00000248,0.00000473,0.00000409,0.00000333,0.00000203,0
 .00000719,0.00000205,-0.00000017,-0.00000315,-0.00000428,-0.00000107,0
 .00001743,0.00000169,-0.00000170,-0.00001914,-0.00000288,0.00001261,0.
 00005179,-0.00000119,0.00002206,0.00001863,-0.00005326,0.00000806,-0.0
 0009566,0.00061018,-0.00059908,-0.00004467,-0.00005618,0.00001832,-0.0
 0001968,0.00002080,0.00003972,-0.00003821,-0.00004620,0.00004908,0.000
 00801,0.00000052,-0.00000105,0.00000282,-0.00000385,-0.00000338,0.0000
 0474,-0.00000471,-0.00000038,0.00000127,-0.00000526,0.,-0.00000240,-0.
 00000538,0.00000189,0.00000541,0.00001277,0.00000232,0.00016211,0.0002
 5405,-0.00001809,-0.00092680,0.00044917,0.00022500,0.00103666,0.001359
 66,0.00060078,-0.05391095,0.03418718,0.07110251,0.00000103,0.00003263,
 -0.00001127,-0.00006483,0.00000503,-0.00004632,0.00000656,0.00002518,0
 .00005096,0.00000104,0.00003389,0.00004240,0.00000869,-0.00001275,-0.0
 0001857,0.00002299,0.00001245,0.00000123,0.00000189,0.00000579,0.00000
 945,0.00000731,0.00002423,0.00002119,-0.00001569,-0.00004394,-0.000057
 83,0.00012551,-0.00012803,-0.00019076,0.00020976,0.00015518,0.00002440
 ,-0.00019509,-0.00007650,0.00019109,0.00120215,0.00080253,0.00021504,0
 .00272133,0.02626988,0.00702783,-0.00485100,0.00147138,0.00012769,-0.0
 0092880,-0.00006331,-0.00002679,-0.00429857,-0.00187888,-0.00079189,0.
 00380498,-0.02516654,-0.00651970,0.00100151,-0.00150125,-0.00046410,-0
 .00002513,0.00015347,0.00012612,-0.00032792,0.00033222,0.00017021,0.00
 008412,-0.00008833,-0.00013012,0.00012396,0.00002249,0.00013355,-0.000
 03058,-0.00000467,0.00003568,0.00000268,-0.00003828,-0.00000487,0.0000
 3803,0.00003242,-0.00000950,-0.00001026,0.00000749,0.00000312,0.000004
 55,-0.00001738,-0.00000257,0.00001659,0.00000070,-0.00000570,-0.000000
 95,-0.00000714,-0.00000155,0.00000866,-0.00000033,-0.00000354,0.000005
 61,0.00001498,-0.00000090,-0.00003105,-0.00000803,0.00001311,0.0000384
 8,0.00002919,-0.00000754,0.00005666,-0.00011032,-0.00008322,-0.0000143
 2,0.00004226,0.00004690,0.00003848,-0.00002078,-0.00000126,-0.00003540
 ,0.00002823,0.00001489,0.00007964,-0.00002847,0.00001791,-0.00004860,0
 .00007204,-0.00017583,-0.05744445,0.01518032,0.00344625,-0.00075283,0.
 00010376,0.00000363,-0.00022004,-0.00043807,-0.00009960,0.00000319,-0.
 00000458,-0.00000376,0.00000528,-0.00000399,-0.00001803,0.00000778,0.0
 0001015,0.00002625,0.00001777,0.00002891,0.00001658,0.00002732,-0.0000
 2300,-0.00003383,-0.00000843,-0.00001806,-0.00000084,-0.00000502,0.000
 00256,0.00000456,0.00000802,0.00000567,0.00000293,0.00001089,0.0000041
 0,-0.00000073,-0.00000570,-0.00000414,-0.00000410,0.00001573,0.0000037
 4,-0.00000938,0.00006953,0.,-0.00009950,0.00007378,0.00143548,0.000353
 33,0.00006038,-0.00000025,0.00002561,0.00017901,-0.00130252,-0.0003508
 9,-0.00039839,-0.00023496,0.00039768,-0.00003482,0.00000795,0.00001533
 ,-0.00004274,-0.00004539,0.00001302,0.00000602,0.00000062,-0.00000161,
 0.00000441,-0.00000366,-0.00000118,0.00000557,-0.00000227,-0.00000185,
 0.00000362,-0.00000700,-0.00000142,-0.00000422,-0.00000003,0.00000233,
 0.00000265,0.00001279,-0.00000475,0.00000842,-0.00000284,0.00000343,0.
 00000307,-0.00000051,0.00000828,0.00000252,0.00000209,0.00001597,-0.00
 000445,-0.00002331,0.00006475,0.06067342,0.00002061,-0.00002147,-0.000
 01836,0.00002589,0.00008032,-0.00002836,-0.00001079,0.00000433,0.00000
 432,0.00002726,-0.00000371,-0.00000036,-0.00001203,-0.00000665,0.00000
 278,0.00000758,0.00000088,-0.00000232,-0.00000747,0.00000438,0.0000076
 7,-0.00000656,-0.00001093,-0.00001070,-0.00002728,0.00001408,0.0000329
 6,-0.00003612,-0.00007557,0.00007798,-0.00012409,-0.00002700,-0.000016
 30,0.00020079,0.00021565,-0.00013204,-0.00112654,-0.00032304,0.0008503
 5,-0.00136612,-0.00953937,-0.00392764,0.00256174,0.00117151,-0.0012693
 9,-0.00008093,0.00055258,0.00045501,-0.00290219,0.00086748,-0.00157747
 ,0.00293506,-0.01171468,-0.00442549,0.00149912,-0.00002773,0.00084597,
 -0.00001667,0.00055262,-0.00032260,-0.00014033,0.00021755,0.00027836,0
 .00001364,-0.00002044,-0.00003863,0.00007301,-0.00001448,0.00008373,0.
 00000308,-0.00000855,0.00003456,-0.00000262,-0.00002184,-0.00000174,0.
 00000899,0.00002167,0.00000055,-0.00000518,0.00000149,-0.00000049,0.00
 000213,-0.00000448,-0.00000084,0.00000208,0.00000092,-0.00000146,-0.00
 000121,-0.00000116,0.00000038,0.00000213,-0.00000081,-0.00000039,0.000
 00015,0.00000566,0.00000089,-0.00000425,-0.00000417,0.00000304,0.00000
 784,0.00001273,-0.00000404,0.00007538,-0.00007378,-0.00007886,-0.00003
 604,0.00000440,0.00004364,0.00004127,-0.00001695,0.00000543,-0.0000385
 2,0.00001994,0.00000142,0.00008220,0.00000445,0.00003944,-0.00020750,0
 .00025600,-0.00015162,0.01471031,-0.31930225,-0.06871003,-0.00034901,0
 .00017494,-0.00104556,-0.00012549,0.00027511,0.00033680,-0.00000155,-0
 .00000138,0.00000481,-0.00000865,0.00000399,0.00002290,-0.00000697,-0.
 00000479,-0.00001055,0.00000935,-0.00000841,0.00000034,0.00000092,0.00
 001324,-0.00001888,-0.00000932,-0.00000383,0.00000779,0.00000131,0.000
 00117,-0.00000028,-0.00000223,-0.00000074,-0.00000093,-0.00000245,-0.0
 0000152,-0.00000005,0.00000024,0.00000111,0.00000134,0.00001894,-0.000
 01090,0.00002183,-0.00005490,-0.00000884,0.00007001,-0.00013158,-0.000
 47651,-0.00024089,-0.00000339,-0.00014943,0.00022499,0.00017862,-0.000
 59270,-0.00020594,0.00000815,-0.00012788,0.00042656,-0.00001695,0.0000
 1425,0.00000445,-0.00001118,-0.00001677,0.00000318,0.00000145,0.000000
 03,-0.00000064,0.00000064,-0.00000089,-0.00000019,0.00000073,-0.000000
 60,-0.00000049,0.00000024,-0.00000101,-0.00000045,-0.00000023,-0.00000
 178,-0.00000037,0.00000119,0.00000794,-0.00000261,0.00000001,-0.000001
 30,-0.00000018,-0.00000312,0.00000266,0.00000177,0.00000132,-0.0000015
 5,0.00000733,-0.00001379,-0.00003268,0.00005873,-0.01488974,0.33785518
 ,-0.00003932,-0.00001735,0.00001453,-0.00000591,-0.00001234,-0.0000270
 4,-0.00003984,0.00000478,0.00003048,-0.00003412,0.00000738,0.00000218,
 0.00000465,0.00001301,-0.00000809,-0.00000787,-0.00000399,-0.00000152,
 0.00000498,0.00000581,-0.00001238,0.00000495,-0.00000187,-0.00000212,0
 .00003540,-0.00004125,0.00002529,-0.00020611,0.00022893,0.00033217,-0.
 00015032,-0.00049072,-0.00024925,0.00100872,0.00024543,-0.00010847,-0.
 00125260,0.00003423,-0.00354142,0.00142793,-0.00317310,0.00292374,0.00
 051287,-0.00146835,0.00589040,0.00012453,0.00043162,-0.00057464,-0.001
 30003,-0.00152002,0.00596852,-0.00067136,-0.00545098,0.00250589,0.0010
 7247,0.00057977,-0.00376366,0.00105797,0.00032100,0.00030918,-0.000413
 03,-0.00001251,-0.00008068,0.00005094,-0.00003330,-0.00008545,0.000072
 99,0.00005162,0.00017320,-0.00002185,-0.00000850,-0.00001319,-0.000000
 09,-0.00001179,-0.00000393,0.00001053,0.00001844,-0.00000559,-0.000002
 31,0.00000374,0.00000237,-0.00000025,-0.00000517,-0.00000135,0.0000046
 5,0.00000089,-0.00000205,0.00000120,-0.00000278,-0.00000174,0.00000185
 ,0.00000225,-0.00000218,-0.00000148,-0.00000090,-0.00000417,-0.0000116
 1,0.00000461,-0.00000572,0.00001242,-0.00000450,0.00000202,-0.00001072
 ,-0.00018026,-0.00028753,-0.00000229,0.00004024,0.00006116,0.00003615,
 -0.00002752,-0.00005611,-0.00008988,0.00002093,-0.00003991,-0.00001620
 ,0.00014943,0.00012949,-0.00071764,0.00012762,-0.00006530,0.00324669,-
 0.06752108,-0.05367441,-0.00145212,0.00032533,0.00005290,0.00050338,0.
 00012210,-0.00024928,0.00000333,-0.00000015,-0.00000091,0.00002214,-0.
 00000044,-0.00001903,0.00001011,0.00000926,-0.00000287,0.00000893,0.00
 000792,-0.00000609,0.00001872,-0.00001559,0.00000080,0.00002033,0.0000
 1301,-0.00001053,-0.00000213,-0.00000350,-0.00000109,0.00000296,-0.000
 00241,0.00000309,0.00000141,-0.00000007,0.00000005,0.00000333,-0.00000
 534,0.00000222,0.00002219,0.00001453,-0.00000521,0.00000711,0.00004033
 ,-0.00004864,0.00004772,-0.00018682,0.00016936,0.00002144,0.00018973,-
 0.00085066,0.00003953,-0.00030447,0.00022330,0.00033555,0.00000095,-0.
 00033872,0.00001158,0.00000681,-0.00000573,-0.00001167,-0.00001979,0.0
 0000583,0.00000152,0.00000003,0.00000044,0.00000114,-0.00000061,0.0000
 0047,0.00000137,-0.00000042,0.00000017,0.00000092,-0.00000119,0.000001
 22,-0.00000001,0.00000210,0.00000492,-0.00000001,-0.00000031,0.0000113
 1,-0.00001192,-0.00000565,-0.00000820,0.00000310,0.00000040,-0.0000024
 8,-0.00000914,-0.00001463,-0.00000180,0.00003639,-0.00000914,0.0000228
 5,-0.00231500,0.07794111,0.04578841,-0.00048630,-0.00026436,0.00014025
 ,0.00028615,0.00185566,-0.00002217,-0.00029183,-0.00000754,0.00007635,
 -0.00019826,-0.00005784,-0.00007117,0.00012170,0.00003928,-0.00000224,
 -0.00009373,-0.00004101,-0.00000505,-0.00005814,-0.00000728,0.00002354
 ,-0.00011297,-0.00026666,-0.00032743,-0.00067037,0.00053273,0.00098626
 ,-0.00121017,-0.00467121,-0.00067497,0.00010608,-0.00033311,-0.0005868
 6,0.00167408,-0.00157288,0.00048752,0.00358711,-0.00033322,-0.00064181
 ,-0.00092884,0.00018048,-0.00114205,0.00039804,0.00044058,0.00010232,-
 0.00023285,0.00002763,0.00004000,0.00005417,-0.00012491,0.00001732,0.0
 0008941,0.00002045,0.00002776,-0.00000350,-0.00000519,-0.00008280,0.00
 003664,0.00001477,-0.00004170,-0.00001503,0.00003302,0.00005971,0.0000
 1894,-0.00002256,-0.00004124,0.00000722,-0.00000511,-0.00001204,-0.000
 00766,-0.00000259,0.00000541,0.00000056,0.00000122,0.00000020,0.000007
 17,-0.00000401,-0.00000491,-0.00000149,-0.00000027,-0.00000015,0.00000
 193,-0.00000246,-0.00000106,0.00000278,-0.00000132,-0.00000096,-0.0000
 0066,-0.00000016,-0.00000052,0.00000101,-0.00000211,-0.00000156,0.0000
 0123,0.00000426,-0.00000115,-0.00000491,-0.00000439,0.00000050,0.00000
 776,0.00001133,-0.00000042,0.00000246,-0.00000091,0.00000494,-0.000002
 05,0.00000147,-0.00000126,-0.00000079,0.00000179,0.00000396,0.00000590
 ,-0.00000128,0.00000090,0.00000189,-0.00000380,0.00000161,-0.00000098,
 0.00000537,0.00000383,-0.00072363,-0.00044386,-0.00129909,-0.23129928,
 0.02952679,0.13269970,-0.01728588,0.00524000,0.01628437,0.00003141,-0.
 00003163,0.00002579,0.00033789,-0.00005724,-0.00067072,0.00029109,0.00
 016132,-0.00019132,0.00013455,-0.00004380,0.00000048,0.00037812,-0.000
 20737,-0.00008860,0.00006452,0.00007799,-0.00002696,-0.00002221,-0.000
 04518,-0.00003848,0.00000028,-0.00000528,-0.00000658,-0.00002882,-0.00
 003819,-0.00001625,0.00002559,0.00001309,0.00000583,-0.00020031,0.0003
 0135,-0.00014474,0.00015079,-0.00006863,-0.00010013,-0.00000089,0.0000
 0917,-0.00002631,0.00002103,0.00001385,0.00002590,0.00000894,-0.000008
 53,0.00001987,-0.00001227,-0.00001521,0.00003900,-0.00000365,0.0000058
 0,0.00000669,-0.00000902,-0.00000498,0.00000500,0.00000115,0.00000001,
 0.00000013,0.00000079,-0.00000074,0.00000014,0.00000089,-0.00000063,0.
 00000007,0.00000099,-0.00000145,0.00000035,-0.00000047,-0.00000167,0.0
 0000166,0.00000213,0.00000415,0.00000009,0.00000221,-0.00000050,0.0000
 0105,0.00000166,-0.00000014,0.00000131,-0.00000033,0.00000005,0.000001
 38,-0.00000004,0.00000069,-0.00000417,-0.00100133,-0.00074039,-0.00101
 924,0.24704241,-0.00001093,0.00012955,0.00002970,0.00134048,-0.0016945
 7,0.00181175,-0.00052674,-0.00018336,-0.00013163,-0.00001001,0.0000126
 5,0.00024469,0.00006243,0.00002578,-0.00006741,0.00000281,-0.00001274,
 0.00000055,-0.00004955,0.00004025,0.00003503,-0.00005921,-0.00029230,-
 0.00007102,-0.00049829,0.00031858,0.00052782,-0.00404432,0.00247202,-0
 .00403793,-0.00041426,-0.00081682,-0.00007402,-0.00224820,0.00034550,-
 0.00535532,0.01675326,-0.00008554,-0.01208778,0.00252365,-0.00053604,0
 .00184785,-0.00040059,-0.00073341,-0.00018926,0.00054807,0.00005987,-0
 .00009791,-0.00023436,0.00043918,0.00014067,-0.00046132,-0.00051101,0.
 00005546,-0.00003777,0.00004223,-0.00001381,0.00000607,-0.00004040,-0.
 00004546,-0.00001567,0.00004299,0.00008005,0.00001685,-0.00005184,-0.0
 0004899,0.00001296,-0.00001056,-0.00001859,-0.00001668,-0.00000769,0.0
 0000712,0.00000125,0.00002136,0.00000099,0.00001413,-0.00002817,-0.000
 00515,-0.00000017,-0.00000448,-0.00000004,0.00000459,-0.00000105,-0.00
 000100,0.00000280,-0.00000537,-0.00000108,-0.00000247,0.00000247,0.000
 00043,0.00000045,-0.00000723,-0.00000180,0.00000316,0.00000906,-0.0000
 0181,-0.00000353,-0.00001372,-0.00000178,0.00001212,0.00002757,0.00000
 142,0.00000844,0.00000924,0.00001664,-0.00000080,-0.00000381,-0.000004
 93,-0.00000274,0.00000315,0.00000764,0.00000975,-0.00000695,0.00000274
 ,-0.00000609,-0.00000230,0.00000062,0.00001990,-0.00002584,-0.00001962
 ,0.00008346,0.00038730,0.00029035,0.02762326,-0.05476068,-0.03247621,-
 0.01231076,0.00777748,0.01006989,0.00012115,0.00003877,0.00003858,-0.0
 0018095,0.00008737,-0.00014447,-0.00005244,-0.00007398,0.00010912,0.00
 038895,0.00005708,-0.00004033,0.00021472,-0.00062182,-0.00025486,-0.00
 003379,0.00001559,-0.00003942,-0.00001709,-0.00001922,-0.00001185,0.00
 001034,-0.00000362,0.00000116,-0.00001829,-0.00000464,-0.00002357,0.00
 001161,0.00000354,-0.00000159,0.00028308,-0.00054229,0.00056848,0.0008
 7823,0.00001370,-0.00073868,-0.00001639,0.00005208,0.00002881,-0.00000
 604,0.00000045,0.00000365,-0.00000074,0.00003707,-0.00004236,-0.000029
 08,0.00003526,0.00002762,-0.00000342,0.00001470,0.00000198,-0.00001646
 ,-0.00000129,0.00000252,0.00000098,-0.00000010,-0.00000059,0.00000063,
 -0.00000103,-0.00000028,0.00000060,-0.00000107,-0.00000030,0.00000135,
 -0.00000211,-0.00000006,-0.00000060,-0.00000605,0.00000207,0.00000550,
 0.00001073,0.00000141,0.00000486,-0.00000029,0.00000261,0.00000409,0.0
 0000066,0.00000202,0.00000121,0.00000245,0.00000317,-0.00000221,0.0000
 0528,-0.00001746,-0.00017255,0.00030427,-0.00040654,-0.02907269,0.0482
 6816,-0.00028198,-0.00025241,-0.00006002,-0.00062449,0.00146483,-0.001
 95504,0.00027620,0.00004634,0.00011315,-0.00005027,0.00027020,0.000100
 49,0.00004538,-0.00004241,-0.00001716,0.00002959,0.00002399,-0.0000007
 3,-0.00001460,0.00000096,0.00003895,-0.00007747,0.00003252,-0.00011336
 ,-0.00025204,-0.00001945,0.00011960,0.00004122,-0.00390371,0.00346440,
 -0.00051701,0.00012114,-0.00023789,-0.00063190,-0.00559226,0.00021174,
 0.01950435,-0.00217982,-0.00810577,-0.00030251,0.00228532,-0.00096872,
 0.00013692,-0.00001884,0.00023016,-0.00003934,0.00015547,0.00012064,0.
 00003748,0.00002792,-0.00005924,-0.00030920,0.00038432,0.00019359,-0.0
 0009168,0.00002727,-0.00003109,0.00005095,0.00000296,-0.00000834,-0.00
 004389,0.00004661,0.00008425,0.00003142,-0.00003231,-0.00007374,0.0000
 1070,-0.00000360,-0.00001716,-0.00001519,-0.00000176,0.00000780,0.0000
 0046,-0.00000829,-0.00000129,0.00001670,0.00000518,-0.00000745,-0.0000
 0414,0.00000247,0.00000136,0.00000119,-0.00000797,-0.00000133,0.000009
 72,-0.00000026,-0.00000289,-0.00000057,-0.00000353,-0.00000113,0.00000
 468,0.00000215,-0.00000204,-0.00000135,0.00000408,-0.00000004,-0.00001
 403,-0.00000280,0.00000454,0.00001727,0.00001407,-0.00000198,0.0000082
 5,0.00000636,0.00001714,-0.00000237,0.00000161,-0.00000466,-0.00000342
 ,0.00000412,0.00000768,0.00001182,-0.00000223,0.00000181,0.00000604,-0
 .00000268,-0.00001024,0.00001879,-0.00002614,-0.00002336,0.00002834,-0
 .00117378,-0.00017642,0.13126318,-0.03407763,-0.14258378,-0.00374495,0
 .00104197,0.00734840,-0.00002893,-0.00003398,0.00000332,-0.00017254,-0
 .00015966,-0.00043296,0.00024961,0.00007611,-0.00001076,-0.00023126,0.
 00011147,-0.00002274,-0.00026136,-0.00006936,0.00021215,0.00007314,0.0
 0005741,0.00000392,-0.00000790,0.00000184,0.00000590,0.00000842,0.0000
 0816,-0.00000302,0.00000654,-0.00001287,0.00000703,-0.00000487,-0.0000
 0180,-0.00000261,-0.00018301,0.00054985,-0.00049563,0.00105098,-0.0002
 0366,-0.00038235,-0.00001351,0.00014460,-0.00003825,0.00000575,0.00002
 069,-0.00002177,0.00000234,0.00006222,0.00002123,-0.00002630,-0.000011
 31,0.00004765,-0.00001147,0.00000546,0.00001005,-0.00002084,-0.0000142
 6,0.00000841,0.00000267,0.00000071,-0.00000028,0.00000252,-0.00000212,
 -0.00000046,0.00000342,-0.00000098,-0.00000080,0.00000143,-0.00000366,
 -0.00000019,-0.00000248,0.00000226,0.00000179,0.00000057,0.00000313,-0
 .00000151,0.00000506,-0.00000139,0.00000253,0.00000447,-0.00000090,0.0
 0000367,0.00000027,0.00000071,0.00000553,-0.00000349,-0.00000362,-0.00
 001284,-0.00117240,0.00034473,-0.00048885,-0.14380507,0.04051032,0.143
 98101\\-0.00000719,0.00001471,-0.00001374,0.00003242,-0.00005077,0.000
 01903,-0.00001366,0.00002199,-0.00000979,-0.00000207,0.00001179,0.0000
 0084,-0.00000025,-0.00001449,-0.00001773,-0.00000865,-0.00000953,-0.00
 000784,-0.00001629,-0.00000345,0.00000457,-0.00000753,0.00000978,0.000
 01292,-0.00001031,-0.00000385,-0.00000330,0.00002306,0.00000451,0.0000
 0357,-0.00001542,0.00001104,0.00001404,-0.00000362,0.00000927,0.000017
 74,0.00000733,0.00000380,-0.00000761,-0.00001199,0.00000040,0.00000675
 ,-0.00001340,0.00000988,0.00000304,-0.00000964,0.00001517,-0.00000005,
 0.00000884,0.00000153,-0.00000264,0.00000401,0.00000537,-0.00000641,0.
 00000216,-0.00000519,0.00000653,-0.00000765,0.00002107,-0.00001121,-0.
 00001222,-0.00002239,-0.00003700,0.00000388,0.00000234,0.00001318,0.00
 002284,-0.00000070,0.00001547,-0.00001898,-0.00001071,0.00000156,0.000
 01708,0.00003879,0.00000417,-0.00000614,-0.00001348,0.00000458,0.00000
 902,-0.00000308,-0.00000769,0.00001483,0.00000497,-0.00000355,0.000003
 48,-0.00001000,-0.00000505,0.00001538,0.00000202,-0.00000647,-0.000009
 02,-0.00002064,0.00000400,-0.00000439,-0.00001956,0.00000123,-0.000012
 78,0.00001189,0.00000271,0.00000235,0.00000563,0.00000458,-0.00000855,
 -0.00000041,-0.00000492,0.00001351,-0.00000782,-0.00000975,0.00000357,
 0.00000503,0.00002062,0.00000835,0.00000176,0.00002378,-0.00001803,0.0
 0000867,-0.00001296,0.00000076,-0.00000624,0.00000541,0.00000217,-0.00
 002136,0.00000217,0.00001766,-0.00000114,-0.00000376,-0.00001022,0.000
 00834,-0.00001175,0.00000911,-0.00001096,-0.00000089,-0.00001238,-0.00
 000342,-0.00000022,0.00000338,0.00001039,0.00000658,0.00000907,0.00000
 232,0.00000913,-0.00000828,-0.00001027,0.00000219,0.00000605,-0.000001
 07,-0.00001200,-0.00000095,0.00000340,0.00000660,0.00000380,0.00000384
 ,0.00000405,0.00000570,0.00000142,-0.00000160,0.00000026,-0.00000549,-
 0.00000525,0.00000482,-0.00000179,-0.00000763,-0.00000076,-0.00000597,
 -0.00000465,0.00000798,-0.00000243,-0.00000375,0.00000444,-0.00000844,
 0.00000255,-0.00000020,-0.00000262,0.00000566,0.00000325,-0.00000373,0
 .00000540,-0.00000524,0.00000780,-0.00000159,0.00000553,-0.00000086,-0
 .00000761,-0.00000539,-0.00000323,0.00000070,-0.00000590,0.00000244,0.
 00000331,-0.00000533,0.00000153,0.00000314,0.00000092,0.00000815,-0.00
 000135,0.00000348,0.00000672,-0.00000076,0.00000497,-0.00000507,-0.000
 00062,-0.00000514,0.00000251,0.00000399,-0.00000351,-0.00000093,-0.000
 00755,-0.00000091,0.00000100,-0.00000883,0.00000108,0.00000277,-0.0000
 0256,0.00000147,0.00000738,-0.00000077,-0.00000603,-0.00000033,0.00000
 505\\\@
 The archive entry for this job was punched.


 THE SCIENTIFIC THEORIST IS NOT TO BE ENVIED. FOR NATURE, OR MORE
 PRECISELY EXPERIMENT, IS AN INEXORABLE AND NOT VERY FRIENDLY JUDGE OF HIS
 WORK.  IT NEVER SAYS "YES" TO A THEORY. IN THE MOST FAVORABLE CASES
 IT SAYS "MAYBE", AND IN THE GREAT MAJORITY OF CASES SIMPLY "NO"...
 PROBABLY EVERY THEORY WILL SOME DAY EXPERIENCE ITS "NO" - MOST
 THEORIES, SOON AFTER CONCEPTION.  -- A.EINSTEIN, NOV 11, 1922.
 Job cpu time:       0 days  8 hours 35 minutes  5.7 seconds.
 Elapsed time:       0 days  0 hours 16 minutes 11.2 seconds.
 File lengths (MBytes):  RWF=   3439 Int=      0 D2E=      0 Chk=     39 Scr=      1
 Normal termination of Gaussian 16 at Mon Mar 24 20:58:28 2025.
