 Entering Gaussian System, Link 0=g16
 Initial command:
 /public/software/apps/Gaussian/g16/l1.exe "/public/home/LJQ_HG/tmp/Gau-118235.inp" -scrdir="/public/home/LJQ_HG/tmp/"
 Entering Link 1 = /public/software/apps/Gaussian/g16/l1.exe PID=    118236.
  
 Copyright (c) 1988-2019, Gaussian, Inc.  All Rights Reserved.
  
 This is part of the Gaussian(R) 16 program.  It is based on
 the Gaussian(R) 09 system (copyright 2009, Gaussian, Inc.),
 the Gaussian(R) 03 system (copyright 2003, Gaussian, Inc.),
 the Gaussian(R) 98 system (copyright 1998, Gaussian, Inc.),
 the Gaussian(R) 94 system (copyright 1995, Gaussian, Inc.),
 the Gaussian 92(TM) system (copyright 1992, Gaussian, Inc.),
 the Gaussian 90(TM) system (copyright 1990, Gaussian, Inc.),
 the Gaussian 88(TM) system (copyright 1988, Gaussian, Inc.),
 the Gaussian 86(TM) system (copyright 1986, Carnegie Mellon
 University), and the Gaussian 82(TM) system (copyright 1983,
 Carnegie Mellon University). Gaussian is a federally registered
 trademark of Gaussian, Inc.
  
 This software contains proprietary and confidential information,
 including trade secrets, belonging to Gaussian, Inc.
  
 This software is provided under written license and may be
 used, copied, transmitted, or stored only in accord with that
 written license.
  
 The following legend is applicable only to US Government
 contracts under FAR:
  
                    RESTRICTED RIGHTS LEGEND
  
 Use, reproduction and disclosure by the US Government is
 subject to restrictions as set forth in subparagraphs (a)
 and (c) of the Commercial Computer Software - Restricted
 Rights clause in FAR 52.227-19.
  
 Gaussian, Inc.
 340 Quinnipiac St., Bldg. 40, Wallingford CT 06492
  
  
 ---------------------------------------------------------------
 Warning -- This program may not be used in any manner that
 competes with the business of Gaussian, Inc. or will provide
 assistance to any competitor of Gaussian, Inc.  The licensee
 of this program is prohibited from giving any competitor of
 Gaussian, Inc. access to this program.  By using this program,
 the user acknowledges that Gaussian, Inc. is engaged in the
 business of creating and licensing software in the field of
 computational chemistry and represents and warrants to the
 licensee that it is not a competitor of Gaussian, Inc. and that
 it will not use this program in any manner prohibited above.
 ---------------------------------------------------------------
  

 Cite this work as:
 Gaussian 16, Revision C.01,
 M. J. Frisch, G. W. Trucks, H. B. Schlegel, G. E. Scuseria, 
 M. A. Robb, J. R. Cheeseman, G. Scalmani, V. Barone, 
 G. A. Petersson, H. Nakatsuji, X. Li, M. Caricato, A. V. Marenich, 
 J. Bloino, B. G. Janesko, R. Gomperts, B. Mennucci, H. P. Hratchian, 
 J. V. Ortiz, A. F. Izmaylov, J. L. Sonnenberg, D. Williams-Young, 
 F. Ding, F. Lipparini, F. Egidi, J. Goings, B. Peng, A. Petrone, 
 T. Henderson, D. Ranasinghe, V. G. Zakrzewski, J. Gao, N. Rega, 
 G. Zheng, W. Liang, M. Hada, M. Ehara, K. Toyota, R. Fukuda, 
 J. Hasegawa, M. Ishida, T. Nakajima, Y. Honda, O. Kitao, H. Nakai, 
 T. Vreven, K. Throssell, J. A. Montgomery, Jr., J. E. Peralta, 
 F. Ogliaro, M. J. Bearpark, J. J. Heyd, E. N. Brothers, K. N. Kudin, 
 V. N. Staroverov, T. A. Keith, R. Kobayashi, J. Normand, 
 K. Raghavachari, A. P. Rendell, J. C. Burant, S. S. Iyengar, 
 J. Tomasi, M. Cossi, J. M. Millam, M. Klene, C. Adamo, R. Cammi, 
 J. W. Ochterski, R. L. Martin, K. Morokuma, O. Farkas, 
 J. B. Foresman, and D. J. Fox, Gaussian, Inc., Wallingford CT, 2019.
 
 ******************************************
 Gaussian 16:  ES64L-G16RevC.01  3-Jul-2019
                 5-Jul-2025 
 ******************************************
 %nprocshared=32
 Will use up to   32 processors via shared memory.
 %mem=100GB
 ------------------------------------------
 #p opt freq b3lyp/def2svpp em=gd3bj nosymm
 ------------------------------------------
 1/18=20,19=15,26=3,38=1/1,3;
 2/9=110,12=2,15=1,17=6,18=5,40=1/2;
 3/5=43,7=202,11=2,25=1,30=1,71=1,74=-5,124=41/1,2,3;
 4//1;
 5/5=2,38=5/2;
 6/7=2,8=2,9=2,10=2,28=1/1;
 7/30=1/1,2,3,16;
 1/18=20,19=15,26=3/3(2);
 2/9=110,15=1/2;
 99//99;
 2/9=110,15=1/2;
 3/5=43,7=202,11=2,25=1,30=1,71=1,74=-5,124=41/1,2,3;
 4/5=5,16=3,69=1/1;
 5/5=2,38=5/2;
 7/30=1/1,2,3,16;
 1/18=20,19=15,26=3/3(-5);
 2/9=110,15=1/2;
 6/7=2,8=2,9=2,10=2,19=2,28=1/1;
 99/9=1/99;
 Leave Link    1 at Sat Jul  5 15:21:08 2025, MaxMem= 13421772800 cpu:               2.1 elap:               0.1
 (Enter /public/software/apps/Gaussian/g16/l101.exe)
 ----------------------
 $$$$Singlemol####0????
 ----------------------
 Symbolic Z-matrix:
 Charge =  0 Multiplicity = 1
 C                     1.47882  -2.37612  -1.96467 
 C                     0.24377  -2.83785  -1.98977 
 C                    -0.81781  -2.38467  -2.95072 
 O                    -2.09038  -2.25423  -2.34651 
 C                    -2.28121  -1.26327  -1.43397 
 C                    -3.56997  -1.23051  -0.85255 
 C                    -3.88322  -0.28856   0.08032 
 C                    -2.93573   0.67336   0.4903 
 C                    -3.2265    1.65202   1.46175 
 C                    -2.28611   2.56438   1.84227 
 C                    -1.00228   2.54279   1.26331 
 O                    -0.11083   3.47479   1.69645 
 C                    -0.67964   1.60374   0.30151 
 C                     0.68135   1.60273  -0.30102 
 C                     1.00501   2.5407   -1.26353 
 O                     0.11435   3.47298  -1.69773 
 C                     2.28901   2.56085  -1.84213 
 C                     3.2286    1.64813  -1.46048 
 C                     2.93666   0.67029  -0.48856 
 C                     3.88328  -0.29213  -0.07777 
 C                     3.56881  -1.23371   0.85505 
 C                     2.27962  -1.26557   1.43558 
 O                     2.08756  -2.25655   2.34784 
 C                     0.81381  -2.388     2.94928 
 C                    -0.24548  -2.84076   1.98562 
 C                    -1.48101  -2.38042   1.95898 
 C                     1.34238  -0.33396   1.0669 
 C                     1.64693   0.64412   0.09929 
 C                    -1.64629   0.64594  -0.0981 
 C                    -1.34303  -0.33243  -1.06578 
 H                     2.21142  -2.74315  -1.26777 
 H                     1.81411  -1.60787  -2.64292 
 H                    -0.08328  -3.60281  -1.29889 
 H                    -0.96753  -3.15612  -3.71548 
 H                    -0.52413  -1.45237  -3.45026 
 H                    -4.28568  -1.9721   -1.17141 
 H                    -4.86799  -0.26762   0.52425 
 H                    -4.21044   1.66773   1.90691 
 H                    -2.48896   3.31593   2.58832 
 H                     0.74072   3.33758   1.25723 
 H                    -0.73748   3.33661  -1.25879 
 H                     2.49267   3.31161  -2.58875 
 H                     4.21276   1.66281  -1.90521 
 H                     4.86834  -0.27191  -0.52109 
 H                     4.28382  -1.97571   1.17453 
 H                     0.51865  -1.45633   3.44913 
 H                     0.96224  -3.16012   3.71362 
 H                     0.08371  -3.60425   1.29411 
 H                    -2.21192  -2.74729   1.26022 
 H                    -1.81847  -1.61368   2.63785 
 H                     0.35203  -0.33697   1.48982 
 H                    -0.3529   -0.33622  -1.4892 
 
 ITRead=  0  0  0  0  0  0  0  0  0  0  0  0  0  0  0  0  0  0  0  0
 ITRead=  0  0  0  0  0  0  0  0  0  0  0  0  0  0  0  0  0  0  0  0
 ITRead=  0  0  0  0  0  0  0  0  0  0  0  0
 MicOpt= -1 -1 -1 -1 -1 -1 -1 -1 -1 -1 -1 -1 -1 -1 -1 -1 -1 -1 -1 -1
 MicOpt= -1 -1 -1 -1 -1 -1 -1 -1 -1 -1 -1 -1 -1 -1 -1 -1 -1 -1 -1 -1
 MicOpt= -1 -1 -1 -1 -1 -1 -1 -1 -1 -1 -1 -1
 NAtoms=     52 NQM=       52 NQMF=       0 NMMI=      0 NMMIF=      0
                NMic=       0 NMicF=      0.
                    Isotopes and Nuclear Properties:
 (Nuclear quadrupole moments (NQMom) in fm**2, nuclear magnetic moments (NMagM)
  in nuclear magnetons)

  Atom         1           2           3           4           5           6           7           8           9          10
 IAtWgt=          12          12          12          16          12          12          12          12          12          12
 AtmWgt=  12.0000000  12.0000000  12.0000000  15.9949146  12.0000000  12.0000000  12.0000000  12.0000000  12.0000000  12.0000000
 NucSpn=           0           0           0           0           0           0           0           0           0           0
 AtZEff=  -0.0000000  -0.0000000  -0.0000000  -0.0000000  -0.0000000  -0.0000000  -0.0000000  -0.0000000  -0.0000000  -0.0000000
 NQMom=    0.0000000   0.0000000   0.0000000   0.0000000   0.0000000   0.0000000   0.0000000   0.0000000   0.0000000   0.0000000
 NMagM=    0.0000000   0.0000000   0.0000000   0.0000000   0.0000000   0.0000000   0.0000000   0.0000000   0.0000000   0.0000000
 AtZNuc=   6.0000000   6.0000000   6.0000000   8.0000000   6.0000000   6.0000000   6.0000000   6.0000000   6.0000000   6.0000000

  Atom        11          12          13          14          15          16          17          18          19          20
 IAtWgt=          12          16          12          12          12          16          12          12          12          12
 AtmWgt=  12.0000000  15.9949146  12.0000000  12.0000000  12.0000000  15.9949146  12.0000000  12.0000000  12.0000000  12.0000000
 NucSpn=           0           0           0           0           0           0           0           0           0           0
 AtZEff=  -0.0000000  -0.0000000  -0.0000000  -0.0000000  -0.0000000  -0.0000000  -0.0000000  -0.0000000  -0.0000000  -0.0000000
 NQMom=    0.0000000   0.0000000   0.0000000   0.0000000   0.0000000   0.0000000   0.0000000   0.0000000   0.0000000   0.0000000
 NMagM=    0.0000000   0.0000000   0.0000000   0.0000000   0.0000000   0.0000000   0.0000000   0.0000000   0.0000000   0.0000000
 AtZNuc=   6.0000000   8.0000000   6.0000000   6.0000000   6.0000000   8.0000000   6.0000000   6.0000000   6.0000000   6.0000000

  Atom        21          22          23          24          25          26          27          28          29          30
 IAtWgt=          12          12          16          12          12          12          12          12          12          12
 AtmWgt=  12.0000000  12.0000000  15.9949146  12.0000000  12.0000000  12.0000000  12.0000000  12.0000000  12.0000000  12.0000000
 NucSpn=           0           0           0           0           0           0           0           0           0           0
 AtZEff=  -0.0000000  -0.0000000  -0.0000000  -0.0000000  -0.0000000  -0.0000000  -0.0000000  -0.0000000  -0.0000000  -0.0000000
 NQMom=    0.0000000   0.0000000   0.0000000   0.0000000   0.0000000   0.0000000   0.0000000   0.0000000   0.0000000   0.0000000
 NMagM=    0.0000000   0.0000000   0.0000000   0.0000000   0.0000000   0.0000000   0.0000000   0.0000000   0.0000000   0.0000000
 AtZNuc=   6.0000000   6.0000000   8.0000000   6.0000000   6.0000000   6.0000000   6.0000000   6.0000000   6.0000000   6.0000000

  Atom        31          32          33          34          35          36          37          38          39          40
 IAtWgt=           1           1           1           1           1           1           1           1           1           1
 AtmWgt=   1.0078250   1.0078250   1.0078250   1.0078250   1.0078250   1.0078250   1.0078250   1.0078250   1.0078250   1.0078250
 NucSpn=           1           1           1           1           1           1           1           1           1           1
 AtZEff=  -0.0000000  -0.0000000  -0.0000000  -0.0000000  -0.0000000  -0.0000000  -0.0000000  -0.0000000  -0.0000000  -0.0000000
 NQMom=    0.0000000   0.0000000   0.0000000   0.0000000   0.0000000   0.0000000   0.0000000   0.0000000   0.0000000   0.0000000
 NMagM=    2.7928460   2.7928460   2.7928460   2.7928460   2.7928460   2.7928460   2.7928460   2.7928460   2.7928460   2.7928460
 AtZNuc=   1.0000000   1.0000000   1.0000000   1.0000000   1.0000000   1.0000000   1.0000000   1.0000000   1.0000000   1.0000000

  Atom        41          42          43          44          45          46          47          48          49          50
 IAtWgt=           1           1           1           1           1           1           1           1           1           1
 AtmWgt=   1.0078250   1.0078250   1.0078250   1.0078250   1.0078250   1.0078250   1.0078250   1.0078250   1.0078250   1.0078250
 NucSpn=           1           1           1           1           1           1           1           1           1           1
 AtZEff=  -0.0000000  -0.0000000  -0.0000000  -0.0000000  -0.0000000  -0.0000000  -0.0000000  -0.0000000  -0.0000000  -0.0000000
 NQMom=    0.0000000   0.0000000   0.0000000   0.0000000   0.0000000   0.0000000   0.0000000   0.0000000   0.0000000   0.0000000
 NMagM=    2.7928460   2.7928460   2.7928460   2.7928460   2.7928460   2.7928460   2.7928460   2.7928460   2.7928460   2.7928460
 AtZNuc=   1.0000000   1.0000000   1.0000000   1.0000000   1.0000000   1.0000000   1.0000000   1.0000000   1.0000000   1.0000000

  Atom        51          52
 IAtWgt=           1           1
 AtmWgt=   1.0078250   1.0078250
 NucSpn=           1           1
 AtZEff=  -0.0000000  -0.0000000
 NQMom=    0.0000000   0.0000000
 NMagM=    2.7928460   2.7928460
 AtZNuc=   1.0000000   1.0000000
 Leave Link  101 at Sat Jul  5 15:21:09 2025, MaxMem= 13421772800 cpu:               5.1 elap:               0.2
 (Enter /public/software/apps/Gaussian/g16/l103.exe)

 GradGradGradGradGradGradGradGradGradGradGradGradGradGradGradGradGradGrad
 Berny optimization.
 Initialization pass.
                           ----------------------------
                           !    Initial Parameters    !
                           ! (Angstroms and Degrees)  !
 --------------------------                            --------------------------
 ! Name  Definition              Value          Derivative Info.                !
 --------------------------------------------------------------------------------
 ! R1    R(1,2)                  1.3188         estimate D2E/DX2                !
 ! R2    R(1,31)                 1.0757         estimate D2E/DX2                !
 ! R3    R(1,32)                 1.0783         estimate D2E/DX2                !
 ! R4    R(2,3)                  1.5019         estimate D2E/DX2                !
 ! R5    R(2,33)                 1.0814         estimate D2E/DX2                !
 ! R6    R(3,4)                  1.4148         estimate D2E/DX2                !
 ! R7    R(3,34)                 1.0965         estimate D2E/DX2                !
 ! R8    R(3,35)                 1.0977         estimate D2E/DX2                !
 ! R9    R(4,5)                  1.3606         estimate D2E/DX2                !
 ! R10   R(5,6)                  1.4142         estimate D2E/DX2                !
 ! R11   R(5,30)                 1.3719         estimate D2E/DX2                !
 ! R12   R(6,7)                  1.3622         estimate D2E/DX2                !
 ! R13   R(6,36)                 1.0788         estimate D2E/DX2                !
 ! R14   R(7,8)                  1.4111         estimate D2E/DX2                !
 ! R15   R(7,37)                 1.0804         estimate D2E/DX2                !
 ! R16   R(8,9)                  1.4093         estimate D2E/DX2                !
 ! R17   R(8,29)                 1.4176         estimate D2E/DX2                !
 ! R18   R(9,10)                 1.3644         estimate D2E/DX2                !
 ! R19   R(9,38)                 1.0801         estimate D2E/DX2                !
 ! R20   R(10,11)                1.4085         estimate D2E/DX2                !
 ! R21   R(10,39)                1.0782         estimate D2E/DX2                !
 ! R22   R(11,12)                1.3605         estimate D2E/DX2                !
 ! R23   R(11,13)                1.3824         estimate D2E/DX2                !
 ! R24   R(12,40)                0.9679         estimate D2E/DX2                !
 ! R25   R(13,14)                1.4884         estimate D2E/DX2                !
 ! R26   R(13,29)                1.4183         estimate D2E/DX2                !
 ! R27   R(14,15)                1.3824         estimate D2E/DX2                !
 ! R28   R(14,28)                1.4183         estimate D2E/DX2                !
 ! R29   R(15,16)                1.3605         estimate D2E/DX2                !
 ! R30   R(15,17)                1.4085         estimate D2E/DX2                !
 ! R31   R(16,41)                0.9679         estimate D2E/DX2                !
 ! R32   R(17,18)                1.3644         estimate D2E/DX2                !
 ! R33   R(17,42)                1.0782         estimate D2E/DX2                !
 ! R34   R(18,19)                1.4093         estimate D2E/DX2                !
 ! R35   R(18,43)                1.0801         estimate D2E/DX2                !
 ! R36   R(19,20)                1.4111         estimate D2E/DX2                !
 ! R37   R(19,28)                1.4176         estimate D2E/DX2                !
 ! R38   R(20,21)                1.3622         estimate D2E/DX2                !
 ! R39   R(20,44)                1.0804         estimate D2E/DX2                !
 ! R40   R(21,22)                1.4142         estimate D2E/DX2                !
 ! R41   R(21,45)                1.0788         estimate D2E/DX2                !
 ! R42   R(22,23)                1.3606         estimate D2E/DX2                !
 ! R43   R(22,27)                1.3719         estimate D2E/DX2                !
 ! R44   R(23,24)                1.4147         estimate D2E/DX2                !
 ! R45   R(24,25)                1.5019         estimate D2E/DX2                !
 ! R46   R(24,46)                1.0977         estimate D2E/DX2                !
 ! R47   R(24,47)                1.0965         estimate D2E/DX2                !
 ! R48   R(25,26)                1.3188         estimate D2E/DX2                !
 ! R49   R(25,48)                1.0814         estimate D2E/DX2                !
 ! R50   R(26,49)                1.0757         estimate D2E/DX2                !
 ! R51   R(26,50)                1.0783         estimate D2E/DX2                !
 ! R52   R(27,28)                1.4091         estimate D2E/DX2                !
 ! R53   R(27,51)                1.0769         estimate D2E/DX2                !
 ! R54   R(29,30)                1.4091         estimate D2E/DX2                !
 ! R55   R(30,52)                1.0769         estimate D2E/DX2                !
 ! A1    A(2,1,31)             122.0519         estimate D2E/DX2                !
 ! A2    A(2,1,32)             121.9172         estimate D2E/DX2                !
 ! A3    A(31,1,32)            116.0309         estimate D2E/DX2                !
 ! A4    A(1,2,3)              124.6447         estimate D2E/DX2                !
 ! A5    A(1,2,33)             121.2473         estimate D2E/DX2                !
 ! A6    A(3,2,33)             114.1063         estimate D2E/DX2                !
 ! A7    A(2,3,4)              112.9766         estimate D2E/DX2                !
 ! A8    A(2,3,34)             109.2962         estimate D2E/DX2                !
 ! A9    A(2,3,35)             110.9975         estimate D2E/DX2                !
 ! A10   A(4,3,34)             103.8811         estimate D2E/DX2                !
 ! A11   A(4,3,35)             110.8976         estimate D2E/DX2                !
 ! A12   A(34,3,35)            108.4612         estimate D2E/DX2                !
 ! A13   A(3,4,5)              118.6692         estimate D2E/DX2                !
 ! A14   A(4,5,6)              114.8614         estimate D2E/DX2                !
 ! A15   A(4,5,30)             125.3284         estimate D2E/DX2                !
 ! A16   A(6,5,30)             119.8094         estimate D2E/DX2                !
 ! A17   A(5,6,7)              120.472          estimate D2E/DX2                !
 ! A18   A(5,6,36)             117.8477         estimate D2E/DX2                !
 ! A19   A(7,6,36)             121.6802         estimate D2E/DX2                !
 ! A20   A(6,7,8)              121.0604         estimate D2E/DX2                !
 ! A21   A(6,7,37)             120.2909         estimate D2E/DX2                !
 ! A22   A(8,7,37)             118.6484         estimate D2E/DX2                !
 ! A23   A(7,8,9)              122.3535         estimate D2E/DX2                !
 ! A24   A(7,8,29)             118.4887         estimate D2E/DX2                !
 ! A25   A(9,8,29)             119.1577         estimate D2E/DX2                !
 ! A26   A(8,9,10)             120.9585         estimate D2E/DX2                !
 ! A27   A(8,9,38)             118.8273         estimate D2E/DX2                !
 ! A28   A(10,9,38)            120.2139         estimate D2E/DX2                !
 ! A29   A(9,10,11)            120.2218         estimate D2E/DX2                !
 ! A30   A(9,10,39)            121.9649         estimate D2E/DX2                !
 ! A31   A(11,10,39)           117.8128         estimate D2E/DX2                !
 ! A32   A(10,11,12)           117.1217         estimate D2E/DX2                !
 ! A33   A(10,11,13)           120.6063         estimate D2E/DX2                !
 ! A34   A(12,11,13)           122.2715         estimate D2E/DX2                !
 ! A35   A(11,12,40)           109.5653         estimate D2E/DX2                !
 ! A36   A(11,13,14)           119.7048         estimate D2E/DX2                !
 ! A37   A(11,13,29)           119.7168         estimate D2E/DX2                !
 ! A38   A(14,13,29)           120.5778         estimate D2E/DX2                !
 ! A39   A(13,14,15)           119.7021         estimate D2E/DX2                !
 ! A40   A(13,14,28)           120.5796         estimate D2E/DX2                !
 ! A41   A(15,14,28)           119.7177         estimate D2E/DX2                !
 ! A42   A(14,15,16)           122.269          estimate D2E/DX2                !
 ! A43   A(14,15,17)           120.6085         estimate D2E/DX2                !
 ! A44   A(16,15,17)           117.122          estimate D2E/DX2                !
 ! A45   A(15,16,41)           109.5636         estimate D2E/DX2                !
 ! A46   A(15,17,18)           120.2194         estimate D2E/DX2                !
 ! A47   A(15,17,42)           117.8142         estimate D2E/DX2                !
 ! A48   A(18,17,42)           121.9658         estimate D2E/DX2                !
 ! A49   A(17,18,19)           120.959          estimate D2E/DX2                !
 ! A50   A(17,18,43)           120.2142         estimate D2E/DX2                !
 ! A51   A(19,18,43)           118.8264         estimate D2E/DX2                !
 ! A52   A(18,19,20)           122.348          estimate D2E/DX2                !
 ! A53   A(18,19,28)           119.1607         estimate D2E/DX2                !
 ! A54   A(20,19,28)           118.4911         estimate D2E/DX2                !
 ! A55   A(19,20,21)           121.0598         estimate D2E/DX2                !
 ! A56   A(19,20,44)           118.6485         estimate D2E/DX2                !
 ! A57   A(21,20,44)           120.2914         estimate D2E/DX2                !
 ! A58   A(20,21,22)           120.4716         estimate D2E/DX2                !
 ! A59   A(20,21,45)           121.6814         estimate D2E/DX2                !
 ! A60   A(22,21,45)           117.8469         estimate D2E/DX2                !
 ! A61   A(21,22,23)           114.8549         estimate D2E/DX2                !
 ! A62   A(21,22,27)           119.8108         estimate D2E/DX2                !
 ! A63   A(23,22,27)           125.3335         estimate D2E/DX2                !
 ! A64   A(22,23,24)           118.6737         estimate D2E/DX2                !
 ! A65   A(23,24,25)           112.9699         estimate D2E/DX2                !
 ! A66   A(23,24,46)           110.9045         estimate D2E/DX2                !
 ! A67   A(23,24,47)           103.8798         estimate D2E/DX2                !
 ! A68   A(25,24,46)           111.0008         estimate D2E/DX2                !
 ! A69   A(25,24,47)           109.2961         estimate D2E/DX2                !
 ! A70   A(46,24,47)           108.4585         estimate D2E/DX2                !
 ! A71   A(24,25,26)           124.6465         estimate D2E/DX2                !
 ! A72   A(24,25,48)           114.1056         estimate D2E/DX2                !
 ! A73   A(26,25,48)           121.2461         estimate D2E/DX2                !
 ! A74   A(25,26,49)           122.051          estimate D2E/DX2                !
 ! A75   A(25,26,50)           121.9182         estimate D2E/DX2                !
 ! A76   A(49,26,50)           116.0308         estimate D2E/DX2                !
 ! A77   A(22,27,28)           120.5445         estimate D2E/DX2                !
 ! A78   A(22,27,51)           121.387          estimate D2E/DX2                !
 ! A79   A(28,27,51)           118.0587         estimate D2E/DX2                !
 ! A80   A(14,28,19)           119.3322         estimate D2E/DX2                !
 ! A81   A(14,28,27)           121.0516         estimate D2E/DX2                !
 ! A82   A(19,28,27)           119.6159         estimate D2E/DX2                !
 ! A83   A(8,29,13)            119.3368         estimate D2E/DX2                !
 ! A84   A(8,29,30)            119.6184         estimate D2E/DX2                !
 ! A85   A(13,29,30)           121.0446         estimate D2E/DX2                !
 ! A86   A(5,30,29)            120.5451         estimate D2E/DX2                !
 ! A87   A(5,30,52)            121.3889         estimate D2E/DX2                !
 ! A88   A(29,30,52)           118.0562         estimate D2E/DX2                !
 ! D1    D(31,1,2,3)          -178.9375         estimate D2E/DX2                !
 ! D2    D(31,1,2,33)            0.5556         estimate D2E/DX2                !
 ! D3    D(32,1,2,3)             1.0248         estimate D2E/DX2                !
 ! D4    D(32,1,2,33)         -179.4822         estimate D2E/DX2                !
 ! D5    D(1,2,3,4)           -139.9829         estimate D2E/DX2                !
 ! D6    D(1,2,3,34)           104.8956         estimate D2E/DX2                !
 ! D7    D(1,2,3,35)           -14.6921         estimate D2E/DX2                !
 ! D8    D(33,2,3,4)            40.4919         estimate D2E/DX2                !
 ! D9    D(33,2,3,34)          -74.6296         estimate D2E/DX2                !
 ! D10   D(33,2,3,35)          165.7827         estimate D2E/DX2                !
 ! D11   D(2,3,4,5)             68.3899         estimate D2E/DX2                !
 ! D12   D(34,3,4,5)          -173.283          estimate D2E/DX2                !
 ! D13   D(35,3,4,5)           -56.9549         estimate D2E/DX2                !
 ! D14   D(3,4,5,6)           -178.2486         estimate D2E/DX2                !
 ! D15   D(3,4,5,30)             2.0741         estimate D2E/DX2                !
 ! D16   D(4,5,6,7)            179.6881         estimate D2E/DX2                !
 ! D17   D(4,5,6,36)            -0.2184         estimate D2E/DX2                !
 ! D18   D(30,5,6,7)            -0.6154         estimate D2E/DX2                !
 ! D19   D(30,5,6,36)          179.4781         estimate D2E/DX2                !
 ! D20   D(4,5,30,29)         -179.4343         estimate D2E/DX2                !
 ! D21   D(4,5,30,52)           -0.5904         estimate D2E/DX2                !
 ! D22   D(6,5,30,29)            0.9033         estimate D2E/DX2                !
 ! D23   D(6,5,30,52)          179.7471         estimate D2E/DX2                !
 ! D24   D(5,6,7,8)             -0.0622         estimate D2E/DX2                !
 ! D25   D(5,6,7,37)          -179.8609         estimate D2E/DX2                !
 ! D26   D(36,6,7,8)           179.8406         estimate D2E/DX2                !
 ! D27   D(36,6,7,37)            0.0419         estimate D2E/DX2                !
 ! D28   D(6,7,8,9)           -179.4038         estimate D2E/DX2                !
 ! D29   D(6,7,8,29)             0.4345         estimate D2E/DX2                !
 ! D30   D(37,7,8,9)             0.3982         estimate D2E/DX2                !
 ! D31   D(37,7,8,29)         -179.7636         estimate D2E/DX2                !
 ! D32   D(7,8,9,10)           179.6452         estimate D2E/DX2                !
 ! D33   D(7,8,9,38)            -0.1336         estimate D2E/DX2                !
 ! D34   D(29,8,9,10)           -0.1921         estimate D2E/DX2                !
 ! D35   D(29,8,9,38)         -179.9708         estimate D2E/DX2                !
 ! D36   D(7,8,29,13)         -179.9482         estimate D2E/DX2                !
 ! D37   D(7,8,29,30)           -0.1459         estimate D2E/DX2                !
 ! D38   D(9,8,29,13)           -0.1047         estimate D2E/DX2                !
 ! D39   D(9,8,29,30)          179.6977         estimate D2E/DX2                !
 ! D40   D(8,9,10,11)            0.1285         estimate D2E/DX2                !
 ! D41   D(8,9,10,39)         -179.5993         estimate D2E/DX2                !
 ! D42   D(38,9,10,11)         179.9043         estimate D2E/DX2                !
 ! D43   D(38,9,10,39)           0.1764         estimate D2E/DX2                !
 ! D44   D(9,10,11,12)        -179.5165         estimate D2E/DX2                !
 ! D45   D(9,10,11,13)           0.2419         estimate D2E/DX2                !
 ! D46   D(39,10,11,12)          0.2225         estimate D2E/DX2                !
 ! D47   D(39,10,11,13)        179.9809         estimate D2E/DX2                !
 ! D48   D(10,11,12,40)        177.6184         estimate D2E/DX2                !
 ! D49   D(13,11,12,40)         -2.1357         estimate D2E/DX2                !
 ! D50   D(10,11,13,14)        179.7493         estimate D2E/DX2                !
 ! D51   D(10,11,13,29)         -0.5371         estimate D2E/DX2                !
 ! D52   D(12,11,13,14)         -0.505          estimate D2E/DX2                !
 ! D53   D(12,11,13,29)        179.2086         estimate D2E/DX2                !
 ! D54   D(11,13,14,15)        -77.1834         estimate D2E/DX2                !
 ! D55   D(11,13,14,28)        103.1054         estimate D2E/DX2                !
 ! D56   D(29,13,14,15)        103.1055         estimate D2E/DX2                !
 ! D57   D(29,13,14,28)        -76.6057         estimate D2E/DX2                !
 ! D58   D(11,13,29,8)           0.4655         estimate D2E/DX2                !
 ! D59   D(11,13,29,30)       -179.334          estimate D2E/DX2                !
 ! D60   D(14,13,29,8)        -179.8235         estimate D2E/DX2                !
 ! D61   D(14,13,29,30)          0.3771         estimate D2E/DX2                !
 ! D62   D(13,14,15,16)         -0.5348         estimate D2E/DX2                !
 ! D63   D(13,14,15,17)        179.7205         estimate D2E/DX2                !
 ! D64   D(28,14,15,16)        179.1788         estimate D2E/DX2                !
 ! D65   D(28,14,15,17)         -0.5659         estimate D2E/DX2                !
 ! D66   D(13,14,28,19)       -179.7816         estimate D2E/DX2                !
 ! D67   D(13,14,28,27)          0.4309         estimate D2E/DX2                !
 ! D68   D(15,14,28,19)          0.5073         estimate D2E/DX2                !
 ! D69   D(15,14,28,27)       -179.2802         estimate D2E/DX2                !
 ! D70   D(14,15,16,41)         -2.1494         estimate D2E/DX2                !
 ! D71   D(17,15,16,41)        177.6037         estimate D2E/DX2                !
 ! D72   D(14,15,17,18)          0.2385         estimate D2E/DX2                !
 ! D73   D(14,15,17,42)        179.9819         estimate D2E/DX2                !
 ! D74   D(16,15,17,18)       -179.519          estimate D2E/DX2                !
 ! D75   D(16,15,17,42)          0.2244         estimate D2E/DX2                !
 ! D76   D(15,17,18,19)          0.151          estimate D2E/DX2                !
 ! D77   D(15,17,18,43)        179.916          estimate D2E/DX2                !
 ! D78   D(42,17,18,19)       -179.5815         estimate D2E/DX2                !
 ! D79   D(42,17,18,43)          0.1835         estimate D2E/DX2                !
 ! D80   D(17,18,19,20)        179.6277         estimate D2E/DX2                !
 ! D81   D(17,18,19,28)         -0.2009         estimate D2E/DX2                !
 ! D82   D(43,18,19,20)         -0.1404         estimate D2E/DX2                !
 ! D83   D(43,18,19,28)       -179.969          estimate D2E/DX2                !
 ! D84   D(18,19,20,21)       -179.3723         estimate D2E/DX2                !
 ! D85   D(18,19,20,44)          0.4258         estimate D2E/DX2                !
 ! D86   D(28,19,20,21)          0.4574         estimate D2E/DX2                !
 ! D87   D(28,19,20,44)       -179.7445         estimate D2E/DX2                !
 ! D88   D(18,19,28,14)         -0.1279         estimate D2E/DX2                !
 ! D89   D(18,19,28,27)        179.6626         estimate D2E/DX2                !
 ! D90   D(20,19,28,14)       -179.9632         estimate D2E/DX2                !
 ! D91   D(20,19,28,27)         -0.1727         estimate D2E/DX2                !
 ! D92   D(19,20,21,22)         -0.0608         estimate D2E/DX2                !
 ! D93   D(19,20,21,45)        179.8379         estimate D2E/DX2                !
 ! D94   D(44,20,21,22)       -179.8556         estimate D2E/DX2                !
 ! D95   D(44,20,21,45)          0.043          estimate D2E/DX2                !
 ! D96   D(20,21,22,23)        179.668          estimate D2E/DX2                !
 ! D97   D(20,21,22,27)         -0.6376         estimate D2E/DX2                !
 ! D98   D(45,21,22,23)         -0.2345         estimate D2E/DX2                !
 ! D99   D(45,21,22,27)        179.4599         estimate D2E/DX2                !
 ! D100  D(21,22,23,24)       -178.1227         estimate D2E/DX2                !
 ! D101  D(27,22,23,24)          2.2023         estimate D2E/DX2                !
 ! D102  D(21,22,27,28)          0.9211         estimate D2E/DX2                !
 ! D103  D(21,22,27,51)        179.7603         estimate D2E/DX2                !
 ! D104  D(23,22,27,28)       -179.4188         estimate D2E/DX2                !
 ! D105  D(23,22,27,51)         -0.5796         estimate D2E/DX2                !
 ! D106  D(22,23,24,25)         68.3266         estimate D2E/DX2                !
 ! D107  D(22,23,24,46)        -57.0231         estimate D2E/DX2                !
 ! D108  D(22,23,24,47)       -173.3507         estimate D2E/DX2                !
 ! D109  D(23,24,25,26)       -140.0473         estimate D2E/DX2                !
 ! D110  D(23,24,25,48)         40.4327         estimate D2E/DX2                !
 ! D111  D(46,24,25,26)        -14.7497         estimate D2E/DX2                !
 ! D112  D(46,24,25,48)        165.7303         estimate D2E/DX2                !
 ! D113  D(47,24,25,26)        104.8367         estimate D2E/DX2                !
 ! D114  D(47,24,25,48)        -74.6832         estimate D2E/DX2                !
 ! D115  D(24,25,26,49)       -178.9245         estimate D2E/DX2                !
 ! D116  D(24,25,26,50)          1.0267         estimate D2E/DX2                !
 ! D117  D(48,25,26,49)          0.563          estimate D2E/DX2                !
 ! D118  D(48,25,26,50)       -179.4859         estimate D2E/DX2                !
 ! D119  D(22,27,28,14)        179.2695         estimate D2E/DX2                !
 ! D120  D(22,27,28,19)         -0.5173         estimate D2E/DX2                !
 ! D121  D(51,27,28,14)          0.3924         estimate D2E/DX2                !
 ! D122  D(51,27,28,19)       -179.3944         estimate D2E/DX2                !
 ! D123  D(8,29,30,5)           -0.524          estimate D2E/DX2                !
 ! D124  D(8,29,30,52)        -179.4057         estimate D2E/DX2                !
 ! D125  D(13,29,30,5)         179.2749         estimate D2E/DX2                !
 ! D126  D(13,29,30,52)          0.3933         estimate D2E/DX2                !
 --------------------------------------------------------------------------------
 Trust Radius=3.00D-01 FncErr=1.00D-07 GrdErr=1.00D-06 EigMax=2.50D+02 EigMin=1.00D-04
 Number of steps in this run=    279 maximum allowed number of steps=    312.
 GradGradGradGradGradGradGradGradGradGradGradGradGradGradGradGradGradGrad

 Leave Link  103 at Sat Jul  5 15:21:09 2025, MaxMem= 13421772800 cpu:               0.8 elap:               0.0
 (Enter /public/software/apps/Gaussian/g16/l202.exe)
 Symmetry turned off by external request.
 Stoichiometry    C26H22O4
 Framework group  C1[X(C26H22O4)]
 Deg. of freedom   150
 Full point group                 C1      NOp   1
                          Input orientation:                          
 ---------------------------------------------------------------------
 Center     Atomic      Atomic             Coordinates (Angstroms)
 Number     Number       Type             X           Y           Z
 ---------------------------------------------------------------------
      1          6           0        1.478824   -2.376124   -1.964672
      2          6           0        0.243769   -2.837847   -1.989774
      3          6           0       -0.817814   -2.384672   -2.950719
      4          8           0       -2.090385   -2.254234   -2.346509
      5          6           0       -2.281207   -1.263270   -1.433971
      6          6           0       -3.569972   -1.230509   -0.852546
      7          6           0       -3.883221   -0.288559    0.080319
      8          6           0       -2.935731    0.673358    0.490296
      9          6           0       -3.226497    1.652020    1.461752
     10          6           0       -2.286107    2.564382    1.842265
     11          6           0       -1.002278    2.542788    1.263312
     12          8           0       -0.110827    3.474791    1.696447
     13          6           0       -0.679640    1.603741    0.301509
     14          6           0        0.681346    1.602727   -0.301018
     15          6           0        1.005006    2.540696   -1.263531
     16          8           0        0.114350    3.472985   -1.697729
     17          6           0        2.289010    2.560845   -1.842129
     18          6           0        3.228596    1.648134   -1.460482
     19          6           0        2.936657    0.670287   -0.488563
     20          6           0        3.883278   -0.292132   -0.077770
     21          6           0        3.568811   -1.233706    0.855052
     22          6           0        2.279622   -1.265568    1.435575
     23          8           0        2.087563   -2.256549    2.347837
     24          6           0        0.813807   -2.388003    2.949282
     25          6           0       -0.245478   -2.840759    1.985618
     26          6           0       -1.481014   -2.380423    1.958976
     27          6           0        1.342384   -0.333956    1.066896
     28          6           0        1.646931    0.644121    0.099293
     29          6           0       -1.646289    0.645939   -0.098096
     30          6           0       -1.343030   -0.332432   -1.065780
     31          1           0        2.211422   -2.743154   -1.267765
     32          1           0        1.814112   -1.607870   -2.642915
     33          1           0       -0.083283   -3.602805   -1.298893
     34          1           0       -0.967529   -3.156121   -3.715476
     35          1           0       -0.524134   -1.452370   -3.450262
     36          1           0       -4.285685   -1.972097   -1.171411
     37          1           0       -4.867987   -0.267616    0.524253
     38          1           0       -4.210445    1.667726    1.906913
     39          1           0       -2.488963    3.315929    2.588317
     40          1           0        0.740723    3.337577    1.257225
     41          1           0       -0.737480    3.336607   -1.258788
     42          1           0        2.492668    3.311605   -2.588752
     43          1           0        4.212757    1.662810   -1.905207
     44          1           0        4.868337   -0.271914   -0.521088
     45          1           0        4.283818   -1.975714    1.174526
     46          1           0        0.518649   -1.456332    3.449133
     47          1           0        0.962240   -3.160117    3.713622
     48          1           0        0.083710   -3.604253    1.294112
     49          1           0       -2.211925   -2.747286    1.260215
     50          1           0       -1.818468   -1.613677    2.637845
     51          1           0        0.352030   -0.336970    1.489819
     52          1           0       -0.352901   -0.336218   -1.489197
 ---------------------------------------------------------------------
 Rotational constants (GHZ):           0.1853762           0.1728302           0.1417225
 Leave Link  202 at Sat Jul  5 15:21:09 2025, MaxMem= 13421772800 cpu:               1.4 elap:               0.1
 (Enter /public/software/apps/Gaussian/g16/l301.exe)
 Standard basis: def2SVPP (5D, 7F)
 Ernie: Thresh=  0.10000D-02 Tol=  0.10000D-05 Strict=F.
   464 basis functions,   838 primitive gaussians,   494 cartesian basis functions
   105 alpha electrons      105 beta electrons
       nuclear repulsion energy      2983.6070234721 Hartrees.
 IExCor=  402 DFT=T Ex+Corr=B3LYP ExCW=0 ScaHFX=  0.200000
 ScaDFX=  0.800000  0.720000  1.000000  0.810000 ScalE2=  1.000000  1.000000
 IRadAn=      5 IRanWt=     -1 IRanGd=            0 ICorTp=0 IEmpDi=141
 NAtoms=   52 NActive=   52 NUniq=   52 SFac= 1.00D+00 NAtFMM=   60 NAOKFM=F Big=F
 Integral buffers will be    131072 words long.
 Raffenetti 2 integral format.
 Two-electron integral symmetry is turned off.
 R6Disp:  Grimme-D3(BJ) Dispersion energy=       -0.1396080541 Hartrees.
 Nuclear repulsion after empirical dispersion term =     2983.4674154181 Hartrees.
 Leave Link  301 at Sat Jul  5 15:21:09 2025, MaxMem= 13421772800 cpu:               1.4 elap:               0.1
 (Enter /public/software/apps/Gaussian/g16/l302.exe)
 NPDir=0 NMtPBC=     1 NCelOv=     1 NCel=       1 NClECP=     1 NCelD=      1
         NCelK=      1 NCelE2=     1 NClLst=     1 CellRange=     0.0.
 One-electron integrals computed using PRISM.
   1 Symmetry operations used in ECPInt.
 ECPInt:  NShTT=   25200 NPrTT=  101032 LenC2=   23489 LenP2D=   62199.
 LDataN:  DoStor=T MaxTD1= 4 Len=   56
 NBasis=   464 RedAO= T EigKep=  1.68D-04  NBF=   464
 NBsUse=   464 1.00D-06 EigRej= -1.00D+00 NBFU=   464
 Precomputing XC quadrature grid using
 IXCGrd= 4 IRadAn=           5 IRanWt=          -1 IRanGd=           0 AccXCQ= 0.00D+00.
 Generated NRdTot=       0 NPtTot=           0 NUsed=           0 NTot=          32
 NSgBfM=   490   490   490   490   490 MxSgAt=    52 MxSgA2=    52.
 Leave Link  302 at Sat Jul  5 15:21:09 2025, MaxMem= 13421772800 cpu:              15.1 elap:               0.5
 (Enter /public/software/apps/Gaussian/g16/l303.exe)
 DipDrv:  MaxL=1.
 Leave Link  303 at Sat Jul  5 15:21:09 2025, MaxMem= 13421772800 cpu:               1.5 elap:               0.1
 (Enter /public/software/apps/Gaussian/g16/l401.exe)
 ExpMin= 1.22D-01 ExpMax= 2.27D+03 ExpMxC= 3.41D+02 IAcc=3 IRadAn=         5 AccDes= 0.00D+00
 Harris functional with IExCor=  402 and IRadAn=       5 diagonalized for initial guess.
 HarFok:  IExCor=  402 AccDes= 0.00D+00 IRadAn=         5 IDoV= 1 UseB2=F ITyADJ=14
 ICtDFT=  3500011 ScaDFX=  1.000000  1.000000  1.000000  1.000000
 FoFCou: FMM=F IPFlag=           0 FMFlag=      100000 FMFlg1=           0
         NFxFlg=           0 DoJE=T BraDBF=F KetDBF=T FulRan=T
         wScrn=  0.000000 ICntrl=       500 IOpCl=  0 I1Cent=   200000004 NGrid=           0
         NMat0=    1 NMatS0=      1 NMatT0=    0 NMatD0=    1 NMtDS0=    0 NMtDT0=    0
 Symmetry not used in FoFCou.
 Harris En= -1303.98721019994    
 JPrj=0 DoOrth=F DoCkMO=F.
 Leave Link  401 at Sat Jul  5 15:21:11 2025, MaxMem= 13421772800 cpu:              39.4 elap:               1.3
 (Enter /public/software/apps/Gaussian/g16/l502.exe)
 Two-electron integral symmetry not used.
 Closed shell SCF:
 Using DIIS extrapolation, IDIIS=  1040.
 NGot= 13421772800 LenX= 13421263476 LenY= 13421018946
 Requested convergence on RMS density matrix=1.00D-08 within 128 cycles.
 Requested convergence on MAX density matrix=1.00D-06.
 Requested convergence on             energy=1.00D-06.
 No special actions if energy rises.
 Fock matrices will be formed incrementally for  20 cycles.
 Integral accuracy reduced to 1.0D-05 until final iterations.

 Cycle   1  Pass 0  IDiag  1:
 FoFJK:  IHMeth= 1 ICntrl=       0 DoSepK=F KAlg= 0 I1Cent=           0 FoldK=F
 IRaf= 870000000 NMat=       1 IRICut=       1 DoRegI=T DoRafI=F ISym2E= 0 IDoP0=0 IntGTp=1.
 FoFCou: FMM=F IPFlag=           0 FMFlag=      100000 FMFlg1=           0
         NFxFlg=           0 DoJE=F BraDBF=F KetDBF=F FulRan=T
         wScrn=  0.000000 ICntrl=         0 IOpCl=  0 I1Cent=           0 NGrid=           0
         NMat0=    1 NMatS0=      1 NMatT0=    0 NMatD0=    1 NMtDS0=    0 NMtDT0=    0
 Symmetry not used in FoFCou.
 E= -1303.39683617282    
 DIIS: error= 2.09D-02 at cycle   1 NSaved=   1.
 NSaved= 1 IEnMin= 1 EnMin= -1303.39683617282     IErMin= 1 ErrMin= 2.09D-02
 ErrMax= 2.09D-02  0.00D+00 EMaxC= 1.00D-01 BMatC= 5.40D-01 BMatP= 5.40D-01
 IDIUse=3 WtCom= 7.91D-01 WtEn= 2.09D-01
 Coeff-Com:  0.100D+01
 Coeff-En:   0.100D+01
 Coeff:      0.100D+01
 Gap=     0.178 Goal=   None    Shift=    0.000
 GapD=    0.178 DampG=1.000 DampE=0.500 DampFc=0.5000 IDamp=-1.
 Damping current iteration by 5.00D-01
 RMSDP=5.69D-03 MaxDP=2.00D-01              OVMax= 1.66D-01

 Cycle   2  Pass 0  IDiag  1:
 RMSU=  2.56D-03    CP:  9.39D-01
 E= -1303.67868206048     Delta-E=       -0.281845887659 Rises=F Damp=T
 DIIS: error= 3.60D-03 at cycle   2 NSaved=   2.
 NSaved= 2 IEnMin= 2 EnMin= -1303.67868206048     IErMin= 2 ErrMin= 3.60D-03
 ErrMax= 3.60D-03  0.00D+00 EMaxC= 1.00D-01 BMatC= 2.76D-02 BMatP= 5.40D-01
 IDIUse=3 WtCom= 9.64D-01 WtEn= 3.60D-02
 Coeff-Com:  0.164D-01 0.984D+00
 Coeff-En:   0.840D-02 0.992D+00
 Coeff:      0.161D-01 0.984D+00
 Gap=     0.176 Goal=   None    Shift=    0.000
 RMSDP=2.18D-03 MaxDP=1.04D-01 DE=-2.82D-01 OVMax= 1.28D-01

 Cycle   3  Pass 0  IDiag  1:
 RMSU=  1.94D-03    CP:  8.93D-01  1.16D+00
 E= -1303.95812563744     Delta-E=       -0.279443576965 Rises=F Damp=F
 DIIS: error= 6.40D-03 at cycle   3 NSaved=   3.
 NSaved= 3 IEnMin= 3 EnMin= -1303.95812563744     IErMin= 2 ErrMin= 3.60D-03
 ErrMax= 6.40D-03  0.00D+00 EMaxC= 1.00D-01 BMatC= 3.44D-02 BMatP= 2.76D-02
 IDIUse=3 WtCom= 1.11D-01 WtEn= 8.89D-01
 Coeff-Com: -0.317D-01 0.548D+00 0.483D+00
 Coeff-En:   0.000D+00 0.000D+00 0.100D+01
 Coeff:     -0.353D-02 0.609D-01 0.943D+00
 Gap=     0.167 Goal=   None    Shift=    0.000
 RMSDP=1.69D-03 MaxDP=4.30D-02 DE=-2.79D-01 OVMax= 1.03D-01

 Cycle   4  Pass 0  IDiag  1:
 RMSU=  1.11D-03    CP:  8.94D-01  1.33D+00  3.75D-01
 E= -1303.87615507649     Delta-E=        0.081970560952 Rises=F Damp=F
 DIIS: error= 1.28D-02 at cycle   4 NSaved=   4.
 NSaved= 4 IEnMin= 3 EnMin= -1303.95812563744     IErMin= 2 ErrMin= 3.60D-03
 ErrMax= 1.28D-02  0.00D+00 EMaxC= 1.00D-01 BMatC= 1.14D-01 BMatP= 2.76D-02
 IDIUse=2 WtCom= 0.00D+00 WtEn= 1.00D+00
 Coeff-En:   0.000D+00 0.000D+00 0.719D+00 0.281D+00
 Coeff:      0.000D+00 0.000D+00 0.719D+00 0.281D+00
 Gap=     0.168 Goal=   None    Shift=    0.000
 RMSDP=8.33D-04 MaxDP=1.98D-02 DE= 8.20D-02 OVMax= 5.30D-02

 Cycle   5  Pass 0  IDiag  1:
 RMSU=  1.60D-04    CP:  8.93D-01  1.25D+00  6.82D-01  5.27D-01
 E= -1303.98829336006     Delta-E=       -0.112138283571 Rises=F Damp=F
 DIIS: error= 2.67D-03 at cycle   5 NSaved=   5.
 NSaved= 5 IEnMin= 5 EnMin= -1303.98829336006     IErMin= 5 ErrMin= 2.67D-03
 ErrMax= 2.67D-03  0.00D+00 EMaxC= 1.00D-01 BMatC= 5.53D-03 BMatP= 2.76D-02
 IDIUse=3 WtCom= 9.73D-01 WtEn= 2.67D-02
 Coeff-Com:  0.485D-02 0.136D-01 0.363D+00 0.837D-01 0.534D+00
 Coeff-En:   0.000D+00 0.000D+00 0.163D+00 0.000D+00 0.837D+00
 Coeff:      0.472D-02 0.133D-01 0.358D+00 0.815D-01 0.542D+00
 Gap=     0.169 Goal=   None    Shift=    0.000
 RMSDP=2.54D-04 MaxDP=1.42D-02 DE=-1.12D-01 OVMax= 1.50D-02

 Cycle   6  Pass 0  IDiag  1:
 RMSU=  9.81D-05    CP:  8.92D-01  1.22D+00  7.69D-01  4.05D-01  6.68D-01
 E= -1303.99373821094     Delta-E=       -0.005444850879 Rises=F Damp=F
 DIIS: error= 4.94D-04 at cycle   6 NSaved=   6.
 NSaved= 6 IEnMin= 6 EnMin= -1303.99373821094     IErMin= 6 ErrMin= 4.94D-04
 ErrMax= 4.94D-04  0.00D+00 EMaxC= 1.00D-01 BMatC= 1.45D-04 BMatP= 5.53D-03
 IDIUse=3 WtCom= 9.95D-01 WtEn= 4.94D-03
 Coeff-Com:  0.282D-02-0.663D-02 0.141D+00 0.331D-02 0.367D+00 0.492D+00
 Coeff-En:   0.000D+00 0.000D+00 0.000D+00 0.000D+00 0.000D+00 0.100D+01
 Coeff:      0.281D-02-0.660D-02 0.140D+00 0.329D-02 0.366D+00 0.495D+00
 Gap=     0.169 Goal=   None    Shift=    0.000
 RMSDP=5.32D-05 MaxDP=2.94D-03 DE=-5.44D-03 OVMax= 5.10D-03

 Cycle   7  Pass 0  IDiag  1:
 RMSU=  2.98D-05    CP:  8.92D-01  1.22D+00  7.74D-01  4.01D-01  7.32D-01
                    CP:  5.84D-01
 E= -1303.99388256525     Delta-E=       -0.000144354309 Rises=F Damp=F
 DIIS: error= 1.37D-04 at cycle   7 NSaved=   7.
 NSaved= 7 IEnMin= 7 EnMin= -1303.99388256525     IErMin= 7 ErrMin= 1.37D-04
 ErrMax= 1.37D-04  0.00D+00 EMaxC= 1.00D-01 BMatC= 1.49D-05 BMatP= 1.45D-04
 IDIUse=3 WtCom= 9.99D-01 WtEn= 1.37D-03
 Coeff-Com:  0.120D-02-0.470D-02 0.520D-01-0.807D-02 0.181D+00 0.315D+00
 Coeff-Com:  0.463D+00
 Coeff-En:   0.000D+00 0.000D+00 0.000D+00 0.000D+00 0.000D+00 0.321D-01
 Coeff-En:   0.968D+00
 Coeff:      0.120D-02-0.469D-02 0.520D-01-0.806D-02 0.181D+00 0.315D+00
 Coeff:      0.464D+00
 Gap=     0.169 Goal=   None    Shift=    0.000
 RMSDP=1.45D-05 MaxDP=6.61D-04 DE=-1.44D-04 OVMax= 1.44D-03

 Cycle   8  Pass 0  IDiag  1:
 RMSU=  8.17D-06    CP:  8.92D-01  1.22D+00  7.75D-01  4.00D-01  7.31D-01
                    CP:  6.06D-01  6.09D-01
 E= -1303.99390002120     Delta-E=       -0.000017455953 Rises=F Damp=F
 DIIS: error= 2.57D-05 at cycle   8 NSaved=   8.
 NSaved= 8 IEnMin= 8 EnMin= -1303.99390002120     IErMin= 8 ErrMin= 2.57D-05
 ErrMax= 2.57D-05  0.00D+00 EMaxC= 1.00D-01 BMatC= 8.42D-07 BMatP= 1.49D-05
 IDIUse=1 WtCom= 1.00D+00 WtEn= 0.00D+00
 Coeff-Com:  0.432D-03-0.200D-02 0.162D-01-0.540D-02 0.695D-01 0.130D+00
 Coeff-Com:  0.255D+00 0.536D+00
 Coeff:      0.432D-03-0.200D-02 0.162D-01-0.540D-02 0.695D-01 0.130D+00
 Coeff:      0.255D+00 0.536D+00
 Gap=     0.169 Goal=   None    Shift=    0.000
 RMSDP=4.35D-06 MaxDP=1.23D-04 DE=-1.75D-05 OVMax= 2.92D-04

 Initial convergence to 1.0D-05 achieved.  Increase integral accuracy.
 Cycle   9  Pass 1  IDiag  1:
 E= -1303.99392714083     Delta-E=       -0.000027119626 Rises=F Damp=F
 DIIS: error= 2.67D-04 at cycle   1 NSaved=   1.
 NSaved= 1 IEnMin= 1 EnMin= -1303.99392714083     IErMin= 1 ErrMin= 2.67D-04
 ErrMax= 2.67D-04  0.00D+00 EMaxC= 1.00D-01 BMatC= 1.64D-05 BMatP= 1.64D-05
 IDIUse=3 WtCom= 9.97D-01 WtEn= 2.67D-03
 Coeff-Com:  0.100D+01
 Coeff-En:   0.100D+01
 Coeff:      0.100D+01
 Gap=     0.169 Goal=   None    Shift=    0.000
 RMSDP=4.35D-06 MaxDP=1.23D-04 DE=-2.71D-05 OVMax= 5.06D-04

 Cycle  10  Pass 1  IDiag  1:
 RMSU=  3.75D-04    CP:  9.99D-01
 E= -1303.99394259769     Delta-E=       -0.000015456862 Rises=F Damp=F
 DIIS: error= 1.82D-05 at cycle   2 NSaved=   2.
 NSaved= 2 IEnMin= 2 EnMin= -1303.99394259769     IErMin= 2 ErrMin= 1.82D-05
 ErrMax= 1.82D-05  0.00D+00 EMaxC= 1.00D-01 BMatC= 3.03D-07 BMatP= 1.64D-05
 IDIUse=1 WtCom= 1.00D+00 WtEn= 0.00D+00
 Coeff-Com:  0.194D-01 0.981D+00
 Coeff:      0.194D-01 0.981D+00
 Gap=     0.169 Goal=   None    Shift=    0.000
 RMSDP=6.38D-06 MaxDP=1.42D-04 DE=-1.55D-05 OVMax= 3.99D-04

 Cycle  11  Pass 1  IDiag  1:
 RMSU=  4.75D-06    CP:  9.99D-01  1.01D+00
 E= -1303.99394178814     Delta-E=        0.000000809551 Rises=F Damp=F
 DIIS: error= 2.98D-05 at cycle   3 NSaved=   3.
 NSaved= 3 IEnMin= 2 EnMin= -1303.99394259769     IErMin= 2 ErrMin= 1.82D-05
 ErrMax= 2.98D-05  0.00D+00 EMaxC= 1.00D-01 BMatC= 1.04D-06 BMatP= 3.03D-07
 IDIUse=1 WtCom= 1.00D+00 WtEn= 0.00D+00
 Coeff-Com: -0.520D-02 0.654D+00 0.351D+00
 Coeff:     -0.520D-02 0.654D+00 0.351D+00
 Gap=     0.169 Goal=   None    Shift=    0.000
 RMSDP=3.14D-06 MaxDP=1.03D-04 DE= 8.10D-07 OVMax= 2.88D-04

 Cycle  12  Pass 1  IDiag  1:
 RMSU=  8.97D-07    CP:  9.99D-01  1.01D+00  3.68D-01
 E= -1303.99394290663     Delta-E=       -0.000001118495 Rises=F Damp=F
 DIIS: error= 2.96D-06 at cycle   4 NSaved=   4.
 NSaved= 4 IEnMin= 4 EnMin= -1303.99394290663     IErMin= 4 ErrMin= 2.96D-06
 ErrMax= 2.96D-06  0.00D+00 EMaxC= 1.00D-01 BMatC= 1.15D-08 BMatP= 3.03D-07
 IDIUse=1 WtCom= 1.00D+00 WtEn= 0.00D+00
 Coeff-Com: -0.358D-02 0.406D+00 0.225D+00 0.373D+00
 Coeff:     -0.358D-02 0.406D+00 0.225D+00 0.373D+00
 Gap=     0.169 Goal=   None    Shift=    0.000
 RMSDP=3.68D-07 MaxDP=1.40D-05 DE=-1.12D-06 OVMax= 3.98D-05

 Cycle  13  Pass 1  IDiag  1:
 RMSU=  2.96D-07    CP:  9.99D-01  1.01D+00  3.90D-01  7.88D-01
 E= -1303.99394291791     Delta-E=       -0.000000011274 Rises=F Damp=F
 DIIS: error= 9.55D-07 at cycle   5 NSaved=   5.
 NSaved= 5 IEnMin= 5 EnMin= -1303.99394291791     IErMin= 5 ErrMin= 9.55D-07
 ErrMax= 9.55D-07  0.00D+00 EMaxC= 1.00D-01 BMatC= 4.10D-10 BMatP= 1.15D-08
 IDIUse=1 WtCom= 1.00D+00 WtEn= 0.00D+00
 Coeff-Com: -0.176D-02 0.195D+00 0.109D+00 0.217D+00 0.480D+00
 Coeff:     -0.176D-02 0.195D+00 0.109D+00 0.217D+00 0.480D+00
 Gap=     0.169 Goal=   None    Shift=    0.000
 RMSDP=1.00D-07 MaxDP=7.22D-06 DE=-1.13D-08 OVMax= 7.74D-06

 Cycle  14  Pass 1  IDiag  1:
 RMSU=  8.34D-08    CP:  9.99D-01  1.01D+00  3.87D-01  7.96D-01  8.25D-01
 E= -1303.99394291829     Delta-E=       -0.000000000386 Rises=F Damp=F
 DIIS: error= 3.23D-07 at cycle   6 NSaved=   6.
 NSaved= 6 IEnMin= 6 EnMin= -1303.99394291829     IErMin= 6 ErrMin= 3.23D-07
 ErrMax= 3.23D-07  0.00D+00 EMaxC= 1.00D-01 BMatC= 6.00D-11 BMatP= 4.10D-10
 IDIUse=1 WtCom= 1.00D+00 WtEn= 0.00D+00
 Coeff-Com: -0.377D-03 0.402D-01 0.229D-01 0.582D-01 0.294D+00 0.585D+00
 Coeff:     -0.377D-03 0.402D-01 0.229D-01 0.582D-01 0.294D+00 0.585D+00
 Gap=     0.169 Goal=   None    Shift=    0.000
 RMSDP=3.25D-08 MaxDP=1.33D-06 DE=-3.86D-10 OVMax= 2.41D-06

 Cycle  15  Pass 1  IDiag  1:
 RMSU=  2.20D-08    CP:  9.99D-01  1.01D+00  3.88D-01  7.98D-01  8.84D-01
                    CP:  8.15D-01
 E= -1303.99394291835     Delta-E=       -0.000000000055 Rises=F Damp=F
 DIIS: error= 1.41D-07 at cycle   7 NSaved=   7.
 NSaved= 7 IEnMin= 7 EnMin= -1303.99394291835     IErMin= 7 ErrMin= 1.41D-07
 ErrMax= 1.41D-07  0.00D+00 EMaxC= 1.00D-01 BMatC= 1.14D-11 BMatP= 6.00D-11
 IDIUse=1 WtCom= 1.00D+00 WtEn= 0.00D+00
 Coeff-Com: -0.326D-05-0.654D-03 0.299D-04 0.763D-02 0.125D+00 0.374D+00
 Coeff-Com:  0.495D+00
 Coeff:     -0.326D-05-0.654D-03 0.299D-04 0.763D-02 0.125D+00 0.374D+00
 Coeff:      0.495D+00
 Gap=     0.169 Goal=   None    Shift=    0.000
 RMSDP=1.29D-08 MaxDP=3.52D-07 DE=-5.46D-11 OVMax= 9.36D-07

 Cycle  16  Pass 1  IDiag  1:
 RMSU=  6.63D-09    CP:  9.99D-01  1.01D+00  3.88D-01  8.02D-01  8.81D-01
                    CP:  8.13D-01  5.48D-01
 E= -1303.99394291834     Delta-E=        0.000000000007 Rises=F Damp=F
 DIIS: error= 3.69D-08 at cycle   8 NSaved=   8.
 NSaved= 8 IEnMin= 7 EnMin= -1303.99394291835     IErMin= 8 ErrMin= 3.69D-08
 ErrMax= 3.69D-08  0.00D+00 EMaxC= 1.00D-01 BMatC= 7.33D-13 BMatP= 1.14D-11
 IDIUse=1 WtCom= 1.00D+00 WtEn= 0.00D+00
 Coeff-Com:  0.280D-04-0.358D-02-0.178D-02-0.233D-03 0.481D-01 0.169D+00
 Coeff-Com:  0.290D+00 0.498D+00
 Coeff:      0.280D-04-0.358D-02-0.178D-02-0.233D-03 0.481D-01 0.169D+00
 Coeff:      0.290D+00 0.498D+00
 Gap=     0.169 Goal=   None    Shift=    0.000
 RMSDP=2.75D-09 MaxDP=7.46D-08 DE= 7.28D-12 OVMax= 2.38D-07

 SCF Done:  E(RB3LYP) =  -1303.99394292     A.U. after   16 cycles
            NFock= 16  Conv=0.27D-08     -V/T= 2.0091
 KE= 1.292191103959D+03 PE=-8.997721635848D+03 EE= 3.418069173553D+03
 Leave Link  502 at Sat Jul  5 15:21:54 2025, MaxMem= 13421772800 cpu:            1373.9 elap:              43.2
 (Enter /public/software/apps/Gaussian/g16/l601.exe)
 Copying SCF densities to generalized density rwf, IOpCl= 0 IROHF=0.

 **********************************************************************

            Population analysis using the SCF Density.

 **********************************************************************

 Alpha  occ. eigenvalues --  -19.16612 -19.16611 -19.16213 -19.16209 -10.25446
 Alpha  occ. eigenvalues --  -10.25446 -10.24805 -10.24804 -10.24270 -10.24269
 Alpha  occ. eigenvalues --  -10.20012 -10.20007 -10.19371 -10.19362 -10.19361
 Alpha  occ. eigenvalues --  -10.19350 -10.19051 -10.19051 -10.19018 -10.19015
 Alpha  occ. eigenvalues --  -10.19009 -10.19008 -10.18566 -10.18565 -10.18310
 Alpha  occ. eigenvalues --  -10.18310 -10.17960 -10.17957 -10.17610 -10.17604
 Alpha  occ. eigenvalues --   -1.06268  -1.06266  -1.05808  -1.05182  -0.88325
 Alpha  occ. eigenvalues --   -0.87191  -0.82627  -0.82114  -0.79634  -0.79138
 Alpha  occ. eigenvalues --   -0.78984  -0.76072  -0.74259  -0.74204  -0.73067
 Alpha  occ. eigenvalues --   -0.70936  -0.69320  -0.68934  -0.64528  -0.63099
 Alpha  occ. eigenvalues --   -0.61906  -0.61072  -0.60996  -0.58917  -0.57530
 Alpha  occ. eigenvalues --   -0.57050  -0.56130  -0.55483  -0.54553  -0.54125
 Alpha  occ. eigenvalues --   -0.52875  -0.50713  -0.48876  -0.48782  -0.48263
 Alpha  occ. eigenvalues --   -0.47632  -0.46882  -0.46768  -0.46004  -0.45371
 Alpha  occ. eigenvalues --   -0.45271  -0.44717  -0.44162  -0.44002  -0.43710
 Alpha  occ. eigenvalues --   -0.42458  -0.42160  -0.41739  -0.41668  -0.40665
 Alpha  occ. eigenvalues --   -0.40327  -0.39754  -0.39629  -0.38723  -0.38720
 Alpha  occ. eigenvalues --   -0.37664  -0.37084  -0.36500  -0.36479  -0.35789
 Alpha  occ. eigenvalues --   -0.34499  -0.34498  -0.33644  -0.33240  -0.32949
 Alpha  occ. eigenvalues --   -0.29499  -0.29341  -0.29094  -0.29083  -0.27414
 Alpha  occ. eigenvalues --   -0.27066  -0.22491  -0.22451  -0.21767  -0.21346
 Alpha virt. eigenvalues --   -0.04420  -0.04043  -0.01322  -0.00852   0.00172
 Alpha virt. eigenvalues --    0.00195   0.02337   0.02740   0.05949   0.06055
 Alpha virt. eigenvalues --    0.07001   0.07144   0.07592   0.08041   0.08810
 Alpha virt. eigenvalues --    0.09289   0.09848   0.10099   0.10249   0.10308
 Alpha virt. eigenvalues --    0.10635   0.11475   0.12423   0.12814   0.13366
 Alpha virt. eigenvalues --    0.14930   0.15035   0.15454   0.16253   0.16343
 Alpha virt. eigenvalues --    0.16410   0.16778   0.17614   0.18787   0.19392
 Alpha virt. eigenvalues --    0.19543   0.19874   0.22867   0.23221   0.24707
 Alpha virt. eigenvalues --    0.25106   0.25126   0.26093   0.26931   0.27565
 Alpha virt. eigenvalues --    0.28031   0.28811   0.29092   0.29569   0.29607
 Alpha virt. eigenvalues --    0.30000   0.31754   0.31896   0.32342   0.33417
 Alpha virt. eigenvalues --    0.33545   0.34624   0.35421   0.35947   0.36122
 Alpha virt. eigenvalues --    0.37603   0.38331   0.39742   0.40068   0.40552
 Alpha virt. eigenvalues --    0.40951   0.41881   0.42289   0.42299   0.42828
 Alpha virt. eigenvalues --    0.43597   0.44038   0.44687   0.45338   0.45344
 Alpha virt. eigenvalues --    0.45964   0.46859   0.47096   0.47316   0.48039
 Alpha virt. eigenvalues --    0.49163   0.49175   0.49402   0.49412   0.49821
 Alpha virt. eigenvalues --    0.49826   0.50141   0.50343   0.51892   0.52749
 Alpha virt. eigenvalues --    0.52895   0.53595   0.53622   0.54603   0.54678
 Alpha virt. eigenvalues --    0.55166   0.55459   0.55973   0.56321   0.56926
 Alpha virt. eigenvalues --    0.58098   0.58120   0.59303   0.59946   0.60341
 Alpha virt. eigenvalues --    0.60911   0.61584   0.62474   0.62511   0.63078
 Alpha virt. eigenvalues --    0.63998   0.65343   0.65571   0.66191   0.66281
 Alpha virt. eigenvalues --    0.66825   0.67282   0.67353   0.67695   0.67845
 Alpha virt. eigenvalues --    0.68743   0.69068   0.69630   0.69886   0.70184
 Alpha virt. eigenvalues --    0.70856   0.70925   0.71706   0.71784   0.72368
 Alpha virt. eigenvalues --    0.73132   0.73523   0.73584   0.74061   0.75400
 Alpha virt. eigenvalues --    0.75972   0.76308   0.77053   0.77208   0.77609
 Alpha virt. eigenvalues --    0.78310   0.78883   0.79373   0.79701   0.79887
 Alpha virt. eigenvalues --    0.80061   0.80546   0.80731   0.82660   0.82780
 Alpha virt. eigenvalues --    0.83355   0.83406   0.83900   0.85163   0.85855
 Alpha virt. eigenvalues --    0.86190   0.86775   0.87971   0.89474   0.89792
 Alpha virt. eigenvalues --    0.90021   0.91507   0.92203   0.92545   0.95139
 Alpha virt. eigenvalues --    0.95281   0.98558   0.99463   1.01862   1.02249
 Alpha virt. eigenvalues --    1.03605   1.04354   1.05589   1.07377   1.07604
 Alpha virt. eigenvalues --    1.08294   1.09037   1.09052   1.12404   1.13135
 Alpha virt. eigenvalues --    1.14206   1.15256   1.15970   1.17101   1.17869
 Alpha virt. eigenvalues --    1.19551   1.19588   1.20541   1.21942   1.24215
 Alpha virt. eigenvalues --    1.24317   1.25181   1.26275   1.26843   1.27938
 Alpha virt. eigenvalues --    1.31374   1.31402   1.31858   1.33368   1.34681
 Alpha virt. eigenvalues --    1.37283   1.39009   1.39243   1.40008   1.42109
 Alpha virt. eigenvalues --    1.42495   1.42905   1.44536   1.45294   1.46192
 Alpha virt. eigenvalues --    1.46604   1.47356   1.47796   1.47944   1.48931
 Alpha virt. eigenvalues --    1.49374   1.49627   1.51192   1.51502   1.52136
 Alpha virt. eigenvalues --    1.53554   1.54334   1.55501   1.60080   1.61004
 Alpha virt. eigenvalues --    1.62928   1.64067   1.67262   1.68135   1.68375
 Alpha virt. eigenvalues --    1.71924   1.72105   1.73567   1.74060   1.74263
 Alpha virt. eigenvalues --    1.74934   1.75195   1.77172   1.78426   1.79547
 Alpha virt. eigenvalues --    1.80108   1.80753   1.83422   1.83520   1.84105
 Alpha virt. eigenvalues --    1.85522   1.85716   1.85974   1.86803   1.87079
 Alpha virt. eigenvalues --    1.88850   1.88866   1.89639   1.90783   1.91085
 Alpha virt. eigenvalues --    1.92435   1.95602   1.96438   1.97465   1.97869
 Alpha virt. eigenvalues --    1.99319   2.00911   2.02304   2.03419   2.04150
 Alpha virt. eigenvalues --    2.04547   2.06446   2.06580   2.07921   2.08023
 Alpha virt. eigenvalues --    2.08685   2.09765   2.10823   2.11899   2.12431
 Alpha virt. eigenvalues --    2.13258   2.13771   2.15083   2.15410   2.16151
 Alpha virt. eigenvalues --    2.17057   2.18708   2.20338   2.21728   2.23229
 Alpha virt. eigenvalues --    2.24007   2.25003   2.25876   2.26106   2.26111
 Alpha virt. eigenvalues --    2.26927   2.27647   2.28625   2.32590   2.32982
 Alpha virt. eigenvalues --    2.33877   2.35352   2.37304   2.38911   2.39215
 Alpha virt. eigenvalues --    2.40910   2.43393   2.43664   2.44377   2.45549
 Alpha virt. eigenvalues --    2.46104   2.48512   2.50260   2.53926   2.55152
 Alpha virt. eigenvalues --    2.57005   2.58290   2.59421   2.60696   2.61805
 Alpha virt. eigenvalues --    2.62098   2.62961   2.63434   2.66388   2.67252
 Alpha virt. eigenvalues --    2.68337   2.69625   2.70359   2.71071   2.71125
 Alpha virt. eigenvalues --    2.72368   2.72443   2.73339   2.75507   2.81930
 Alpha virt. eigenvalues --    2.81989   2.83348   2.86888   2.87244   2.87674
 Alpha virt. eigenvalues --    2.87834   2.90132   2.92735   2.93781   2.96219
 Alpha virt. eigenvalues --    2.98903   3.00212   3.01768   3.02306   3.02695
 Alpha virt. eigenvalues --    3.06400   3.06480   3.16991   3.19386   3.30378
 Alpha virt. eigenvalues --    3.32004   3.33284   3.34546   3.43399   3.43664
 Alpha virt. eigenvalues --    3.55413   3.58102   3.61033   3.62975
          Condensed to atoms (all electrons):
 Mulliken charges:
               1
     1  C   -0.175442
     2  C   -0.172184
     3  C    0.110679
     4  O   -0.313117
     5  C    0.332436
     6  C   -0.108023
     7  C   -0.130212
     8  C    0.143022
     9  C   -0.112528
    10  C   -0.128706
    11  C    0.181244
    12  O   -0.362408
    13  C   -0.155770
    14  C   -0.155769
    15  C    0.181218
    16  O   -0.362427
    17  C   -0.128722
    18  C   -0.112530
    19  C    0.143012
    20  C   -0.130203
    21  C   -0.108009
    22  C    0.332446
    23  O   -0.313088
    24  C    0.110714
    25  C   -0.172228
    26  C   -0.175513
    27  C   -0.314867
    28  C    0.171442
    29  C    0.171391
    30  C   -0.314925
    31  H    0.115466
    32  H    0.097899
    33  H    0.084225
    34  H    0.098450
    35  H    0.083120
    36  H    0.039322
    37  H    0.033780
    38  H    0.035512
    39  H    0.039190
    40  H    0.336620
    41  H    0.336609
    42  H    0.039185
    43  H    0.035518
    44  H    0.033785
    45  H    0.039323
    46  H    0.083143
    47  H    0.098464
    48  H    0.084238
    49  H    0.115529
    50  H    0.097859
    51  H    0.070902
    52  H    0.070930
 Sum of Mulliken charges =  -0.00000
 Mulliken charges with hydrogens summed into heavy atoms:
               1
     1  C    0.037923
     2  C   -0.087960
     3  C    0.292249
     4  O   -0.313117
     5  C    0.332436
     6  C   -0.068701
     7  C   -0.096432
     8  C    0.143022
     9  C   -0.077016
    10  C   -0.089516
    11  C    0.181244
    12  O   -0.025788
    13  C   -0.155770
    14  C   -0.155769
    15  C    0.181218
    16  O   -0.025818
    17  C   -0.089537
    18  C   -0.077013
    19  C    0.143012
    20  C   -0.096419
    21  C   -0.068686
    22  C    0.332446
    23  O   -0.313088
    24  C    0.292321
    25  C   -0.087990
    26  C    0.037875
    27  C   -0.243965
    28  C    0.171442
    29  C    0.171391
    30  C   -0.243995
 Electronic spatial extent (au):  <R**2>=           9290.8927
 Charge=             -0.0000 electrons
 Dipole moment (field-independent basis, Debye):
    X=             -0.0013    Y=             -1.5222    Z=             -0.0022  Tot=              1.5222
 Quadrupole moment (field-independent basis, Debye-Ang):
   XX=           -164.3035   YY=           -177.8878   ZZ=           -171.7395
   XY=             -0.0046   XZ=             -8.2939   YZ=              0.0022
 Traceless Quadrupole moment (field-independent basis, Debye-Ang):
   XX=              7.0067   YY=             -6.5775   ZZ=             -0.4292
   XY=             -0.0046   XZ=             -8.2939   YZ=              0.0022
 Octapole moment (field-independent basis, Debye-Ang**2):
  XXX=              0.0721  YYY=            -15.5507  ZZZ=             -0.0227  XYY=             -0.0187
  XXY=             22.4610  XXZ=              0.0150  XZZ=             -0.0672  YZZ=            -10.6787
  YYZ=              0.0084  XYZ=             -6.3107
 Hexadecapole moment (field-independent basis, Debye-Ang**3):
 XXXX=          -4889.5495 YYYY=          -4573.8655 ZZZZ=          -2822.0387 XXXY=             -0.0595
 XXXZ=            -93.8616 YYYX=             -0.1087 YYYZ=             -0.0227 ZZZX=             38.4635
 ZZZY=             -0.0662 XXYY=          -1596.2102 XXZZ=          -1372.6856 YYZZ=          -1246.2910
 XXYZ=              0.0396 YYXZ=             21.7534 ZZXY=              0.0936
 N-N= 2.983467415418D+03 E-N=-8.997721642489D+03  KE= 1.292191103959D+03
 No NMR shielding tensors so no spin-rotation constants.
 Leave Link  601 at Sat Jul  5 15:21:55 2025, MaxMem= 13421772800 cpu:               7.2 elap:               0.3
 (Enter /public/software/apps/Gaussian/g16/l701.exe)
 ... and contract with generalized density number  0.
 Compute integral first derivatives.
 R6Disp: Adding Grimme-D3(BJ) dispersion energy 1st derivatives to the gradient.
   1 Symmetry operations used in ECPInt.
 ECPInt:  NShTT=   25200 NPrTT=  101032 LenC2=   23489 LenP2D=   62199.
 LDataN:  DoStor=T MaxTD1= 5 Len=  102
 Leave Link  701 at Sat Jul  5 15:21:55 2025, MaxMem= 13421772800 cpu:               9.4 elap:               0.3
 (Enter /public/software/apps/Gaussian/g16/l702.exe)
 L702 exits ... SP integral derivatives will be done elsewhere.
 Leave Link  702 at Sat Jul  5 15:21:55 2025, MaxMem= 13421772800 cpu:               0.3 elap:               0.0
 (Enter /public/software/apps/Gaussian/g16/l703.exe)
 Integral derivatives from FoFJK, PRISM(SPDF).
 Compute integral first derivatives, UseDBF=F ICtDFT=           0.
 Calling FoFJK, ICntrl=      2127 FMM=F ISym2X=0 I1Cent= 0 IOpClX= 0 NMat=1 NMatS=1 NMatT=0.
 FoFJK:  IHMeth= 1 ICntrl=    2127 DoSepK=F KAlg= 0 I1Cent=           0 FoldK=F
 IRaf=         0 NMat=       1 IRICut=       1 DoRegI=T DoRafI=F ISym2E= 0 IDoP0=0 IntGTp=1.
 FoFCou: FMM=F IPFlag=           0 FMFlag=      100000 FMFlg1=         800
         NFxFlg=           0 DoJE=F BraDBF=F KetDBF=F FulRan=T
         wScrn=  0.000000 ICntrl=      2127 IOpCl=  0 I1Cent=           0 NGrid=           0
         NMat0=    1 NMatS0=      1 NMatT0=    0 NMatD0=    1 NMtDS0=    0 NMtDT0=    0
 Symmetry not used in FoFCou.
 Leave Link  703 at Sat Jul  5 15:22:06 2025, MaxMem= 13421772800 cpu:             335.2 elap:              10.5
 (Enter /public/software/apps/Gaussian/g16/l716.exe)
 Dipole        =-5.09341786D-04-5.98863320D-01-8.76232102D-04
 -------------------------------------------------------------------
 Center     Atomic                   Forces (Hartrees/Bohr)
 Number     Number              X              Y              Z
 -------------------------------------------------------------------
      1        6           0.006868339    0.000251667   -0.000149300
      2        6          -0.013750047    0.001334261   -0.005927042
      3        6           0.001384745   -0.004145714    0.002696426
      4        8          -0.002133878    0.003285980    0.003451142
      5        6          -0.003292211   -0.007468296   -0.005699766
      6        6           0.000111616   -0.004291825   -0.003358673
      7        6          -0.000295920    0.001637423    0.001779109
      8        6          -0.002610341   -0.000927061    0.001126149
      9        6          -0.000093228   -0.001402997   -0.000888516
     10        6           0.001984436    0.004509617    0.003050263
     11        6           0.008701656    0.007452173    0.003374224
     12        8          -0.010127887   -0.000114172    0.003291722
     13        6           0.008490586    0.001639648   -0.006792784
     14        6          -0.008492383    0.001657406    0.006786792
     15        6          -0.008701193    0.007458609   -0.003383372
     16        8           0.010135033   -0.000122344   -0.003281493
     17        6          -0.001978311    0.004510315   -0.003051903
     18        6           0.000090701   -0.001402518    0.000886625
     19        6           0.002613365   -0.000927892   -0.001121815
     20        6           0.000298822    0.001639561   -0.001778961
     21        6          -0.000113477   -0.004290374    0.003353583
     22        6           0.003286135   -0.007480675    0.005700722
     23        8           0.002140148    0.003298247   -0.003443303
     24        6          -0.001374877   -0.004142954   -0.002704695
     25        6           0.013732068    0.001341162    0.005949052
     26        6          -0.006866543    0.000233246    0.000141590
     27        6          -0.004046870    0.000068225    0.003483126
     28        6           0.000045181    0.000994879    0.000990148
     29        6          -0.000043008    0.000996232   -0.000998561
     30        6           0.004039451    0.000068735   -0.003484359
     31        1           0.009126487   -0.005202876    0.009321479
     32        1           0.003337307    0.011025251   -0.008217809
     33        1          -0.002399219   -0.008453660    0.008009386
     34        1          -0.001001174   -0.002252753   -0.004524106
     35        1           0.001230128    0.004842010   -0.003454059
     36        1          -0.006668401   -0.006925212   -0.002925428
     37        1          -0.009263685   -0.000128237    0.003754301
     38        1          -0.009155036    0.000451630    0.004287422
     39        1          -0.002333133    0.007053244    0.007192933
     40        1           0.005984292   -0.002964410   -0.004263599
     41        1          -0.005988013   -0.002954090    0.004266726
     42        1           0.002341756    0.007048699   -0.007196064
     43        1           0.009156597    0.000441174   -0.004284539
     44        1           0.009263804   -0.000137422   -0.003751996
     45        1           0.006659268   -0.006930778    0.002927607
     46        1          -0.001239384    0.004840038    0.003454351
     47        1           0.000993466   -0.002253446    0.004524791
     48        1           0.002421187   -0.008435132   -0.008007616
     49        1          -0.009095619   -0.005198671   -0.009337188
     50        1          -0.003367184    0.011012246    0.008226520
     51        1          -0.005985380   -0.000267230    0.002566422
     52        1           0.005979827   -0.000270937   -0.002565667
 -------------------------------------------------------------------
 Cartesian Forces:  Max     0.013750047 RMS     0.005103955
 Leave Link  716 at Sat Jul  5 15:22:06 2025, MaxMem= 13421772800 cpu:               1.3 elap:               0.2
 (Enter /public/software/apps/Gaussian/g16/l103.exe)

 GradGradGradGradGradGradGradGradGradGradGradGradGradGradGradGradGradGrad
 Berny optimization.
 FormGI is forming the generalized inverse of G from B-inverse, IUseBI=4.
 Internal  Forces:  Max     0.020248725 RMS     0.004947351
 Search for a local minimum.
 Step number   1 out of a maximum of  279
 All quantities printed in internal units (Hartrees-Bohrs-Radians)
 RMS Force = .49474D-02 SwitMx=.10000D-02 MixMth= 1
 Mixed Optimization -- RFO/linear search
 Second derivative matrix not updated -- first step.
 ITU=  0
     Eigenvalues ---    0.00741   0.00741   0.00919   0.01497   0.01497
     Eigenvalues ---    0.01719   0.01719   0.01787   0.01787   0.01890
     Eigenvalues ---    0.01890   0.01908   0.01908   0.01932   0.01932
     Eigenvalues ---    0.02076   0.02076   0.02099   0.02099   0.02134
     Eigenvalues ---    0.02134   0.02143   0.02144   0.02213   0.02213
     Eigenvalues ---    0.02214   0.02214   0.02230   0.02230   0.02236
     Eigenvalues ---    0.02236   0.02246   0.02246   0.02251   0.02251
     Eigenvalues ---    0.02291   0.02291   0.02360   0.02360   0.02386
     Eigenvalues ---    0.02386   0.03163   0.03163   0.03163   0.03163
     Eigenvalues ---    0.05933   0.05934   0.07359   0.07359   0.11944
     Eigenvalues ---    0.11945   0.14201   0.14201   0.15997   0.15997
     Eigenvalues ---    0.16000   0.16000   0.16000   0.16000   0.16000
     Eigenvalues ---    0.16000   0.16000   0.16000   0.16000   0.16000
     Eigenvalues ---    0.16000   0.16000   0.16000   0.16000   0.16000
     Eigenvalues ---    0.16000   0.22000   0.22000   0.22121   0.22121
     Eigenvalues ---    0.22326   0.22326   0.22595   0.22595   0.23514
     Eigenvalues ---    0.23514   0.24427   0.24427   0.24700   0.24700
     Eigenvalues ---    0.24999   0.24999   0.25000   0.25000   0.25000
     Eigenvalues ---    0.25000   0.25000   0.25000   0.25000   0.25000
     Eigenvalues ---    0.32177   0.32178   0.33626   0.33936   0.33936
     Eigenvalues ---    0.34067   0.34068   0.35823   0.35825   0.35945
     Eigenvalues ---    0.35945   0.35985   0.35985   0.36136   0.36136
     Eigenvalues ---    0.36205   0.36206   0.36210   0.36210   0.36374
     Eigenvalues ---    0.36375   0.36521   0.36521   0.37979   0.37979
     Eigenvalues ---    0.40799   0.40800   0.41498   0.41499   0.42094
     Eigenvalues ---    0.42094   0.43261   0.43263   0.43306   0.43307
     Eigenvalues ---    0.43835   0.43835   0.43912   0.43912   0.47620
     Eigenvalues ---    0.47620   0.49231   0.49233   0.50863   0.50864
     Eigenvalues ---    0.51373   0.51374   0.52832   0.52833   0.52847
     Eigenvalues ---    0.52850   0.53803   0.53803   0.62236   0.62237
 RFO step:  Lambda=-1.56821413D-02 EMin= 7.40648016D-03
 Linear search not attempted -- first point.
 Iteration  1 RMS(Cart)=  0.08689576 RMS(Int)=  0.00061060
 Iteration  2 RMS(Cart)=  0.00300119 RMS(Int)=  0.00001924
 Iteration  3 RMS(Cart)=  0.00000317 RMS(Int)=  0.00001919
 Iteration  4 RMS(Cart)=  0.00000000 RMS(Int)=  0.00001919
 ITry= 1 IFail=0 DXMaxC= 3.87D-01 DCOld= 1.00D+10 DXMaxT= 3.00D-01 DXLimC= 3.00D+00 Rises=F
 Variable       Old X    -DE/DX   Delta X   Delta X   Delta X     New X
                                 (Linear)    (Quad)   (Total)
    R1        2.49213   0.02025   0.00000   0.03174   0.03174   2.52387
    R2        2.03274   0.01403   0.00000   0.03683   0.03683   2.06958
    R3        2.03762   0.01406   0.00000   0.03723   0.03723   2.07485
    R4        2.83820   0.00451   0.00000   0.01335   0.01335   2.85156
    R5        2.04356   0.01182   0.00000   0.03162   0.03162   2.07518
    R6        2.67349   0.00551   0.00000   0.01229   0.01229   2.68579
    R7        2.07216   0.00488   0.00000   0.01369   0.01369   2.08585
    R8        2.07438   0.00601   0.00000   0.01694   0.01694   2.09132
    R9        2.57110  -0.00093   0.00000  -0.00172  -0.00172   2.56939
   R10        2.67251   0.00858   0.00000   0.01915   0.01914   2.69164
   R11        2.59258   0.01190   0.00000   0.02268   0.02268   2.61526
   R12        2.57421   0.01352   0.00000   0.02517   0.02516   2.59937
   R13        2.03869   0.01005   0.00000   0.02665   0.02665   2.06534
   R14        2.66653   0.01216   0.00000   0.02693   0.02693   2.69346
   R15        2.04167   0.00998   0.00000   0.02661   0.02661   2.06829
   R16        2.66314   0.01171   0.00000   0.02571   0.02571   2.68885
   R17        2.67889   0.01327   0.00000   0.02984   0.02986   2.70875
   R18        2.57830   0.01291   0.00000   0.02414   0.02413   2.60243
   R19        2.04105   0.01011   0.00000   0.02693   0.02693   2.06798
   R20        2.66168   0.00971   0.00000   0.02121   0.02121   2.68288
   R21        2.03755   0.01033   0.00000   0.02735   0.02735   2.06490
   R22        2.57094  -0.00513   0.00000  -0.00943  -0.00943   2.56151
   R23        2.61232   0.01085   0.00000   0.02152   0.02152   2.63383
   R24        1.82912   0.00762   0.00000   0.01376   0.01376   1.84288
   R25        2.81266   0.00465   0.00000   0.01321   0.01321   2.82587
   R26        2.68013   0.01383   0.00000   0.03114   0.03115   2.71128
   R27        2.61232   0.01085   0.00000   0.02152   0.02152   2.63384
   R28        2.68017   0.01385   0.00000   0.03118   0.03119   2.71135
   R29        2.57097  -0.00514   0.00000  -0.00944  -0.00944   2.56153
   R30        2.66166   0.00971   0.00000   0.02119   0.02119   2.68285
   R31        1.82912   0.00762   0.00000   0.01376   0.01376   1.84288
   R32        2.57829   0.01290   0.00000   0.02412   0.02411   2.60240
   R33        2.03754   0.01033   0.00000   0.02735   0.02735   2.06490
   R34        2.66313   0.01171   0.00000   0.02571   0.02571   2.68884
   R35        2.04105   0.01011   0.00000   0.02693   0.02693   2.06798
   R36        2.66652   0.01215   0.00000   0.02691   0.02691   2.69343
   R37        2.67892   0.01328   0.00000   0.02988   0.02989   2.70881
   R38        2.57420   0.01351   0.00000   0.02515   0.02514   2.59934
   R39        2.04167   0.00998   0.00000   0.02661   0.02661   2.06829
   R40        2.67250   0.00858   0.00000   0.01915   0.01914   2.69164
   R41        2.03869   0.01005   0.00000   0.02665   0.02665   2.06534
   R42        2.57111  -0.00093   0.00000  -0.00172  -0.00172   2.56939
   R43        2.59261   0.01191   0.00000   0.02271   0.02271   2.61532
   R44        2.67346   0.00551   0.00000   0.01230   0.01230   2.68576
   R45        2.83819   0.00450   0.00000   0.01333   0.01333   2.85152
[...]
 24,-0.00005431,-0.00022202,-0.00002845,-0.00009684,-0.00001593,-0.0000
 3087,0.00001118,0.00001358,0.00001043,0.00000159,0.00001278,0.00001497
 ,0.00005641,0.00004381,-0.00002411,-0.00003617,-0.00002237,0.00002085,
 -0.00003635,-0.00002299,-0.00001570,-0.00000442,0.00000978,-0.00005981
 ,0.00003469,-0.00000357,0.00005046,-0.00005138,0.00002370,0.00003913,-
 0.00002664,0.00000649,0.00000355,0.00003909,-0.00004156,0.00001806,-0.
 00007059,0.00002115,-0.00002212,0.00009497,-0.00003600,-0.00009226,-0.
 00010082,0.00015816,0.00008454,0.00065778,-0.00075400,-0.00263858,-0.0
 0077554,-0.00092657,-0.00186141,-0.00451951,0.00902035,-0.00294236,-0.
 00292338,0.00056995,-0.12029993,-0.09431728,-0.16783950,0.00012937,0.0
 0013858,0.00004353,0.00002954,0.00001365,0.00002935,0.00003207,-0.0000
 0598,0.00004596,-0.00015638,-0.00022888,-0.00025727,-0.00002328,-0.000
 00210,-0.00001087,-0.00001251,-0.00000799,-0.00001620,0.00008029,-0.00
 009238,-0.00001679,-0.00000259,0.00000394,0.00001281,-0.00004384,-0.00
 001804,0.00002660,-0.00002492,0.00000623,0.00006124,0.00003811,-0.0000
 3319,0.00000047,0.00000988,-0.00000703,-0.00000683,0.00000029,-0.00000
 190,-0.00000172,0.00000330,0.00001633,0.00000717,-0.00001062,0.0000115
 6,-0.00000724,0.00000112,-0.00000257,0.00000197,-0.00000475,0.00000138
 ,0.00000188,-0.00000676,-0.00000811,0.00000633,0.00001077,-0.00000709,
 -0.00001392,0.00029382,-0.00006490,-0.00004007,0.00124531,0.00072721,0
 .00079827,0.00242526,0.00377670,-0.00357862,0.13183008,0.10092160,0.16
 852783,-0.00000929,0.00002685,-0.00004272,0.00001535,-0.00006909,0.000
 03940,0.00000074,-0.00001359,0.00005030,-0.00007257,0.00020787,0.00006
 979,0.00012056,-0.00025226,-0.00010617,0.00001315,-0.00020629,0.000017
 66,-0.00007939,-0.00008036,0.00015847,0.00010834,0.00023370,-0.0000109
 7,0.00001048,0.00005633,0.00004164,-0.00001395,-0.00004049,0.00001361,
 0.00006283,0.00000388,-0.00001438,-0.00008464,-0.00003132,-0.00001292,
 -0.00008499,-0.00004441,-0.00007863,0.00000313,0.00005784,-0.00005503,
 0.00002710,-0.00006263,0.00005697,-0.00008366,0.00007369,-0.00003313,-
 0.00000469,0.00000999,-0.00000974,0.00001338,-0.00001762,0.00000950,0.
 00003247,0.00003002,-0.00005878,0.00003007,0.00003489,-0.00003369,-0.0
 0003522,-0.00004586,0.00002765,0.00012220,0.00033341,-0.00020208,-0.00
 030878,-0.00045179,-0.00049599,0.00028574,-0.00045368,0.00428603,-0.00
 557350,0.02500775,0.01291129,-0.08323826,0.07701464,0.03340827,-0.0001
 1209,0.00016359,-0.00001968,0.00017811,-0.00017751,0.00009191,0.000083
 30,0.00014452,-0.00002541,-0.00007582,0.00007886,0.00009765,0.00002187
 ,0.00002026,-0.00001252,0.00001744,0.00000195,0.00002199,-0.00006152,0
 .00002917,-0.00002954,-0.00000545,0.00000105,0.00000542,0.00000575,0.0
 0000265,-0.00000433,0.00002051,0.00000591,-0.00000823,-0.00006625,0.00
 002717,-0.00002776,-0.00002976,0.00003063,0.00000129,-0.00000655,0.000
 00150,-0.00000333,0.00001746,-0.00002676,-0.00000855,0.00002351,0.0000
 0325,-0.00001131,-0.00000229,0.00000325,-0.00000162,0.00000629,0.00000
 572,-0.00000710,0.00000648,0.00000415,-0.00000422,0.00002896,-0.000002
 14,-0.00000546,-0.00005442,-0.00082029,-0.00072311,0.00043013,-0.00003
 596,0.00024100,-0.00241263,0.00364983,-0.00431283,0.00842390,-0.014133
 44,-0.00782220,0.08281602,0.00002728,0.00001296,-0.00001478,-0.0000263
 6,-0.00005834,0.00003242,0.00002997,-0.00000570,0.00004168,-0.00004404
 ,0.00012275,0.00003146,-0.00000612,-0.00016038,-0.00017613,0.00003834,
 -0.00015345,-0.00007036,0.00004591,-0.00000322,0.00014736,0.00003439,-
 0.00011639,0.00020203,0.00005614,0.00001230,-0.00000060,-0.00005168,0.
 00000388,-0.00004826,-0.00003092,-0.00004887,-0.00004716,0.00003678,0.
 00003737,0.00001492,0.00002147,0.00005701,0.00005943,-0.00001368,0.000
 01977,-0.00000350,0.00000383,-0.00000974,0.00000102,0.00000524,0.00000
 693,-0.00000740,0.00000533,0.00000150,0.00000106,-0.00000606,0.0000029
 2,0.00000177,0.00000918,-0.00001845,0.00000320,-0.00000784,0.00001446,
 0.00001287,-0.00002882,0.00000193,0.00001572,-0.00003024,0.00011970,-0
 .00021751,-0.00095703,0.00006499,-0.00029576,-0.00283529,-0.00218213,0
 .00335899,0.00380988,-0.00496002,-0.00638675,0.08010455,-0.24151529,-0
 .11223280,0.00018496,0.00008184,-0.00000868,-0.00004626,0.00001158,0.0
 0002344,0.00005636,-0.00016532,0.00022762,-0.00000869,-0.00009335,0.00
 000231,-0.00004340,-0.00000298,0.00000800,-0.00000196,0.00001425,-0.00
 002164,0.00000918,0.00003694,0.00002851,-0.00000790,-0.00000058,-0.000
 00161,-0.00000253,0.00001460,-0.00001371,0.00002285,-0.00000904,-0.000
 00403,-0.00004203,0.00003116,-0.00001228,-0.00001150,0.00000386,0.0000
 0132,0.00000161,0.00000883,0.00000048,-0.00000797,-0.00000257,-0.00000
 112,-0.00000150,-0.00000875,0.00001030,0.00000066,-0.00000038,-0.00000
 117,-0.00000014,-0.00000296,-0.00000044,-0.00000046,-0.00000264,-0.000
 00087,-0.00000618,-0.00001139,-0.00000342,0.00077883,0.00023965,0.0004
 4215,0.00057948,0.00023427,0.00034394,0.00343868,0.00422932,-0.0035914
 4,0.00514134,-0.00648245,-0.00454867,-0.08992914,0.25065166,-0.0000399
 8,0.00006408,-0.00005396,-0.00002763,-0.00017745,0.00009246,0.00018641
 ,-0.00004907,-0.00000212,-0.00021432,0.00054633,0.00029935,0.00011454,
 -0.00069932,-0.00047629,-0.00003984,-0.00013892,0.00004814,-0.00017538
 ,-0.00014202,0.00007381,0.00004031,0.00006959,0.00013762,0.00003605,0.
 00025320,0.00023183,-0.00017586,-0.00006593,-0.00005224,0.00020608,0.0
 0015500,0.00004995,-0.00023622,-0.00018657,-0.00008639,0.00013353,0.00
 002686,0.00006061,0.00001206,0.00000186,-0.00004053,0.00004928,0.00001
 891,-0.00004133,-0.00004874,-0.00001432,0.00002793,-0.00003671,0.00003
 213,-0.00001109,-0.00002738,-0.00003081,0.00004329,-0.00002262,0.00004
 379,-0.00000245,0.00000094,-0.00007705,0.00004914,0.00007844,0.0001429
 4,-0.00011137,-0.00010702,-0.00075237,0.00070264,0.00159924,0.00041148
 ,-0.00021557,0.00072234,0.00470016,-0.00411953,-0.00219926,0.00333725,
 0.00729421,0.03559633,-0.11199998,-0.10100603,0.00005894,-0.00013173,-
 0.00023684,-0.00014328,-0.00002324,0.00005663,0.00012559,0.00015752,-0
 .00008254,0.00015141,-0.00002704,0.00002147,0.00002178,-0.00002424,-0.
 00001617,0.00002200,0.00002160,0.00001081,-0.00002357,0.00010751,0.000
 00468,-0.00001796,0.00001293,0.00001822,-0.00002184,0.00001580,-0.0000
 1893,0.00006197,0.00000740,0.00004394,0.00002201,-0.00000156,-0.000009
 79,0.00003295,-0.00000170,-0.00000768,-0.00001088,-0.00002781,-0.00000
 494,0.00005057,-0.00000305,-0.00001211,0.00002451,0.00004568,-0.000043
 39,-0.00000565,-0.00000275,0.00000455,-0.00000689,-0.00000152,0.000005
 23,-0.00000733,0.00000111,-0.00000397,-0.00003086,0.00000746,0.0000127
 7,0.00014790,0.00011973,0.00031601,-0.00088087,-0.00012449,-0.00039749
 ,-0.00408808,-0.00431044,0.00635172,0.00666701,-0.01408364,-0.00465532
 ,-0.03769596,0.12268033,0.09556313,-0.00002923,0.00001578,0.00001474,-
 0.00000091,-0.00003008,-0.00000005,0.00009087,-0.00002232,-0.00002979,
 -0.00007484,0.00015440,0.00013654,0.00005507,-0.00010813,-0.00005942,-
 0.00005827,0.00004451,0.00000777,-0.00002905,-0.00007709,-0.00002023,0
 .00009847,-0.00007709,-0.00000017,-0.00005030,0.00004966,0.00004901,0.
 00003453,-0.00007404,0.00001616,0.00013821,0.00044661,-0.00016874,-0.0
 0023222,-0.00028142,-0.00009629,-0.00026151,0.00106153,-0.00071049,-0.
 00097852,0.00067698,-0.00117967,-0.00025875,-0.00030717,0.00016556,0.0
 0007075,0.00008527,0.00000230,0.00023176,-0.00005338,-0.00007259,-0.00
 021865,0.00028711,-0.00009040,0.00162754,0.00024296,0.00107760,0.00054
 657,0.00005172,-0.00059120,-0.00015981,0.00376637,-0.00064504,-0.01457
 734,-0.00253433,0.00927354,-0.00003411,-0.00182373,-0.00012464,0.00020
 200,0.00027431,0.00078960,-0.00059087,-0.00100181,0.00061313,-0.000091
 74,-0.00148134,0.00012424,-0.30475491,-0.00105607,0.10954791,-0.002256
 65,-0.00091225,0.00258066,-0.00106895,0.00076386,-0.00116011,-0.000232
 88,0.00006113,-0.00019727,-0.00002180,-0.00001745,0.00000381,-0.000000
 15,0.00000027,-0.00001283,0.00000741,0.00001432,0.00000576,-0.00000924
 ,0.00000637,0.00000342,-0.00001288,0.00000020,-0.00000036,0.00000691,0
 .00000119,0.00001317,0.00001112,-0.00000053,0.00000098,0.00001144,-0.0
 0000907,-0.00000230,0.00000215,-0.00000561,-0.00000970,0.00003269,-0.0
 0006827,0.00009255,0.00001009,-0.00000394,-0.00000300,0.00000075,-0.00
 000456,0.00001253,0.00000714,-0.00000807,0.00004705,-0.00012802,-0.000
 15303,-0.00010856,-0.00060213,-0.00013564,0.00048503,0.00068565,-0.000
 75599,-0.00036990,0.00016139,-0.00038387,-0.00019964,-0.00007107,0.000
 07639,-0.00017851,-0.00013723,0.00007544,0.00008980,-0.00050940,-0.000
 29424,0.00013479,0.32349646,0.00002838,0.00003488,0.00013262,-0.000059
 57,0.00004524,-0.00000514,-0.00024847,0.00007889,0.00002380,0.00018831
 ,-0.00038103,-0.00028772,0.00003943,0.00030808,0.00016531,-0.00001897,
 -0.00013199,-0.00003717,0.00007255,0.00007639,0.00003639,-0.00007042,-
 0.00000183,0.00003862,-0.00005543,0.00006510,0.00016085,-0.00004182,-0
 .00011474,-0.00015992,0.00030687,-0.00070518,-0.00036021,0.00017578,0.
 00032232,-0.00010272,0.00003600,-0.00056194,0.00030500,-0.00072025,-0.
 00081581,-0.00120671,-0.00022170,0.00005709,-0.00037577,0.00024436,0.0
 0009676,0.00005252,-0.00011470,-0.00002785,-0.00004115,-0.00096367,0.0
 0034830,0.00039297,0.00096588,-0.00099238,0.00443803,0.00000247,-0.000
 94144,0.00034117,0.00322506,-0.00086941,0.00395152,0.02000169,0.006205
 53,-0.00883849,-0.00282032,-0.00033462,-0.00186825,0.00137749,-0.00200
 566,0.00088441,-0.00070155,-0.00163363,0.00032497,-0.00045776,-0.00064
 364,0.00011341,-0.00387071,-0.04802682,0.01443633,-0.02104269,0.003353
 17,0.00785613,0.00099813,0.00047644,0.00081355,-0.00018331,-0.00040663
 ,-0.00013970,0.00006152,-0.00000275,-0.00002664,0.00000696,-0.00001993
 ,0.00000944,-0.00001181,-0.00004351,-0.00001114,0.00003730,-0.00001728
 ,0.00000329,0.00002287,-0.00000647,0.00000630,-0.00001285,-0.00000064,
 -0.00002200,-0.00001763,0.00000201,-0.00000361,-0.00002670,0.00000399,
 -0.00001604,-0.00000010,-0.00000387,0.00002211,-0.00011397,-0.00008294
 ,0.00024161,-0.00006188,-0.00008510,0.00011567,0.00003372,-0.00000199,
 0.00000245,-0.00003957,-0.00016089,0.00028669,-0.00017018,-0.00025086,
 -0.00034382,0.00104693,0.00016329,-0.00037556,0.00003644,-0.00014734,0
 .00103350,-0.00014016,0.00006735,-0.00007108,0.00006296,0.00017136,-0.
 00003628,0.00004083,0.00018708,-0.00004061,-0.00036276,-0.00000214,0.0
 0012574,0.00353102,0.04744464,0.00001975,0.00015214,0.00011035,-0.0001
 2421,-0.00001026,0.00008786,0.00011485,-0.00002225,-0.00010221,-0.0000
 8524,0.00026137,0.00022838,-0.00010975,-0.00039656,-0.00015935,0.00001
 087,-0.00001067,-0.00003891,0.00006765,0.00006568,-0.00001740,-0.00020
 367,-0.00008616,0.00014112,0.00006801,0.00001522,-0.00007139,0.0000564
 7,0.00002370,-0.00009471,0.00023082,0.00044992,0.00066942,-0.00054129,
 -0.00039302,-0.00027704,-0.00010700,0.00028524,-0.00014841,0.00003620,
 -0.00195841,-0.00111854,0.00016663,-0.00030794,-0.00037543,-0.00011991
 ,0.00016347,0.00023547,-0.00016397,-0.00001829,-0.00006372,0.00111535,
 -0.00024258,0.00007258,0.00025140,0.00513931,0.00054008,-0.00051239,0.
 00003324,-0.00026883,0.00041293,0.00357795,0.00285857,-0.00781578,-0.0
 0075353,0.00849234,0.00037137,-0.00176376,-0.00249794,-0.00042117,0.00
 129993,-0.00125363,0.00043231,0.00024005,0.00020862,-0.00017203,0.0006
 6080,-0.00026819,0.10678158,0.01317850,-0.08517706,0.01987741,0.000535
 79,-0.00534356,-0.00060454,0.00041649,-0.00016024,-0.00004895,-0.00019
 755,-0.00011131,0.00001854,-0.00000862,-0.00002398,0.00002889,0.000002
 85,0.00001859,0.00000009,-0.00000512,-0.00000102,0.00000462,0.00001135
 ,0.00001444,-0.00001629,-0.00000260,0.00000302,0.00002043,0.00000989,0
 .00000314,0.00002589,-0.00000915,0.00000250,0.00002423,-0.00001536,-0.
 00000981,0.00001165,-0.00002070,-0.00000614,0.00012367,-0.00010245,-0.
 00001321,0.00006264,0.00004378,-0.00009314,-0.00001956,0.00002332,0.00
 000948,0.00010786,0.00027259,-0.00014043,-0.00011804,-0.00037071,-0.00
 043745,-0.00041080,0.00011278,0.00025531,0.00024283,0.00213206,-0.0020
 1724,-0.00010123,-0.00030608,-0.00008925,-0.00007350,-0.00016285,-0.00
 002399,0.00004309,-0.00006129,-0.00009203,0.00029868,0.00002064,0.0001
 6937,-0.11924740,-0.02192316,0.08666268,-0.00009067,0.00148061,0.00012
 457,-0.00058806,0.00099837,0.00061075,0.00019976,-0.00027581,0.0007892
 2,-0.00002898,0.00182359,-0.00012242,-0.01459304,0.00255247,0.00928227
 ,-0.00016650,-0.00376705,-0.00064946,0.00054657,-0.00005309,-0.0005914
 8,0.00162639,-0.00024539,0.00107339,-0.00021806,-0.00028658,-0.0000908
 1,0.00023191,0.00005314,-0.00007254,-0.00025825,0.00030739,0.00016592,
 0.00007049,-0.00008519,0.00000225,-0.00097845,-0.00067687,-0.00117868,
 -0.00026263,-0.00106199,-0.00071109,0.00013754,-0.00044710,-0.00016847
 ,-0.00023211,0.00028190,-0.00009618,0.00003445,0.00007377,0.00001623,-
 0.00005006,-0.00004942,0.00004891,0.00009889,0.00007701,0.00000004,-0.
 00002903,0.00007721,-0.00002026,-0.00005830,-0.00004459,0.00000783,0.0
 0005517,0.00010844,-0.00005956,-0.00007518,-0.00015474,0.00013682,0.00
 009114,0.00002232,-0.00002980,-0.00000070,0.00003017,-0.00000018,-0.00
 003024,-0.00001618,0.00001561,-0.00023259,-0.00006144,-0.00019698,-0.0
 0107017,-0.00076238,-0.00116109,-0.00223605,0.00091709,0.00257337,-0.3
 0475019,0.00128947,0.10952994,-0.00013734,-0.00007509,0.00008978,-0.00
 050900,0.00029436,0.00013453,-0.00007118,-0.00007612,-0.00017844,0.000
 16209,0.00038376,-0.00019953,0.00068670,0.00075525,-0.00037127,-0.0006
 0304,0.00013634,0.00048540,-0.00012772,0.00015292,-0.00010821,0.000007
 18,0.00000793,0.00004679,0.00000072,0.00000456,0.00001253,0.00001014,0
 .00000385,-0.00000310,0.00003286,0.00006824,0.00009237,0.00000215,0.00
 000561,-0.00000972,0.00001148,0.00000906,-0.00000229,0.00001114,0.0000
 0052,0.00000099,0.00000693,-0.00000120,0.00001319,-0.00001290,-0.00000
 020,-0.00000037,-0.00000929,-0.00000638,0.00000342,0.00000740,-0.00001
 437,0.00000577,-0.00002178,0.00001745,0.00000379,-0.00000016,-0.000000
 27,-0.00001284,-0.00007752,0.00000599,-0.00000995,0.32348806,0.0004580
 8,-0.00064628,-0.00011383,0.00069815,-0.00163383,-0.00032447,-0.001379
 58,-0.00200353,-0.00088420,0.00281994,-0.00033971,0.00186849,-0.019981
 78,0.00622076,0.00882790,-0.00322574,-0.00086164,-0.00395131,-0.000003
 93,-0.00094137,-0.00034068,-0.00096834,-0.00099035,-0.00443926,0.00096
 413,0.00034768,-0.00039284,0.00011448,-0.00002803,0.00004122,0.0002219
 7,0.00005659,0.00037569,-0.00024436,0.00009706,-0.00005254,0.00072016,
 -0.00081567,0.00120854,-0.00003588,-0.00056078,-0.00030432,-0.00030752
 ,-0.00070393,0.00036031,-0.00017523,0.00032217,0.00010285,0.00004154,-
 0.00011501,0.00015979,0.00005550,0.00006508,-0.00016089,0.00007020,-0.
 00000199,-0.00003868,-0.00007246,0.00007635,-0.00003637,0.00001888,-0.
 00013193,0.00003716,-0.00003929,0.00030811,-0.00016528,-0.00018862,-0.
 00038075,0.00028755,0.00024848,0.00007861,-0.00002381,0.00005968,0.000
 04512,0.00000547,-0.00002887,0.00003426,-0.00013123,0.00018249,-0.0004
 0684,0.00013925,-0.00099625,0.00047927,-0.00081154,0.02104571,0.003331
 91,-0.00785829,0.00410480,-0.04802328,-0.01454076,-0.00004054,0.000187
 22,0.00004050,0.00036266,-0.00000209,-0.00012451,-0.00006268,0.0001714
 3,0.00003635,0.00014008,0.00006692,0.00007129,-0.00003710,-0.00014782,
 -0.00103349,-0.00104614,0.00016415,0.00037503,0.00017007,-0.00025125,0
 .00034394,0.00003940,-0.00016088,-0.00028675,-0.00003372,-0.00000196,-
 0.00000247,0.00006181,-0.00008515,-0.00011566,0.00011384,-0.00008326,-
 0.00024174,0.00000009,-0.00000389,-0.00002210,0.00002669,0.00000395,0.
 00001604,0.00001761,0.00000199,0.00000360,0.00001284,-0.00000066,0.000
 02198,-0.00002286,-0.00000644,-0.00000631,-0.00003730,-0.00001723,-0.0
 0000329,0.00001177,-0.00004351,0.00001112,-0.00006170,-0.00000274,0.00
 002672,-0.00000695,-0.00001992,-0.00000940,-0.00000687,-0.00008760,0.0
 0002100,-0.00377733,0.04744064,-0.00017377,-0.00065976,-0.00026867,0.0
 0043177,-0.00024029,0.00020890,-0.00042223,-0.00129959,-0.00125365,0.0
 0037346,0.00176376,-0.00249748,-0.00781781,0.00076084,0.00849359,0.000
 40902,-0.00357893,0.00285767,-0.00051231,-0.00003280,-0.00026891,0.000
 24644,-0.00513970,0.00053920,0.00111564,0.00024156,0.00007261,-0.00016
 396,0.00001844,-0.00006371,0.00016697,0.00030782,-0.00037536,-0.000120
 12,-0.00016339,0.00023544,0.00003811,0.00195831,-0.00111809,-0.0001073
 6,-0.00028508,-0.00014849,0.00023032,-0.00045047,0.00066943,-0.0005409
 8,0.00039359,-0.00027702,0.00005648,-0.00002372,-0.00009466,0.00006798
 ,-0.00001529,-0.00007136,-0.00020377,0.00008631,0.00014096,0.00006762,
 -0.00006580,-0.00001744,0.00001090,0.00001071,-0.00003888,-0.00010949,
 0.00039698,-0.00015939,-0.00008558,-0.00026149,0.00022848,0.00011495,0
 .00002217,-0.00010225,-0.00012419,0.00001033,0.00008785,0.00001982,-0.
 00015171,0.00010918,-0.00004841,0.00019640,-0.00011170,-0.00060412,-0.
 00041472,-0.00015908,0.01987905,-0.00055425,-0.00534414,0.10676461,-0.
 01327941,-0.08517408,0.00004314,0.00006118,-0.00009201,0.00029799,-0.0
 0001974,0.00017085,-0.00007336,0.00016288,-0.00002400,-0.00010093,0.00
 030619,-0.00008927,0.00024062,-0.00213233,-0.00201743,-0.00041106,-0.0
 0011240,0.00025534,-0.00011767,0.00037085,-0.00043737,0.00010761,-0.00
 027269,-0.00014048,-0.00001959,-0.00002330,0.00000947,0.00006261,-0.00
 004384,-0.00009315,0.00012378,0.00010234,-0.00001324,0.00001167,0.0000
 2070,-0.00000614,0.00002425,0.00001534,-0.00000981,0.00002590,0.000009
 12,0.00000250,0.00002043,-0.00000991,0.00000314,-0.00001630,0.00000262
 ,0.00000302,0.00000459,-0.00001137,0.00001444,0.00000009,0.00000512,-0
 .00000102,0.00001860,0.00000855,-0.00002397,0.00002889,-0.00000286,0.0
 0001859,-0.00000935,-0.00002152,-0.00028777,-0.11922097,0.02203423,0.0
 8665938\\0.00000074,-0.00000041,0.00000074,0.,-0.00000092,-0.00000084,
 0.00000236,0.00000107,0.00000250,-0.00000389,0.00000083,0.00000164,0.0
 0000113,-0.00000130,-0.00000148,-0.00000183,0.00000044,0.00000225,-0.0
 0000064,-0.00000036,0.00000076,0.00000221,0.00000047,0.00000060,0.0000
 0028,0.00000047,0.00000058,-0.00000061,0.00000065,0.00000243,-0.000000
 87,0.00000036,-0.00000014,-0.00000050,0.00000136,0.00000233,0.00000229
 ,-0.00000243,-0.00000194,-0.00000239,-0.00000218,0.00000181,0.00000103
 ,0.00000030,0.00000020,0.00000053,0.00000134,-0.00000238,0.00000061,0.
 00000066,-0.00000234,-0.00000025,0.00000044,-0.00000057,-0.00000225,0.
 00000060,-0.00000062,0.00000054,-0.00000057,-0.00000081,0.00000200,0.0
 0000065,-0.00000199,-0.00000079,-0.00000027,0.00000263,0.00000284,-0.0
 0000068,-0.00000351,-0.00000143,0.00000133,-0.00000124,0.00000015,-0.0
 0000059,0.00000023,-0.00000083,-0.00000013,-0.00000056,-0.00000037,-0.
 00000026,0.00000053,0.00000275,-0.00000128,-0.00000153,-0.00000263,-0.
 00000140,0.00000164,0.00000015,0.00000016,-0.00000070,-0.00000020,0.00
 000020,-0.00000044,-0.00000089,-0.00000035,-0.00000115,-0.00000075,-0.
 00000010,-0.00000030,-0.00000196,0.00000027,0.00000085,-0.00000139,0.0
 0000167,0.00000035,0.00000026,-0.00000018,0.00000080,0.00000035,0.0000
 0014,0.00000165,0.00000057,-0.00000037,0.00000110,0.00000107,-0.000000
 08,0.00000041,0.00000225,-0.00000041,-0.00000048,-0.00000225,-0.000000
 39,0.00000058,-0.00000104,-0.00000009,-0.00000038,-0.00000056,-0.00000
 040,-0.00000107,-0.00000035,0.00000011,-0.00000162,-0.00000022,-0.0000
 0019,-0.00000075,0.00000143,0.00000166,-0.00000085,0.00000147,0.000000
 31,-0.00000039,0.00000101,0.00000008,0.00000016,0.00000008,0.00000016,
 0.00000027,0.00000109,-0.00000004,0.00000105,0.,-0.00000030,0.00000013
 ,-0.00000032,-0.00000001,-0.00000013\\\@
 The archive entry for this job was punched.


 HE THAT FOLLOWS NATURE IS NEVER LOST.

                             -- BACON
 Job cpu time:       0 days  4 hours 46 minutes 56.2 seconds.
 Elapsed time:       0 days  0 hours  9 minutes  1.5 seconds.
 File lengths (MBytes):  RWF=   1409 Int=      0 D2E=      0 Chk=     21 Scr=      2
 Normal termination of Gaussian 16 at Sat Jul  5 15:42:49 2025.
