 Entering Gaussian System, Link 0=g16
 Initial command:
 /public/apps/g16-C01//g16/l1.exe "/public/home/ljq/tmp/Gau-89812.inp" -scrdir="/public/home/ljq/tmp/"
 Entering Link 1 = /public/apps/g16-C01//g16/l1.exe PID=     89813.
  
 Copyright (c) 1988-2019, Gaussian, Inc.  All Rights Reserved.
  
 This is part of the Gaussian(R) 16 program.  It is based on
 the Gaussian(R) 09 system (copyright 2009, Gaussian, Inc.),
 the Gaussian(R) 03 system (copyright 2003, Gaussian, Inc.),
 the Gaussian(R) 98 system (copyright 1998, Gaussian, Inc.),
 the Gaussian(R) 94 system (copyright 1995, Gaussian, Inc.),
 the Gaussian 92(TM) system (copyright 1992, Gaussian, Inc.),
 the Gaussian 90(TM) system (copyright 1990, Gaussian, Inc.),
 the Gaussian 88(TM) system (copyright 1988, Gaussian, Inc.),
 the Gaussian 86(TM) system (copyright 1986, Carnegie Mellon
 University), and the Gaussian 82(TM) system (copyright 1983,
 Carnegie Mellon University). Gaussian is a federally registered
 trademark of Gaussian, Inc.
  
 This software contains proprietary and confidential information,
 including trade secrets, belonging to Gaussian, Inc.
  
 This software is provided under written license and may be
 used, copied, transmitted, or stored only in accord with that
 written license.
  
 The following legend is applicable only to US Government
 contracts under FAR:
  
                    RESTRICTED RIGHTS LEGEND
  
 Use, reproduction and disclosure by the US Government is
 subject to restrictions as set forth in subparagraphs (a)
 and (c) of the Commercial Computer Software - Restricted
 Rights clause in FAR 52.227-19.
  
 Gaussian, Inc.
 340 Quinnipiac St., Bldg. 40, Wallingford CT 06492
  
  
 ---------------------------------------------------------------
 Warning -- This program may not be used in any manner that
 competes with the business of Gaussian, Inc. or will provide
 assistance to any competitor of Gaussian, Inc.  The licensee
 of this program is prohibited from giving any competitor of
 Gaussian, Inc. access to this program.  By using this program,
 the user acknowledges that Gaussian, Inc. is engaged in the
 business of creating and licensing software in the field of
 computational chemistry and represents and warrants to the
 licensee that it is not a competitor of Gaussian, Inc. and that
 it will not use this program in any manner prohibited above.
 ---------------------------------------------------------------
  

 Cite this work as:
 Gaussian 16, Revision C.01,
 M. J. Frisch, G. W. Trucks, H. B. Schlegel, G. E. Scuseria, 
 M. A. Robb, J. R. Cheeseman, G. Scalmani, V. Barone, 
 G. A. Petersson, H. Nakatsuji, X. Li, M. Caricato, A. V. Marenich, 
 J. Bloino, B. G. Janesko, R. Gomperts, B. Mennucci, H. P. Hratchian, 
 J. V. Ortiz, A. F. Izmaylov, J. L. Sonnenberg, D. Williams-Young, 
 F. Ding, F. Lipparini, F. Egidi, J. Goings, B. Peng, A. Petrone, 
 T. Henderson, D. Ranasinghe, V. G. Zakrzewski, J. Gao, N. Rega, 
 G. Zheng, W. Liang, M. Hada, M. Ehara, K. Toyota, R. Fukuda, 
 J. Hasegawa, M. Ishida, T. Nakajima, Y. Honda, O. Kitao, H. Nakai, 
 T. Vreven, K. Throssell, J. A. Montgomery, Jr., J. E. Peralta, 
 F. Ogliaro, M. J. Bearpark, J. J. Heyd, E. N. Brothers, K. N. Kudin, 
 V. N. Staroverov, T. A. Keith, R. Kobayashi, J. Normand, 
 K. Raghavachari, A. P. Rendell, J. C. Burant, S. S. Iyengar, 
 J. Tomasi, M. Cossi, J. M. Millam, M. Klene, C. Adamo, R. Cammi, 
 J. W. Ochterski, R. L. Martin, K. Morokuma, O. Farkas, 
 J. B. Foresman, and D. J. Fox, Gaussian, Inc., Wallingford CT, 2019.
 
 ******************************************
 Gaussian 16:  ES64L-G16RevC.01  3-Jul-2019
                25-Feb-2024 
 ******************************************
 %nproc=40
 Will use up to   40 processors via shared memory.
 %mem=56GB
 ------------------------------------------
 #p opt freq b3lyp/def2svpp em=gd3bj nosymm
 ------------------------------------------
 1/18=20,19=15,26=3,38=1/1,3;
 2/9=110,12=2,15=1,17=6,18=5,40=1/2;
 3/5=43,7=202,11=2,25=1,30=1,71=1,74=-5,124=41/1,2,3;
 4//1;
 5/5=2,38=5/2;
 6/7=2,8=2,9=2,10=2,28=1/1;
 7/30=1/1,2,3,16;
 1/18=20,19=15,26=3/3(2);
 2/9=110,15=1/2;
 99//99;
 2/9=110,15=1/2;
 3/5=43,7=202,11=2,25=1,30=1,71=1,74=-5,124=41/1,2,3;
 4/5=5,16=3,69=1/1;
 5/5=2,38=5/2;
 7/30=1/1,2,3,16;
 1/18=20,19=15,26=3/3(-5);
 2/9=110,15=1/2;
 6/7=2,8=2,9=2,10=2,19=2,28=1/1;
 99/9=1/99;
 Leave Link    1 at Sun Feb 25 07:02:19 2024, MaxMem=  7516192768 cpu:               1.1 elap:               0.0
 (Enter /public/apps/g16-C01//g16/l101.exe)
 ----------------------
 $$$$Singlemol####0????
 ----------------------
 Symbolic Z-matrix:
 Charge =  0 Multiplicity = 1
 C                     2.35393  -0.2384   -1.81099 
 C                     2.08362  -0.13102  -0.31351 
 C                     3.26604  -0.63989   0.51628 
 C                     1.78322   1.29401   0.05636 
 N                     1.71458   2.25901  -0.75361 
 C                     1.31657   3.43345  -0.00755 
 C                    -0.08547   3.85139  -0.35222 
 C                    -0.55169   4.32112  -1.56398 
 C                    -1.9006    4.61808  -1.68566 
 C                    -2.76047   4.44236  -0.61348 
 C                    -2.28959   3.96291   0.59954 
 C                    -0.94579   3.66473   0.72363 
 C                    -0.22734   3.14029   1.93214 
 C                     1.22447   2.9329    1.46743 
 O                     1.55465   1.55102   1.36691 
 C                     0.83285  -0.88489   0.04312 
 N                    -0.10036  -1.14765  -0.76595 
 C                    -1.12525  -1.86575  -0.03987 
 C                    -1.20431  -3.30582  -0.46208 
 C                    -1.5755   -3.80447  -1.69501 
 C                    -1.54725  -5.1768   -1.8912 
 C                    -1.15125  -6.02662  -0.87086 
 C                    -0.77228  -5.52129   0.3637 
 C                    -0.79808  -4.15372   0.56202 
 C                    -0.4343   -3.39708   1.80605 
 C                    -0.58789  -1.91467   1.4239 
 O                     0.67214  -1.25668   1.33425 
 H                     3.1996    0.38852  -2.07704 
 H                     1.48156   0.09526  -2.36213 
 H                     2.5647   -1.27107  -2.07521 
 H                     3.45046  -1.68802   0.29154 
 H                     4.1576   -0.06589   0.27398 
 H                     3.0518   -0.53692   1.57666 
 H                     2.04117   4.23575  -0.17434 
 H                     0.12399   4.44408  -2.39589 
 H                    -2.28507   4.98691  -2.62498 
 H                    -3.80908   4.67726  -0.72333 
 H                    -2.96214   3.82208   1.43324 
 H                    -0.27961   3.84668   2.76272 
 H                    -0.64615   2.18999   2.26949 
 H                     1.94676   3.40065   2.14272 
 H                    -2.08122  -1.34723  -0.15841 
 H                    -1.8725   -3.13325  -2.48562 
 H                    -1.83454  -5.58694  -2.84799 
 H                    -1.13428  -7.09353  -1.0385 
 H                    -0.4597   -6.18492   1.15669 
 H                     0.59398  -3.59726   2.11364 
 H                    -1.09231  -3.66063   2.63604 
 H                    -1.20306  -1.36446   2.1419 
 
 ITRead=  0  0  0  0  0  0  0  0  0  0  0  0  0  0  0  0  0  0  0  0
 ITRead=  0  0  0  0  0  0  0  0  0  0  0  0  0  0  0  0  0  0  0  0
 ITRead=  0  0  0  0  0  0  0  0  0
 MicOpt= -1 -1 -1 -1 -1 -1 -1 -1 -1 -1 -1 -1 -1 -1 -1 -1 -1 -1 -1 -1
 MicOpt= -1 -1 -1 -1 -1 -1 -1 -1 -1 -1 -1 -1 -1 -1 -1 -1 -1 -1 -1 -1
 MicOpt= -1 -1 -1 -1 -1 -1 -1 -1 -1
 NAtoms=     49 NQM=       49 NQMF=       0 NMMI=      0 NMMIF=      0
                NMic=       0 NMicF=      0.
                    Isotopes and Nuclear Properties:
 (Nuclear quadrupole moments (NQMom) in fm**2, nuclear magnetic moments (NMagM)
  in nuclear magnetons)

  Atom         1           2           3           4           5           6           7           8           9          10
 IAtWgt=          12          12          12          12          14          12          12          12          12          12
 AtmWgt=  12.0000000  12.0000000  12.0000000  12.0000000  14.0030740  12.0000000  12.0000000  12.0000000  12.0000000  12.0000000
 NucSpn=           0           0           0           0           2           0           0           0           0           0
 AtZEff=  -0.0000000  -0.0000000  -0.0000000  -0.0000000  -0.0000000  -0.0000000  -0.0000000  -0.0000000  -0.0000000  -0.0000000
 NQMom=    0.0000000   0.0000000   0.0000000   0.0000000   2.0440000   0.0000000   0.0000000   0.0000000   0.0000000   0.0000000
 NMagM=    0.0000000   0.0000000   0.0000000   0.0000000   0.4037610   0.0000000   0.0000000   0.0000000   0.0000000   0.0000000
 AtZNuc=   6.0000000   6.0000000   6.0000000   6.0000000   7.0000000   6.0000000   6.0000000   6.0000000   6.0000000   6.0000000

  Atom        11          12          13          14          15          16          17          18          19          20
 IAtWgt=          12          12          12          12          16          12          14          12          12          12
 AtmWgt=  12.0000000  12.0000000  12.0000000  12.0000000  15.9949146  12.0000000  14.0030740  12.0000000  12.0000000  12.0000000
 NucSpn=           0           0           0           0           0           0           2           0           0           0
 AtZEff=  -0.0000000  -0.0000000  -0.0000000  -0.0000000  -0.0000000  -0.0000000  -0.0000000  -0.0000000  -0.0000000  -0.0000000
 NQMom=    0.0000000   0.0000000   0.0000000   0.0000000   0.0000000   0.0000000   2.0440000   0.0000000   0.0000000   0.0000000
 NMagM=    0.0000000   0.0000000   0.0000000   0.0000000   0.0000000   0.0000000   0.4037610   0.0000000   0.0000000   0.0000000
 AtZNuc=   6.0000000   6.0000000   6.0000000   6.0000000   8.0000000   6.0000000   7.0000000   6.0000000   6.0000000   6.0000000

  Atom        21          22          23          24          25          26          27          28          29          30
 IAtWgt=          12          12          12          12          12          12          16           1           1           1
 AtmWgt=  12.0000000  12.0000000  12.0000000  12.0000000  12.0000000  12.0000000  15.9949146   1.0078250   1.0078250   1.0078250
 NucSpn=           0           0           0           0           0           0           0           1           1           1
 AtZEff=  -0.0000000  -0.0000000  -0.0000000  -0.0000000  -0.0000000  -0.0000000  -0.0000000  -0.0000000  -0.0000000  -0.0000000
 NQMom=    0.0000000   0.0000000   0.0000000   0.0000000   0.0000000   0.0000000   0.0000000   0.0000000   0.0000000   0.0000000
 NMagM=    0.0000000   0.0000000   0.0000000   0.0000000   0.0000000   0.0000000   0.0000000   2.7928460   2.7928460   2.7928460
 AtZNuc=   6.0000000   6.0000000   6.0000000   6.0000000   6.0000000   6.0000000   8.0000000   1.0000000   1.0000000   1.0000000

  Atom        31          32          33          34          35          36          37          38          39          40
 IAtWgt=           1           1           1           1           1           1           1           1           1           1
 AtmWgt=   1.0078250   1.0078250   1.0078250   1.0078250   1.0078250   1.0078250   1.0078250   1.0078250   1.0078250   1.0078250
 NucSpn=           1           1           1           1           1           1           1           1           1           1
 AtZEff=  -0.0000000  -0.0000000  -0.0000000  -0.0000000  -0.0000000  -0.0000000  -0.0000000  -0.0000000  -0.0000000  -0.0000000
 NQMom=    0.0000000   0.0000000   0.0000000   0.0000000   0.0000000   0.0000000   0.0000000   0.0000000   0.0000000   0.0000000
 NMagM=    2.7928460   2.7928460   2.7928460   2.7928460   2.7928460   2.7928460   2.7928460   2.7928460   2.7928460   2.7928460
 AtZNuc=   1.0000000   1.0000000   1.0000000   1.0000000   1.0000000   1.0000000   1.0000000   1.0000000   1.0000000   1.0000000

  Atom        41          42          43          44          45          46          47          48          49
 IAtWgt=           1           1           1           1           1           1           1           1           1
 AtmWgt=   1.0078250   1.0078250   1.0078250   1.0078250   1.0078250   1.0078250   1.0078250   1.0078250   1.0078250
 NucSpn=           1           1           1           1           1           1           1           1           1
 AtZEff=  -0.0000000  -0.0000000  -0.0000000  -0.0000000  -0.0000000  -0.0000000  -0.0000000  -0.0000000  -0.0000000
 NQMom=    0.0000000   0.0000000   0.0000000   0.0000000   0.0000000   0.0000000   0.0000000   0.0000000   0.0000000
 NMagM=    2.7928460   2.7928460   2.7928460   2.7928460   2.7928460   2.7928460   2.7928460   2.7928460   2.7928460
 AtZNuc=   1.0000000   1.0000000   1.0000000   1.0000000   1.0000000   1.0000000   1.0000000   1.0000000   1.0000000
 Leave Link  101 at Sun Feb 25 07:02:19 2024, MaxMem=  7516192768 cpu:              10.2 elap:               0.3
 (Enter /public/apps/g16-C01//g16/l103.exe)

 GradGradGradGradGradGradGradGradGradGradGradGradGradGradGradGradGradGrad
 Berny optimization.
 Initialization pass.
                           ----------------------------
                           !    Initial Parameters    !
                           ! (Angstroms and Degrees)  !
 --------------------------                            --------------------------
 ! Name  Definition              Value          Derivative Info.                !
 --------------------------------------------------------------------------------
 ! R1    R(1,2)                  1.5255         estimate D2E/DX2                !
 ! R2    R(1,28)                 1.0858         estimate D2E/DX2                !
 ! R3    R(1,29)                 1.0845         estimate D2E/DX2                !
 ! R4    R(1,30)                 1.0866         estimate D2E/DX2                !
 ! R5    R(2,3)                  1.5315         estimate D2E/DX2                !
 ! R6    R(2,4)                  1.5026         estimate D2E/DX2                !
 ! R7    R(2,16)                 1.5033         estimate D2E/DX2                !
 ! R8    R(3,31)                 1.0877         estimate D2E/DX2                !
 ! R9    R(3,32)                 1.0877         estimate D2E/DX2                !
 ! R10   R(3,33)                 1.0867         estimate D2E/DX2                !
 ! R11   R(4,5)                  1.2617         estimate D2E/DX2                !
 ! R12   R(4,15)                 1.3549         estimate D2E/DX2                !
 ! R13   R(5,6)                  1.4472         estimate D2E/DX2                !
 ! R14   R(6,7)                  1.5031         estimate D2E/DX2                !
 ! R15   R(6,14)                 1.5603         estimate D2E/DX2                !
 ! R16   R(6,34)                 1.0939         estimate D2E/DX2                !
 ! R17   R(7,8)                  1.3807         estimate D2E/DX2                !
 ! R18   R(7,12)                 1.3901         estimate D2E/DX2                !
 ! R19   R(8,9)                  1.3866         estimate D2E/DX2                !
 ! R20   R(8,35)                 1.0788         estimate D2E/DX2                !
 ! R21   R(9,10)                 1.3856         estimate D2E/DX2                !
 ! R22   R(9,36)                 1.0799         estimate D2E/DX2                !
 ! R23   R(10,11)                1.3867         estimate D2E/DX2                !
 ! R24   R(10,37)                1.0802         estimate D2E/DX2                !
 ! R25   R(11,12)                1.3821         estimate D2E/DX2                !
 ! R26   R(11,38)                1.0804         estimate D2E/DX2                !
 ! R27   R(12,13)                1.5006         estimate D2E/DX2                !
 ! R28   R(13,14)                1.5384         estimate D2E/DX2                !
 ! R29   R(13,39)                1.0916         estimate D2E/DX2                !
 ! R30   R(13,40)                1.0919         estimate D2E/DX2                !
 ! R31   R(14,15)                1.4243         estimate D2E/DX2                !
 ! R32   R(14,41)                1.0938         estimate D2E/DX2                !
 ! R33   R(16,17)                1.2627         estimate D2E/DX2                !
 ! R34   R(16,27)                1.3532         estimate D2E/DX2                !
 ! R35   R(17,18)                1.4468         estimate D2E/DX2                !
 ! R36   R(18,19)                1.5028         estimate D2E/DX2                !
 ! R37   R(18,26)                1.5601         estimate D2E/DX2                !
 ! R38   R(18,42)                1.094          estimate D2E/DX2                !
 ! R39   R(19,20)                1.3808         estimate D2E/DX2                !
 ! R40   R(19,24)                1.3902         estimate D2E/DX2                !
 ! R41   R(20,21)                1.3866         estimate D2E/DX2                !
 ! R42   R(20,43)                1.0788         estimate D2E/DX2                !
 ! R43   R(21,22)                1.3857         estimate D2E/DX2                !
 ! R44   R(21,44)                1.0799         estimate D2E/DX2                !
 ! R45   R(22,23)                1.3868         estimate D2E/DX2                !
 ! R46   R(22,45)                1.0801         estimate D2E/DX2                !
 ! R47   R(23,24)                1.3821         estimate D2E/DX2                !
 ! R48   R(23,46)                1.0803         estimate D2E/DX2                !
 ! R49   R(24,25)                1.5008         estimate D2E/DX2                !
 ! R50   R(25,26)                1.5386         estimate D2E/DX2                !
 ! R51   R(25,47)                1.0918         estimate D2E/DX2                !
 ! R52   R(25,48)                1.0915         estimate D2E/DX2                !
 ! R53   R(26,27)                1.4243         estimate D2E/DX2                !
 ! R54   R(26,49)                1.0939         estimate D2E/DX2                !
 ! A1    A(2,1,28)             109.7486         estimate D2E/DX2                !
 ! A2    A(2,1,29)             109.5531         estimate D2E/DX2                !
 ! A3    A(2,1,30)             109.8752         estimate D2E/DX2                !
 ! A4    A(28,1,29)            108.9266         estimate D2E/DX2                !
 ! A5    A(28,1,30)            109.7598         estimate D2E/DX2                !
 ! A6    A(29,1,30)            108.957          estimate D2E/DX2                !
 ! A7    A(1,2,3)              111.8187         estimate D2E/DX2                !
 ! A8    A(1,2,4)              110.1101         estimate D2E/DX2                !
 ! A9    A(1,2,16)             110.1825         estimate D2E/DX2                !
 ! A10   A(3,2,4)              109.639          estimate D2E/DX2                !
 ! A11   A(3,2,16)             110.3159         estimate D2E/DX2                !
 ! A12   A(4,2,16)             104.5283         estimate D2E/DX2                !
 ! A13   A(2,3,31)             109.8234         estimate D2E/DX2                !
 ! A14   A(2,3,32)             109.6814         estimate D2E/DX2                !
 ! A15   A(2,3,33)             110.181          estimate D2E/DX2                !
 ! A16   A(31,3,32)            108.8764         estimate D2E/DX2                !
 ! A17   A(31,3,33)            109.0475         estimate D2E/DX2                !
 ! A18   A(32,3,33)            109.2063         estimate D2E/DX2                !
 ! A19   A(2,4,5)              125.3242         estimate D2E/DX2                !
 ! A20   A(2,4,15)             116.8536         estimate D2E/DX2                !
 ! A21   A(5,4,15)             117.8181         estimate D2E/DX2                !
 ! A22   A(4,5,6)              107.74           estimate D2E/DX2                !
 ! A23   A(5,6,7)              111.3447         estimate D2E/DX2                !
 ! A24   A(5,6,14)             104.077          estimate D2E/DX2                !
 ! A25   A(5,6,34)             109.5377         estimate D2E/DX2                !
 ! A26   A(7,6,14)             104.5321         estimate D2E/DX2                !
 ! A27   A(7,6,34)             112.2711         estimate D2E/DX2                !
 ! A28   A(14,6,34)            114.7418         estimate D2E/DX2                !
 ! A29   A(6,7,8)              127.6495         estimate D2E/DX2                !
 ! A30   A(6,7,12)             111.2521         estimate D2E/DX2                !
 ! A31   A(8,7,12)             121.0594         estimate D2E/DX2                !
 ! A32   A(7,8,9)              118.5799         estimate D2E/DX2                !
 ! A33   A(7,8,35)             120.2708         estimate D2E/DX2                !
 ! A34   A(9,8,35)             121.1475         estimate D2E/DX2                !
 ! A35   A(8,9,10)             120.5747         estimate D2E/DX2                !
 ! A36   A(8,9,36)             119.7253         estimate D2E/DX2                !
 ! A37   A(10,9,36)            119.6998         estimate D2E/DX2                !
 ! A38   A(9,10,11)            120.6642         estimate D2E/DX2                !
 ! A39   A(9,10,37)            119.7469         estimate D2E/DX2                !
 ! A40   A(11,10,37)           119.5885         estimate D2E/DX2                !
 ! A41   A(10,11,12)           118.9005         estimate D2E/DX2                !
 ! A42   A(10,11,38)           120.5774         estimate D2E/DX2                !
 ! A43   A(12,11,38)           120.5218         estimate D2E/DX2                !
 ! A44   A(7,12,11)            120.2177         estimate D2E/DX2                !
 ! A45   A(7,12,13)            111.9571         estimate D2E/DX2                !
 ! A46   A(11,12,13)           127.8243         estimate D2E/DX2                !
 ! A47   A(12,13,14)           104.8134         estimate D2E/DX2                !
 ! A48   A(12,13,39)           111.3279         estimate D2E/DX2                !
 ! A49   A(12,13,40)           111.6755         estimate D2E/DX2                !
 ! A50   A(14,13,39)           111.2391         estimate D2E/DX2                !
 ! A51   A(14,13,40)           109.753          estimate D2E/DX2                !
 ! A52   A(39,13,40)           108.0438         estimate D2E/DX2                !
 ! A53   A(6,14,13)            107.3375         estimate D2E/DX2                !
 ! A54   A(6,14,15)            103.3468         estimate D2E/DX2                !
 ! A55   A(6,14,41)            114.0435         estimate D2E/DX2                !
 ! A56   A(13,14,15)           111.7693         estimate D2E/DX2                !
 ! A57   A(13,14,41)           112.2729         estimate D2E/DX2                !
 ! A58   A(15,14,41)           107.7808         estimate D2E/DX2                !
 ! A59   A(4,15,14)            106.9416         estimate D2E/DX2                !
 ! A60   A(2,16,17)            124.5578         estimate D2E/DX2                !
 ! A61   A(2,16,27)            117.5779         estimate D2E/DX2                !
 ! A62   A(17,16,27)           117.8008         estimate D2E/DX2                !
 ! A63   A(16,17,18)           107.7735         estimate D2E/DX2                !
 ! A64   A(17,18,19)           111.8327         estimate D2E/DX2                !
 ! A65   A(17,18,26)           104.0304         estimate D2E/DX2                !
 ! A66   A(17,18,42)           109.2315         estimate D2E/DX2                !
 ! A67   A(19,18,26)           104.5772         estimate D2E/DX2                !
 ! A68   A(19,18,42)           112.1966         estimate D2E/DX2                !
 ! A69   A(26,18,42)           114.6785         estimate D2E/DX2                !
 ! A70   A(18,19,20)           127.6678         estimate D2E/DX2                !
 ! A71   A(18,19,24)           111.2302         estimate D2E/DX2                !
 ! A72   A(20,19,24)           121.0685         estimate D2E/DX2                !
 ! A73   A(19,20,21)           118.5735         estimate D2E/DX2                !
 ! A74   A(19,20,43)           120.2454         estimate D2E/DX2                !
 ! A75   A(21,20,43)           121.1794         estimate D2E/DX2                !
 ! A76   A(20,21,22)           120.5727         estimate D2E/DX2                !
 ! A77   A(20,21,44)           119.7245         estimate D2E/DX2                !
 ! A78   A(22,21,44)           119.7028         estimate D2E/DX2                !
 ! A79   A(21,22,23)           120.6734         estimate D2E/DX2                !
 ! A80   A(21,22,45)           119.735          estimate D2E/DX2                !
 ! A81   A(23,22,45)           119.5913         estimate D2E/DX2                !
 ! A82   A(22,23,24)           118.8949         estimate D2E/DX2                !
 ! A83   A(22,23,46)           120.5793         estimate D2E/DX2                !
 ! A84   A(24,23,46)           120.5256         estimate D2E/DX2                !
 ! A85   A(19,24,23)           120.214          estimate D2E/DX2                !
 ! A86   A(19,24,25)           111.9592         estimate D2E/DX2                !
 ! A87   A(23,24,25)           127.826          estimate D2E/DX2                !
 ! A88   A(24,25,26)           104.8133         estimate D2E/DX2                !
 ! A89   A(24,25,47)           111.6767         estimate D2E/DX2                !
 ! A90   A(24,25,48)           111.2511         estimate D2E/DX2                !
 ! A91   A(26,25,47)           109.9164         estimate D2E/DX2                !
 ! A92   A(26,25,48)           111.1834         estimate D2E/DX2                !
 ! A93   A(47,25,48)           108.0161         estimate D2E/DX2                !
 ! A94   A(18,26,25)           107.317          estimate D2E/DX2                !
 ! A95   A(18,26,27)           103.3664         estimate D2E/DX2                !
 ! A96   A(18,26,49)           113.9765         estimate D2E/DX2                !
 ! A97   A(25,26,27)           111.8659         estimate D2E/DX2                !
 ! A98   A(25,26,49)           112.1923         estimate D2E/DX2                !
 ! A99   A(27,26,49)           107.8448         estimate D2E/DX2                !
 ! A100  A(16,27,26)           106.9808         estimate D2E/DX2                !
 ! D1    D(28,1,2,3)           -62.586          estimate D2E/DX2                !
 ! D2    D(28,1,2,4)            59.5627         estimate D2E/DX2                !
 ! D3    D(28,1,2,16)          174.3474         estimate D2E/DX2                !
 ! D4    D(29,1,2,3)           177.8614         estimate D2E/DX2                !
 ! D5    D(29,1,2,4)           -59.9899         estimate D2E/DX2                !
 ! D6    D(29,1,2,16)           54.7948         estimate D2E/DX2                !
 ! D7    D(30,1,2,3)            58.1938         estimate D2E/DX2                !
 ! D8    D(30,1,2,4)          -179.6575         estimate D2E/DX2                !
 ! D9    D(30,1,2,16)          -64.8728         estimate D2E/DX2                !
 ! D10   D(1,2,3,31)           -60.7494         estimate D2E/DX2                !
 ! D11   D(1,2,3,32)            58.8666         estimate D2E/DX2                !
 ! D12   D(1,2,3,33)           179.1118         estimate D2E/DX2                !
 ! D13   D(4,2,3,31)           176.8323         estimate D2E/DX2                !
 ! D14   D(4,2,3,32)           -63.5516         estimate D2E/DX2                !
 ! D15   D(4,2,3,33)            56.6936         estimate D2E/DX2                !
 ! D16   D(16,2,3,31)           62.2415         estimate D2E/DX2                !
 ! D17   D(16,2,3,32)         -178.1425         estimate D2E/DX2                !
 ! D18   D(16,2,3,33)          -57.8973         estimate D2E/DX2                !
 ! D19   D(1,2,4,5)              2.3799         estimate D2E/DX2                !
 ! D20   D(1,2,4,15)          -178.375          estimate D2E/DX2                !
 ! D21   D(3,2,4,5)            125.8092         estimate D2E/DX2                !
 ! D22   D(3,2,4,15)           -54.9457         estimate D2E/DX2                !
 ! D23   D(16,2,4,5)          -115.9426         estimate D2E/DX2                !
 ! D24   D(16,2,4,15)           63.3026         estimate D2E/DX2                !
 ! D25   D(1,2,16,17)          -23.595          estimate D2E/DX2                !
 ! D26   D(1,2,16,27)          159.3737         estimate D2E/DX2                !
 ! D27   D(3,2,16,17)         -147.5361         estimate D2E/DX2                !
 ! D28   D(3,2,16,27)           35.4327         estimate D2E/DX2                !
 ! D29   D(4,2,16,17)           94.6781         estimate D2E/DX2                !
 ! D30   D(4,2,16,27)          -82.3532         estimate D2E/DX2                !
 ! D31   D(2,4,5,6)            176.1655         estimate D2E/DX2                !
 ! D32   D(15,4,5,6)            -3.0731         estimate D2E/DX2                !
 ! D33   D(2,4,15,14)         -176.918          estimate D2E/DX2                !
 ! D34   D(5,4,15,14)            2.3856         estimate D2E/DX2                !
 ! D35   D(4,5,6,7)           -109.7465         estimate D2E/DX2                !
 ! D36   D(4,5,6,14)             2.3231         estimate D2E/DX2                !
 ! D37   D(4,5,6,34)           125.4731         estimate D2E/DX2                !
 ! D38   D(5,6,7,8)            -65.5003         estimate D2E/DX2                !
 ! D39   D(5,6,7,12)           112.221          estimate D2E/DX2                !
 ! D40   D(14,6,7,8)          -177.2816         estimate D2E/DX2                !
 ! D41   D(14,6,7,12)            0.4397         estimate D2E/DX2                !
 ! D42   D(34,6,7,8)            57.7324         estimate D2E/DX2                !
 ! D43   D(34,6,7,12)         -124.5463         estimate D2E/DX2                !
 ! D44   D(5,6,14,13)         -119.2339         estimate D2E/DX2                !
 ! D45   D(5,6,14,15)           -0.9804         estimate D2E/DX2                !
 ! D46   D(5,6,14,41)          115.7324         estimate D2E/DX2                !
 ! D47   D(7,6,14,13)           -2.3202         estimate D2E/DX2                !
 ! D48   D(7,6,14,15)          115.9333         estimate D2E/DX2                !
 ! D49   D(7,6,14,41)         -127.3539         estimate D2E/DX2                !
 ! D50   D(34,6,14,13)         121.0841         estimate D2E/DX2                !
 ! D51   D(34,6,14,15)        -120.6624         estimate D2E/DX2                !
 ! D52   D(34,6,14,41)          -3.9496         estimate D2E/DX2                !
 ! D53   D(6,7,8,9)            178.1558         estimate D2E/DX2                !
 ! D54   D(6,7,8,35)            -1.3533         estimate D2E/DX2                !
 ! D55   D(12,7,8,9)             0.6351         estimate D2E/DX2                !
 ! D56   D(12,7,8,35)         -178.874          estimate D2E/DX2                !
 ! D57   D(6,7,12,11)         -178.604          estimate D2E/DX2                !
 ! D58   D(6,7,12,13)            1.7141         estimate D2E/DX2                !
 ! D59   D(8,7,12,11)           -0.71           estimate D2E/DX2                !
 ! D60   D(8,7,12,13)          179.6081         estimate D2E/DX2                !
 ! D61   D(7,8,9,10)            -0.1891         estimate D2E/DX2                !
 ! D62   D(7,8,9,36)           179.9839         estimate D2E/DX2                !
 ! D63   D(35,8,9,10)          179.3155         estimate D2E/DX2                !
 ! D64   D(35,8,9,36)           -0.5115         estimate D2E/DX2                !
 ! D65   D(8,9,10,11)           -0.1866         estimate D2E/DX2                !
 ! D66   D(8,9,10,37)         -179.9551         estimate D2E/DX2                !
 ! D67   D(36,9,10,11)         179.6404         estimate D2E/DX2                !
 ! D68   D(36,9,10,37)          -0.1281         estimate D2E/DX2                !
 ! D69   D(9,10,11,12)           0.1197         estimate D2E/DX2                !
 ! D70   D(9,10,11,38)        -179.7139         estimate D2E/DX2                !
 ! D71   D(37,10,11,12)        179.8885         estimate D2E/DX2                !
 ! D72   D(37,10,11,38)          0.055          estimate D2E/DX2                !
 ! D73   D(10,11,12,7)           0.321          estimate D2E/DX2                !
 ! D74   D(10,11,12,13)        179.9476         estimate D2E/DX2                !
 ! D75   D(38,11,12,7)        -179.8453         estimate D2E/DX2                !
 ! D76   D(38,11,12,13)         -0.2188         estimate D2E/DX2                !
 ! D77   D(7,12,13,14)          -3.1134         estimate D2E/DX2                !
 ! D78   D(7,12,13,39)         117.2525         estimate D2E/DX2                !
 ! D79   D(7,12,13,40)        -121.8835         estimate D2E/DX2                !
 ! D80   D(11,12,13,14)        177.2345         estimate D2E/DX2                !
 ! D81   D(11,12,13,39)        -62.3995         estimate D2E/DX2                !
 ! D82   D(11,12,13,40)         58.4645         estimate D2E/DX2                !
 ! D83   D(12,13,14,6)           3.2355         estimate D2E/DX2                !
 ! D84   D(12,13,14,15)       -109.4127         estimate D2E/DX2                !
 ! D85   D(12,13,14,41)        129.3286         estimate D2E/DX2                !
 ! D86   D(39,13,14,6)        -117.1894         estimate D2E/DX2                !
 ! D87   D(39,13,14,15)        130.1624         estimate D2E/DX2                !
 ! D88   D(39,13,14,41)          8.9036         estimate D2E/DX2                !
 ! D89   D(40,13,14,6)         123.2951         estimate D2E/DX2                !
 ! D90   D(40,13,14,15)         10.6469         estimate D2E/DX2                !
 ! D91   D(40,13,14,41)       -110.6119         estimate D2E/DX2                !
 ! D92   D(6,14,15,4)           -0.5884         estimate D2E/DX2                !
 ! D93   D(13,14,15,4)         114.533          estimate D2E/DX2                !
 ! D94   D(41,14,15,4)        -121.6413         estimate D2E/DX2                !
 ! D95   D(2,16,17,18)        -179.2643         estimate D2E/DX2                !
 ! D96   D(27,16,17,18)         -2.2391         estimate D2E/DX2                !
 ! D97   D(2,16,27,26)         178.4763         estimate D2E/DX2                !
 ! D98   D(17,16,27,26)          1.2401         estimate D2E/DX2                !
 ! D99   D(16,17,18,19)       -110.1686         estimate D2E/DX2                !
 ! D100  D(16,17,18,26)          2.1394         estimate D2E/DX2                !
 ! D101  D(16,17,18,42)        125.0259         estimate D2E/DX2                !
 ! D102  D(17,18,19,20)        -65.4159         estimate D2E/DX2                !
 ! D103  D(17,18,19,24)        112.4722         estimate D2E/DX2                !
 ! D104  D(26,18,19,20)       -177.3811         estimate D2E/DX2                !
 ! D105  D(26,18,19,24)          0.507          estimate D2E/DX2                !
 ! D106  D(42,18,19,20)         57.7254         estimate D2E/DX2                !
 ! D107  D(42,18,19,24)       -124.3865         estimate D2E/DX2                !
 ! D108  D(17,18,26,25)       -119.7788         estimate D2E/DX2                !
 ! D109  D(17,18,26,27)         -1.4151         estimate D2E/DX2                !
 ! D110  D(17,18,26,49)        115.3539         estimate D2E/DX2                !
 ! D111  D(19,18,26,25)         -2.3226         estimate D2E/DX2                !
 ! D112  D(19,18,26,27)        116.0411         estimate D2E/DX2                !
 ! D113  D(19,18,26,49)       -127.19           estimate D2E/DX2                !
 ! D114  D(42,18,26,25)        120.9815         estimate D2E/DX2                !
 ! D115  D(42,18,26,27)       -120.6548         estimate D2E/DX2                !
 ! D116  D(42,18,26,49)         -3.8859         estimate D2E/DX2                !
 ! D117  D(18,19,20,21)        178.28           estimate D2E/DX2                !
 ! D118  D(18,19,20,43)         -1.257          estimate D2E/DX2                !
 ! D119  D(24,19,20,21)          0.5784         estimate D2E/DX2                !
 ! D120  D(24,19,20,43)       -178.9586         estimate D2E/DX2                !
 ! D121  D(18,19,24,23)       -178.6997         estimate D2E/DX2                !
 ! D122  D(18,19,24,25)          1.6045         estimate D2E/DX2                !
 ! D123  D(20,19,24,23)         -0.6513         estimate D2E/DX2                !
 ! D124  D(20,19,24,25)        179.6529         estimate D2E/DX2                !
 ! D125  D(19,20,21,22)         -0.1623         estimate D2E/DX2                !
 ! D126  D(19,20,21,44)        179.9539         estimate D2E/DX2                !
 ! D127  D(43,20,21,22)        179.3702         estimate D2E/DX2                !
 ! D128  D(43,20,21,44)         -0.5135         estimate D2E/DX2                !
 ! D129  D(20,21,22,23)         -0.1852         estimate D2E/DX2                !
 ! D130  D(20,21,22,45)       -179.9984         estimate D2E/DX2                !
 ! D131  D(44,21,22,23)        179.6985         estimate D2E/DX2                !
 ! D132  D(44,21,22,45)         -0.1146         estimate D2E/DX2                !
 ! D133  D(21,22,23,24)          0.1194         estimate D2E/DX2                !
 ! D134  D(21,22,23,46)       -179.7319         estimate D2E/DX2                !
 ! D135  D(45,22,23,24)        179.9328         estimate D2E/DX2                !
 ! D136  D(45,22,23,46)          0.0816         estimate D2E/DX2                !
 ! D137  D(22,23,24,19)          0.2918         estimate D2E/DX2                !
 ! D138  D(22,23,24,25)        179.9347         estimate D2E/DX2                !
 ! D139  D(46,23,24,19)       -179.8568         estimate D2E/DX2                !
 ! D140  D(46,23,24,25)         -0.214          estimate D2E/DX2                !
 ! D141  D(19,24,25,26)         -3.0111         estimate D2E/DX2                !
 ! D142  D(19,24,25,47)       -121.977          estimate D2E/DX2                !
 ! D143  D(19,24,25,48)        117.247          estimate D2E/DX2                !
 ! D144  D(23,24,25,26)        177.3217         estimate D2E/DX2                !
 ! D145  D(23,24,25,47)         58.3558         estimate D2E/DX2                !
 ! D146  D(23,24,25,48)        -62.4202         estimate D2E/DX2                !
 ! D147  D(24,25,26,18)          3.1784         estimate D2E/DX2                !
 ! D148  D(24,25,26,27)       -109.5305         estimate D2E/DX2                !
 ! D149  D(24,25,26,49)        129.1158         estimate D2E/DX2                !
 ! D150  D(47,25,26,18)        123.3234         estimate D2E/DX2                !
 ! D151  D(47,25,26,27)         10.6145         estimate D2E/DX2                !
 ! D152  D(47,25,26,49)       -110.7392         estimate D2E/DX2                !
 ! D153  D(48,25,26,18)       -117.1247         estimate D2E/DX2                !
 ! D154  D(48,25,26,27)        130.1664         estimate D2E/DX2                !
 ! D155  D(48,25,26,49)          8.8127         estimate D2E/DX2                !
 ! D156  D(18,26,27,16)          0.2752         estimate D2E/DX2                !
 ! D157  D(25,26,27,16)        115.427          estimate D2E/DX2                !
 ! D158  D(49,26,27,16)       -120.741          estimate D2E/DX2                !
 --------------------------------------------------------------------------------
 Trust Radius=3.00D-01 FncErr=1.00D-07 GrdErr=1.00D-06 EigMax=2.50D+02 EigMin=1.00D-04
 Number of steps in this run=    294 maximum allowed number of steps=    294.
 GradGradGradGradGradGradGradGradGradGradGradGradGradGradGradGradGradGrad

 Leave Link  103 at Sun Feb 25 07:02:19 2024, MaxMem=  7516192768 cpu:               0.3 elap:               0.0
 (Enter /public/apps/g16-C01//g16/l202.exe)
                          Input orientation:                          
 ---------------------------------------------------------------------
 Center     Atomic      Atomic             Coordinates (Angstroms)
 Number     Number       Type             X           Y           Z
 ---------------------------------------------------------------------
      1          6           0        2.353931   -0.238397   -1.810993
      2          6           0        2.083621   -0.131017   -0.313514
      3          6           0        3.266041   -0.639890    0.516282
      4          6           0        1.783220    1.294013    0.056357
      5          7           0        1.714576    2.259014   -0.753609
      6          6           0        1.316566    3.433447   -0.007546
      7          6           0       -0.085468    3.851390   -0.352224
      8          6           0       -0.551688    4.321121   -1.563975
      9          6           0       -1.900603    4.618084   -1.685660
     10          6           0       -2.760469    4.442355   -0.613484
     11          6           0       -2.289587    3.962914    0.599543
     12          6           0       -0.945791    3.664726    0.723629
     13          6           0       -0.227342    3.140286    1.932137
     14          6           0        1.224472    2.932896    1.467432
     15          8           0        1.554648    1.551021    1.366912
     16          6           0        0.832850   -0.884889    0.043119
     17          7           0       -0.100358   -1.147649   -0.765945
     18          6           0       -1.125247   -1.865750   -0.039869
     19          6           0       -1.204307   -3.305822   -0.462082
     20          6           0       -1.575500   -3.804468   -1.695013
     21          6           0       -1.547254   -5.176801   -1.891195
     22          6           0       -1.151252   -6.026621   -0.870862
     23          6           0       -0.772277   -5.521290    0.363695
     24          6           0       -0.798083   -4.153724    0.562022
     25          6           0       -0.434302   -3.397079    1.806054
     26          6           0       -0.587888   -1.914674    1.423896
     27          8           0        0.672136   -1.256681    1.334252
     28          1           0        3.199603    0.388521   -2.077038
     29          1           0        1.481558    0.095256   -2.362129
     30          1           0        2.564701   -1.271074   -2.075208
     31          1           0        3.450456   -1.688018    0.291540
     32          1           0        4.157597   -0.065886    0.273982
     33          1           0        3.051796   -0.536921    1.576655
     34          1           0        2.041175    4.235748   -0.174341
     35          1           0        0.123986    4.444080   -2.395887
     36          1           0       -2.285073    4.986914   -2.624981
     37          1           0       -3.809076    4.677262   -0.723326
     38          1           0       -2.962135    3.822076    1.433244
     39          1           0       -0.279609    3.846680    2.762721
     40          1           0       -0.646150    2.189992    2.269488
     41          1           0        1.946760    3.400650    2.142720
     42          1           0       -2.081220   -1.347227   -0.158406
     43          1           0       -1.872497   -3.133253   -2.485617
     44          1           0       -1.834542   -5.586943   -2.847990
     45          1           0       -1.134277   -7.093530   -1.038503
     46          1           0       -0.459704   -6.184915    1.156691
     47          1           0        0.593975   -3.597258    2.113638
     48          1           0       -1.092310   -3.660634    2.636039
     49          1           0       -1.203064   -1.364462    2.141898
 ---------------------------------------------------------------------
                    Distance matrix (angstroms):
                    1          2          3          4          5
     1  C    0.000000
     2  C    1.525464   0.000000
     3  C    2.531669   1.531545   0.000000
     4  C    2.482134   1.502583   2.479974   0.000000
     5  N    2.786377   2.458074   3.524672   1.261738   0.000000
     6  C    4.220306   3.658879   4.546089   2.190668   1.447175
     7  C    4.980465   4.534976   5.670847   3.193605   2.436582
     8  C    5.412286   5.322597   6.596526   4.152187   3.169374
     9  C    6.457722   6.349078   7.693442   5.258766   4.416271
    10  C    7.035663   6.668652   7.963944   5.568290   4.981229
    11  C    6.709989   6.059612   7.215105   4.899576   4.557150
    12  C    5.704984   4.965951   6.025964   3.676008   3.351986
    13  C    5.664759   4.591832   5.338361   3.312044   3.429419
    14  C    4.699026   3.646569   4.223445   2.233667   2.372202
    15  O    3.733624   2.435754   2.907323   1.354936   2.241303
    16  C    2.483822   1.503309   2.490848   2.377182   3.361003
    17  N    2.818226   2.451122   3.637935   3.191514   3.859986
    18  C    4.229638   3.658007   4.592978   4.295642   5.058428
    19  C    4.887711   4.572956   5.296074   5.509317   6.290649
    20  C    5.307612   5.365813   6.192326   6.351599   6.962518
    21  C    6.293927   6.413444   7.038985   7.533688   8.199084
    22  C    6.831815   6.747828   7.103064   7.941193   8.768037
    23  C    6.512404   6.137573   6.337141   7.285148   8.244146
    24  C    5.558433   5.025232   5.372730   6.049517   7.011958
    25  C    5.552886   4.636773   4.791465   5.475873   6.569699
    26  C    4.682810   3.651984   4.159520   4.217581   5.240471
    27  O    3.709165   2.444288   2.788880   3.061628   4.219710
    28  H    1.085803   2.150663   2.790583   2.716143   2.730479
    29  H    1.084486   2.147208   3.465555   2.716080   2.706193
    30  H    1.086580   2.152843   2.757914   3.425486   3.864047
    31  H    2.779283   2.158374   1.087699   3.424543   4.436742
    32  H    2.762262   2.156564   1.087687   2.744877   3.525543
    33  H    3.471641   2.162142   1.086690   2.696833   3.877569
    34  H    4.774350   4.369188   5.074357   2.962021   2.085592
    35  H    5.219229   5.395179   6.648307   4.323133   3.162525
    36  H    7.034686   7.114885   8.505488   6.113763   5.190440
    37  H    7.957976   7.616520   8.936779   6.582405   6.029890
    38  H    7.434586   6.643626   7.716226   5.550254   5.394174
    39  H    6.673998   5.556091   6.143894   4.253913   4.343044
    40  H    5.616750   4.417084   5.136847   3.406254   3.836262
    41  H    5.388905   4.304008   4.551018   2.969440   3.121853
    42  H    4.861184   4.341558   5.435874   4.685741   5.269469
    43  H    5.167011   5.420546   6.452351   6.279059   6.703990
    44  H    6.872089   7.179324   7.861781   8.298855   8.862376
    45  H    7.730277   7.704354   7.964272   8.947703   9.780961
    46  H    7.216978   6.729018   6.711081   7.885164   8.926179
    47  H    5.457300   4.486083   4.293892   5.437945   6.616100
    48  H    6.585163   5.589687   5.710822   6.282671   7.376351
    49  H    5.435585   4.284009   4.810461   4.509419   5.479613
                    6          7          8          9         10
     6  C    0.000000
     7  C    1.503056   0.000000
     8  C    2.588592   1.380706   0.000000
     9  C    3.817016   2.379199   1.386566   0.000000
    10  C    4.243497   2.751931   2.407664   1.385573   0.000000
    11  C    3.695028   2.403422   2.798109   2.408881   1.386733
    12  C    2.388800   1.390129   2.412323   2.761382   2.384457
    13  C    2.496390   2.396686   3.704372   4.251134   3.819987
    14  C    1.560318   2.422957   3.777743   4.748467   4.742197
    15  O    2.342935   3.307130   4.549748   5.537493   5.558958
    16  C    4.345638   4.840655   5.621587   6.383036   6.459303
    17  N    4.854821   5.016152   5.545088   6.109864   6.192542
    18  C    5.834808   5.819312   6.397597   6.734234   6.541802
    19  C    7.209657   7.244967   7.733714   8.047997   7.904354
    20  C    7.974898   7.914255   8.190883   8.428829   8.401425
    21  C    9.267468   9.274345   9.555561   9.803411   9.779192
    22  C    9.814700   9.948868  10.388246  10.702110  10.595059
    23  C    9.202630   9.425040  10.031831  10.405762  10.206959
    24  C    7.896918   8.088604   8.740914   9.122074   8.895243
    25  C    7.280849   7.571007   8.422677   8.864815   8.527716
    26  C    5.854773   6.054298   6.914754   7.353196   7.020174
    27  O    4.920672   5.432362   6.403854   7.088845   6.932205
    28  H    4.135239   5.075247   5.459007   6.637355   7.355136
    29  H    4.088374   4.539144   4.757003   5.687934   6.320587
    30  H    5.288250   6.019278   6.422296   7.400870   7.945901
    31  H    5.556289   6.603199   7.454518   8.503533   8.773604
    32  H    4.516198   5.808682   6.693376   7.904528   8.304906
    33  H    4.613517   5.728898   6.815367   7.857673   7.960674
    34  H    1.093876   2.168406   2.943010   4.238854   4.826108
    35  H    2.854435   2.138156   1.078764   2.152594   3.390729
    36  H    4.715509   3.360521   2.138606   1.079897   2.137444
    37  H    5.322746   3.832106   3.382913   2.138190   1.080196
    38  H    4.531467   3.385848   3.878482   3.389401   2.148141
    39  H    3.223804   3.120993   4.361126   4.796955   4.231815
    40  H    3.253201   3.154042   4.387035   4.807544   4.225519
    41  H    2.240952   3.249286   4.563891   5.562449   5.553361
    42  H    5.867074   5.571913   6.036991   6.160362   5.847028
    43  H    7.709248   7.518649   7.626379   7.792557   7.853866
    44  H    9.968201   9.918177  10.072941  10.271220  10.316839
    45  H   10.857566  11.016454  11.441582  11.754487  11.657692
    46  H    9.850049  10.155998  10.852985  11.263212  11.016620
    47  H    7.379185   7.875562   8.805573   9.388793   9.128246
    48  H    7.944634   8.147021   9.035530   9.373771   8.888227
    49  H    5.829972   5.888529   6.817891   7.136359   6.613378
                   11         12         13         14         15
    11  C    0.000000
    12  C    1.382064   0.000000
    13  C    2.589474   1.500566   0.000000
    14  C    3.763347   2.408082   1.538416   0.000000
    15  O    4.602632   3.336728   2.453718   1.424324   0.000000
    16  C    5.793135   4.932104   4.571043   4.093595   2.864800
    17  N    5.724957   5.108086   5.067757   4.836734   3.817191
    18  C    5.978115   5.585812   5.454854   5.551589   4.564558
    19  C    7.425591   7.075400   6.945434   6.967323   5.877582
    20  C    8.130629   7.876244   7.950054   7.951916   6.917693
    21  C    9.502064   9.239679   9.248458   9.204891   8.093247
    22  C   10.161137   9.823789   9.630296   9.559531   8.351658
    23  C    9.607704   9.194702   8.819289   8.756626   7.512563
    24  C    8.252624   7.821515   7.443490   7.425004   6.223127
    25  C    7.685522   7.162566   6.541855   6.552464   5.350931
    26  C    6.174251   5.634552   5.093223   5.175469   4.074893
    27  O    6.046137   5.216397   4.527676   4.227927   2.943312
    28  H    7.076127   5.980096   5.948920   4.789390   3.989746
    29  H    6.160504   5.306132   5.534733   4.773241   4.003791
    30  H    7.623191   6.672268   6.581369   5.658611   4.564276
    31  H    8.060769   6.940141   6.287311   5.262183   3.904086
    32  H    7.609428   6.337525   5.679499   4.361220   3.253341
    33  H    7.052208   5.861927   4.939733   3.923095   2.577779
    34  H    4.407815   3.170865   3.283817   2.249410   3.133676
    35  H    3.876784   3.388686   4.533773   4.291850   4.957342
    36  H    3.383216   3.841230   5.330255   5.769206   6.517977
    37  H    2.137551   3.364121   4.716206   5.760108   6.550726
    38  H    1.080377   2.143351   2.862311   4.280127   5.056028
    39  H    2.955141   2.152859   1.091602   2.185185   3.253126
    40  H    2.938172   2.157384   1.091909   2.166663   2.463014
    41  H    4.543586   3.232709   2.199740   1.093850   2.043712
    42  H    5.368007   5.214102   5.286304   5.647159   4.893462
    43  H    7.749049   7.574336   7.847317   7.875022   6.966328
    44  H   10.163283   9.956893  10.079545  10.028364   8.955587
    45  H   11.236676  10.903243  10.694776  10.600596   9.367209
    46  H   10.326535   9.871132   9.360271   9.277256   7.996656
    47  H    8.231866   7.552444   6.789846   6.592270   5.290110
    48  H    7.981182   7.572297   6.891746   7.085743   5.981506
    49  H    5.651577   5.231674   4.613977   4.981478   4.087251
                   16         17         18         19         20
    16  C    0.000000
    17  N    1.262737   0.000000
    18  C    2.191602   1.446808   0.000000
    19  C    3.204084   2.443102   1.502771   0.000000
    20  C    4.164756   3.177719   2.588601   1.380779   0.000000
    21  C    5.275128   4.426484   3.816878   2.379189   1.386572
    22  C    5.586540   4.991969   4.243121   2.751847   2.407732
    23  C    4.916850   4.566870   3.694648   2.403509   2.798379
    24  C    3.689781   3.359584   2.388333   1.390232   2.412584
    25  C    3.320348   3.433167   2.495958   2.397014   3.704830
    26  C    2.232823   2.370953   1.560050   2.423258   3.778133
    27  O    1.353175   2.240416   2.343024   3.308600   4.551871
    28  H    3.423180   3.868918   5.285463   5.970819   6.366216
    29  H    2.677074   2.568088   4.004231   4.731953   4.999849
    30  H    2.763287   2.971858   4.255815   4.576876   4.868665
    31  H    2.749289   3.744136   4.591130   4.985183   5.803963
    32  H    3.431910   4.514625   5.589853   6.307851   7.121962
    33  H    2.719657   3.974524   4.671897   5.471533   6.541601
    34  H    5.265763   5.823841   6.875506   8.215304   8.946388
    35  H    5.903317   5.828763   6.850209   8.097218   8.450918
    36  H    7.163677   6.772138   7.415322   8.638036   8.868863
    37  H    7.285083   6.905505   7.105002   8.401351   8.824556
    38  H    6.204021   6.142016   6.155939   7.582160   8.359002
    39  H    5.569699   6.117756   6.418837   7.900171   8.949346
    40  H    4.074194   4.544402   4.691664   6.162547   7.246690
    41  H    4.900507   5.773911   6.475793   7.854361   8.890907
    42  H    2.957393   2.081526   1.093984   2.167323   2.941929
    43  H    4.332268   3.168655   2.854230   2.137978   1.078792
    44  H    6.130481   5.200927   4.715498   3.360546   2.138615
    45  H    6.602024   6.041256   5.322315   3.831957   3.382841
    46  H    5.567855   5.403675   4.530992   3.385858   3.878627
    47  H    3.420681   3.843785   3.254449   3.154851   4.388095
    48  H    4.258431   4.344256   3.222294   3.120383   4.360295
    49  H    2.963074   3.117454   2.239967   3.248014   4.562261
                   21         22         23         24         25
    21  C    0.000000
    22  C    1.385673   0.000000
    23  C    2.409106   1.386763   0.000000
    24  C    2.761561   2.384456   1.382113   0.000000
    25  C    4.251555   3.820260   2.589768   1.500821   0.000000
    26  C    4.748861   4.742510   3.763735   2.408392   1.538557
    27  O    5.540446   5.562338   4.605996   3.339273   2.455220
    28  H    7.317103   7.844670   7.527209   6.601373   6.527973
    29  H    6.098366   6.828832   6.637430   5.639260   5.765472
    30  H    5.674217   6.154184   5.928575   5.154898   5.345850
    31  H    6.474028   6.430425   5.703565   4.919649   4.506216
    32  H    7.959571   8.063802   7.353444   6.430564   5.876192
    33  H    7.396332   7.334355   6.398339   5.378876   4.515087
    34  H   10.218634  10.770002  10.168814   8.887455   8.264986
    35  H    9.777991  10.657744  10.379170   9.139019   8.913572
    36  H   10.216845  11.209837  11.029193   9.793845   9.661820
    37  H   10.177540  11.029910  10.696459   9.418307   9.109437
    38  H    9.697091  10.275458   9.655977   8.309966   7.658011
    39  H   10.231768  10.556740   9.682815   8.313745   7.308296
    40  H    8.508402   8.810769   7.944295   6.571245   5.610260
    41  H   10.102142  10.370766   9.495215   8.191541   7.210542
    42  H    4.237135   4.823812   4.405533   3.168893   3.282276
    43  H    2.152954   3.391048   3.877084   3.388780   4.533922
    44  H    1.079911   2.137577   3.383436   3.841425   5.330694
    45  H    2.138103   1.080133   2.137555   3.364100   4.716484
    46  H    3.389494   2.148084   1.080251   2.143331   2.862577
    47  H    4.808171   4.225501   2.937830   2.157543   1.091803
    48  H    4.795997   4.230806   2.954320   2.152035   1.091472
    49  H    5.560417   5.551138   4.541674   3.231099   2.198936
                   26         27         28         29         30
    26  C    0.000000
    27  O    1.424307   0.000000
    28  H    5.648569   4.553205   0.000000
    29  H    4.759875   4.018225   1.766058   0.000000
    30  H    4.753606   3.899542   1.776896   1.767026   0.000000
    31  H    4.200217   2.998727   3.159921   3.754808   2.561230
    32  H    5.221106   3.832832   2.579057   3.759818   3.083584
    33  H    3.894719   2.497918   3.771971   4.287110   3.756640
    34  H    6.877065   5.858063   4.445601   4.716276   5.849142
    35  H    7.451930   6.834697   5.099867   4.555920   6.222773
    36  H    8.179594   7.962606   7.178240   6.179395   7.936307
    37  H    7.644621   7.715346   8.327510   7.188273   8.822433
    38  H    6.208658   6.245918   7.878984   6.931122   8.294295
    39  H    5.922895   5.384295   6.891085   6.590825   7.595200
    40  H    4.191265   3.806849   6.076792   5.510620   6.415990
    41  H    5.932438   4.895816   5.333750   5.606755   6.324379
    42  H    2.248492   3.133240   5.880566   4.430636   5.026382
    43  H    4.291788   4.958637   6.188378   4.657060   4.829583
    44  H    5.769637   6.521177   7.851315   6.596966   6.211059
    45  H    5.760425   6.554533   8.708740   7.763583   6.975542
    46  H    4.280513   5.059652   8.188870   7.455947   6.613473
    47  H    2.168786   2.468168   6.343303   5.869834   5.180861
    48  H    2.184516   3.253753   7.551773   6.761153   6.424918
    49  H    1.093939   2.044574   6.344750   5.442815   5.655860
                   31         32         33         34         35
    31  H    0.000000
    32  H    1.769652   0.000000
    33  H    1.770727   1.772463   0.000000
    34  H    6.106891   4.815007   5.183214   0.000000
    35  H    7.475981   6.613472   7.011671   2.941816   0.000000
    36  H    9.271305   8.685780   8.754923   5.028549   2.480064
    37  H    9.708118   9.325232   8.919035   5.892517   4.280282
    38  H    8.531468   8.194554   7.428916   5.271486   4.957144
    39  H    7.117092   6.418005   5.632137   3.763475   5.208744
    40  H    5.977744   5.669834   4.646598   4.168829   5.238296
    41  H    5.619832   4.516288   4.128680   2.464767   5.001020
    42  H    5.560398   6.383700   5.478584   6.940029   6.588512
    43  H    6.175365   7.306583   6.891419   8.658002   7.836451
    44  H    7.279387   8.725509   8.304005  10.892880  10.230428
    45  H    7.211682   8.894624   8.206789  11.797577  11.685126
    46  H    6.021621   7.716292   6.663846  10.798901  11.222167
    47  H    3.889052   5.343625   3.961679   8.287655   9.231458
    48  H    5.479472   6.786976   5.296555   8.948174   9.616966
    49  H    5.018343   5.823409   4.371288   6.874038   7.489440
                   36         37         38         39         40
    36  H    0.000000
    37  H    2.456575   0.000000
    38  H    4.276032   2.469706   0.000000
    39  H    5.860832   5.029864   2.994004   0.000000
    40  H    5.870662   5.014733   2.954114   1.766988   0.000000
    41  H    6.569293   6.555426   4.977771   2.353734   2.864428
    42  H    6.800507   6.292781   5.480060   6.225388   4.523938
    43  H    8.131836   8.237727   8.057381   8.877038   7.242368
    44  H   10.585800  10.666156  10.398561  11.085628   9.385178
    45  H   12.238397  12.074992  11.340240  11.613266   9.867363
    46  H   11.934939  11.521269  10.318843  10.160938   8.450571
    47  H   10.219170   9.793003   8.255627   7.523076   5.920681
    48  H   10.192208   9.390775   7.806018   7.552238   5.879051
    49  H    8.014603   7.176576   5.522382   5.328620   3.600080
                   41         42         43         44         45
    41  H    0.000000
    42  H    6.637932   0.000000
    43  H    8.871309   2.940980   0.000000
    44  H   10.953641   5.026918   2.480595   0.000000
    45  H   11.390381   5.889930   4.280526   2.456505   0.000000
    46  H    9.932088   5.268968   4.957321   4.276122   2.469718
    47  H    7.127523   4.169112   5.239459   5.871481   5.014655
    48  H    7.703314   3.760149   5.207512   5.859706   5.028797
    49  H    5.712065   2.462286   4.999066   6.567122   6.553007
                   46         47         48         49
    46  H    0.000000
    47  H    2.953296   0.000000
    48  H    2.993435   1.766487   0.000000
    49  H    4.975941   2.866274   2.351350   0.000000
 Symmetry turned off by external request.
 Stoichiometry    C23H22N2O2
 Framework group  C1[X(C23H22N2O2)]
 Deg. of freedom   141
 Full point group                 C1      NOp   1
 Rotational constants (GHZ):           0.3688131           0.1138726           0.1040094
 Leave Link  202 at Sun Feb 25 07:02:19 2024, MaxMem=  7516192768 cpu:               0.4 elap:               0.0
 (Enter /public/apps/g16-C01//g16/l301.exe)
 Standard basis: def2SVPP (5D, 7F)
 Ernie: Thresh=  0.10000D-02 Tol=  0.10000D-05 Strict=F.
   422 basis functions,   763 primitive gaussians,   449 cartesian basis functions
    95 alpha electrons       95 beta electrons
       nuclear repulsion energy      2438.4103717549 Hartrees.
 IExCor=  402 DFT=T Ex+Corr=B3LYP ExCW=0 ScaHFX=  0.200000
 ScaDFX=  0.800000  0.720000  1.000000  0.810000 ScalE2=  1.000000  1.000000
 IRadAn=      5 IRanWt=     -1 IRanGd=            0 ICorTp=0 IEmpDi=141
 NAtoms=   49 NActive=   49 NUniq=   49 SFac= 1.00D+00 NAtFMM=   60 NAOKFM=F Big=F
 Integral buffers will be    131072 words long.
 Raffenetti 2 integral format.
 Two-electron integral symmetry is turned off.
 R6Disp:  Grimme-D3(BJ) Dispersion energy=       -0.1119345831 Hartrees.
 Nuclear repulsion after empirical dispersion term =     2438.2984371717 Hartrees.
 Leave Link  301 at Sun Feb 25 07:02:19 2024, MaxMem=  7516192768 cpu:               1.0 elap:               0.0
 (Enter /public/apps/g16-C01//g16/l302.exe)
 NPDir=0 NMtPBC=     1 NCelOv=     1 NCel=       1 NClECP=     1 NCelD=      1
         NCelK=      1 NCelE2=     1 NClLst=     1 CellRange=     0.0.
 One-electron integrals computed using PRISM.
   1 Symmetry operations used in ECPInt.
 ECPInt:  NShTT=   21321 NPrTT=   85495 LenC2=   19090 LenP2D=   50427.
 LDataN:  DoStor=T MaxTD1= 4 Len=   56
 NBasis=   422 RedAO= T EigKep=  2.54D-04  NBF=   422
 NBsUse=   422 1.00D-06 EigRej= -1.00D+00 NBFU=   422
 Precomputing XC quadrature grid using
 IXCGrd= 4 IRadAn=           5 IRanWt=          -1 IRanGd=           0 AccXCQ= 0.00D+00.
 Generated NRdTot=       0 NPtTot=           0 NUsed=           0 NTot=          32
 NSgBfM=   444   443   443   444   444 MxSgAt=    49 MxSgA2=    49.
 Leave Link  302 at Sun Feb 25 07:02:20 2024, MaxMem=  7516192768 cpu:              16.9 elap:               0.4
 (Enter /public/apps/g16-C01//g16/l303.exe)
 DipDrv:  MaxL=1.
 Leave Link  303 at Sun Feb 25 07:02:20 2024, MaxMem=  7516192768 cpu:               1.9 elap:               0.1
 (Enter /public/apps/g16-C01//g16/l401.exe)
 ExpMin= 1.22D-01 ExpMax= 2.27D+03 ExpMxC= 3.41D+02 IAcc=3 IRadAn=         5 AccDes= 0.00D+00
 Harris functional with IExCor=  402 and IRadAn=       5 diagonalized for initial guess.
 HarFok:  IExCor=  402 AccDes= 0.00D+00 IRadAn=         5 IDoV= 1 UseB2=F ITyADJ=14
 ICtDFT=  3500011 ScaDFX=  1.000000  1.000000  1.000000  1.000000
 FoFCou: FMM=F IPFlag=           0 FMFlag=      100000 FMFlg1=           0
         NFxFlg=           0 DoJE=T BraDBF=F KetDBF=T FulRan=T
         wScrn=  0.000000 ICntrl=       500 IOpCl=  0 I1Cent=   200000004 NGrid=           0
         NMat0=    1 NMatS0=      1 NMatT0=    0 NMatD0=    1 NMtDS0=    0 NMtDT0=    0
 Symmetry not used in FoFCou.
 Harris En= -1148.82384414371    
 JPrj=0 DoOrth=F DoCkMO=F.
 Leave Link  401 at Sun Feb 25 07:02:21 2024, MaxMem=  7516192768 cpu:              32.5 elap:               0.8
 (Enter /public/apps/g16-C01//g16/l502.exe)
 Two-electron integral symmetry not used.
 Closed shell SCF:
 Using DIIS extrapolation, IDIIS=  1040.
 NGot=  7516192768 LenX=  7515766549 LenY=  7515564499
 Requested convergence on RMS density matrix=1.00D-08 within 128 cycles.
 Requested convergence on MAX density matrix=1.00D-06.
 Requested convergence on             energy=1.00D-06.
 No special actions if energy rises.
 Fock matrices will be formed incrementally for  20 cycles.
 Integral accuracy reduced to 1.0D-05 until final iterations.

 Cycle   1  Pass 0  IDiag  1:
 FoFJK:  IHMeth= 1 ICntrl=       0 DoSepK=F KAlg= 0 I1Cent=           0 FoldK=F
 IRaf= 820000000 NMat=       1 IRICut=       1 DoRegI=T DoRafI=F ISym2E= 0 IDoP0=0 IntGTp=1.
 FoFCou: FMM=F IPFlag=           0 FMFlag=      100000 FMFlg1=           0
         NFxFlg=           0 DoJE=F BraDBF=F KetDBF=F FulRan=T
         wScrn=  0.000000 ICntrl=         0 IOpCl=  0 I1Cent=           0 NGrid=           0
         NMat0=    1 NMatS0=      1 NMatT0=    0 NMatD0=    1 NMtDS0=    0 NMtDT0=    0
 Symmetry not used in FoFCou.
 E= -1148.31128842753    
 DIIS: error= 2.37D-02 at cycle   1 NSaved=   1.
 NSaved= 1 IEnMin= 1 EnMin= -1148.31128842753     IErMin= 1 ErrMin= 2.37D-02
 ErrMax= 2.37D-02  0.00D+00 EMaxC= 1.00D-01 BMatC= 5.08D-01 BMatP= 5.08D-01
 IDIUse=3 WtCom= 7.63D-01 WtEn= 2.37D-01
 Coeff-Com:  0.100D+01
 Coeff-En:   0.100D+01
 Coeff:      0.100D+01
 Gap=     0.271 Goal=   None    Shift=    0.000
 GapD=    0.271 DampG=1.000 DampE=0.500 DampFc=0.5000 IDamp=-1.
 Damping current iteration by 5.00D-01
 RMSDP=5.64D-03 MaxDP=2.46D-01              OVMax= 2.15D-01

 Cycle   2  Pass 0  IDiag  1:
 RMSU=  2.69D-03    CP:  9.57D-01
 E= -1148.54709504997     Delta-E=       -0.235806622444 Rises=F Damp=T
 DIIS: error= 5.80D-03 at cycle   2 NSaved=   2.
 NSaved= 2 IEnMin= 2 EnMin= -1148.54709504997     IErMin= 2 ErrMin= 5.80D-03
 ErrMax= 5.80D-03  0.00D+00 EMaxC= 1.00D-01 BMatC= 3.99D-02 BMatP= 5.08D-01
 IDIUse=3 WtCom= 9.42D-01 WtEn= 5.80D-02
 Coeff-Com:  0.935D-01 0.907D+00
 Coeff-En:   0.139D+00 0.861D+00
 Coeff:      0.961D-01 0.904D+00
 Gap=     0.253 Goal=   None    Shift=    0.000
 RMSDP=2.04D-03 MaxDP=7.58D-02 DE=-2.36D-01 OVMax= 1.87D-01

 Cycle   3  Pass 0  IDiag  1:
 RMSU=  1.93D-03    CP:  9.25D-01  9.39D-01
 E= -1148.80884717941     Delta-E=       -0.261752129444 Rises=F Damp=F
 DIIS: error= 1.15D-02 at cycle   3 NSaved=   3.
 NSaved= 3 IEnMin= 3 EnMin= -1148.80884717941     IErMin= 2 ErrMin= 5.80D-03
 ErrMax= 1.15D-02  0.00D+00 EMaxC= 1.00D-01 BMatC= 6.81D-02 BMatP= 3.99D-02
 IDIUse=2 WtCom= 0.00D+00 WtEn= 1.00D+00
 Coeff-En:   0.000D+00 0.000D+00 0.100D+01
 Coeff:      0.000D+00 0.000D+00 0.100D+01
 Gap=     0.243 Goal=   None    Shift=    0.000
 RMSDP=2.55D-03 MaxDP=1.64D-01 DE=-2.62D-01 OVMax= 2.69D-01

 Cycle   4  Pass 0  IDiag  1:
 RMSU=  1.75D-03    CP:  9.34D-01  1.30D+00  1.81D-01
 E= -1148.50596049407     Delta-E=        0.302886685347 Rises=F Damp=F
 DIIS: error= 2.77D-02 at cycle   4 NSaved=   4.
 NSaved= 4 IEnMin= 3 EnMin= -1148.80884717941     IErMin= 2 ErrMin= 5.80D-03
 ErrMax= 2.77D-02  0.00D+00 EMaxC= 1.00D-01 BMatC= 4.09D-01 BMatP= 3.99D-02
 IDIUse=2 WtCom= 0.00D+00 WtEn= 1.00D+00
 Coeff-En:   0.000D+00 0.000D+00 0.797D+00 0.203D+00
 Coeff:      0.000D+00 0.000D+00 0.797D+00 0.203D+00
 Gap=     0.237 Goal=   None    Shift=    0.000
 RMSDP=1.36D-03 MaxDP=1.07D-01 DE= 3.03D-01 OVMax= 1.18D-01

 Cycle   5  Pass 0  IDiag  1:
 RMSU=  2.52D-04    CP:  9.29D-01  1.09D+00  5.97D-01  4.81D-01
 E= -1148.84107982637     Delta-E=       -0.335119332306 Rises=F Damp=F
 DIIS: error= 8.23D-03 at cycle   5 NSaved=   5.
 NSaved= 5 IEnMin= 5 EnMin= -1148.84107982637     IErMin= 2 ErrMin= 5.80D-03
 ErrMax= 8.23D-03  0.00D+00 EMaxC= 1.00D-01 BMatC= 3.32D-02 BMatP= 3.99D-02
 IDIUse=3 WtCom= 9.18D-01 WtEn= 8.23D-02
 Coeff-Com:  0.621D-03 0.208D-01 0.298D+00-0.110D+00 0.790D+00
 Coeff-En:   0.000D+00 0.000D+00 0.367D+00 0.000D+00 0.633D+00
 Coeff:      0.570D-03 0.191D-01 0.304D+00-0.101D+00 0.777D+00
 Gap=     0.228 Goal=   None    Shift=    0.000
 RMSDP=5.15D-04 MaxDP=3.12D-02 DE=-3.35D-01 OVMax= 4.40D-02

 Cycle   6  Pass 0  IDiag  1:
 RMSU=  6.59D-05    CP:  9.26D-01  1.02D+00  7.58D-01  2.76D-01  9.30D-01
 E= -1148.87043780550     Delta-E=       -0.029357979122 Rises=F Damp=F
 DIIS: error= 2.64D-04 at cycle   6 NSaved=   6.
 NSaved= 6 IEnMin= 6 EnMin= -1148.87043780550     IErMin= 6 ErrMin= 2.64D-04
 ErrMax= 2.64D-04  0.00D+00 EMaxC= 1.00D-01 BMatC= 6.24D-05 BMatP= 3.32D-02
 IDIUse=3 WtCom= 9.97D-01 WtEn= 2.64D-03
 Coeff-Com: -0.422D-03 0.585D-02 0.133D+00-0.658D-01 0.419D+00 0.508D+00
 Coeff-En:   0.000D+00 0.000D+00 0.000D+00 0.000D+00 0.000D+00 0.100D+01
 Coeff:     -0.420D-03 0.584D-02 0.133D+00-0.657D-01 0.418D+00 0.509D+00
 Gap=     0.228 Goal=   None    Shift=    0.000
 RMSDP=3.38D-05 MaxDP=1.31D-03 DE=-2.94D-02 OVMax= 2.06D-03

 Cycle   7  Pass 0  IDiag  1:
 RMSU=  2.10D-05    CP:  9.26D-01  1.03D+00  7.58D-01  2.80D-01  9.22D-01
                    CP:  6.26D-01
 E= -1148.87049531235     Delta-E=       -0.000057506853 Rises=F Damp=F
 DIIS: error= 1.10D-04 at cycle   7 NSaved=   7.
 NSaved= 7 IEnMin= 7 EnMin= -1148.87049531235     IErMin= 7 ErrMin= 1.10D-04
 ErrMax= 1.10D-04  0.00D+00 EMaxC= 1.00D-01 BMatC= 7.78D-06 BMatP= 6.24D-05
 IDIUse=3 WtCom= 9.99D-01 WtEn= 1.10D-03
 Coeff-Com: -0.103D-03 0.445D-03 0.414D-01-0.226D-01 0.137D+00 0.285D+00
 Coeff-Com:  0.559D+00
 Coeff-En:   0.000D+00 0.000D+00 0.000D+00 0.000D+00 0.000D+00 0.607D-01
 Coeff-En:   0.939D+00
 Coeff:     -0.103D-03 0.445D-03 0.413D-01-0.226D-01 0.136D+00 0.285D+00
 Coeff:      0.560D+00
 Gap=     0.228 Goal=   None    Shift=    0.000
 RMSDP=9.90D-06 MaxDP=3.65D-04 DE=-5.75D-05 OVMax= 7.40D-04

 Initial convergence to 1.0D-05 achieved.  Increase integral accuracy.
 Cycle   8  Pass 1  IDiag  1:
 E= -1148.87053428668     Delta-E=       -0.000038974330 Rises=F Damp=F
 DIIS: error= 1.29D-04 at cycle   1 NSaved=   1.
 NSaved= 1 IEnMin= 1 EnMin= -1148.87053428668     IErMin= 1 ErrMin= 1.29D-04
 ErrMax= 1.29D-04  0.00D+00 EMaxC= 1.00D-01 BMatC= 6.77D-06 BMatP= 6.77D-06
 IDIUse=3 WtCom= 9.99D-01 WtEn= 1.29D-03
 Coeff-Com:  0.100D+01
 Coeff-En:   0.100D+01
 Coeff:      0.100D+01
 Gap=     0.228 Goal=   None    Shift=    0.000
 RMSDP=9.90D-06 MaxDP=3.65D-04 DE=-3.90D-05 OVMax= 7.18D-04

 Cycle   9  Pass 1  IDiag  1:
 RMSU=  1.75D-04    CP:  1.00D+00
 E= -1148.87054012207     Delta-E=       -0.000005835392 Rises=F Damp=F
 DIIS: error= 6.67D-05 at cycle   2 NSaved=   2.
 NSaved= 2 IEnMin= 2 EnMin= -1148.87054012207     IErMin= 2 ErrMin= 6.67D-05
 ErrMax= 6.67D-05  0.00D+00 EMaxC= 1.00D-01 BMatC= 2.37D-06 BMatP= 6.77D-06
 IDIUse=1 WtCom= 1.00D+00 WtEn= 0.00D+00
 Coeff-Com:  0.312D+00 0.688D+00
 Coeff:      0.312D+00 0.688D+00
 Gap=     0.228 Goal=   None    Shift=    0.000
 RMSDP=9.35D-06 MaxDP=3.81D-04 DE=-5.84D-06 OVMax= 7.27D-04

 Cycle  10  Pass 1  IDiag  1:
 RMSU=  9.28D-06    CP:  1.00D+00  1.01D+00
 E= -1148.87053995063     Delta-E=        0.000000171438 Rises=F Damp=F
 DIIS: error= 7.04D-05 at cycle   3 NSaved=   3.
 NSaved= 3 IEnMin= 2 EnMin= -1148.87054012207     IErMin= 2 ErrMin= 6.67D-05
 ErrMax= 7.04D-05  0.00D+00 EMaxC= 1.00D-01 BMatC= 2.49D-06 BMatP= 2.37D-06
 IDIUse=1 WtCom= 1.00D+00 WtEn= 0.00D+00
 Coeff-Com:  0.149D-01 0.503D+00 0.483D+00
 Coeff:      0.149D-01 0.503D+00 0.483D+00
 Gap=     0.228 Goal=   None    Shift=    0.000
 RMSDP=5.40D-06 MaxDP=2.26D-04 DE= 1.71D-07 OVMax= 4.26D-04

 Cycle  11  Pass 1  IDiag  1:
 RMSU=  1.90D-06    CP:  1.00D+00  1.01D+00  4.67D-01
 E= -1148.87054240488     Delta-E=       -0.000002454252 Rises=F Damp=F
 DIIS: error= 1.71D-05 at cycle   4 NSaved=   4.
 NSaved= 4 IEnMin= 4 EnMin= -1148.87054240488     IErMin= 4 ErrMin= 1.71D-05
 ErrMax= 1.71D-05  0.00D+00 EMaxC= 1.00D-01 BMatC= 1.63D-07 BMatP= 2.37D-06
 IDIUse=1 WtCom= 1.00D+00 WtEn= 0.00D+00
 Coeff-Com: -0.390D-02 0.307D+00 0.323D+00 0.375D+00
 Coeff:     -0.390D-02 0.307D+00 0.323D+00 0.375D+00
 Gap=     0.228 Goal=   None    Shift=    0.000
 RMSDP=1.15D-06 MaxDP=4.13D-05 DE=-2.45D-06 OVMax= 8.38D-05

 Cycle  12  Pass 1  IDiag  1:
 RMSU=  4.23D-07    CP:  1.00D+00  1.01D+00  4.99D-01  4.61D-01
 E= -1148.87054254750     Delta-E=       -0.000000142617 Rises=F Damp=F
 DIIS: error= 2.39D-06 at cycle   5 NSaved=   5.
 NSaved= 5 IEnMin= 5 EnMin= -1148.87054254750     IErMin= 5 ErrMin= 2.39D-06
 ErrMax= 2.39D-06  0.00D+00 EMaxC= 1.00D-01 BMatC= 3.37D-09 BMatP= 1.63D-07
 IDIUse=1 WtCom= 1.00D+00 WtEn= 0.00D+00
 Coeff-Com: -0.284D-02 0.187D+00 0.198D+00 0.241D+00 0.377D+00
 Coeff:     -0.284D-02 0.187D+00 0.198D+00 0.241D+00 0.377D+00
 Gap=     0.228 Goal=   None    Shift=    0.000
 RMSDP=1.94D-07 MaxDP=6.38D-06 DE=-1.43D-07 OVMax= 1.18D-05

 Cycle  13  Pass 1  IDiag  1:
 RMSU=  1.59D-07    CP:  1.00D+00  1.01D+00  5.00D-01  4.54D-01  7.43D-01
 E= -1148.87054255060     Delta-E=       -0.000000003095 Rises=F Damp=F
 DIIS: error= 2.09D-07 at cycle   6 NSaved=   6.
 NSaved= 6 IEnMin= 6 EnMin= -1148.87054255060     IErMin= 6 ErrMin= 2.09D-07
 ErrMax= 2.09D-07  0.00D+00 EMaxC= 1.00D-01 BMatC= 4.80D-11 BMatP= 3.37D-09
 IDIUse=1 WtCom= 1.00D+00 WtEn= 0.00D+00
 Coeff-Com: -0.110D-02 0.695D-01 0.739D-01 0.902D-01 0.175D+00 0.593D+00
 Coeff:     -0.110D-02 0.695D-01 0.739D-01 0.902D-01 0.175D+00 0.593D+00
 Gap=     0.228 Goal=   None    Shift=    0.000
 RMSDP=3.26D-08 MaxDP=1.87D-06 DE=-3.10D-09 OVMax= 1.60D-06

 Cycle  14  Pass 1  IDiag  1:
 RMSU=  2.92D-08    CP:  1.00D+00  1.01D+00  5.00D-01  4.52D-01  7.64D-01
                    CP:  9.36D-01
 E= -1148.87054255065     Delta-E=       -0.000000000050 Rises=F Damp=F
 DIIS: error= 8.32D-08 at cycle   7 NSaved=   7.
 NSaved= 7 IEnMin= 7 EnMin= -1148.87054255065     IErMin= 7 ErrMin= 8.32D-08
 ErrMax= 8.32D-08  0.00D+00 EMaxC= 1.00D-01 BMatC= 7.82D-12 BMatP= 4.80D-11
 IDIUse=1 WtCom= 1.00D+00 WtEn= 0.00D+00
 Coeff-Com: -0.795D-04 0.400D-02 0.440D-02 0.541D-02 0.270D-01 0.312D+00
 Coeff-Com:  0.647D+00
 Coeff:     -0.795D-04 0.400D-02 0.440D-02 0.541D-02 0.270D-01 0.312D+00
 Coeff:      0.647D+00
 Gap=     0.228 Goal=   None    Shift=    0.000
 RMSDP=1.16D-08 MaxDP=5.41D-07 DE=-4.96D-11 OVMax= 5.76D-07

 Cycle  15  Pass 1  IDiag  1:
 RMSU=  8.13D-09    CP:  1.00D+00  1.01D+00  5.00D-01  4.54D-01  7.72D-01
                    CP:  9.64D-01  8.38D-01
 E= -1148.87054255064     Delta-E=        0.000000000005 Rises=F Damp=F
 DIIS: error= 2.64D-08 at cycle   8 NSaved=   8.
 NSaved= 8 IEnMin= 7 EnMin= -1148.87054255065     IErMin= 8 ErrMin= 2.64D-08
 ErrMax= 2.64D-08  0.00D+00 EMaxC= 1.00D-01 BMatC= 9.39D-13 BMatP= 7.82D-12
 IDIUse=1 WtCom= 1.00D+00 WtEn= 0.00D+00
 Coeff-Com:  0.273D-04-0.235D-02-0.238D-02-0.293D-02 0.357D-02 0.135D+00
 Coeff-Com:  0.369D+00 0.500D+00
 Coeff:      0.273D-04-0.235D-02-0.238D-02-0.293D-02 0.357D-02 0.135D+00
 Coeff:      0.369D+00 0.500D+00
 Gap=     0.228 Goal=   None    Shift=    0.000
 RMSDP=4.14D-09 MaxDP=1.29D-07 DE= 5.46D-12 OVMax= 2.35D-07

 SCF Done:  E(RB3LYP) =  -1148.87054255     A.U. after   15 cycles
            NFock= 15  Conv=0.41D-08     -V/T= 2.0091
 KE= 1.138503826241D+03 PE=-7.544338208533D+03 EE= 2.818665402570D+03
 Leave Link  502 at Sun Feb 25 07:02:43 2024, MaxMem=  7516192768 cpu:             909.8 elap:              22.8
 (Enter /public/apps/g16-C01//g16/l601.exe)
 Copying SCF densities to generalized density rwf, IOpCl= 0 IROHF=0.

 **********************************************************************

            Population analysis using the SCF Density.

 **********************************************************************

 Alpha  occ. eigenvalues --  -19.16741 -19.16729 -14.29896 -14.29868 -10.26895
 Alpha  occ. eigenvalues --  -10.26893 -10.24261 -10.24240 -10.21496 -10.21448
 Alpha  occ. eigenvalues --  -10.21404 -10.18859 -10.18838 -10.18783 -10.18773
 Alpha  occ. eigenvalues --  -10.18427 -10.18411 -10.18393 -10.18369 -10.18347
 Alpha  occ. eigenvalues --  -10.18326 -10.18246 -10.18209 -10.18204 -10.18167
 Alpha  occ. eigenvalues --  -10.17131 -10.15682  -1.09251  -1.08590  -0.90754
 Alpha  occ. eigenvalues --   -0.90322  -0.87184  -0.86583  -0.83250  -0.80761
 Alpha  occ. eigenvalues --   -0.79345  -0.75374  -0.75167  -0.72035  -0.71934
 Alpha  occ. eigenvalues --   -0.69526  -0.69394  -0.67891  -0.64517  -0.62902
 Alpha  occ. eigenvalues --   -0.61089  -0.59555  -0.59503  -0.58309  -0.57640
 Alpha  occ. eigenvalues --   -0.56894  -0.53590  -0.52480  -0.52223  -0.51303
 Alpha  occ. eigenvalues --   -0.49726  -0.48904  -0.47377  -0.46004  -0.45804
 Alpha  occ. eigenvalues --   -0.45400  -0.45265  -0.44651  -0.44295  -0.43383
 Alpha  occ. eigenvalues --   -0.42986  -0.41932  -0.41869  -0.41609  -0.41207
 Alpha  occ. eigenvalues --   -0.40853  -0.40390  -0.39938  -0.38686  -0.38136
 Alpha  occ. eigenvalues --   -0.37194  -0.36260  -0.35683  -0.35622  -0.35294
 Alpha  occ. eigenvalues --   -0.35195  -0.34561  -0.34352  -0.34190  -0.33885
 Alpha  occ. eigenvalues --   -0.33259  -0.33116  -0.27057  -0.26846  -0.25903
 Alpha  occ. eigenvalues --   -0.25597  -0.25384  -0.25102  -0.24542  -0.24279
 Alpha virt. eigenvalues --   -0.01511  -0.01361  -0.00852  -0.00317   0.01062
 Alpha virt. eigenvalues --    0.04674   0.05649   0.06857   0.06935   0.07199
 Alpha virt. eigenvalues --    0.07842   0.08870   0.09608   0.10605   0.10798
 Alpha virt. eigenvalues --    0.11450   0.11525   0.12082   0.12240   0.12531
 Alpha virt. eigenvalues --    0.13080   0.13592   0.13965   0.14454   0.14876
 Alpha virt. eigenvalues --    0.15055   0.15131   0.15354   0.16449   0.16998
 Alpha virt. eigenvalues --    0.17457   0.17749   0.17994   0.18972   0.20069
 Alpha virt. eigenvalues --    0.20374   0.21104   0.22250   0.23041   0.24252
 Alpha virt. eigenvalues --    0.26176   0.26201   0.26978   0.27454   0.28288
 Alpha virt. eigenvalues --    0.29509   0.30096   0.30547   0.31293   0.31829
 Alpha virt. eigenvalues --    0.32115   0.32136   0.33843   0.35654   0.36052
 Alpha virt. eigenvalues --    0.36434   0.36573   0.37100   0.39108   0.39744
 Alpha virt. eigenvalues --    0.39995   0.40336   0.41244   0.41935   0.42872
 Alpha virt. eigenvalues --    0.43893   0.44094   0.44748   0.45598   0.45910
 Alpha virt. eigenvalues --    0.47405   0.47461   0.47844   0.48002   0.48790
 Alpha virt. eigenvalues --    0.48948   0.49348   0.50126   0.50476   0.50687
 Alpha virt. eigenvalues --    0.50968   0.51364   0.52222   0.53156   0.53536
 Alpha virt. eigenvalues --    0.54187   0.55293   0.55616   0.56237   0.57653
 Alpha virt. eigenvalues --    0.57808   0.58940   0.59373   0.59921   0.60247
 Alpha virt. eigenvalues --    0.60598   0.60854   0.61844   0.62842   0.63232
 Alpha virt. eigenvalues --    0.63748   0.64041   0.64455   0.64885   0.65386
 Alpha virt. eigenvalues --    0.65917   0.66215   0.66665   0.67040   0.67553
 Alpha virt. eigenvalues --    0.67861   0.68056   0.68282   0.68335   0.68440
 Alpha virt. eigenvalues --    0.68826   0.69152   0.69463   0.69581   0.69839
 Alpha virt. eigenvalues --    0.70039   0.70439   0.71026   0.71302   0.71708
 Alpha virt. eigenvalues --    0.72059   0.72892   0.73125   0.73831   0.74111
 Alpha virt. eigenvalues --    0.74548   0.74751   0.75783   0.76053   0.76087
 Alpha virt. eigenvalues --    0.76869   0.76916   0.77141   0.77281   0.77904
 Alpha virt. eigenvalues --    0.79467   0.80406   0.80816   0.82184   0.82749
 Alpha virt. eigenvalues --    0.83439   0.84334   0.86018   0.87579   0.88236
 Alpha virt. eigenvalues --    0.88267   0.89263   0.89990   0.90602   0.90954
 Alpha virt. eigenvalues --    0.91756   0.93608   0.94727   0.95568   0.95652
 Alpha virt. eigenvalues --    0.98789   1.02400   1.03488   1.04235   1.05473
 Alpha virt. eigenvalues --    1.08317   1.09471   1.10406   1.11356   1.12261
 Alpha virt. eigenvalues --    1.12706   1.14673   1.17220   1.19135   1.21047
 Alpha virt. eigenvalues --    1.22244   1.24096   1.26168   1.26525   1.27518
 Alpha virt. eigenvalues --    1.28369   1.30367   1.31396   1.32306   1.32710
[...]
 10,-0.00088953,0.00022034,0.00045227,-0.00239365,-0.00402809,0.0101689
 7,-0.00847986,0.06336160,-0.17416080,0.12080198,0.01065355,-0.01425759
 ,0.02289448,-0.00031637,0.00182636,0.00085110,-0.00005183,-0.00019153,
 0.00016070,-0.00000566,0.00022987,-0.00039244,-0.00000771,-0.00000546,
 0.00000789,0.00000367,0.00001035,-0.00001017,0.00000835,0.00000094,0.0
 0000014,-0.00000237,0.00000561,0.00000997,-0.00001565,0.00000633,-0.00
 000647,0.00000186,-0.00000416,-0.00000395,-0.00000076,-0.00000332,-0.0
 0000036,-0.00000009,0.00000149,-0.00000015,0.00000057,0.00000090,0.000
 00072,0.00000066,0.00000102,0.00000048,0.00000064,0.00000164,0.0000004
 8,-0.00000011,-0.00000385,-0.00000097,0.00000041,0.00000160,0.00000475
 ,-0.00000218,-0.00000457,-0.00000280,-0.00001589,-0.00027870,-0.000138
 39,-0.00013436,0.00000064,0.00017181,-0.00016521,0.00031750,-0.0004467
 4,-0.00046971,0.00075585,0.00082484,-0.06953783,0.18091329,0.00000917,
 0.00001203,0.00000532,-0.00000842,-0.00000321,-0.00000443,-0.00000406,
 0.00001736,-0.00000139,0.00000476,-0.00002650,0.00000640,0.00000536,0.
 00001945,-0.00000300,-0.00000404,-0.00000668,-0.00000328,0.00000068,0.
 00000251,0.00000141,-0.00000117,0.00000064,0.00000177,0.00000043,0.000
 00111,0.00000108,0.00000135,0.00000130,0.00000054,0.00000082,0.0000015
 2,-0.00000075,0.00000004,0.00000136,0.00000107,-0.00000142,-0.00000309
 ,0.00000095,-0.00000254,-0.00001341,-0.00000530,0.00000674,0.00001907,
 -0.00000110,-0.00008514,-0.00003023,0.00002389,0.00006913,0.00001555,-
 0.00003666,0.00017091,-0.00044199,0.00030406,-0.00181804,-0.00207712,0
 .00138512,0.00028368,-0.00072400,-0.00014329,-0.00304327,-0.00365718,-
 0.00288556,-0.00935994,0.02068429,-0.01419781,-0.06980237,0.11972078,-
 0.18402375,0.00225382,-0.00498490,0.00834964,0.00115420,0.00031993,-0.
 00001346,0.00001200,0.00007204,0.00009891,0.00005287,0.00008323,-0.000
 09050,0.00000552,0.00000326,-0.00000389,-0.00000157,-0.00000937,0.0000
 0406,-0.00000781,-0.00000140,-0.00000195,-0.00000216,-0.00000237,-0.00
 000081,0.00000719,0.00000004,-0.00000092,-0.00000372,-0.00000410,-0.00
 000018,0.00000083,0.00000264,-0.00000024,0.00000003,-0.00000129,-0.000
 00027,-0.00000055,-0.00000100,-0.00000080,-0.00000063,-0.00000110,-0.0
 0000045,0.00000009,-0.00000165,-0.00000040,0.00000001,0.00000210,0.000
 00055,0.00000091,-0.00000048,-0.00000261,0.00000102,0.00000187,0.00000
 202,0.00002215,-0.00003558,0.00000400,0.00038637,0.00012790,-0.0001317
 8,-0.00047250,0.00092244,-0.00074403,0.00174972,0.00003297,0.00070497,
 0.07829551,-0.13039503,0.19114322,0.00001181,0.00001226,0.00000261,-0.
 00005482,0.00003139,0.00004283,-0.00001092,0.00000172,-0.00001797,0.00
 003224,-0.00003858,-0.00004962,0.00000070,0.00002837,0.00001618,-0.000
 00511,-0.00000672,-0.00000828,0.00000092,0.00000232,0.00000633,-0.0000
 0067,0.00000089,0.00000113,0.00000124,0.00000071,0.00000214,0.00000145
 ,0.00000178,0.00000148,0.00000115,0.00000163,0.00000108,-0.00000290,0.
 00000270,-0.00000331,-0.00000034,-0.00000157,0.00000217,-0.00000742,-0
 .00001326,-0.00000914,0.00000294,0.00002256,0.00002984,0.00025182,-0.0
 0024478,-0.00027316,-0.00000387,-0.00000722,0.00054631,-0.00030097,-0.
 00071633,0.00066956,-0.00042379,-0.00054825,-0.00017857,0.00016389,0.0
 0027969,0.00016086,0.00009118,-0.00041306,0.00021502,0.00000131,-0.000
 07506,-0.00073229,0.00060595,0.00103679,0.00017786,-0.00049210,-0.0002
 3862,-0.00213067,-0.27316547,0.05424050,-0.07915134,-0.00057533,-0.000
 47701,0.00051987,0.00130958,-0.00148842,0.00075964,0.00000498,0.000003
 79,-0.00000753,0.00000178,-0.00000198,0.00000409,-0.00000541,-0.000000
 69,0.00000189,-0.00000286,0.00000069,0.00000025,0.00001015,0.00000025,
 0.00000313,-0.00000283,0.00000292,-0.00000204,0.00000108,0.00000276,0.
 00000079,-0.00000004,-0.00000142,-0.00000002,-0.00000039,-0.00000128,-
 0.00000051,-0.00000013,-0.00000183,-0.00000013,-0.00000037,-0.00000241
 ,-0.00000154,0.00000036,0.00000485,0.00000096,-0.00000304,-0.00000200,
 -0.00000598,0.00000419,0.00000526,0.00000252,-0.00004254,0.00002530,-0
 .00014231,-0.00000563,-0.00002563,-0.00003179,-0.00004797,-0.00003722,
 0.00002158,-0.00002109,-0.00001622,-0.00002387,-0.00024819,-0.00037332
 ,0.00002634,0.28989059,0.00000941,-0.00000708,-0.00000067,0.00004315,-
 0.00011952,-0.00010944,0.00001662,-0.00002109,0.00004505,-0.00003896,-
 0.00003747,0.00002337,-0.00001399,0.00000337,-0.00000859,0.00001679,0.
 00000306,0.00000506,0.00000587,-0.00000302,-0.00000311,-0.00000088,-0.
 00000024,-0.00000104,-0.00000087,-0.00000017,-0.00000073,-0.00000466,-
 0.00000067,-0.00000233,-0.00000003,-0.00000276,-0.00000118,-0.00000439
 ,-0.00000089,-0.00000258,0.00000819,0.00001164,-0.00000802,0.00002446,
 -0.00000944,-0.00000217,-0.00003896,0.00003104,-0.00000879,0.00041622,
 -0.00007783,0.00156658,-0.00087845,-0.00028459,0.00093545,-0.00019858,
 -0.00384107,-0.00135650,-0.00030321,-0.00157444,-0.00114404,0.00042722
 ,0.00028701,-0.00037556,-0.00031247,0.00012548,-0.00034918,0.00038801,
 0.00029849,0.00030765,0.00017763,0.00051877,-0.00029667,-0.01592884,0.
 00498000,-0.00392259,0.05035565,-0.05873953,0.01628307,0.02901408,-0.0
 0710819,0.01129862,0.00070067,0.00404829,-0.00214949,-0.00001016,-0.00
 000331,-0.00000635,-0.00000126,0.00001649,-0.00003035,0.00000126,0.000
 00506,0.00000291,-0.00003873,0.00001949,0.00003931,-0.00000725,0.00002
 607,-0.00002847,-0.00004067,-0.00007279,-0.00001277,-0.00000266,0.0000
 0095,0.00000156,-0.00000010,-0.00000007,0.00000112,0.00000004,0.000000
 20,0.00000092,0.00000027,0.00000118,-0.00000010,-0.00000226,0.00000359
 ,0.00000215,-0.00000356,-0.00000567,0.00000166,0.00000012,0.00000355,0
 .00001123,-0.00000439,-0.00000241,-0.00000137,0.00022349,-0.00000889,0
 .00070781,-0.00002359,-0.00004507,-0.00016002,0.00004774,0.00000794,0.
 00000468,0.00003940,-0.00001303,0.00000936,0.00003573,-0.00034819,0.00
 025683,-0.05612069,0.06109258,-0.00000765,0.00000850,0.00000213,0.0000
 3902,-0.00005352,0.00004819,-0.00004008,0.00007429,0.00002612,-0.00000
 855,0.00010062,0.00003741,0.00001816,-0.00006723,-0.00000126,-0.000011
 06,0.00001329,0.00000698,-0.00000982,-0.00000231,-0.00000554,0.0000030
 1,0.00000047,-0.00000203,0.00000093,0.00000059,-0.00000100,0.00000245,
 -0.00000055,0.00000153,-0.00000086,0.00000065,0.00000163,0.00000569,-0
 .00000256,-0.00000137,-0.00000250,0.00000040,-0.00000179,-0.00000832,0
 .00003577,0.00001423,0.00001252,-0.00007270,-0.00002341,-0.00044344,0.
 00053957,-0.00138044,0.00048825,0.00012780,0.00034617,-0.00114878,0.00
 053447,-0.00063957,-0.00087411,-0.00193127,-0.00238674,0.00080458,0.00
 076826,-0.00076947,-0.00004739,-0.00023146,0.00014222,0.00058495,0.000
 25726,-0.00087992,0.00053614,0.00158808,0.00131406,-0.02465121,0.00603
 840,-0.01017557,-0.07722788,0.01661707,-0.07013184,-0.00391163,0.00196
 586,-0.00301211,-0.00026573,-0.00121008,0.00137743,-0.00000178,-0.0000
 0258,0.00000652,0.00000478,-0.00001195,0.00000726,-0.00000107,-0.00000
 497,-0.00001731,0.00007516,-0.00002095,-0.00005359,0.00000355,-0.00004
 761,0.00000933,0.00001585,0.00002495,0.00001659,0.00000179,-0.00000746
 ,-0.00000237,-0.00000152,0.00000168,-0.00000143,0.00000102,-0.00000119
 ,0.00000161,0.00000200,-0.00000108,0.00000022,0.00000127,0.00000038,-0
 .00000115,0.00000250,-0.00000495,-0.00000056,0.00000099,0.00000207,0.0
 0000331,-0.00000178,-0.00000641,-0.00000220,-0.00004220,0.00032422,-0.
 00030692,-0.00008536,-0.00009238,-0.00026404,-0.00011089,-0.00005212,0
 .00003846,0.00001284,-0.00002800,-0.00000809,-0.00038918,-0.00047035,0
 .00036689,0.08582953,-0.01884023,0.07774054,-0.00001531,-0.00001401,-0
 .00001399,0.00000409,0.00004063,0.00002209,-0.00002510,0.00001061,0.00
 001330,-0.00000403,0.00013562,0.00002507,0.00000829,-0.00007662,-0.000
 00609,-0.00000486,0.00001913,0.00001281,-0.00000963,-0.00000393,-0.000
 01014,0.00000413,-0.00000074,-0.00000381,-0.00000058,-0.00000055,-0.00
 000350,0.00000138,-0.00000225,-0.00000020,-0.00000465,-0.00000130,0.00
 000266,0.00000914,-0.00000464,0.00000233,-0.00000190,-0.00000058,-0.00
 000165,-0.00000836,0.00005313,0.00002237,0.00000790,-0.00009796,-0.000
 03974,0.00009645,0.00018259,-0.00100293,0.00025489,0.00008068,0.000249
 51,-0.00047839,0.00004689,-0.00022024,-0.00057821,-0.00008901,-0.00086
 305,-0.00048147,0.00013141,0.00018870,-0.00002897,-0.00006564,-0.00012
 853,-0.00024153,0.00016689,0.00014179,0.00066567,-0.00003134,0.0003068
 5,0.00801816,0.00313092,-0.00723749,-0.15561756,-0.04228720,0.12033470
 ,0.00151271,0.00255420,-0.00322527,0.00022890,-0.00136221,0.00061022,-
 0.00001020,-0.00000173,0.00001125,0.00000786,0.00000626,-0.00000451,0.
 00000386,-0.00000164,-0.00000893,0.00003828,-0.00001253,-0.00002992,-0
 .00001090,-0.00002655,0.00000903,0.00001576,0.00002870,0.00001249,0.00
 000074,-0.00000897,-0.00000223,-0.00000094,0.00000331,-0.00000149,0.00
 000136,0.00000062,0.00000167,0.00000201,0.00000074,0.00000083,0.000002
 48,0.00000185,-0.00000025,0.00000147,-0.00000878,-0.00000191,0.0000016
 4,0.00000473,0.00000948,-0.00000388,-0.00001019,-0.00000453,-0.0000221
 4,0.00000640,-0.00003798,0.00002630,-0.00000413,-0.00007013,0.00001347
 ,0.00001063,-0.00000082,-0.00000208,0.00000141,0.00002699,0.00004101,0
 .00009883,0.00009967,-0.01703518,-0.00767189,0.02105714,0.16270309,-0.
 00012922,-0.00013179,-0.00002661,0.00014938,0.00005020,0.00038234,0.00
 004171,-0.00003463,0.00000665,-0.00000251,0.00022689,0.00000157,0.0000
 0605,-0.00011895,0.00001038,-0.00000388,0.00002316,0.00001604,-0.00001
 569,-0.00000582,-0.00001219,0.00000677,0.00000047,-0.00000603,0.000000
 97,0.00000053,-0.00000285,0.00000527,-0.00000102,0.00000196,-0.0000075
 6,0.00000090,0.00000694,0.00001302,-0.00000393,-0.00000007,-0.00000617
 ,-0.00000663,0.00000124,-0.00002438,0.00008126,0.00003479,0.00001241,-
 0.00015037,-0.00004168,-0.00102930,-0.00030440,-0.00198160,0.00044331,
 -0.00011818,0.00103107,0.00042042,-0.00127524,-0.00004150,0.00004573,-
 0.00135389,-0.00024643,-0.00056468,-0.00027936,-0.00007704,-0.00009027
 ,0.00027716,-0.00057074,-0.00043273,0.00015754,0.00070662,-0.00055935,
 0.00012093,-0.00045701,0.01153773,0.00530376,-0.01265515,-0.03826941,-
 0.06290957,0.04402322,-0.02072419,-0.00417192,0.02026464,-0.00037538,-
 0.00654127,0.00401311,-0.00002804,0.00000873,0.00006507,0.00001086,0.0
 0001003,-0.00001577,-0.00000185,0.00001179,0.00000079,0.00000177,0.000
 00279,-0.00000249,-0.00003050,-0.00000136,0.00000997,0.00003467,0.0000
 1797,0.00001583,0.00000281,-0.00001244,-0.00000170,-0.00000180,0.00000
 339,-0.00000267,0.00000196,-0.00000108,0.00000204,0.00000326,-0.000001
 89,0.00000131,0.00000416,-0.00000103,-0.00000309,0.00000347,-0.0000091
 4,-0.00000186,-0.00000017,0.00000524,0.00000686,-0.00000106,-0.0000138
 3,-0.00000623,0.00016934,0.00010255,0.00030666,-0.00006781,-0.00003328
 ,-0.00009773,-0.00000783,0.00000110,0.00001608,-0.00000262,-0.00003939
 ,0.00000275,0.00034771,-0.00028823,0.00007245,0.00461665,0.00228446,-0
 .00585635,0.04529424,0.06816749,0.00000537,-0.00001209,0.00000332,-0.0
 0003410,-0.00001401,0.00005603,0.00000389,0.00001095,-0.00000712,0.000
 02257,-0.00004444,-0.00002841,-0.00000147,0.00003026,0.00001363,-0.000
 00132,-0.00001110,-0.00000666,0.00000377,0.00000211,0.00000525,-0.0000
 0163,0.00000070,0.00000167,0.,0.00000083,0.00000164,-0.00000180,0.0000
 0046,-0.00000010,0.00000532,-0.00000053,-0.00000421,-0.00000526,0.0000
 0141,-0.00000220,0.00000131,0.00000472,-0.00000159,0.00000589,-0.00002
 416,-0.00000700,-0.00001090,0.00003836,0.00002860,-0.00052284,0.000131
 65,-0.00037698,0.00033064,0.00053780,0.00017402,0.00042005,-0.00016120
 ,-0.00069372,-0.00033155,-0.00193939,-0.00141705,-0.00138085,0.0000972
 7,0.00019737,0.00022411,-0.00053669,0.00004876,-0.00141806,0.00001816,
 -0.00077758,-0.00042474,0.00193370,0.00122443,0.01430016,0.00409047,-0
 .02184196,0.12223899,0.04845747,-0.17794851,0.00295245,-0.00037092,-0.
 00304110,-0.00060996,-0.00050317,0.00078907,0.00000609,0.00000523,0.00
 000470,-0.00000244,-0.00001131,0.00000890,-0.00001332,0.00000553,0.000
 00126,0.00000338,-0.00000251,-0.00001233,0.00000997,-0.00000722,0.0000
 0374,-0.00000071,0.00000950,0.00000524,-0.00000070,0.00000284,0.000000
 88,-0.00000076,-0.00000211,0.00000111,-0.00000016,-0.00000126,0.000000
 16,-0.00000091,0.00000053,-0.00000132,-0.00000256,0.00000132,0.0000023
 3,-0.00000023,0.00000317,0.00000149,0.00000118,-0.00000266,-0.00000177
 ,0.00000030,0.00000439,0.00000218,-0.00007854,0.00019943,-0.00009635,-
 0.00003686,-0.00004875,-0.00019063,0.00017438,-0.00000465,-0.00006660,
 -0.00001760,-0.00005668,-0.00003842,0.00074978,-0.00026718,-0.00011667
 ,-0.00593976,-0.00305172,0.00873872,-0.13002715,-0.04829192,0.19439882
 ,-0.00011617,-0.00012403,-0.00003207,0.00041128,-0.00075555,0.00027262
 ,0.00014066,-0.00002306,0.00009067,-0.00030284,0.00044231,0.00057251,0
 .00006295,-0.00021377,-0.00017904,0.00001296,0.00002937,0.00005645,-0.
 00002423,-0.00000874,-0.00004750,0.00000610,-0.00000377,-0.00000321,-0
 .00000588,0.00000339,-0.00001152,0.00000537,-0.00000317,-0.00000206,-0
 .00000373,0.00000349,-0.00000869,0.00004444,-0.00001073,0.00004512,-0.
 00005064,-0.00005281,0.00002755,-0.00003472,0.00000379,0.00001573,0.00
 020020,-0.00014816,-0.00034936,-0.00582686,0.00439970,-0.00677301,0.00
 252706,0.00017077,-0.00029065,0.00807666,-0.00814408,-0.00885287,-0.00
 042723,0.00032369,-0.00273883,0.00002987,-0.00073496,-0.00002965,-0.00
 007392,0.00000377,-0.00020580,-0.00002061,0.00004959,0.00001750,0.0001
 5008,-0.00011932,0.00013488,-0.00018122,0.00035059,-0.00087363,0.00147
 912,0.00162632,0.00381723,-0.09182928,0.06486870,0.07664031,-0.0288353
 4,0.00161477,0.03182190,-0.00003676,0.00000151,0.00008121,0.00002522,0
 .00000837,-0.00000071,0.00000532,0.00000889,-0.00000545,0.00008699,-0.
 00004114,-0.00004156,-0.00005368,-0.00004523,0.00000923,0.00005402,0.0
 0005631,0.00003534,0.00000326,-0.00001286,-0.00001755,-0.00000083,0.00
 000578,-0.00000585,0.00000089,0.00000196,-0.00000010,-0.00000025,0.000
 00200,-0.00000147,0.00000793,0.00000001,0.00000193,0.00001018,0.000002
 53,-0.00001096,0.00005358,-0.00001504,-0.00000887,-0.00000793,-0.00001
 914,-0.00000428,0.00109167,-0.00031190,0.00049719,0.00000411,0.0000074
 4,-0.00000733,-0.00000134,-0.00006300,-0.00001630,-0.00001444,-0.00000
 422,0.00002165,0.00000537,-0.00001270,-0.00000199,0.00007004,-0.000300
 53,-0.00021136,0.00091485,-0.00079729,-0.00059340,0.11236772,-0.000001
 02,-0.00005171,-0.00002389,0.00021023,-0.00045608,0.00007552,0.0000628
 1,-0.00002786,0.00001909,-0.00018568,0.00010476,0.00029636,0.00001910,
 -0.00004838,-0.00008219,0.00002542,0.00001071,0.00001452,-0.00000623,-
 0.00000081,-0.00001274,0.00000122,-0.00000116,-0.00000029,-0.00000232,
 0.00000238,-0.00000256,0.00000178,0.00000061,0.00000012,0.00000513,0.0
 0000380,-0.00000688,0.00000942,-0.00000204,0.00001158,-0.00003744,-0.0
 0003351,0.00003868,0.00000875,-0.00005178,-0.00003640,0.00012804,0.000
 09085,-0.00012457,-0.00224124,0.00050746,-0.00155282,0.00092997,-0.000
 74523,0.00056412,-0.00180160,0.00414538,0.00395000,0.00021774,-0.00072
 369,0.00049049,-0.00011222,0.00032764,-0.00007913,0.00001342,-0.000064
 24,0.00002861,0.00004440,-0.00033097,0.00001593,-0.00077835,-0.0000848
 7,-0.00131487,0.00139473,-0.00411631,0.00191204,0.01020129,-0.01426502
 ,-0.01984694,0.06776364,-0.13103788,-0.10742725,-0.01367206,0.00965454
 ,0.01603596,-0.00002102,0.00000557,0.00002615,0.00000185,0.00000051,0.
 00000016,-0.00000576,0.00001207,0.00000307,0.00002631,-0.00001142,-0.0
 0001094,-0.00001977,-0.00001090,0.00000180,0.00000664,0.00001948,0.000
 00095,0.00000011,0.00000170,-0.00001063,-0.00000094,0.00000067,-0.0000
 0140,0.00000016,-0.00000048,0.00000005,-0.00000071,0.00000042,-0.00000
 181,0.00000128,-0.00000088,0.00000073,0.00001018,0.00001897,-0.0000062
 6,0.00004680,0.00002083,-0.00003830,0.00000590,0.00000988,0.00000083,-
 0.00052862,0.00057814,-0.00048367,-0.00002175,-0.00002382,-0.00006190,
 -0.00000655,0.00003196,-0.00001553,0.00001496,-0.00005211,-0.00014128,
 0.00001004,0.00006941,0.00002702,0.00052783,-0.00144127,-0.00000439,-0
 .00022600,0.00095034,-0.00022259,-0.06201985,0.13701433,0.00004964,0.0
 0009217,-0.00000900,0.00001164,-0.00015079,-0.00012916,0.00000961,0.00
 004252,0.00001874,0.00015545,-0.00037572,-0.00032269,-0.00004940,0.000
 11504,0.00012592,0.00001377,-0.00001999,-0.00003036,0.00002841,-0.0000
 0066,0.00002747,-0.00000527,0.00000293,0.00000017,0.00000350,-0.000002
 38,0.00001046,-0.00001931,-0.00000067,-0.00000717,0.00000803,-0.000015
 35,0.00000060,-0.00004358,0.00000800,-0.00005434,0.00005641,0.00007983
 ,-0.00005716,0.00008176,-0.00001774,-0.00000566,-0.00025313,0.00014908
 ,0.00023567,-0.00055966,0.00002034,0.00035879,0.00088015,0.00070287,-0
 .00196075,0.00992479,-0.01491012,-0.01224344,-0.00168577,0.00118648,-0
 .00384396,0.00003708,-0.00117640,0.00028582,-0.00004748,-0.00005687,-0
 .00027951,-0.00003248,0.00007492,-0.00011052,0.00025938,0.00012176,0.0
 0056700,-0.00079033,0.00127191,-0.00103421,-0.00393105,0.00702627,0.00
 775032,0.08190359,-0.10509675,-0.19059432,0.00747109,0.00304125,0.0009
 4681,0.00005512,0.00000078,-0.00003124,-0.00000128,-0.00004615,0.00002
 757,-0.00002789,0.00001671,0.00001454,-0.00004326,0.00002304,0.0000121
 4,0.00003666,0.00000574,-0.00001261,-0.00004052,-0.00004226,-0.0000206
 2,-0.00000848,0.00000607,0.00001496,-0.00000220,-0.00000577,0.00000834
 ,0.00000029,-0.00000300,0.00000510,0.00000251,0.00000189,0.00000050,-0
 .00001630,0.00001616,0.00000818,-0.00002039,-0.00002850,0.00001654,-0.
 00002186,0.00001326,0.00006150,-0.00001142,0.00000705,0.00000116,-0.00
 004856,0.00030703,0.00176271,0.00000998,0.00004432,0.00001940,0.000035
 86,-0.00011839,-0.00004407,0.00000547,-0.00000022,0.00004912,0.0000039
 9,-0.00007320,0.00000943,-0.00033615,0.00036970,-0.00017779,-0.0002144
 7,-0.00060165,0.00096498,-0.09283393,0.10799545,0.19766465\\-0.0000014
 3,0.00000245,0.00000362,0.00000531,-0.00000147,-0.00000403,-0.00000217
 ,0.00000001,0.00000019,0.00000035,-0.00000075,0.00000780,-0.00000154,0
 .00000434,-0.00000006,0.00000335,-0.00000503,-0.00000292,-0.00000112,0
 .00000068,0.00000113,0.00000064,-0.00000005,0.00000081,0.00000036,0.00
 000043,0.00000070,0.00000049,0.00000025,0.00000057,0.00000050,0.000000
 10,0.00000065,0.00000071,0.00000014,-0.00000042,0.00000130,0.00000010,
 0.00000001,-0.00000118,0.00000390,0.00000090,-0.00000033,-0.00000352,-
 0.00000370,0.00000108,-0.00000457,0.00001056,-0.00000510,-0.00000189,-
 0.00000077,0.00000359,0.00000410,-0.00000211,-0.00000054,-0.00000200,0
 .00000063,-0.00000023,0.00000037,-0.00000061,-0.00000059,0.00000087,-0
 .00000049,-0.00000036,0.00000030,-0.00000042,-0.00000050,-0.00000035,-
 0.00000057,-0.00000097,0.00000111,-0.00000176,-0.00000151,0.00000029,-
 0.00000024,-0.00000599,-0.00000426,0.00000092,0.00000460,0.00000687,-0
 .00000908,0.00000022,-0.00000018,-0.00000045,0.00000061,-0.00000024,-0
 .00000057,-0.00000006,-0.00000029,-0.00000073,0.00000005,-0.00000064,-
 0.00000087,0.00000047,-0.00000066,-0.00000069,0.00000017,-0.00000060,-
 0.00000056,-0.00000028,0.00000101,0.00000101,0.00000012,0.00000018,0.0
 0000043,0.00000051,0.00000041,0.00000072,0.00000043,0.00000045,0.00000
 081,0.00000025,0.00000028,0.00000056,0.00000022,-0.00000057,0.00000090
 ,0.00000006,-0.00000033,0.00000061,0.00000049,-0.00000108,0.00000021,-
 0.00000083,-0.00000019,0.00000030,-0.00000028,0.00000023,-0.00000035,-
 0.00000052,0.00000059,-0.00000050,-0.00000069,0.00000022,-0.00000075,-
 0.00000072,-0.00000024,-0.00000063,0.00000018,-0.00000021,-0.00000074,
 0.00000036,-0.00000040,0.00000006,0.00000051,-0.00000019,-0.00000012\\
 \@
 The archive entry for this job was punched.


 THERE IS MORE TO LIFE THAN INCREASING ITS SPEED.

                                       -- GANDHI
 Job cpu time:       0 days  3 hours 21 minutes 40.8 seconds.
 Elapsed time:       0 days  0 hours  5 minutes  4.2 seconds.
 File lengths (MBytes):  RWF=   1043 Int=      0 D2E=      0 Chk=     17 Scr=      1
 Normal termination of Gaussian 16 at Sun Feb 25 07:17:05 2024.
