 Entering Gaussian System, Link 0=g16
 Initial command:
 /public/apps/g16-C01//g16/l1.exe "/public/home/ljq/tmp/Gau-69365.inp" -scrdir="/public/home/ljq/tmp/"
 Entering Link 1 = /public/apps/g16-C01//g16/l1.exe PID=     69366.
  
 Copyright (c) 1988-2019, Gaussian, Inc.  All Rights Reserved.
  
 This is part of the Gaussian(R) 16 program.  It is based on
 the Gaussian(R) 09 system (copyright 2009, Gaussian, Inc.),
 the Gaussian(R) 03 system (copyright 2003, Gaussian, Inc.),
 the Gaussian(R) 98 system (copyright 1998, Gaussian, Inc.),
 the Gaussian(R) 94 system (copyright 1995, Gaussian, Inc.),
 the Gaussian 92(TM) system (copyright 1992, Gaussian, Inc.),
 the Gaussian 90(TM) system (copyright 1990, Gaussian, Inc.),
 the Gaussian 88(TM) system (copyright 1988, Gaussian, Inc.),
 the Gaussian 86(TM) system (copyright 1986, Carnegie Mellon
 University), and the Gaussian 82(TM) system (copyright 1983,
 Carnegie Mellon University). Gaussian is a federally registered
 trademark of Gaussian, Inc.
  
 This software contains proprietary and confidential information,
 including trade secrets, belonging to Gaussian, Inc.
  
 This software is provided under written license and may be
 used, copied, transmitted, or stored only in accord with that
 written license.
  
 The following legend is applicable only to US Government
 contracts under FAR:
  
                    RESTRICTED RIGHTS LEGEND
  
 Use, reproduction and disclosure by the US Government is
 subject to restrictions as set forth in subparagraphs (a)
 and (c) of the Commercial Computer Software - Restricted
 Rights clause in FAR 52.227-19.
  
 Gaussian, Inc.
 340 Quinnipiac St., Bldg. 40, Wallingford CT 06492
  
  
 ---------------------------------------------------------------
 Warning -- This program may not be used in any manner that
 competes with the business of Gaussian, Inc. or will provide
 assistance to any competitor of Gaussian, Inc.  The licensee
 of this program is prohibited from giving any competitor of
 Gaussian, Inc. access to this program.  By using this program,
 the user acknowledges that Gaussian, Inc. is engaged in the
 business of creating and licensing software in the field of
 computational chemistry and represents and warrants to the
 licensee that it is not a competitor of Gaussian, Inc. and that
 it will not use this program in any manner prohibited above.
 ---------------------------------------------------------------
  

 Cite this work as:
 Gaussian 16, Revision C.01,
 M. J. Frisch, G. W. Trucks, H. B. Schlegel, G. E. Scuseria, 
 M. A. Robb, J. R. Cheeseman, G. Scalmani, V. Barone, 
 G. A. Petersson, H. Nakatsuji, X. Li, M. Caricato, A. V. Marenich, 
 J. Bloino, B. G. Janesko, R. Gomperts, B. Mennucci, H. P. Hratchian, 
 J. V. Ortiz, A. F. Izmaylov, J. L. Sonnenberg, D. Williams-Young, 
 F. Ding, F. Lipparini, F. Egidi, J. Goings, B. Peng, A. Petrone, 
 T. Henderson, D. Ranasinghe, V. G. Zakrzewski, J. Gao, N. Rega, 
 G. Zheng, W. Liang, M. Hada, M. Ehara, K. Toyota, R. Fukuda, 
 J. Hasegawa, M. Ishida, T. Nakajima, Y. Honda, O. Kitao, H. Nakai, 
 T. Vreven, K. Throssell, J. A. Montgomery, Jr., J. E. Peralta, 
 F. Ogliaro, M. J. Bearpark, J. J. Heyd, E. N. Brothers, K. N. Kudin, 
 V. N. Staroverov, T. A. Keith, R. Kobayashi, J. Normand, 
 K. Raghavachari, A. P. Rendell, J. C. Burant, S. S. Iyengar, 
 J. Tomasi, M. Cossi, J. M. Millam, M. Klene, C. Adamo, R. Cammi, 
 J. W. Ochterski, R. L. Martin, K. Morokuma, O. Farkas, 
 J. B. Foresman, and D. J. Fox, Gaussian, Inc., Wallingford CT, 2019.
 
 ******************************************
 Gaussian 16:  ES64L-G16RevC.01  3-Jul-2019
                25-Feb-2024 
 ******************************************
 %nproc=40
 Will use up to   40 processors via shared memory.
 %mem=56GB
 ------------------------------------------
 #p opt freq b3lyp/def2svpp em=gd3bj nosymm
 ------------------------------------------
 1/18=20,19=15,26=3,38=1/1,3;
 2/9=110,12=2,15=1,17=6,18=5,40=1/2;
 3/5=43,7=202,11=2,25=1,30=1,71=1,74=-5,124=41/1,2,3;
 4//1;
 5/5=2,38=5/2;
 6/7=2,8=2,9=2,10=2,28=1/1;
 7/30=1/1,2,3,16;
 1/18=20,19=15,26=3/3(2);
 2/9=110,15=1/2;
 99//99;
 2/9=110,15=1/2;
 3/5=43,7=202,11=2,25=1,30=1,71=1,74=-5,124=41/1,2,3;
 4/5=5,16=3,69=1/1;
 5/5=2,38=5/2;
 7/30=1/1,2,3,16;
 1/18=20,19=15,26=3/3(-5);
 2/9=110,15=1/2;
 6/7=2,8=2,9=2,10=2,19=2,28=1/1;
 99/9=1/99;
 Leave Link    1 at Sun Feb 25 04:43:04 2024, MaxMem=  7516192768 cpu:               1.0 elap:               0.0
 (Enter /public/apps/g16-C01//g16/l101.exe)
 ----------------------
 $$$$Singlemol####0????
 ----------------------
 Symbolic Z-matrix:
 Charge =  0 Multiplicity = 1
 C                     0.6154   -2.93639  -1.06264 
 C                     0.03987  -2.06193   0.0512 
 C                    -0.49817  -2.90276   1.20894 
 C                    -1.04405  -1.17694  -0.49412 
 N                    -2.20868  -1.06475  -0.02734 
 C                    -2.90426  -0.03929  -0.77573 
 C                    -3.35218   1.10468   0.1642 
 C                    -4.27843   0.49697   1.2207 
 C                    -4.11846   2.15902  -0.63699 
 C                    -2.14794   1.74116   0.86133 
 C                    -1.87918   0.35269  -1.87569 
 O                    -0.71698  -0.40443  -1.56015 
 C                     1.08377  -1.1047    0.55062 
 N                     2.247    -0.97315   0.08548 
 C                     2.89617   0.11877   0.77963 
 C                     3.31303   1.22258  -0.22049 
 C                     4.02694   2.35107   0.52623 
 C                     2.09512   1.76961  -0.968 
 C                     4.2768    0.59078  -1.22818 
 C                     1.84546   0.53496   1.84603 
 O                     0.71784  -0.28671   1.56907 
 H                    -0.14916  -3.61683  -1.43029 
 H                     0.96786  -2.31325  -1.87895 
 H                     1.4553   -3.50922  -0.68067 
 H                     0.29535  -3.52844   1.61089 
 H                    -0.87983  -2.25464   1.99198 
 H                    -1.31085  -3.53161   0.8574 
 H                    -3.80329  -0.48342  -1.2178 
 H                    -3.75668  -0.29108   1.75546 
 H                    -4.59686   1.25873   1.92852 
 H                    -5.16181   0.06814   0.75319 
 H                    -4.97769   1.71267  -1.13313 
 H                    -4.47606   2.94071   0.02936 
 H                    -3.48903   2.62024  -1.3946 
 H                    -1.49763   2.24758   0.15073 
 H                    -1.56816   0.98071   1.37993 
 H                    -2.48707   2.47548   1.58871 
 H                    -2.21659   0.07371  -2.87808 
 H                    -1.61426   1.41138  -1.86994 
 H                     3.80567  -0.26595   1.25486 
 H                     4.89523   1.96829   1.0584 
 H                     3.36955   2.8312    1.24745 
 H                     4.36418   3.1056   -0.18079 
 H                     1.55255   0.95814  -1.44811 
 H                     2.41582   2.47343  -1.73289 
 H                     1.41561   2.29012  -0.29598 
 H                     4.57456   1.32115  -1.97688 
 H                     3.7939   -0.24811  -1.72042 
 H                     5.17002   0.22652  -0.72585 
 H                     2.18373   0.33225   2.8662 
 H                     1.53808   1.57963   1.77268 
 
 ITRead=  0  0  0  0  0  0  0  0  0  0  0  0  0  0  0  0  0  0  0  0
 ITRead=  0  0  0  0  0  0  0  0  0  0  0  0  0  0  0  0  0  0  0  0
 ITRead=  0  0  0  0  0  0  0  0  0  0  0
 MicOpt= -1 -1 -1 -1 -1 -1 -1 -1 -1 -1 -1 -1 -1 -1 -1 -1 -1 -1 -1 -1
 MicOpt= -1 -1 -1 -1 -1 -1 -1 -1 -1 -1 -1 -1 -1 -1 -1 -1 -1 -1 -1 -1
 MicOpt= -1 -1 -1 -1 -1 -1 -1 -1 -1 -1 -1
 NAtoms=     51 NQM=       51 NQMF=       0 NMMI=      0 NMMIF=      0
                NMic=       0 NMicF=      0.
                    Isotopes and Nuclear Properties:
 (Nuclear quadrupole moments (NQMom) in fm**2, nuclear magnetic moments (NMagM)
  in nuclear magnetons)

  Atom         1           2           3           4           5           6           7           8           9          10
 IAtWgt=          12          12          12          12          14          12          12          12          12          12
 AtmWgt=  12.0000000  12.0000000  12.0000000  12.0000000  14.0030740  12.0000000  12.0000000  12.0000000  12.0000000  12.0000000
 NucSpn=           0           0           0           0           2           0           0           0           0           0
 AtZEff=  -0.0000000  -0.0000000  -0.0000000  -0.0000000  -0.0000000  -0.0000000  -0.0000000  -0.0000000  -0.0000000  -0.0000000
 NQMom=    0.0000000   0.0000000   0.0000000   0.0000000   2.0440000   0.0000000   0.0000000   0.0000000   0.0000000   0.0000000
 NMagM=    0.0000000   0.0000000   0.0000000   0.0000000   0.4037610   0.0000000   0.0000000   0.0000000   0.0000000   0.0000000
 AtZNuc=   6.0000000   6.0000000   6.0000000   6.0000000   7.0000000   6.0000000   6.0000000   6.0000000   6.0000000   6.0000000

  Atom        11          12          13          14          15          16          17          18          19          20
 IAtWgt=          12          16          12          14          12          12          12          12          12          12
 AtmWgt=  12.0000000  15.9949146  12.0000000  14.0030740  12.0000000  12.0000000  12.0000000  12.0000000  12.0000000  12.0000000
 NucSpn=           0           0           0           2           0           0           0           0           0           0
 AtZEff=  -0.0000000  -0.0000000  -0.0000000  -0.0000000  -0.0000000  -0.0000000  -0.0000000  -0.0000000  -0.0000000  -0.0000000
 NQMom=    0.0000000   0.0000000   0.0000000   2.0440000   0.0000000   0.0000000   0.0000000   0.0000000   0.0000000   0.0000000
 NMagM=    0.0000000   0.0000000   0.0000000   0.4037610   0.0000000   0.0000000   0.0000000   0.0000000   0.0000000   0.0000000
 AtZNuc=   6.0000000   8.0000000   6.0000000   7.0000000   6.0000000   6.0000000   6.0000000   6.0000000   6.0000000   6.0000000

  Atom        21          22          23          24          25          26          27          28          29          30
 IAtWgt=          16           1           1           1           1           1           1           1           1           1
 AtmWgt=  15.9949146   1.0078250   1.0078250   1.0078250   1.0078250   1.0078250   1.0078250   1.0078250   1.0078250   1.0078250
 NucSpn=           0           1           1           1           1           1           1           1           1           1
 AtZEff=  -0.0000000  -0.0000000  -0.0000000  -0.0000000  -0.0000000  -0.0000000  -0.0000000  -0.0000000  -0.0000000  -0.0000000
 NQMom=    0.0000000   0.0000000   0.0000000   0.0000000   0.0000000   0.0000000   0.0000000   0.0000000   0.0000000   0.0000000
 NMagM=    0.0000000   2.7928460   2.7928460   2.7928460   2.7928460   2.7928460   2.7928460   2.7928460   2.7928460   2.7928460
 AtZNuc=   8.0000000   1.0000000   1.0000000   1.0000000   1.0000000   1.0000000   1.0000000   1.0000000   1.0000000   1.0000000

  Atom        31          32          33          34          35          36          37          38          39          40
 IAtWgt=           1           1           1           1           1           1           1           1           1           1
 AtmWgt=   1.0078250   1.0078250   1.0078250   1.0078250   1.0078250   1.0078250   1.0078250   1.0078250   1.0078250   1.0078250
 NucSpn=           1           1           1           1           1           1           1           1           1           1
 AtZEff=  -0.0000000  -0.0000000  -0.0000000  -0.0000000  -0.0000000  -0.0000000  -0.0000000  -0.0000000  -0.0000000  -0.0000000
 NQMom=    0.0000000   0.0000000   0.0000000   0.0000000   0.0000000   0.0000000   0.0000000   0.0000000   0.0000000   0.0000000
 NMagM=    2.7928460   2.7928460   2.7928460   2.7928460   2.7928460   2.7928460   2.7928460   2.7928460   2.7928460   2.7928460
 AtZNuc=   1.0000000   1.0000000   1.0000000   1.0000000   1.0000000   1.0000000   1.0000000   1.0000000   1.0000000   1.0000000

  Atom        41          42          43          44          45          46          47          48          49          50
 IAtWgt=           1           1           1           1           1           1           1           1           1           1
 AtmWgt=   1.0078250   1.0078250   1.0078250   1.0078250   1.0078250   1.0078250   1.0078250   1.0078250   1.0078250   1.0078250
 NucSpn=           1           1           1           1           1           1           1           1           1           1
 AtZEff=  -0.0000000  -0.0000000  -0.0000000  -0.0000000  -0.0000000  -0.0000000  -0.0000000  -0.0000000  -0.0000000  -0.0000000
 NQMom=    0.0000000   0.0000000   0.0000000   0.0000000   0.0000000   0.0000000   0.0000000   0.0000000   0.0000000   0.0000000
 NMagM=    2.7928460   2.7928460   2.7928460   2.7928460   2.7928460   2.7928460   2.7928460   2.7928460   2.7928460   2.7928460
 AtZNuc=   1.0000000   1.0000000   1.0000000   1.0000000   1.0000000   1.0000000   1.0000000   1.0000000   1.0000000   1.0000000

  Atom        51
 IAtWgt=           1
 AtmWgt=   1.0078250
 NucSpn=           1
 AtZEff=  -0.0000000
 NQMom=    0.0000000
 NMagM=    2.7928460
 AtZNuc=   1.0000000
 Leave Link  101 at Sun Feb 25 04:43:04 2024, MaxMem=  7516192768 cpu:               7.0 elap:               0.2
 (Enter /public/apps/g16-C01//g16/l103.exe)

 GradGradGradGradGradGradGradGradGradGradGradGradGradGradGradGradGradGrad
 Berny optimization.
 Initialization pass.
                           ----------------------------
                           !    Initial Parameters    !
                           ! (Angstroms and Degrees)  !
 --------------------------                            --------------------------
 ! Name  Definition              Value          Derivative Info.                !
 --------------------------------------------------------------------------------
 ! R1    R(1,2)                  1.5286         estimate D2E/DX2                !
 ! R2    R(1,22)                 1.0875         estimate D2E/DX2                !
 ! R3    R(1,23)                 1.0858         estimate D2E/DX2                !
 ! R4    R(1,24)                 1.086          estimate D2E/DX2                !
 ! R5    R(2,3)                  1.5287         estimate D2E/DX2                !
 ! R6    R(2,4)                  1.5018         estimate D2E/DX2                !
 ! R7    R(2,13)                 1.5018         estimate D2E/DX2                !
 ! R8    R(3,25)                 1.0875         estimate D2E/DX2                !
 ! R9    R(3,26)                 1.0858         estimate D2E/DX2                !
 ! R10   R(3,27)                 1.086          estimate D2E/DX2                !
 ! R11   R(4,5)                  1.2597         estimate D2E/DX2                !
 ! R12   R(4,12)                 1.3565         estimate D2E/DX2                !
 ! R13   R(5,6)                  1.4476         estimate D2E/DX2                !
 ! R14   R(6,7)                  1.5469         estimate D2E/DX2                !
 ! R15   R(6,11)                 1.5538         estimate D2E/DX2                !
 ! R16   R(6,28)                 1.0959         estimate D2E/DX2                !
 ! R17   R(7,8)                  1.5308         estimate D2E/DX2                !
 ! R18   R(7,9)                  1.5299         estimate D2E/DX2                !
 ! R19   R(7,10)                 1.5301         estimate D2E/DX2                !
 ! R20   R(8,29)                 1.0859         estimate D2E/DX2                !
 ! R21   R(8,30)                 1.0875         estimate D2E/DX2                !
 ! R22   R(8,31)                 1.0876         estimate D2E/DX2                !
 ! R23   R(9,32)                 1.088          estimate D2E/DX2                !
 ! R24   R(9,33)                 1.0876         estimate D2E/DX2                !
 ! R25   R(9,34)                 1.0876         estimate D2E/DX2                !
 ! R26   R(10,35)                1.0883         estimate D2E/DX2                !
 ! R27   R(10,36)                1.0878         estimate D2E/DX2                !
 ! R28   R(10,37)                1.0878         estimate D2E/DX2                !
 ! R29   R(11,12)                1.4225         estimate D2E/DX2                !
 ! R30   R(11,38)                1.0938         estimate D2E/DX2                !
 ! R31   R(11,39)                1.0913         estimate D2E/DX2                !
 ! R32   R(13,14)                1.2597         estimate D2E/DX2                !
 ! R33   R(13,21)                1.3566         estimate D2E/DX2                !
 ! R34   R(14,15)                1.4476         estimate D2E/DX2                !
 ! R35   R(15,16)                1.5467         estimate D2E/DX2                !
 ! R36   R(15,20)                1.5538         estimate D2E/DX2                !
 ! R37   R(15,40)                1.0959         estimate D2E/DX2                !
 ! R38   R(16,17)                1.5299         estimate D2E/DX2                !
 ! R39   R(16,18)                1.5301         estimate D2E/DX2                !
 ! R40   R(16,19)                1.5308         estimate D2E/DX2                !
 ! R41   R(17,41)                1.088          estimate D2E/DX2                !
 ! R42   R(17,42)                1.0876         estimate D2E/DX2                !
 ! R43   R(17,43)                1.0876         estimate D2E/DX2                !
 ! R44   R(18,44)                1.0878         estimate D2E/DX2                !
 ! R45   R(18,45)                1.0878         estimate D2E/DX2                !
 ! R46   R(18,46)                1.0882         estimate D2E/DX2                !
 ! R47   R(19,47)                1.0875         estimate D2E/DX2                !
 ! R48   R(19,48)                1.0859         estimate D2E/DX2                !
 ! R49   R(19,49)                1.0876         estimate D2E/DX2                !
 ! R50   R(20,21)                1.4224         estimate D2E/DX2                !
 ! R51   R(20,50)                1.0937         estimate D2E/DX2                !
 ! R52   R(20,51)                1.0914         estimate D2E/DX2                !
 ! A1    A(2,1,22)             109.8512         estimate D2E/DX2                !
 ! A2    A(2,1,23)             109.9829         estimate D2E/DX2                !
 ! A3    A(2,1,24)             109.6718         estimate D2E/DX2                !
 ! A4    A(22,1,23)            109.4595         estimate D2E/DX2                !
 ! A5    A(22,1,24)            109.4256         estimate D2E/DX2                !
 ! A6    A(23,1,24)            108.4263         estimate D2E/DX2                !
 ! A7    A(1,2,3)              111.6984         estimate D2E/DX2                !
 ! A8    A(1,2,4)              110.1367         estimate D2E/DX2                !
 ! A9    A(1,2,13)             110.1965         estimate D2E/DX2                !
 ! A10   A(3,2,4)              110.1876         estimate D2E/DX2                !
 ! A11   A(3,2,13)             110.0833         estimate D2E/DX2                !
 ! A12   A(4,2,13)             104.2898         estimate D2E/DX2                !
 ! A13   A(2,3,25)             109.8497         estimate D2E/DX2                !
 ! A14   A(2,3,26)             109.9731         estimate D2E/DX2                !
 ! A15   A(2,3,27)             109.6769         estimate D2E/DX2                !
 ! A16   A(25,3,26)            109.4731         estimate D2E/DX2                !
 ! A17   A(25,3,27)            109.4206         estimate D2E/DX2                !
 ! A18   A(26,3,27)            108.4241         estimate D2E/DX2                !
 ! A19   A(2,4,5)              125.8174         estimate D2E/DX2                !
 ! A20   A(2,4,12)             116.5454         estimate D2E/DX2                !
 ! A21   A(5,4,12)             117.6064         estimate D2E/DX2                !
 ! A22   A(4,5,6)              108.4072         estimate D2E/DX2                !
 ! A23   A(5,6,7)              110.4194         estimate D2E/DX2                !
 ! A24   A(5,6,11)             103.1611         estimate D2E/DX2                !
 ! A25   A(5,6,28)             108.401          estimate D2E/DX2                !
 ! A26   A(7,6,11)             115.7609         estimate D2E/DX2                !
 ! A27   A(7,6,28)             107.8954         estimate D2E/DX2                !
 ! A28   A(11,6,28)            110.9706         estimate D2E/DX2                !
 ! A29   A(6,7,8)              107.5165         estimate D2E/DX2                !
 ! A30   A(6,7,9)              109.6625         estimate D2E/DX2                !
 ! A31   A(6,7,10)             110.8899         estimate D2E/DX2                !
 ! A32   A(8,7,9)              109.3865         estimate D2E/DX2                !
 ! A33   A(8,7,10)             109.08           estimate D2E/DX2                !
 ! A34   A(9,7,10)             110.2496         estimate D2E/DX2                !
 ! A35   A(7,8,29)             109.7085         estimate D2E/DX2                !
 ! A36   A(7,8,30)             110.3827         estimate D2E/DX2                !
 ! A37   A(7,8,31)             110.568          estimate D2E/DX2                !
 ! A38   A(29,8,30)            109.1773         estimate D2E/DX2                !
 ! A39   A(29,8,31)            108.41           estimate D2E/DX2                !
 ! A40   A(30,8,31)            108.5501         estimate D2E/DX2                !
 ! A41   A(7,9,32)             110.5875         estimate D2E/DX2                !
 ! A42   A(7,9,33)             109.8239         estimate D2E/DX2                !
 ! A43   A(7,9,34)             111.5412         estimate D2E/DX2                !
 ! A44   A(32,9,33)            108.3352         estimate D2E/DX2                !
 ! A45   A(32,9,34)            108.2635         estimate D2E/DX2                !
 ! A46   A(33,9,34)            108.1958         estimate D2E/DX2                !
 ! A47   A(7,10,35)            111.4918         estimate D2E/DX2                !
 ! A48   A(7,10,36)            110.2354         estimate D2E/DX2                !
 ! A49   A(7,10,37)            109.8824         estimate D2E/DX2                !
 ! A50   A(35,10,36)           108.5482         estimate D2E/DX2                !
 ! A51   A(35,10,37)           107.9858         estimate D2E/DX2                !
 ! A52   A(36,10,37)           108.6191         estimate D2E/DX2                !
 ! A53   A(6,11,12)            104.3415         estimate D2E/DX2                !
 ! A54   A(6,11,38)            112.3887         estimate D2E/DX2                !
 ! A55   A(6,11,39)            113.6493         estimate D2E/DX2                !
 ! A56   A(12,11,38)           108.6355         estimate D2E/DX2                !
 ! A57   A(12,11,39)           108.471          estimate D2E/DX2                !
 ! A58   A(38,11,39)           109.0942         estimate D2E/DX2                !
 ! A59   A(4,12,11)            106.2856         estimate D2E/DX2                !
 ! A60   A(2,13,14)            125.8489         estimate D2E/DX2                !
 ! A61   A(2,13,21)            116.5193         estimate D2E/DX2                !
 ! A62   A(14,13,21)           117.6031         estimate D2E/DX2                !
 ! A63   A(13,14,15)           108.4108         estimate D2E/DX2                !
 ! A64   A(14,15,16)           110.4323         estimate D2E/DX2                !
 ! A65   A(14,15,20)           103.1723         estimate D2E/DX2                !
 ! A66   A(14,15,40)           108.3795         estimate D2E/DX2                !
 ! A67   A(16,15,20)           115.7762         estimate D2E/DX2                !
 ! A68   A(16,15,40)           107.8932         estimate D2E/DX2                !
 ! A69   A(20,15,40)           110.9528         estimate D2E/DX2                !
 ! A70   A(15,16,17)           109.6668         estimate D2E/DX2                !
 ! A71   A(15,16,18)           110.885          estimate D2E/DX2                !
 ! A72   A(15,16,19)           107.5041         estimate D2E/DX2                !
 ! A73   A(17,16,18)           110.2516         estimate D2E/DX2                !
 ! A74   A(17,16,19)           109.3856         estimate D2E/DX2                !
 ! A75   A(18,16,19)           109.0917         estimate D2E/DX2                !
 ! A76   A(16,17,41)           110.5875         estimate D2E/DX2                !
 ! A77   A(16,17,42)           111.5453         estimate D2E/DX2                !
 ! A78   A(16,17,43)           109.823          estimate D2E/DX2                !
 ! A79   A(41,17,42)           108.2617         estimate D2E/DX2                !
 ! A80   A(41,17,43)           108.3352         estimate D2E/DX2                !
 ! A81   A(42,17,43)           108.1943         estimate D2E/DX2                !
 ! A82   A(16,18,44)           110.2375         estimate D2E/DX2                !
 ! A83   A(16,18,45)           109.8872         estimate D2E/DX2                !
 ! A84   A(16,18,46)           111.4891         estimate D2E/DX2                !
 ! A85   A(44,18,45)           108.6238         estimate D2E/DX2                !
 ! A86   A(44,18,46)           108.5359         estimate D2E/DX2                !
 ! A87   A(45,18,46)           107.9892         estimate D2E/DX2                !
 ! A88   A(16,19,47)           110.388          estimate D2E/DX2                !
 ! A89   A(16,19,48)           109.7092         estimate D2E/DX2                !
 ! A90   A(16,19,49)           110.5637         estimate D2E/DX2                !
 ! A91   A(47,19,48)           109.1786         estimate D2E/DX2                !
 ! A92   A(47,19,49)           108.5452         estimate D2E/DX2                !
 ! A93   A(48,19,49)           108.4119         estimate D2E/DX2                !
 ! A94   A(15,20,21)           104.3419         estimate D2E/DX2                !
 ! A95   A(15,20,50)           112.4184         estimate D2E/DX2                !
 ! A96   A(15,20,51)           113.6216         estimate D2E/DX2                !
 ! A97   A(21,20,50)           108.646          estimate D2E/DX2                !
 ! A98   A(21,20,51)           108.4548         estimate D2E/DX2                !
 ! A99   A(50,20,51)           109.0972         estimate D2E/DX2                !
 ! A100  A(13,21,20)           106.2989         estimate D2E/DX2                !
 ! D1    D(22,1,2,3)            58.1551         estimate D2E/DX2                !
 ! D2    D(22,1,2,4)           -64.6306         estimate D2E/DX2                !
 ! D3    D(22,1,2,13)         -179.1502         estimate D2E/DX2                !
 ! D4    D(23,1,2,3)           178.6965         estimate D2E/DX2                !
 ! D5    D(23,1,2,4)            55.9107         estimate D2E/DX2                !
 ! D6    D(23,1,2,13)          -58.6089         estimate D2E/DX2                !
 ! D7    D(24,1,2,3)           -62.1483         estimate D2E/DX2                !
 ! D8    D(24,1,2,4)           175.0659         estimate D2E/DX2                !
 ! D9    D(24,1,2,13)           60.5463         estimate D2E/DX2                !
 ! D10   D(1,2,3,25)            58.2351         estimate D2E/DX2                !
 ! D11   D(1,2,3,26)           178.7861         estimate D2E/DX2                !
 ! D12   D(1,2,3,27)           -62.0642         estimate D2E/DX2                !
 ! D13   D(4,2,3,25)          -179.0081         estimate D2E/DX2                !
 ! D14   D(4,2,3,26)           -58.4571         estimate D2E/DX2                !
 ! D15   D(4,2,3,27)            60.6925         estimate D2E/DX2                !
 ! D16   D(13,2,3,25)          -64.5241         estimate D2E/DX2                !
 ! D17   D(13,2,3,26)           56.0269         estimate D2E/DX2                !
 ! D18   D(13,2,3,27)          175.1765         estimate D2E/DX2                !
 ! D19   D(1,2,4,5)            127.8929         estimate D2E/DX2                !
 ! D20   D(1,2,4,12)           -54.1848         estimate D2E/DX2                !
 ! D21   D(3,2,4,5)              4.2244         estimate D2E/DX2                !
 ! D22   D(3,2,4,12)          -177.8533         estimate D2E/DX2                !
 ! D23   D(13,2,4,5)          -113.8874         estimate D2E/DX2                !
 ! D24   D(13,2,4,12)           64.0349         estimate D2E/DX2                !
 ! D25   D(1,2,13,14)            3.6323         estimate D2E/DX2                !
 ! D26   D(1,2,13,21)         -178.374          estimate D2E/DX2                !
 ! D27   D(3,2,13,14)          127.2703         estimate D2E/DX2                !
 ! D28   D(3,2,13,21)          -54.736          estimate D2E/DX2                !
 ! D29   D(4,2,13,14)         -114.5464         estimate D2E/DX2                !
 ! D30   D(4,2,13,21)           63.4473         estimate D2E/DX2                !
 ! D31   D(2,4,5,6)            175.6489         estimate D2E/DX2                !
 ! D32   D(12,4,5,6)            -2.2537         estimate D2E/DX2                !
 ! D33   D(2,4,12,11)         -178.9065         estimate D2E/DX2                !
 ! D34   D(5,4,12,11)           -0.8077         estimate D2E/DX2                !
 ! D35   D(4,5,6,7)           -120.2954         estimate D2E/DX2                !
 ! D36   D(4,5,6,11)             3.9902         estimate D2E/DX2                !
 ! D37   D(4,5,6,28)           121.7092         estimate D2E/DX2                !
 ! D38   D(5,6,7,8)            -59.5967         estimate D2E/DX2                !
 ! D39   D(5,6,7,9)           -178.4394         estimate D2E/DX2                !
 ! D40   D(5,6,7,10)            59.5705         estimate D2E/DX2                !
 ! D41   D(11,6,7,8)          -176.3033         estimate D2E/DX2                !
 ! D42   D(11,6,7,9)            64.854          estimate D2E/DX2                !
 ! D43   D(11,6,7,10)          -57.1361         estimate D2E/DX2                !
 ! D44   D(28,6,7,8)            58.7083         estimate D2E/DX2                !
 ! D45   D(28,6,7,9)           -60.1344         estimate D2E/DX2                !
 ! D46   D(28,6,7,10)          177.8755         estimate D2E/DX2                !
 ! D47   D(5,6,11,12)           -4.3241         estimate D2E/DX2                !
 ! D48   D(5,6,11,38)          113.1943         estimate D2E/DX2                !
 ! D49   D(5,6,11,39)         -122.2908         estimate D2E/DX2                !
 ! D50   D(7,6,11,12)          116.3851         estimate D2E/DX2                !
 ! D51   D(7,6,11,38)         -126.0965         estimate D2E/DX2                !
 ! D52   D(7,6,11,39)           -1.5816         estimate D2E/DX2                !
 ! D53   D(28,6,11,12)        -120.2238         estimate D2E/DX2                !
 ! D54   D(28,6,11,38)          -2.7054         estimate D2E/DX2                !
 ! D55   D(28,6,11,39)         121.8095         estimate D2E/DX2                !
 ! D56   D(6,7,8,29)            57.8233         estimate D2E/DX2                !
 ! D57   D(6,7,8,30)           178.177          estimate D2E/DX2                !
 ! D58   D(6,7,8,31)           -61.6965         estimate D2E/DX2                !
 ! D59   D(9,7,8,29)           176.8431         estimate D2E/DX2                !
 ! D60   D(9,7,8,30)           -62.8032         estimate D2E/DX2                !
 ! D61   D(9,7,8,31)            57.3233         estimate D2E/DX2                !
 ! D62   D(10,7,8,29)          -62.4959         estimate D2E/DX2                !
 ! D63   D(10,7,8,30)           57.8578         estimate D2E/DX2                !
 ! D64   D(10,7,8,31)          177.9844         estimate D2E/DX2                !
 ! D65   D(6,7,9,32)            57.7715         estimate D2E/DX2                !
 ! D66   D(6,7,9,33)           177.2842         estimate D2E/DX2                !
 ! D67   D(6,7,9,34)           -62.7711         estimate D2E/DX2                !
 ! D68   D(8,7,9,32)           -59.9105         estimate D2E/DX2                !
 ! D69   D(8,7,9,33)            59.6022         estimate D2E/DX2                !
 ! D70   D(8,7,9,34)           179.5468         estimate D2E/DX2                !
 ! D71   D(10,7,9,32)         -179.8564         estimate D2E/DX2                !
 ! D72   D(10,7,9,33)          -60.3438         estimate D2E/DX2                !
 ! D73   D(10,7,9,34)           59.6009         estimate D2E/DX2                !
 ! D74   D(6,7,10,35)           65.8041         estimate D2E/DX2                !
 ! D75   D(6,7,10,36)          -54.827          estimate D2E/DX2                !
 ! D76   D(6,7,10,37)         -174.5073         estimate D2E/DX2                !
 ! D77   D(8,7,10,35)         -175.9734         estimate D2E/DX2                !
 ! D78   D(8,7,10,36)           63.3956         estimate D2E/DX2                !
 ! D79   D(8,7,10,37)          -56.2847         estimate D2E/DX2                !
 ! D80   D(9,7,10,35)          -55.8426         estimate D2E/DX2                !
 ! D81   D(9,7,10,36)         -176.4736         estimate D2E/DX2                !
 ! D82   D(9,7,10,37)           63.8461         estimate D2E/DX2                !
 ! D83   D(6,11,12,4)            3.2146         estimate D2E/DX2                !
 ! D84   D(38,11,12,4)        -116.8589         estimate D2E/DX2                !
 ! D85   D(39,11,12,4)         124.6764         estimate D2E/DX2                !
 ! D86   D(2,13,14,15)         175.7733         estimate D2E/DX2                !
 ! D87   D(21,13,14,15)         -2.2009         estimate D2E/DX2                !
 ! D88   D(2,13,21,20)        -178.813          estimate D2E/DX2                !
 ! D89   D(14,13,21,20)         -0.648          estimate D2E/DX2                !
 ! D90   D(13,14,15,16)       -120.5478         estimate D2E/DX2                !
 ! D91   D(13,14,15,20)          3.7699         estimate D2E/DX2                !
 ! D92   D(13,14,15,40)        121.4649         estimate D2E/DX2                !
 ! D93   D(14,15,16,17)       -178.6311         estimate D2E/DX2                !
 ! D94   D(14,15,16,18)         59.3766         estimate D2E/DX2                !
 ! D95   D(14,15,16,19)        -59.7943         estimate D2E/DX2                !
 ! D96   D(20,15,16,17)         64.6283         estimate D2E/DX2                !
 ! D97   D(20,15,16,18)        -57.364          estimate D2E/DX2                !
 ! D98   D(20,15,16,19)       -176.5349         estimate D2E/DX2                !
 ! D99   D(40,15,16,17)        -60.3459         estimate D2E/DX2                !
 ! D100  D(40,15,16,18)        177.6617         estimate D2E/DX2                !
 ! D101  D(40,15,16,19)         58.4909         estimate D2E/DX2                !
 ! D102  D(14,15,20,21)         -4.0225         estimate D2E/DX2                !
 ! D103  D(14,15,20,50)        113.5236         estimate D2E/DX2                !
 ! D104  D(14,15,20,51)       -121.9553         estimate D2E/DX2                !
 ! D105  D(16,15,20,21)        116.7192         estimate D2E/DX2                !
 ! D106  D(16,15,20,50)       -125.7347         estimate D2E/DX2                !
 ! D107  D(16,15,20,51)         -1.2137         estimate D2E/DX2                !
 ! D108  D(40,15,20,21)       -119.8955         estimate D2E/DX2                !
 ! D109  D(40,15,20,50)         -2.3494         estimate D2E/DX2                !
 ! D110  D(40,15,20,51)        122.1717         estimate D2E/DX2                !
 ! D111  D(15,16,17,41)         57.7339         estimate D2E/DX2                !
 ! D112  D(15,16,17,42)        -62.8093         estimate D2E/DX2                !
 ! D113  D(15,16,17,43)        177.246          estimate D2E/DX2                !
 ! D114  D(18,16,17,41)       -179.896          estimate D2E/DX2                !
 ! D115  D(18,16,17,42)         59.5608         estimate D2E/DX2                !
 ! D116  D(18,16,17,43)        -60.384          estimate D2E/DX2                !
 ! D117  D(19,16,17,41)        -59.9351         estimate D2E/DX2                !
 ! D118  D(19,16,17,42)        179.5218         estimate D2E/DX2                !
 ! D119  D(19,16,17,43)         59.577          estimate D2E/DX2                !
 ! D120  D(15,16,18,44)        -54.8486         estimate D2E/DX2                !
 ! D121  D(15,16,18,45)       -174.5391         estimate D2E/DX2                !
 ! D122  D(15,16,18,46)         65.7666         estimate D2E/DX2                !
 ! D123  D(17,16,18,44)       -176.4988         estimate D2E/DX2                !
 ! D124  D(17,16,18,45)         63.8108         estimate D2E/DX2                !
 ! D125  D(17,16,18,46)        -55.8835         estimate D2E/DX2                !
 ! D126  D(19,16,18,44)         63.3629         estimate D2E/DX2                !
 ! D127  D(19,16,18,45)        -56.3275         estimate D2E/DX2                !
 ! D128  D(19,16,18,46)       -176.0218         estimate D2E/DX2                !
 ! D129  D(15,16,19,47)        178.0799         estimate D2E/DX2                !
 ! D130  D(15,16,19,48)         57.7208         estimate D2E/DX2                !
 ! D131  D(15,16,19,49)        -61.7991         estimate D2E/DX2                !
 ! D132  D(17,16,19,47)        -62.9029         estimate D2E/DX2                !
 ! D133  D(17,16,19,48)        176.738          estimate D2E/DX2                !
 ! D134  D(17,16,19,49)         57.2182         estimate D2E/DX2                !
 ! D135  D(18,16,19,47)         57.7673         estimate D2E/DX2                !
 ! D136  D(18,16,19,48)        -62.5919         estimate D2E/DX2                !
 ! D137  D(18,16,19,49)        177.8883         estimate D2E/DX2                !
 ! D138  D(15,20,21,13)          2.9374         estimate D2E/DX2                !
 ! D139  D(50,20,21,13)       -117.176          estimate D2E/DX2                !
 ! D140  D(51,20,21,13)        124.3589         estimate D2E/DX2                !
 --------------------------------------------------------------------------------
 Trust Radius=3.00D-01 FncErr=1.00D-07 GrdErr=1.00D-06 EigMax=2.50D+02 EigMin=1.00D-04
 Number of steps in this run=    302 maximum allowed number of steps=    306.
 GradGradGradGradGradGradGradGradGradGradGradGradGradGradGradGradGradGrad

 Leave Link  103 at Sun Feb 25 04:43:04 2024, MaxMem=  7516192768 cpu:               0.3 elap:               0.0
 (Enter /public/apps/g16-C01//g16/l202.exe)
 Symmetry turned off by external request.
 Stoichiometry    C17H30N2O2
 Framework group  C1[X(C17H30N2O2)]
 Deg. of freedom   147
 Full point group                 C1      NOp   1
                          Input orientation:                          
 ---------------------------------------------------------------------
 Center     Atomic      Atomic             Coordinates (Angstroms)
 Number     Number       Type             X           Y           Z
 ---------------------------------------------------------------------
      1          6           0        0.615396   -2.936390   -1.062643
      2          6           0        0.039873   -2.061929    0.051203
      3          6           0       -0.498168   -2.902757    1.208942
      4          6           0       -1.044050   -1.176941   -0.494118
      5          7           0       -2.208680   -1.064750   -0.027338
      6          6           0       -2.904258   -0.039294   -0.775726
      7          6           0       -3.352179    1.104676    0.164196
      8          6           0       -4.278430    0.496965    1.220699
      9          6           0       -4.118456    2.159018   -0.636994
     10          6           0       -2.147945    1.741158    0.861332
     11          6           0       -1.879178    0.352689   -1.875685
     12          8           0       -0.716975   -0.404432   -1.560148
     13          6           0        1.083768   -1.104696    0.550618
     14          7           0        2.246998   -0.973147    0.085484
     15          6           0        2.896173    0.118769    0.779627
     16          6           0        3.313030    1.222578   -0.220491
     17          6           0        4.026936    2.351066    0.526231
     18          6           0        2.095122    1.769612   -0.967996
     19          6           0        4.276802    0.590776   -1.228180
     20          6           0        1.845462    0.534957    1.846025
     21          8           0        0.717842   -0.286708    1.569074
     22          1           0       -0.149157   -3.616828   -1.430294
     23          1           0        0.967861   -2.313249   -1.878950
     24          1           0        1.455298   -3.509216   -0.680672
     25          1           0        0.295347   -3.528439    1.610888
     26          1           0       -0.879826   -2.254638    1.991975
     27          1           0       -1.310851   -3.531612    0.857397
     28          1           0       -3.803289   -0.483420   -1.217799
     29          1           0       -3.756679   -0.291078    1.755455
     30          1           0       -4.596862    1.258725    1.928520
     31          1           0       -5.161815    0.068143    0.753189
     32          1           0       -4.977686    1.712673   -1.133125
     33          1           0       -4.476061    2.940709    0.029358
     34          1           0       -3.489030    2.620242   -1.394596
     35          1           0       -1.497631    2.247582    0.150729
     36          1           0       -1.568163    0.980714    1.379931
     37          1           0       -2.487073    2.475475    1.588710
     38          1           0       -2.216588    0.073706   -2.878081
     39          1           0       -1.614259    1.411376   -1.869939
     40          1           0        3.805673   -0.265948    1.254859
     41          1           0        4.895233    1.968293    1.058398
     42          1           0        3.369549    2.831200    1.247450
     43          1           0        4.364184    3.105596   -0.180791
     44          1           0        1.552551    0.958138   -1.448106
     45          1           0        2.415821    2.473433   -1.732894
     46          1           0        1.415608    2.290123   -0.295982
     47          1           0        4.574561    1.321153   -1.976879
     48          1           0        3.793902   -0.248113   -1.720418
     49          1           0        5.170017    0.226516   -0.725849
     50          1           0        2.183728    0.332253    2.866203
     51          1           0        1.538082    1.579629    1.772683
 ---------------------------------------------------------------------
 Rotational constants (GHZ):           0.4841806           0.2155110           0.1877481
 Leave Link  202 at Sun Feb 25 04:43:04 2024, MaxMem=  7516192768 cpu:               0.4 elap:               0.0
 (Enter /public/apps/g16-C01//g16/l301.exe)
 Standard basis: def2SVPP (5D, 7F)
 Ernie: Thresh=  0.10000D-02 Tol=  0.10000D-05 Strict=F.
   354 basis functions,   645 primitive gaussians,   375 cartesian basis functions
    81 alpha electrons       81 beta electrons
       nuclear repulsion energy      1934.7463690714 Hartrees.
 IExCor=  402 DFT=T Ex+Corr=B3LYP ExCW=0 ScaHFX=  0.200000
 ScaDFX=  0.800000  0.720000  1.000000  0.810000 ScalE2=  1.000000  1.000000
 IRadAn=      5 IRanWt=     -1 IRanGd=            0 ICorTp=0 IEmpDi=141
 NAtoms=   51 NActive=   51 NUniq=   51 SFac= 1.00D+00 NAtFMM=   60 NAOKFM=F Big=F
 Integral buffers will be    131072 words long.
 Raffenetti 2 integral format.
 Two-electron integral symmetry is turned off.
 R6Disp:  Grimme-D3(BJ) Dispersion energy=       -0.1038846938 Hartrees.
 Nuclear repulsion after empirical dispersion term =     1934.6424843776 Hartrees.
 Leave Link  301 at Sun Feb 25 04:43:04 2024, MaxMem=  7516192768 cpu:               1.2 elap:               0.0
 (Enter /public/apps/g16-C01//g16/l302.exe)
 NPDir=0 NMtPBC=     1 NCelOv=     1 NCel=       1 NClECP=     1 NCelD=      1
         NCelK=      1 NCelE2=     1 NClLst=     1 CellRange=     0.0.
 One-electron integrals computed using PRISM.
   1 Symmetry operations used in ECPInt.
 ECPInt:  NShTT=   17391 NPrTT=   69741 LenC2=   16522 LenP2D=   45462.
 LDataN:  DoStor=T MaxTD1= 4 Len=   56
 NBasis=   354 RedAO= T EigKep=  6.18D-04  NBF=   354
 NBsUse=   354 1.00D-06 EigRej= -1.00D+00 NBFU=   354
 Precomputing XC quadrature grid using
 IXCGrd= 4 IRadAn=           5 IRanWt=          -1 IRanGd=           0 AccXCQ= 0.00D+00.
 Generated NRdTot=       0 NPtTot=           0 NUsed=           0 NTot=          32
 NSgBfM=   372   372   372   372   372 MxSgAt=    51 MxSgA2=    51.
 Leave Link  302 at Sun Feb 25 04:43:05 2024, MaxMem=  7516192768 cpu:              14.9 elap:               0.4
 (Enter /public/apps/g16-C01//g16/l303.exe)
 DipDrv:  MaxL=1.
 Leave Link  303 at Sun Feb 25 04:43:05 2024, MaxMem=  7516192768 cpu:               1.4 elap:               0.1
 (Enter /public/apps/g16-C01//g16/l401.exe)
 ExpMin= 1.22D-01 ExpMax= 2.27D+03 ExpMxC= 3.41D+02 IAcc=3 IRadAn=         5 AccDes= 0.00D+00
 Harris functional with IExCor=  402 and IRadAn=       5 diagonalized for initial guess.
 HarFok:  IExCor=  402 AccDes= 0.00D+00 IRadAn=         5 IDoV= 1 UseB2=F ITyADJ=14
 ICtDFT=  3500011 ScaDFX=  1.000000  1.000000  1.000000  1.000000
 FoFCou: FMM=F IPFlag=           0 FMFlag=      100000 FMFlg1=           0
         NFxFlg=           0 DoJE=T BraDBF=F KetDBF=T FulRan=T
         wScrn=  0.000000 ICntrl=       500 IOpCl=  0 I1Cent=   200000004 NGrid=           0
         NMat0=    1 NMatS0=      1 NMatT0=    0 NMatD0=    1 NMtDS0=    0 NMtDT0=    0
 Symmetry not used in FoFCou.
 Harris En= -925.202172834047    
 JPrj=0 DoOrth=F DoCkMO=F.
 Leave Link  401 at Sun Feb 25 04:43:05 2024, MaxMem=  7516192768 cpu:              27.9 elap:               0.7
 (Enter /public/apps/g16-C01//g16/l502.exe)
 Two-electron integral symmetry not used.
 Closed shell SCF:
 Using DIIS extrapolation, IDIIS=  1040.
 NGot=  7516192768 LenX=  7515891723 LenY=  7515750657
 Requested convergence on RMS density matrix=1.00D-08 within 128 cycles.
 Requested convergence on MAX density matrix=1.00D-06.
 Requested convergence on             energy=1.00D-06.
 No special actions if energy rises.
 Fock matrices will be formed incrementally for  20 cycles.
 Integral accuracy reduced to 1.0D-05 until final iterations.

 Cycle   1  Pass 0  IDiag  1:
 FoFJK:  IHMeth= 1 ICntrl=       0 DoSepK=F KAlg= 0 I1Cent=           0 FoldK=F
 IRaf= 900000000 NMat=       1 IRICut=       1 DoRegI=T DoRafI=F ISym2E= 0 IDoP0=0 IntGTp=1.
 FoFCou: FMM=F IPFlag=           0 FMFlag=      100000 FMFlg1=           0
         NFxFlg=           0 DoJE=F BraDBF=F KetDBF=F FulRan=T
         wScrn=  0.000000 ICntrl=         0 IOpCl=  0 I1Cent=           0 NGrid=           0
         NMat0=    1 NMatS0=      1 NMatT0=    0 NMatD0=    1 NMtDS0=    0 NMtDT0=    0
 Symmetry not used in FoFCou.
 E= -924.549769267051    
 DIIS: error= 4.67D-02 at cycle   1 NSaved=   1.
 NSaved= 1 IEnMin= 1 EnMin= -924.549769267051     IErMin= 1 ErrMin= 4.67D-02
 ErrMax= 4.67D-02  0.00D+00 EMaxC= 1.00D-01 BMatC= 5.92D-01 BMatP= 5.92D-01
 IDIUse=3 WtCom= 5.33D-01 WtEn= 4.67D-01
 Coeff-Com:  0.100D+01
 Coeff-En:   0.100D+01
 Coeff:      0.100D+01
 Gap=     0.218 Goal=   None    Shift=    0.000
 GapD=    0.218 DampG=1.000 DampE=0.500 DampFc=0.5000 IDamp=-1.
 Damping current iteration by 5.00D-01
 RMSDP=5.93D-03 MaxDP=2.64D-01              OVMax= 2.33D-01

 Cycle   2  Pass 0  IDiag  1:
 RMSU=  2.94D-03    CP:  9.78D-01
 E= -924.799165113355     Delta-E=       -0.249395846304 Rises=F Damp=T
 DIIS: error= 7.49D-03 at cycle   2 NSaved=   2.
 NSaved= 2 IEnMin= 2 EnMin= -924.799165113355     IErMin= 2 ErrMin= 7.49D-03
 ErrMax= 7.49D-03  0.00D+00 EMaxC= 1.00D-01 BMatC= 4.25D-02 BMatP= 5.92D-01
 IDIUse=3 WtCom= 9.25D-01 WtEn= 7.49D-02
 Coeff-Com:  0.125D+00 0.875D+00
 Coeff-En:   0.207D+00 0.793D+00
 Coeff:      0.131D+00 0.869D+00
 Gap=     0.286 Goal=   None    Shift=    0.000
 RMSDP=1.88D-03 MaxDP=8.45D-02 DE=-2.49D-01 OVMax= 2.16D-01

 Cycle   3  Pass 0  IDiag  1:
 RMSU=  1.72D-03    CP:  9.68D-01  7.47D-01
 E= -925.129738700914     Delta-E=       -0.330573587559 Rises=F Damp=F
 DIIS: error= 1.11D-02 at cycle   3 NSaved=   3.
 NSaved= 3 IEnMin= 3 EnMin= -925.129738700914     IErMin= 2 ErrMin= 7.49D-03
 ErrMax= 1.11D-02  0.00D+00 EMaxC= 1.00D-01 BMatC= 5.59D-02 BMatP= 4.25D-02
 IDIUse=2 WtCom= 0.00D+00 WtEn= 1.00D+00
 Coeff-En:   0.000D+00 0.000D+00 0.100D+01
 Coeff:      0.000D+00 0.000D+00 0.100D+01
 Gap=     0.233 Goal=   None    Shift=    0.000
 RMSDP=2.47D-03 MaxDP=1.53D-01 DE=-3.31D-01 OVMax= 2.32D-01

 Cycle   4  Pass 0  IDiag  1:
 RMSU=  1.63D-03    CP:  9.77D-01  1.07D+00  7.61D-02
 E= -924.916016435121     Delta-E=        0.213722265793 Rises=F Damp=F
 DIIS: error= 2.92D-02 at cycle   4 NSaved=   4.
 NSaved= 4 IEnMin= 3 EnMin= -925.129738700914     IErMin= 2 ErrMin= 7.49D-03
 ErrMax= 2.92D-02  0.00D+00 EMaxC= 1.00D-01 BMatC= 2.98D-01 BMatP= 4.25D-02
 IDIUse=2 WtCom= 0.00D+00 WtEn= 1.00D+00
 Coeff-En:   0.000D+00 0.000D+00 0.784D+00 0.216D+00
 Coeff:      0.000D+00 0.000D+00 0.784D+00 0.216D+00
 Gap=     0.251 Goal=   None    Shift=    0.000
 RMSDP=1.29D-03 MaxDP=9.58D-02 DE= 2.14D-01 OVMax= 1.19D-01

 Cycle   5  Pass 0  IDiag  1:
 RMSU=  2.05D-04    CP:  9.73D-01  8.77D-01  5.15D-01  4.72D-01
 E= -925.161527095948     Delta-E=       -0.245510660827 Rises=F Damp=F
 DIIS: error= 7.32D-03 at cycle   5 NSaved=   5.
 NSaved= 5 IEnMin= 5 EnMin= -925.161527095948     IErMin= 5 ErrMin= 7.32D-03
 ErrMax= 7.32D-03  0.00D+00 EMaxC= 1.00D-01 BMatC= 2.13D-02 BMatP= 4.25D-02
 IDIUse=3 WtCom= 9.27D-01 WtEn= 7.32D-02
 Coeff-Com: -0.244D-03 0.171D-01 0.306D+00-0.740D-01 0.751D+00
 Coeff-En:   0.000D+00 0.000D+00 0.322D+00 0.000D+00 0.678D+00
 Coeff:     -0.226D-03 0.159D-01 0.307D+00-0.685D-01 0.746D+00
 Gap=     0.249 Goal=   None    Shift=    0.000
 RMSDP=4.72D-04 MaxDP=2.87D-02 DE=-2.46D-01 OVMax= 4.45D-02

 Cycle   6  Pass 0  IDiag  1:
 RMSU=  5.14D-05    CP:  9.72D-01  8.19D-01  6.90D-01  2.79D-01  8.16D-01
 E= -925.180541292592     Delta-E=       -0.019014196644 Rises=F Damp=F
 DIIS: error= 4.43D-04 at cycle   6 NSaved=   6.
 NSaved= 6 IEnMin= 6 EnMin= -925.180541292592     IErMin= 6 ErrMin= 4.43D-04
 ErrMax= 4.43D-04  0.00D+00 EMaxC= 1.00D-01 BMatC= 5.09D-05 BMatP= 2.13D-02
 IDIUse=3 WtCom= 9.96D-01 WtEn= 4.43D-03
 Coeff-Com: -0.175D-02 0.396D-02 0.107D+00-0.537D-01 0.377D+00 0.568D+00
 Coeff-En:   0.000D+00 0.000D+00 0.000D+00 0.000D+00 0.000D+00 0.100D+01
 Coeff:     -0.174D-02 0.394D-02 0.106D+00-0.535D-01 0.375D+00 0.570D+00
 Gap=     0.249 Goal=   None    Shift=    0.000
 RMSDP=2.52D-05 MaxDP=1.55D-03 DE=-1.90D-02 OVMax= 1.16D-03

 Cycle   7  Pass 0  IDiag  1:
 RMSU=  1.29D-05    CP:  9.72D-01  8.22D-01  6.85D-01  2.82D-01  8.48D-01
                    CP:  7.04D-01
 E= -925.180589407184     Delta-E=       -0.000048114592 Rises=F Damp=F
 DIIS: error= 6.14D-05 at cycle   7 NSaved=   7.
 NSaved= 7 IEnMin= 7 EnMin= -925.180589407184     IErMin= 7 ErrMin= 6.14D-05
 ErrMax= 6.14D-05  0.00D+00 EMaxC= 1.00D-01 BMatC= 1.30D-06 BMatP= 5.09D-05
 IDIUse=1 WtCom= 1.00D+00 WtEn= 0.00D+00
 Coeff-Com: -0.500D-03 0.705D-03 0.279D-01-0.165D-01 0.105D+00 0.200D+00
 Coeff-Com:  0.683D+00
 Coeff:     -0.500D-03 0.705D-03 0.279D-01-0.165D-01 0.105D+00 0.200D+00
 Coeff:      0.683D+00
 Gap=     0.249 Goal=   None    Shift=    0.000
 RMSDP=6.07D-06 MaxDP=1.33D-04 DE=-4.81D-05 OVMax= 2.87D-04

 Initial convergence to 1.0D-05 achieved.  Increase integral accuracy.
 Cycle   8  Pass 1  IDiag  1:
 E= -925.180616501264     Delta-E=       -0.000027094080 Rises=F Damp=F
 DIIS: error= 7.86D-05 at cycle   1 NSaved=   1.
 NSaved= 1 IEnMin= 1 EnMin= -925.180616501264     IErMin= 1 ErrMin= 7.86D-05
 ErrMax= 7.86D-05  0.00D+00 EMaxC= 1.00D-01 BMatC= 1.91D-06 BMatP= 1.91D-06
 IDIUse=1 WtCom= 1.00D+00 WtEn= 0.00D+00
 Coeff-Com:  0.100D+01
 Coeff:      0.100D+01
 Gap=     0.249 Goal=   None    Shift=    0.000
 RMSDP=6.07D-06 MaxDP=1.33D-04 DE=-2.71D-05 OVMax= 2.57D-04

 Cycle   9  Pass 1  IDiag  1:
 RMSU=  5.09D-05    CP:  1.00D+00
 E= -925.180618161652     Delta-E=       -0.000001660389 Rises=F Damp=F
 DIIS: error= 3.54D-05 at cycle   2 NSaved=   2.
 NSaved= 2 IEnMin= 2 EnMin= -925.180618161652     IErMin= 2 ErrMin= 3.54D-05
 ErrMax= 3.54D-05  0.00D+00 EMaxC= 1.00D-01 BMatC= 6.54D-07 BMatP= 1.91D-06
 IDIUse=1 WtCom= 1.00D+00 WtEn= 0.00D+00
 Coeff-Com:  0.311D+00 0.689D+00
 Coeff:      0.311D+00 0.689D+00
 Gap=     0.249 Goal=   None    Shift=    0.000
 RMSDP=4.62D-06 MaxDP=3.48D-04 DE=-1.66D-06 OVMax= 2.34D-04

 Cycle  10  Pass 1  IDiag  1:
 RMSU=  4.60D-06    CP:  1.00D+00  9.99D-01
 E= -925.180618316681     Delta-E=       -0.000000155028 Rises=F Damp=F
 DIIS: error= 3.38D-05 at cycle   3 NSaved=   3.
 NSaved= 3 IEnMin= 3 EnMin= -925.180618316681     IErMin= 3 ErrMin= 3.38D-05
 ErrMax= 3.38D-05  0.00D+00 EMaxC= 1.00D-01 BMatC= 4.68D-07 BMatP= 6.54D-07
 IDIUse=1 WtCom= 1.00D+00 WtEn= 0.00D+00
 Coeff-Com:  0.985D-03 0.458D+00 0.541D+00
 Coeff:      0.985D-03 0.458D+00 0.541D+00
 Gap=     0.249 Goal=   None    Shift=    0.000
 RMSDP=2.29D-06 MaxDP=1.89D-04 DE=-1.55D-07 OVMax= 1.20D-04

 Cycle  11  Pass 1  IDiag  1:
 RMSU=  7.59D-07    CP:  1.00D+00  1.01D+00  5.51D-01
 E= -925.180618684016     Delta-E=       -0.000000367335 Rises=F Damp=F
 DIIS: error= 5.42D-06 at cycle   4 NSaved=   4.
 NSaved= 4 IEnMin= 4 EnMin= -925.180618684016     IErMin= 4 ErrMin= 5.42D-06
 ErrMax= 5.42D-06  0.00D+00 EMaxC= 1.00D-01 BMatC= 1.76D-08 BMatP= 4.68D-07
 IDIUse=1 WtCom= 1.00D+00 WtEn= 0.00D+00
 Coeff-Com: -0.462D-02 0.288D+00 0.353D+00 0.363D+00
 Coeff:     -0.462D-02 0.288D+00 0.353D+00 0.363D+00
 Gap=     0.249 Goal=   None    Shift=    0.000
 RMSDP=4.61D-07 MaxDP=1.78D-05 DE=-3.67D-07 OVMax= 4.21D-05

 Cycle  12  Pass 1  IDiag  1:
 RMSU=  1.74D-07    CP:  1.00D+00  1.01D+00  5.64D-01  4.43D-01
 E= -925.180618699540     Delta-E=       -0.000000015524 Rises=F Damp=F
 DIIS: error= 1.73D-06 at cycle   5 NSaved=   5.
 NSaved= 5 IEnMin= 5 EnMin= -925.180618699540     IErMin= 5 ErrMin= 1.73D-06
 ErrMax= 1.73D-06  0.00D+00 EMaxC= 1.00D-01 BMatC= 5.35D-10 BMatP= 1.76D-08
 IDIUse=1 WtCom= 1.00D+00 WtEn= 0.00D+00
 Coeff-Com: -0.294D-02 0.161D+00 0.198D+00 0.227D+00 0.417D+00
 Coeff:     -0.294D-02 0.161D+00 0.198D+00 0.227D+00 0.417D+00
 Gap=     0.249 Goal=   None    Shift=    0.000
 RMSDP=8.11D-08 MaxDP=3.41D-06 DE=-1.55D-08 OVMax= 5.93D-06

 Cycle  13  Pass 1  IDiag  1:
 RMSU=  6.01D-08    CP:  1.00D+00  1.01D+00  5.58D-01  4.35D-01  7.34D-01
 E= -925.180618699973     Delta-E=       -0.000000000433 Rises=F Damp=F
 DIIS: error= 9.29D-08 at cycle   6 NSaved=   6.
 NSaved= 6 IEnMin= 6 EnMin= -925.180618699973     IErMin= 6 ErrMin= 9.29D-08
 ErrMax= 9.29D-08  0.00D+00 EMaxC= 1.00D-01 BMatC= 4.23D-12 BMatP= 5.35D-10
 IDIUse=1 WtCom= 1.00D+00 WtEn= 0.00D+00
 Coeff-Com: -0.344D-03 0.164D-01 0.204D-01 0.279D-01 0.103D+00 0.833D+00
 Coeff:     -0.344D-03 0.164D-01 0.204D-01 0.279D-01 0.103D+00 0.833D+00
 Gap=     0.249 Goal=   None    Shift=    0.000
 RMSDP=1.24D-08 MaxDP=3.72D-07 DE=-4.33D-10 OVMax= 3.73D-07

 Cycle  14  Pass 1  IDiag  1:
 RMSU=  9.65D-09    CP:  1.00D+00  1.01D+00  5.58D-01  4.39D-01  7.68D-01
                    CP:  9.52D-01
 E= -925.180618699974     Delta-E=       -0.000000000001 Rises=F Damp=F
 DIIS: error= 4.49D-08 at cycle   7 NSaved=   7.
 NSaved= 7 IEnMin= 7 EnMin= -925.180618699974     IErMin= 7 ErrMin= 4.49D-08
 ErrMax= 4.49D-08  0.00D+00 EMaxC= 1.00D-01 BMatC= 1.15D-12 BMatP= 4.23D-12
 IDIUse=1 WtCom= 1.00D+00 WtEn= 0.00D+00
 Coeff-Com:  0.175D-04-0.227D-02-0.264D-02-0.800D-03 0.252D-01 0.428D+00
 Coeff-Com:  0.553D+00
 Coeff:      0.175D-04-0.227D-02-0.264D-02-0.800D-03 0.252D-01 0.428D+00
 Coeff:      0.553D+00
 Gap=     0.249 Goal=   None    Shift=    0.000
 RMSDP=4.21D-09 MaxDP=1.54D-07 DE=-9.09D-13 OVMax= 1.56D-07

 SCF Done:  E(RB3LYP) =  -925.180618700     A.U. after   14 cycles
            NFock= 14  Conv=0.42D-08     -V/T= 2.0093
 KE= 9.166311714686D+02 PE=-6.016615041009D+03 EE= 2.240160766463D+03
 Leave Link  502 at Sun Feb 25 04:43:23 2024, MaxMem=  7516192768 cpu:             699.2 elap:              17.6
 (Enter /public/apps/g16-C01//g16/l601.exe)
 Copying SCF densities to generalized density rwf, IOpCl= 0 IROHF=0.

 **********************************************************************

            Population analysis using the SCF Density.

 **********************************************************************

 Alpha  occ. eigenvalues --  -19.16983 -19.16976 -14.29914 -14.29900 -10.26988
 Alpha  occ. eigenvalues --  -10.26978 -10.23489 -10.23483 -10.21589 -10.21130
 Alpha  occ. eigenvalues --  -10.21122 -10.19209 -10.19199 -10.16765 -10.16756
 Alpha  occ. eigenvalues --  -10.16728 -10.16721 -10.15916 -10.15901 -10.15515
 Alpha  occ. eigenvalues --  -10.15505  -1.09208  -1.08607  -0.90508  -0.90492
 Alpha  occ. eigenvalues --   -0.84241  -0.81557  -0.80216  -0.74244  -0.73205
 Alpha  occ. eigenvalues --   -0.68794  -0.68232  -0.68197  -0.67758  -0.67663
 Alpha  occ. eigenvalues --   -0.64223  -0.63539  -0.63084  -0.58011  -0.54346
 Alpha  occ. eigenvalues --   -0.54236  -0.52950  -0.51808  -0.50713  -0.49122
 Alpha  occ. eigenvalues --   -0.48566  -0.46791  -0.46367  -0.44825  -0.44534
 Alpha  occ. eigenvalues --   -0.44440  -0.43631  -0.43366  -0.43282  -0.41982
 Alpha  occ. eigenvalues --   -0.41265  -0.40069  -0.39422  -0.39113  -0.38815
 Alpha  occ. eigenvalues --   -0.38647  -0.38588  -0.38220  -0.36711  -0.36649
 Alpha  occ. eigenvalues --   -0.36477  -0.36023  -0.35802  -0.34765  -0.34745
 Alpha  occ. eigenvalues --   -0.34412  -0.33503  -0.33374  -0.32761  -0.32624
 Alpha  occ. eigenvalues --   -0.31929  -0.31642  -0.27077  -0.26836  -0.25223
 Alpha  occ. eigenvalues --   -0.24781
 Alpha virt. eigenvalues --    0.00116   0.03856   0.04293   0.05937   0.07220
 Alpha virt. eigenvalues --    0.07519   0.08227   0.08338   0.08908   0.09652
 Alpha virt. eigenvalues --    0.09918   0.10913   0.10953   0.11432   0.11617
 Alpha virt. eigenvalues --    0.12048   0.12919   0.13780   0.14179   0.14463
 Alpha virt. eigenvalues --    0.14756   0.15801   0.16002   0.16071   0.16677
 Alpha virt. eigenvalues --    0.16954   0.17215   0.17418   0.18061   0.18664
 Alpha virt. eigenvalues --    0.18888   0.19128   0.20352   0.20723   0.20880
 Alpha virt. eigenvalues --    0.21823   0.21982   0.22354   0.22693   0.23043
 Alpha virt. eigenvalues --    0.23536   0.23936   0.24197   0.24383   0.25002
 Alpha virt. eigenvalues --    0.25810   0.26598   0.27367   0.29495   0.31304
 Alpha virt. eigenvalues --    0.31543   0.36137   0.37462   0.38035   0.39538
 Alpha virt. eigenvalues --    0.40356   0.40656   0.41650   0.42068   0.42304
 Alpha virt. eigenvalues --    0.42396   0.42674   0.44349   0.45133   0.48288
 Alpha virt. eigenvalues --    0.48542   0.50641   0.51993   0.52366   0.53404
 Alpha virt. eigenvalues --    0.53677   0.55102   0.55137   0.55556   0.56616
 Alpha virt. eigenvalues --    0.56917   0.57587   0.58549   0.59159   0.60526
 Alpha virt. eigenvalues --    0.60796   0.62065   0.63203   0.64144   0.64263
 Alpha virt. eigenvalues --    0.64505   0.64891   0.65834   0.65909   0.66831
 Alpha virt. eigenvalues --    0.66908   0.66931   0.67676   0.68384   0.68477
 Alpha virt. eigenvalues --    0.68923   0.68981   0.69210   0.69814   0.70003
 Alpha virt. eigenvalues --    0.70424   0.71147   0.71300   0.71375   0.71480
 Alpha virt. eigenvalues --    0.71576   0.72139   0.72340   0.73014   0.73400
 Alpha virt. eigenvalues --    0.73469   0.73965   0.74224   0.74626   0.74703
 Alpha virt. eigenvalues --    0.74980   0.75431   0.75909   0.76553   0.76978
 Alpha virt. eigenvalues --    0.77586   0.78089   0.79112   0.79737   0.80093
 Alpha virt. eigenvalues --    0.80967   0.81417   0.81588   0.81755   0.84046
 Alpha virt. eigenvalues --    0.84399   0.85616   0.86326   0.88687   0.89036
 Alpha virt. eigenvalues --    0.89504   0.89761   0.93073   0.93730   0.94801
 Alpha virt. eigenvalues --    0.96976   1.00068   1.00717   1.02232   1.05028
 Alpha virt. eigenvalues --    1.06017   1.06895   1.08339   1.09986   1.12124
 Alpha virt. eigenvalues --    1.16000   1.18053   1.18284   1.19940   1.20048
 Alpha virt. eigenvalues --    1.20764   1.21925   1.24198   1.27088   1.29025
 Alpha virt. eigenvalues --    1.30650   1.31809   1.34621   1.40931   1.43349
 Alpha virt. eigenvalues --    1.43637   1.44839   1.51386   1.52292   1.53066
 Alpha virt. eigenvalues --    1.54602   1.57740   1.58178   1.62077   1.63179
 Alpha virt. eigenvalues --    1.67184   1.68202   1.71914   1.72368   1.73333
 Alpha virt. eigenvalues --    1.73447   1.74946   1.76242   1.76534   1.78431
 Alpha virt. eigenvalues --    1.81032   1.81698   1.83679   1.83833   1.84747
 Alpha virt. eigenvalues --    1.84929   1.85870   1.87309   1.87695   1.89312
 Alpha virt. eigenvalues --    1.90240   1.91796   1.92128   1.94976   1.96874
 Alpha virt. eigenvalues --    2.00196   2.00951   2.02611   2.02719   2.03597
 Alpha virt. eigenvalues --    2.04581   2.04610   2.04989   2.06279   2.06466
 Alpha virt. eigenvalues --    2.06620   2.07796   2.08621   2.08834   2.12081
 Alpha virt. eigenvalues --    2.13385   2.13951   2.14269   2.14594   2.17242
 Alpha virt. eigenvalues --    2.17538   2.17858   2.17953   2.18194   2.18669
 Alpha virt. eigenvalues --    2.19050   2.19384   2.20024   2.20280   2.25660
 Alpha virt. eigenvalues --    2.26072   2.27813   2.30508   2.30708   2.32581
 Alpha virt. eigenvalues --    2.38024   2.40578   2.41261   2.42826   2.45407
 Alpha virt. eigenvalues --    2.46697   2.53885   2.56376   2.57057   2.57824
 Alpha virt. eigenvalues --    2.61437   2.61491   2.63939   2.66919   2.68787
 Alpha virt. eigenvalues --    2.70854   2.71639   2.73107   2.74749   2.74861
 Alpha virt. eigenvalues --    2.75557   2.78295   2.87167   2.89146   2.91422
 Alpha virt. eigenvalues --    2.94033   2.97403   2.97746   2.99484   3.00375
 Alpha virt. eigenvalues --    3.16148   3.16547   3.25227   3.29268   3.38107
 Alpha virt. eigenvalues --    3.40271   3.59410   3.62176
          Condensed to atoms (all electrons):
 Mulliken charges:
               1
     1  C   -0.150845
     2  C   -0.130193
     3  C   -0.150984
     4  C    0.086298
     5  N   -0.146846
     6  C   -0.039595
     7  C   -0.182556
     8  C   -0.179631
     9  C   -0.180922
    10  C   -0.240650
    11  C    0.103439
    12  O   -0.316518
    13  C    0.086325
    14  N   -0.146773
    15  C   -0.039756
    16  C   -0.182606
    17  C   -0.181033
    18  C   -0.239198
    19  C   -0.179671
    20  C    0.103693
    21  O   -0.316357
    22  H    0.081973
    23  H    0.112244
    24  H    0.093773
    25  H    0.082113
    26  H    0.112397
    27  H    0.093653
    28  H    0.057690
    29  H    0.105507
    30  H    0.076574
    31  H    0.071469
    32  H    0.079617
    33  H    0.086062
    34  H    0.077612
    35  H    0.082670
    36  H    0.128311
    37  H    0.080187
    38  H    0.083693
    39  H    0.095074
    40  H    0.057760
    41  H    0.079643
    42  H    0.077723
    43  H    0.086118
    44  H    0.127062
    45  H    0.080318
    46  H    0.082740
    47  H    0.076668
    48  H    0.105381
    49  H    0.071477
    50  H    0.083797
    51  H    0.095075
 Sum of Mulliken charges =  -0.00000
 Mulliken charges with hydrogens summed into heavy atoms:
               1
     1  C    0.137145
     2  C   -0.130193
     3  C    0.137178
     4  C    0.086298
     5  N   -0.146846
     6  C    0.018095
     7  C   -0.182556
     8  C    0.073919
     9  C    0.062370
    10  C    0.050518
    11  C    0.282205
    12  O   -0.316518
    13  C    0.086325
    14  N   -0.146773
    15  C    0.018004
    16  C   -0.182606
    17  C    0.062451
    18  C    0.050923
    19  C    0.073855
    20  C    0.282564
    21  O   -0.316357
 Electronic spatial extent (au):  <R**2>=           6620.8556
 Charge=             -0.0000 electrons
 Dipole moment (field-independent basis, Debye):
    X=             -0.0272    Y=              1.4260    Z=             -0.0378  Tot=              1.4267
 Quadrupole moment (field-independent basis, Debye-Ang):
   XX=           -131.1967   YY=           -129.7263   ZZ=           -129.5648
   XY=              0.2239   XZ=              8.4443   YZ=              0.1837
 Traceless Quadrupole moment (field-independent basis, Debye-Ang):
   XX=             -1.0341   YY=              0.4363   ZZ=              0.5979
   XY=              0.2239   XZ=              8.4443   YZ=              0.1837
 Octapole moment (field-independent basis, Debye-Ang**2):
  XXX=             -0.7943  YYY=            -29.6992  ZZZ=              0.3515  XYY=              0.4979
  XXY=              7.9277  XXZ=             -0.1173  XZZ=              0.4610  YZZ=             -4.2891
  YYZ=              0.2430  XYZ=             -6.8324
 Hexadecapole moment (field-independent basis, Debye-Ang**3):
 XXXX=          -5864.5193 YYYY=          -2171.5124 ZZZZ=          -1101.8971 XXXY=            -32.4848
 XXXZ=             56.2401 YYYX=            -39.2650 YYYZ=             11.5246 ZZZX=             13.8597
 ZZZY=             12.6098 XXYY=          -1368.8260 XXZZ=          -1138.5885 YYZZ=           -546.4150
 XXYZ=              7.0865 YYXZ=            -13.4894 ZZXY=            -10.6111
 N-N= 1.934642484378D+03 E-N=-6.016615055212D+03  KE= 9.166311714686D+02
 No NMR shielding tensors so no spin-rotation constants.
 Leave Link  601 at Sun Feb 25 04:43:23 2024, MaxMem=  7516192768 cpu:               6.5 elap:               0.2
 (Enter /public/apps/g16-C01//g16/l701.exe)
 ... and contract with generalized density number  0.
 Compute integral first derivatives.
 R6Disp: Adding Grimme-D3(BJ) dispersion energy 1st derivatives to the gradient.
   1 Symmetry operations used in ECPInt.
 ECPInt:  NShTT=   17391 NPrTT=   69741 LenC2=   16522 LenP2D=   45462.
 LDataN:  DoStor=T MaxTD1= 5 Len=  102
 Leave Link  701 at Sun Feb 25 04:43:23 2024, MaxMem=  7516192768 cpu:               9.5 elap:               0.3
 (Enter /public/apps/g16-C01//g16/l702.exe)
 L702 exits ... SP integral derivatives will be done elsewhere.
 Leave Link  702 at Sun Feb 25 04:43:23 2024, MaxMem=  7516192768 cpu:               0.9 elap:               0.0
 (Enter /public/apps/g16-C01//g16/l703.exe)
 Integral derivatives from FoFJK, PRISM(SPDF).
 Compute integral first derivatives, UseDBF=F ICtDFT=           0.
 Calling FoFJK, ICntrl=      2127 FMM=F ISym2X=0 I1Cent= 0 IOpClX= 0 NMat=1 NMatS=1 NMatT=0.
 FoFJK:  IHMeth= 1 ICntrl=    2127 DoSepK=F KAlg= 0 I1Cent=           0 FoldK=F
 IRaf=         0 NMat=       1 IRICut=       1 DoRegI=T DoRafI=F ISym2E= 0 IDoP0=0 IntGTp=1.
 FoFCou: FMM=F IPFlag=           0 FMFlag=      100000 FMFlg1=         800
         NFxFlg=           0 DoJE=F BraDBF=F KetDBF=F FulRan=T
         wScrn=  0.000000 ICntrl=      2127 IOpCl=  0 I1Cent=           0 NGrid=           0
         NMat0=    1 NMatS0=      1 NMatT0=    0 NMatD0=    1 NMtDS0=    0 NMtDT0=    0
 Symmetry not used in FoFCou.
 Leave Link  703 at Sun Feb 25 04:43:28 2024, MaxMem=  7516192768 cpu:             183.4 elap:               4.6
 (Enter /public/apps/g16-C01//g16/l716.exe)
 Dipole        =-1.06947122D-02 5.61025289D-01-1.48566208D-02
 -------------------------------------------------------------------
 Center     Atomic                   Forces (Hartrees/Bohr)
 Number     Number              X              Y              Z
 -------------------------------------------------------------------
      1        6          -0.001308903    0.005826658    0.003744036
      2        6          -0.000035849    0.001547227   -0.000104203
      3        6           0.001067446    0.005692518   -0.003992834
      4        6          -0.000798509   -0.003760489   -0.000992783
      5        7          -0.007987520   -0.009209952    0.008868600
      6        6           0.002951054    0.005568881   -0.000968642
      7        6          -0.002636570    0.000292130    0.000008601
      8        6           0.006490396    0.003336547   -0.005148420
      9        6           0.005388311   -0.007900180    0.004614110
     10        6          -0.005946790   -0.005850601   -0.004184269
     11        6          -0.007603594    0.002374770   -0.001389811
     12        8           0.009624896   -0.002014582   -0.000826742
     13        6           0.000884571   -0.003600924    0.001174707
     14        7           0.008401461   -0.009346358   -0.008361898
     15        6          -0.003129450    0.005438137    0.000633012
     16        6           0.002610564    0.000377340    0.000004089
     17        6          -0.005012960   -0.008361574   -0.004197238
     18        6           0.006130547   -0.005355033    0.004621957
     19        6          -0.006682891    0.003372340    0.004874711
     20        6           0.007452408    0.002810782    0.001241474
     21        8          -0.009456807   -0.002444170    0.000949529
     22        1          -0.007576834   -0.006711100   -0.003539111
     23        1           0.003816163    0.003785368   -0.007957169
     24        1           0.008155969   -0.005857136    0.002864578
     25        1           0.007861662   -0.006181052    0.003865568
     26        1          -0.003994149    0.004016482    0.007759551
     27        1          -0.007894231   -0.006353458   -0.002561291
     28        1          -0.005334436   -0.000730853   -0.002901267
     29        1           0.003587126   -0.007734463    0.006166273
     30        1          -0.004338039    0.007692697    0.007633548
     31        1          -0.010055900   -0.005023565   -0.004023541
     32        1          -0.009735273   -0.003640862   -0.005629030
     33        1          -0.004104745    0.008935215    0.005636283
     34        1           0.005974388    0.006098653   -0.008195775
     35        1           0.007790656    0.005550885   -0.006136289
     36        1           0.006656762   -0.005445763    0.005272674
     37        1          -0.002680096    0.008076279    0.007145581
     38        1          -0.001017518   -0.000789711   -0.005722086
     39        1           0.001983122    0.006014026   -0.000991538
     40        1           0.005332939   -0.000350105    0.002980917
     41        1           0.009778144   -0.002925586    0.005946384
     42        1          -0.006321710    0.006338125    0.007743005
     43        1           0.003849644    0.008740286   -0.006109658
     44        1          -0.006399864   -0.006007729   -0.004998433
     45        1           0.002459059    0.007744475   -0.007585425
     46        1          -0.008095685    0.005588449    0.005733136
     47        1           0.004139341    0.007389094   -0.008049308
     48        1          -0.003208242   -0.008220763   -0.005737914
     49        1           0.010179674   -0.004363364    0.004427061
     50        1           0.001005995   -0.000408366    0.005782754
     51        1          -0.002215734    0.005980374    0.000612536
 -------------------------------------------------------------------
 Cartesian Forces:  Max     0.010179674 RMS     0.005559905
 Leave Link  716 at Sun Feb 25 04:43:28 2024, MaxMem=  7516192768 cpu:               0.9 elap:               0.0
 (Enter /public/apps/g16-C01//g16/l103.exe)

 GradGradGradGradGradGradGradGradGradGradGradGradGradGradGradGradGradGrad
 Berny optimization.
 FormGI is forming the generalized inverse of G from B-inverse, IUseBI=4.
 Internal  Forces:  Max     0.013929285 RMS     0.004189953
 Search for a local minimum.
 Step number   1 out of a maximum of  302
 All quantities printed in internal units (Hartrees-Bohrs-Radians)
 RMS Force = .41900D-02 SwitMx=.10000D-02 MixMth= 1
 Mixed Optimization -- RFO/linear search
 Second derivative matrix not updated -- first step.
 ITU=  0
     Eigenvalues ---    0.00230   0.00230   0.00358   0.00358   0.00367
     Eigenvalues ---    0.00367   0.00370   0.00370   0.00387   0.00388
     Eigenvalues ---    0.00604   0.00604   0.00742   0.00742   0.01538
     Eigenvalues ---    0.01538   0.02453   0.02453   0.03982   0.03982
     Eigenvalues ---    0.04515   0.04515   0.04619   0.04658   0.04662
     Eigenvalues ---    0.04866   0.04867   0.05023   0.05026   0.05081
     Eigenvalues ---    0.05082   0.05505   0.05506   0.05515   0.05530
     Eigenvalues ---    0.05530   0.05620   0.05621   0.05623   0.05623
     Eigenvalues ---    0.05671   0.05672   0.05685   0.05686   0.05698
     Eigenvalues ---    0.05699   0.05721   0.05721   0.05781   0.05781
     Eigenvalues ---    0.07026   0.07861   0.07864   0.10800   0.10801
     Eigenvalues ---    0.11245   0.11246   0.14281   0.14281   0.14563
     Eigenvalues ---    0.14563   0.15477   0.15607   0.15611   0.16000
     Eigenvalues ---    0.16000   0.16000   0.16000   0.16000   0.16000
     Eigenvalues ---    0.16000   0.16000   0.16000   0.16000   0.16000
     Eigenvalues ---    0.16000   0.16000   0.16000   0.16000   0.16000
     Eigenvalues ---    0.16000   0.16000   0.16000   0.16000   0.16000
     Eigenvalues ---    0.16000   0.16000   0.16000   0.16255   0.20181
     Eigenvalues ---    0.20191   0.24627   0.24630   0.24991   0.24991
     Eigenvalues ---    0.26760   0.26761   0.27920   0.27930   0.29346
     Eigenvalues ---    0.29347   0.29411   0.29412   0.29428   0.29429
     Eigenvalues ---    0.29546   0.29555   0.32187   0.32188   0.34137
     Eigenvalues ---    0.34143   0.34373   0.34384   0.34649   0.34658
     Eigenvalues ---    0.35013   0.35016   0.35049   0.35050   0.35064
     Eigenvalues ---    0.35065   0.35068   0.35070   0.35088   0.35088
     Eigenvalues ---    0.35092   0.35092   0.35093   0.35094   0.35101
     Eigenvalues ---    0.35101   0.35101   0.35103   0.35274   0.35275
     Eigenvalues ---    0.35288   0.35290   0.35306   0.35308   0.36959
     Eigenvalues ---    0.36960   0.41021   0.41029   0.50506   0.50510
     Eigenvalues ---    0.75244   0.75256
 RFO step:  Lambda=-1.51354365D-02 EMin= 2.30000000D-03
 Linear search not attempted -- first point.
 Iteration  1 RMS(Cart)=  0.06946365 RMS(Int)=  0.00087424
 Iteration  2 RMS(Cart)=  0.00297494 RMS(Int)=  0.00005056
 Iteration  3 RMS(Cart)=  0.00000428 RMS(Int)=  0.00005051
 Iteration  4 RMS(Cart)=  0.00000000 RMS(Int)=  0.00005051
 ITry= 1 IFail=0 DXMaxC= 2.98D-01 DCOld= 1.00D+10 DXMaxT= 3.00D-01 DXLimC= 3.00D+00 Rises=F
 Variable       Old X    -DE/DX   Delta X   Delta X   Delta X     New X
                                 (Linear)    (Quad)   (Total)
    R1        2.88860   0.00641   0.00000   0.02064   0.02064   2.90924
    R2        2.05512   0.01072   0.00000   0.02928   0.02928   2.08440
    R3        2.05181   0.00939   0.00000   0.02551   0.02551   2.07731
    R4        2.05230   0.01041   0.00000   0.02828   0.02828   2.08059
    R5        2.88877   0.00644   0.00000   0.02073   0.02073   2.90950
    R6        2.83803   0.01024   0.00000   0.03037   0.03037   2.86840
    R7        2.83801   0.01022   0.00000   0.03033   0.03033   2.86833
    R8        2.05512   0.01072   0.00000   0.02928   0.02928   2.08440
    R9        2.05178   0.00940   0.00000   0.02553   0.02553   2.07730
   R10        2.05233   0.01041   0.00000   0.02831   0.02831   2.08064
   R11        2.38048   0.01329   0.00000   0.01756   0.01758   2.39806
   R12        2.56347   0.00498   0.00000   0.01088   0.01090   2.57437
   R13        2.73552   0.01393   0.00000   0.03406   0.03405   2.76957
   R14        2.92313   0.00621   0.00000   0.02108   0.02108   2.94421
   R15        2.93629   0.00511   0.00000   0.01359   0.01356   2.94985
   R16        2.07090   0.00584   0.00000   0.01639   0.01639   2.08728
   R17        2.89286   0.00649   0.00000   0.02103   0.02103   2.91389
   R18        2.89117   0.00552   0.00000   0.01784   0.01784   2.90901
   R19        2.89152   0.00650   0.00000   0.02103   0.02103   2.91255
   R20        2.05207   0.01037   0.00000   0.02818   0.02818   2.08026
   R21        2.05510   0.01163   0.00000   0.03175   0.03175   2.08686
   R22        2.05522   0.01188   0.00000   0.03245   0.03245   2.08767
   R23        2.05594   0.01175   0.00000   0.03214   0.03214   2.08807
   R24        2.05533   0.01122   0.00000   0.03066   0.03066   2.08599
   R25        2.05526   0.01175   0.00000   0.03211   0.03211   2.08737
   R26        2.05653   0.01125   0.00000   0.03079   0.03079   2.08732
   R27        2.05569   0.00987   0.00000   0.02698   0.02698   2.08267
   R28        2.05564   0.01107   0.00000   0.03025   0.03025   2.08589
   R29        2.68814   0.00948   0.00000   0.02115   0.02115   2.70929
   R30        2.06705   0.00576   0.00000   0.01605   0.01605   2.08310
   R31        2.06234   0.00631   0.00000   0.01744   0.01744   2.07979
   R32        2.38042   0.01326   0.00000   0.01751   0.01754   2.39796
   R33        2.56353   0.00498   0.00000   0.01087   0.01089   2.57442
   R34        2.73557   0.01386   0.00000   0.03389   0.03388   2.76944
   R35        2.92291   0.00616   0.00000   0.02091   0.02091   2.94383
   R36        2.93633   0.00511   0.00000   0.01361   0.01358   2.94990
   R37        2.07099   0.00584   0.00000   0.01638   0.01638   2.08738
   R38        2.89118   0.00552   0.00000   0.01783   0.01783   2.90901
   R39        2.89153   0.00649   0.00000   0.02100   0.02100   2.91254
   R40        2.89287   0.00649   0.00000   0.02104   0.02104   2.91391
   R41        2.05595   0.01174   0.00000   0.03211   0.03211   2.08806
   R42        2.05524   0.01175   0.00000   0.03211   0.03211   2.08735
   R43        2.05532   0.01123   0.00000   0.03068   0.03068   2.08600
   R44        2.05570   0.00988   0.00000   0.02701   0.02701   2.08272
   R45        2.05562   0.01107   0.00000   0.03026   0.03026   2.08588
   R46        2.05648   0.01127   0.00000   0.03085   0.03085   2.08733
   R47        2.05508   0.01164   0.00000   0.03178   0.03178   2.08686
   R48        2.05209   0.01038   0.00000   0.02820   0.02820   2.08030
   R49        2.05525   0.01187   0.00000   0.03242   0.03242   2.08767
   R50        2.68804   0.00954   0.00000   0.02130   0.02129   2.70933
   R51        2.06688   0.00578   0.00000   0.01610   0.01610   2.08298
   R52        2.06249   0.00631   0.00000   0.01744   0.01744   2.07993
    A1        1.91727  -0.00083   0.00000  -0.00563  -0.00562   1.91164
    A2        1.91956   0.00282   0.00000   0.01739   0.01736   1.93693
    A3        1.91413   0.00083   0.00000   0.00438   0.00434   1.91847
    A4        1.91043  -0.00091   0.00000  -0.00443  -0.00441   1.90601
    A5        1.90984  -0.00039   0.00000  -0.00476  -0.00475   1.90509
    A6        1.89240  -0.00155   0.00000  -0.00706  -0.00713   1.88526
    A7        1.94950   0.00057   0.00000  -0.00442  -0.00446   1.94504
    A8        1.92225  -0.00074   0.00000  -0.00463  -0.00465   1.91760
    A9        1.92329  -0.00068   0.00000  -0.00433  -0.00436   1.91893
   A10        1.92314  -0.00061   0.00000  -0.00354  -0.00357   1.91956
   A11        1.92132  -0.00068   0.00000  -0.00399  -0.00402   1.91729
   A12        1.82020   0.00222   0.00000   0.02252   0.02254   1.84274
   A13        1.91724  -0.00084   0.00000  -0.00566  -0.00565   1.91159
   A14        1.91939   0.00283   0.00000   0.01744   0.01741   1.93680
   A15        1.91422   0.00083   0.00000   0.00434   0.00431   1.91853
   A16        1.91067  -0.00090   0.00000  -0.00442  -0.00440   1.90626
   A17        1.90975  -0.00039   0.00000  -0.00474  -0.00474   1.90501
   A18        1.89236  -0.00155   0.00000  -0.00707  -0.00714   1.88522
   A19        2.19593   0.00695   0.00000   0.02414   0.02414   2.22007
   A20        2.03410  -0.00559   0.00000  -0.02318  -0.02318   2.01092
   A21        2.05262  -0.00137   0.00000  -0.00115  -0.00116   2.05145
   A22        1.89206  -0.00224   0.00000  -0.00781  -0.00786   1.88420
   A23        1.92718   0.00235   0.00000   0.02644   0.02651   1.95370
   A24        1.80050   0.00095   0.00000   0.00580   0.00577   1.80627
[...]
 4951,0.00000323,-0.00000703,-0.00017747,-0.00006439,0.00002370,0.00025
 903,0.00021042,-0.00856691,-0.01389511,-0.01141626,0.09618699,0.207778
 24,-0.00002136,0.00000157,-0.00000415,0.00003957,0.00000913,0.00013574
 ,-0.00005878,-0.00002020,-0.00008803,0.00019317,-0.00017929,0.00009951
 ,-0.00012490,0.00008157,-0.00004830,0.00002004,-0.00002296,0.00003545,
 0.00000210,0.00000345,-0.00003057,0.00000706,0.00000222,0.00000463,-0.
 00000554,0.00000319,0.00001533,-0.00000722,-0.00001505,0.00002759,0.00
 005959,-0.00005560,0.00004302,-0.00009779,0.00012419,-0.00009923,0.001
 56752,0.00005212,-0.00043895,-0.00048033,-0.00030100,0.00041641,-0.001
 33504,-0.00147596,-0.00003290,-0.01110901,-0.01641958,-0.01218511,0.00
 395801,-0.00086821,-0.00315263,-0.00103676,0.00080328,0.00064556,-0.06
 050514,-0.09829924,-0.11515077,-0.00035186,-0.00036439,0.00001879,-0.0
 0067893,0.00113971,0.00095598,-0.00004068,-0.00002990,-0.00001007,0.00
 009236,0.00002459,0.00007841,0.00001567,0.00006573,-0.00000691,0.00000
 924,0.00001596,-0.00001023,0.00000824,0.00000703,0.00000769,-0.0000279
 7,-0.00003215,0.00002630,-0.00001290,0.00000803,-0.00000975,0.00000485
 ,-0.00000048,-0.00001039,-0.00000439,0.00000693,0.00000455,-0.00000059
 ,-0.00000108,-0.00000292,-0.00000159,-0.00000038,-0.00000271,-0.000005
 84,0.00000765,0.00000149,0.00000316,-0.00000175,-0.00000403,0.00000038
 ,-0.00000336,-0.00000943,0.00002059,-0.00000606,-0.00001761,-0.0000105
 8,0.00001266,0.00000395,-0.00001860,0.00000139,-0.00001202,-0.00000786
 ,0.00001929,-0.00000334,0.00007105,0.00000876,0.00000157,0.00018290,0.
 00028190,0.00021425,-0.00049419,-0.00145300,-0.00061740,-0.00000643,-0
 .00013265,0.00024294,0.00047121,-0.00010792,0.00046663,0.00012652,0.00
 007991,-0.00001073,0.00001257,0.00025205,-0.00006435,0.00988523,0.0149
 9726,0.01271086,0.06429336,0.11078024,0.12200815,0.00000179,0.00002775
 ,-0.00001925,0.00001534,0.00001519,-0.00001079,0.00000308,0.00001221,-
 0.00000347,0.00001567,0.00018220,-0.00020616,-0.00003613,-0.00005821,0
 .00007408,0.00001090,0.00001129,-0.00001034,0.00001375,0.00000163,0.00
 003905,-0.00001239,-0.00000177,-0.00001739,0.00000146,-0.00000510,-0.0
 0000627,0.00000442,0.00002798,-0.00006542,0.00005222,0.00001861,0.0000
 3267,-0.00009402,-0.00016650,0.00008955,-0.00002436,0.00002942,-0.0000
 6826,0.00029835,-0.00043214,0.00040871,-0.00012868,0.00080348,-0.00182
 988,-0.01730721,0.00638679,-0.00898563,0.00056589,-0.00099680,-0.00112
 871,-0.00165270,0.00130774,0.00458663,-0.22725501,0.07732959,-0.089070
 46,0.00026432,0.00005608,0.00026884,0.00034077,0.00003681,-0.00013234,
 0.00000569,-0.00000703,0.00000678,-0.00000343,0.00002954,0.00000455,-0
 .00000072,-0.00002768,0.00001451,0.00000559,-0.00001101,0.00000740,-0.
 00000443,-0.00000022,-0.00000260,-0.00000144,0.00000412,0.00000139,-0.
 00001060,-0.00000741,0.00000221,0.00000329,-0.00000021,-0.00000060,0.0
 0000023,0.00000331,0.00000252,-0.00001152,-0.00000619,0.00000233,-0.00
 000924,-0.00000327,-0.00000400,0.00000189,0.00000200,0.00000281,0.0000
 0223,-0.00000391,0.00000891,0.00001213,-0.00003365,0.00004739,0.000002
 28,0.00001249,-0.00001366,-0.00001223,0.00000094,0.00000990,-0.0000023
 2,-0.00000972,-0.00000460,0.00002026,-0.00001798,0.00000951,0.00030511
 ,-0.00062243,0.00091527,0.00071118,0.00026242,0.00048963,0.00020942,-0
 .00022662,0.00020729,-0.00002290,-0.00000047,0.00008641,0.00041199,-0.
 00009640,0.00005860,0.00030105,-0.00001064,-0.00008816,-0.00112049,0.0
 0077416,-0.00054387,0.00889202,-0.00297876,0.00365079,-0.00990102,0.00
 561411,-0.00451349,0.24508776,0.00000097,0.00001747,-0.00002882,0.0000
 1306,-0.00002849,0.00001087,-0.00000510,0.00000808,0.00000727,-0.00000
 871,-0.00001731,0.00001648,0.00001368,0.00000578,-0.00000563,-0.000006
 15,-0.00000258,-0.00000153,-0.00000709,-0.00000470,-0.00001768,0.00000
 552,0.00000304,0.00000899,0.00000016,0.00000324,0.00000250,-0.00000219
 ,-0.00001162,0.00003096,-0.00001291,-0.00002260,-0.00000766,0.00002169
 ,0.00004654,0.00000727,-0.00005660,-0.00004753,-0.00004676,0.00032343,
 -0.00017434,0.00003358,-0.00104884,0.00044579,0.00058515,0.00907426,-0
 .00558148,0.00548754,0.00067578,0.00026657,0.00110487,0.00116787,-0.00
 078443,-0.00238816,0.07694889,-0.08156788,0.03831688,-0.00008831,-0.00
 001975,-0.00010773,-0.00002963,-0.00003075,-0.00004200,0.00000398,-0.0
 0000459,0.00000898,0.00000977,0.00001407,-0.00000020,-0.00000498,-0.00
 001062,0.00000790,-0.00000176,-0.00000084,0.00000011,-0.00000079,-0.00
 000362,0.00000287,0.00000300,0.00000104,-0.00000042,0.00000440,0.00000
 269,0.00000146,-0.00000180,-0.00000015,0.00000090,-0.00000029,-0.00000
 213,-0.00000093,0.00000575,0.00000310,-0.00000114,0.00000484,0.0000013
 2,0.00000211,-0.00000073,-0.00000131,-0.00000127,-0.00000151,0.0000011
 0,-0.00000366,-0.00000854,0.00001730,-0.00002397,-0.00000429,-0.000005
 30,0.00000758,0.00000769,-0.00000132,-0.00000488,0.00000382,0.00000633
 ,0.00000285,-0.00000774,0.00000622,-0.00000603,-0.00018263,0.00040017,
 -0.00006345,-0.00024830,-0.00010020,-0.00069218,-0.00030634,0.00015606
 ,0.00001023,0.00009238,-0.00009301,0.00004349,0.00016491,0.00009232,0.
 00012651,-0.00027532,0.00029054,-0.00028923,0.00091338,0.00017658,0.00
 026635,0.01935728,-0.00708143,0.00795582,-0.01939265,0.01107578,-0.009
 10954,-0.08713171,0.08253335,-0.00000881,0.00002030,-0.00002723,0.0000
 1800,-0.00002212,0.00004425,-0.00002215,0.00000146,-0.00002065,0.00006
 112,-0.00000430,-0.00003604,-0.00004913,0.00000621,0.00001502,0.000014
 31,-0.00000813,0.00000202,-0.00000312,-0.00000523,-0.00002281,0.000007
 24,0.00000478,0.00000791,0.00000139,0.00000551,0.00000363,0.00000088,-
 0.00000964,0.00002966,0.00001672,-0.00002355,0.00000742,-0.00003767,0.
 00001217,0.00003688,0.00020479,-0.00008466,-0.00014456,-0.00022795,-0.
 00019134,0.00012430,0.00092930,-0.00048649,0.00109010,0.01923373,-0.00
 823175,0.00949589,0.00075617,0.00020284,0.00104194,0.00235746,-0.00130
 353,-0.00295100,-0.09179824,0.03979095,-0.09338302,-0.00011895,-0.0001
 7199,0.00014672,-0.00022147,0.00011710,0.00007262,-0.00000671,-0.00001
 255,0.00000368,0.00001131,0.00001746,0.00000709,-0.00000134,-0.0000013
 2,0.00001177,0.00000368,0.00000194,0.00000056,0.00000349,0.00000059,0.
 00000295,-0.00000721,-0.00000813,0.00000602,-0.00000526,0.00000328,-0.
 00000054,0.00000142,-0.00000090,-0.00000292,-0.00000245,0.00000221,0.0
 0000263,0.00000198,0.00000091,-0.00000285,0.00000143,-0.00000095,-0.00
 000019,-0.00000253,0.00000285,0.00000126,-0.00000096,-0.00000254,-0.00
 000063,-0.00001080,0.00000582,-0.00001964,0.00000230,-0.00000531,-0.00
 000086,0.00000166,0.00000381,-0.00000104,0.00000314,0.00000749,0.00000
 056,-0.00000085,0.00000104,-0.00001224,-0.00013393,0.00015364,-0.00028
 172,-0.00017027,-0.00007413,-0.00012979,0.00000416,0.00029528,0.000192
 52,-0.00012274,-0.00002881,-0.00008858,0.00008723,0.00009177,-0.000127
 72,-0.00003212,-0.00031873,0.00002074,0.00119323,-0.00058921,0.0006147
 6,-0.01640064,0.00498174,-0.00764746,-0.01132328,0.00706170,-0.0062900
 2,0.09579395,-0.04122990,0.09811565,-0.00021510,-0.00020602,0.00004891
 ,0.00045342,-0.00059536,-0.00018609,-0.00003552,0.00000488,-0.00015670
 ,0.00037960,-0.00005433,0.00021976,-0.00008866,0.00000093,-0.00006511,
 0.00004551,-0.00003083,0.00004818,0.00001738,0.00000672,-0.00003453,0.
 00000388,0.00000861,-0.00000597,-0.00001213,0.00000033,0.00001956,-0.0
 0001275,-0.00000777,0.00006959,0.00006452,-0.00003503,0.00004330,-0.00
 009456,0.00004054,-0.00005490,-0.00697365,0.00516494,0.00414420,0.0021
 7019,0.00086636,0.00088196,0.00628397,-0.00783725,0.01838810,-0.001244
 06,0.00220322,0.00258297,0.00014586,0.00017849,-0.00012608,-0.00031810
 ,0.00021305,-0.00012507,-0.00011465,-0.00080377,0.00035769,-0.06539165
 ,0.02578154,-0.06235934,-0.01720143,-0.00689596,-0.03319363,0.00003709
 ,-0.00006994,-0.00007630,-0.00000377,0.00001509,-0.00000250,0.00001606
 ,-0.00000812,-0.00001022,0.00002753,-0.00002399,-0.00000630,-0.0000039
 9,0.00005069,-0.00003148,-0.00002284,-0.00005422,0.00005900,-0.0000187
 7,0.00001235,-0.00001673,0.00000889,-0.00001003,-0.00001797,-0.0000115
 6,0.00001478,0.00000574,-0.00000254,-0.00000397,0.00000365,-0.00000405
 ,0.00000010,-0.00000548,-0.00000659,0.00001185,0.00000157,0.00000271,-
 0.00000594,0.00000206,0.00000953,-0.00002496,0.00002113,0.00010271,-0.
 00003995,-0.00009180,-0.00003727,0.00004605,-0.00000827,-0.00001583,0.
 00000223,-0.00000945,-0.00000404,0.00001334,-0.00000232,0.00115487,-0.
 00052447,0.00053059,-0.00004737,-0.00002119,-0.00000458,0.00001168,-0.
 00011214,-0.00005328,-0.00003646,-0.00003593,0.00000147,0.00003537,-0.
 00004004,0.00003763,0.00006088,-0.00004187,0.00000868,0.00007658,-0.00
 006900,-0.00004747,-0.00023353,0.00007815,0.00024185,0.00003027,0.0000
 1624,0.00002230,-0.00003440,0.00001484,-0.00002273,0.08103563,-0.00018
 212,-0.00013049,0.00001109,0.00034647,-0.00047308,-0.00018913,0.000014
 91,0.00005714,-0.00007530,0.00017165,-0.00009809,0.00019555,-0.0000007
 7,0.00002068,-0.00005330,0.00001802,-0.00001864,0.00002283,-0.00002251
 ,-0.00001676,-0.00005601,0.00001643,0.00000583,0.00002368,0.00000120,0
 .00001295,0.00001093,0.00002126,0.00000492,0.00009573,-0.00000285,-0.0
 0002819,-0.00000207,0.00001845,0.00008415,-0.00004261,-0.00348873,0.00
 102234,0.00104013,0.00129484,-0.00095273,0.00026500,-0.00098150,0.0045
 6967,-0.00796177,0.00064265,-0.00071872,-0.00037264,-0.00004034,0.0001
 3614,-0.00006711,0.00032064,-0.00045575,-0.00004789,-0.00008106,0.0002
 1779,-0.00015698,0.02899939,-0.08138469,0.08086295,-0.01315805,0.00432
 184,-0.02523400,0.00002042,-0.00005766,-0.00005250,-0.00000036,-0.0000
 0061,0.00000358,0.00001121,-0.00000238,-0.00000711,0.00001770,-0.00003
 969,-0.00000467,-0.00003472,0.00003927,0.00001316,-0.00000515,-0.00002
 943,0.00004670,-0.00000132,0.00001263,-0.00000386,0.00000090,0.0000041
 0,-0.00000297,-0.00000083,-0.00000254,0.00000106,0.00000914,0.00000596
 ,-0.00000764,0.00000716,0.00000059,0.00000373,-0.00000467,0.00000137,-
 0.00000106,-0.00000087,0.00000011,-0.00000700,-0.00002877,0.00003766,-
 0.00008094,-0.00001461,-0.00004839,-0.00000614,-0.00001250,0.00000831,
 -0.00000280,-0.00000368,0.00000832,-0.00000084,-0.00001049,0.00001358,
 -0.00001063,-0.00067620,0.00093860,0.00012755,-0.00017239,0.00005538,0
 .00008213,0.00031858,0.00011742,0.00006968,0.00001888,0.00002093,-0.00
 003385,-0.00008607,0.00002847,0.00011394,-0.00019426,0.00014375,0.0001
 4508,-0.00046556,0.00034536,0.00010901,0.00005772,0.00001635,-0.000065
 53,-0.00000474,-0.00001459,0.00001846,-0.00003439,0.00002186,0.0000242
 7,-0.02110064,0.07891995,-0.00013973,-0.00005323,-0.00002147,0.0000567
 9,0.00003873,-0.00028231,-0.00005220,0.00012026,-0.00004720,0.00019707
 ,0.00000919,0.00004897,-0.00007953,0.00000180,0.00000852,0.00003257,-0
 .00001440,0.00002594,0.00001015,0.00000702,-0.00001486,0.00000085,0.00
 000527,-0.00000609,-0.00000609,0.00000052,0.00000967,0.00000281,-0.000
 00182,0.00002791,0.00005908,-0.00002484,0.00004088,-0.00010104,-0.0000
 3854,0.00002146,-0.00077170,0.00118266,0.00124059,0.00014282,-0.000750
 76,-0.00122506,-0.00437529,0.00904292,-0.01478229,0.00186458,-0.002617
 04,-0.00121819,-0.00015267,-0.00020220,-0.00029116,0.00026794,-0.00029
 230,0.00033011,0.00007001,0.00095610,-0.00038448,-0.06669726,0.0749386
 8,-0.26641264,-0.00856987,-0.00638346,-0.00273982,-0.00000664,-0.00005
 861,-0.00002986,0.00000756,0.00000589,0.00004815,0.00002038,0.00001060
 ,-0.00000496,0.00003380,-0.00006718,-0.00000681,0.00001729,0.00002727,
 -0.00004124,0.00001537,-0.00004611,0.00002952,-0.00001617,0.00000561,-
 0.00000814,0.00000790,-0.00000516,-0.00001164,-0.00000764,0.00001051,0
 .00000512,-0.00000500,-0.00000333,0.00000114,-0.00000485,-0.00000119,-
 0.00000451,-0.00000427,0.00000858,0.00000222,0.00000157,-0.00000603,0.
 00000441,0.00000685,-0.00002440,0.00001636,0.00007144,-0.00003046,-0.0
 0005378,-0.00002999,0.00002946,-0.00000087,-0.00000931,-0.00000033,-0.
 00000635,0.00000620,0.00000102,-0.00000083,0.00015704,-0.00009948,0.00
 170525,0.00013668,0.00000259,0.00001291,-0.00005569,0.00011460,0.00003
 639,0.00006447,0.00008348,0.00008575,0.00000653,-0.00000987,0.00002392
 ,-0.00000877,0.00006506,-0.00001845,-0.00004849,-0.00001906,0.00008827
 ,0.00023839,-0.00012268,-0.00027860,-0.00006970,-0.00004160,0.00006253
 ,0.00006385,-0.00001986,0.00003134,0.07657356,-0.07615771,0.28152052,-
 0.00030947,-0.00011133,-0.00011924,0.00026912,-0.00010945,-0.00113537,
 0.00008851,0.00014599,-0.00004571,0.00022726,-0.00014047,0.00004355,-0
 .00011079,0.00006927,0.00003047,0.00003984,-0.00003741,0.00000226,-0.0
 0003838,-0.00012734,-0.00003226,0.00001385,0.00001243,0.00002898,0.000
 04351,0.00005728,0.00002100,0.00009320,0.00020568,0.00001252,0.0000208
 1,-0.00001387,-0.00000612,-0.00006089,0.00002427,0.00000159,-0.0060413
 5,-0.00140449,0.00510935,0.00048010,0.00203814,0.00145597,-0.00240899,
 0.01671671,-0.00185056,0.00084461,0.00072761,-0.00058007,-0.00072784,0
 .00046138,0.00081887,0.00011977,-0.00034520,-0.00004977,-0.00011031,-0
 .00003953,-0.00024325,-0.06995984,0.08548594,0.00184457,0.00205631,-0.
 03875776,-0.00832880,0.00007185,-0.00006248,-0.00009612,-0.00000075,0.
 00001103,-0.00003342,0.00000368,-0.00003648,0.00002363,0.00000246,-0.0
 0001877,0.00001755,0.00005222,0.00001233,-0.00003197,0.00002016,-0.000
 03190,-0.00003163,-0.00000488,0.00001995,0.00000540,-0.00000337,-0.000
 01080,-0.00000656,-0.00000985,0.00000344,0.00000163,0.00001927,0.00000
 820,-0.00000123,0.00002260,-0.00001172,0.00001793,-0.00000887,0.000004
 95,-0.00000448,-0.00000537,-0.00000411,0.00000123,-0.00001000,0.000010
 74,-0.00003662,0.00000980,-0.00019603,0.00003895,-0.00000818,0.0000088
 0,-0.00001234,-0.00000390,0.00001014,0.00000571,0.00000505,0.00000761,
 -0.00001683,-0.00133871,0.00074837,0.00179580,0.00012398,0.00001332,-0
 .00010350,-0.00071722,-0.00122894,0.00005031,0.00030242,-0.00012641,-0
 .00027304,-0.00002916,-0.00003212,-0.00013162,0.00011502,-0.00007770,0
 .00002534,0.00049884,0.00007928,-0.00027234,0.00001703,-0.00006978,0.0
 0003311,0.00003467,-0.00003948,-0.00010896,0.00008520,0.00000355,0.000
 02120,0.00001111,0.00848253,0.00107833,0.07621587,-0.00025278,-0.00013
 113,-0.00007189,0.00023580,-0.00014118,-0.00042951,-0.00000095,0.00007
 060,-0.00008514,0.00031157,-0.00029751,0.00021741,-0.00016975,0.000140
 28,-0.00005664,0.00006960,-0.00005802,0.00004095,-0.00005582,-0.000069
 93,-0.00007809,0.00002434,0.00001385,0.00003320,0.00001829,0.00004323,
 0.00003295,0.00002101,0.00005959,0.00007159,0.00004670,-0.00005994,0.0
 0001280,-0.00010533,0.00017646,-0.00008616,-0.00229025,-0.00007763,0.0
 0369167,0.00022550,-0.00024268,0.00028435,0.00340317,0.00028904,-0.001
 05391,-0.00038870,-0.00154314,0.00084984,-0.00055009,-0.00060565,0.000
 40641,0.00016107,-0.00032185,0.00067295,-0.00008413,0.00033490,-0.0000
 4021,0.07529956,-0.29631658,-0.00340285,-0.00576063,-0.01734996,-0.007
 80555,0.00000994,-0.00006498,-0.00007993,0.00002049,0.00000421,0.00000
 839,-0.00000572,0.00004080,0.00001477,0.00000570,0.00002255,0.00000542
 ,0.00008254,0.00002648,-0.00003150,-0.00000994,-0.00005613,-0.00001393
 ,-0.00001396,0.00002794,-0.00000598,0.00000438,-0.00001317,-0.00001905
 ,-0.00001746,0.00001306,0.00000596,0.00001899,0.00000749,-0.00000214,0
 .00001748,-0.00000490,0.00001118,-0.00001489,0.00001313,-0.00000181,-0
 .00000212,-0.00000640,-0.00000407,-0.00001512,0.00002205,-0.00004682,-
 0.00002107,-0.00011537,-0.00004737,-0.00004178,0.00004806,-0.00000815,
 -0.00001413,0.00001396,-0.00000159,-0.00000949,0.00002605,-0.00002469,
 0.00001156,-0.00019860,-0.00083338,-0.00009634,0.00007159,-0.00004998,
 -0.00101279,0.00013838,0.00074278,0.00004261,0.00019969,0.00020050,-0.
 00005576,0.00002489,0.00014277,-0.00024532,0.00011201,0.00001165,-0.00
 036897,0.00035242,0.00079556,0.00005029,0.00008719,-0.00011178,0.00001
 028,-0.00000741,0.00009148,-0.00005963,0.00000166,-0.00000191,0.003907
 42,-0.00672098,0.00042380,-0.07233535,0.32202156,-0.00016422,-0.000095
 94,-0.00003636,0.00021350,-0.00006609,-0.00023702,-0.00005571,0.000066
 67,-0.00006105,0.00009182,-0.00029139,0.00023618,-0.00004248,0.0000867
 1,-0.00008321,-0.00000718,-0.00001911,0.00002360,0.00000437,-0.0000096
 3,-0.00007762,0.00002079,0.00000717,0.00002896,-0.00000274,0.00000999,
 0.00001406,0.00002211,-0.00004122,0.00009112,-0.00002037,-0.00003883,-
 0.00000989,0.00003261,0.00020990,-0.00008249,0.00012075,-0.00177021,-0
 .00168788,0.00000745,-0.00257881,-0.00289422,0.00459202,-0.01900226,0.
 00265504,-0.00031192,-0.00036689,0.00120911,0.00031865,0.00032658,-0.0
 0022423,0.00062023,-0.00045461,-0.00120746,-0.00026142,-0.00021695,0.0
 0007409,-0.00022200,0.00136571,-0.05178151,0.00073333,-0.01111968,0.00
 136782,-0.00002247,-0.00005729,-0.00005315,0.00001950,-0.00000634,0.00
 003275,-0.00000845,0.00005186,-0.00000292,0.00001537,-0.00001692,-0.00
 001469,0.00001274,0.00001911,-0.00000631,-0.00000437,-0.00003768,0.000
 02244,0.00000086,0.00000861,-0.00000774,0.00000152,0.00000777,-0.00000
 272,0.00000412,-0.00000437,0.00000055,0.00000832,0.00000533,-0.0000124
 5,0.00000586,0.00000027,0.00000121,-0.00000228,0.00000083,-0.00000130,
 0.00000041,0.00000259,-0.00001003,-0.00002854,0.00006962,-0.00011562,-
 0.00003717,-0.00001752,0.00007210,0.00004743,-0.00002540,-0.00000249,-
 0.00000197,0.00000976,-0.00000131,-0.00001716,0.00002171,-0.00001423,0
 .00173353,-0.00073143,-0.00152354,-0.00020444,-0.00003713,0.00003898,0
 .00049373,0.00041952,0.00022445,-0.00007452,0.00005069,0.00004530,-0.0
 0007371,-0.00001645,0.00015397,-0.00019750,0.00015828,0.00044508,-0.00
 063516,0.00094687,-0.00125933,-0.00003592,0.00008319,0.00005173,0.0000
 0345,0.00000690,0.00008522,-0.00016019,0.00004308,0.00006162,-0.007599
 16,0.02741779,0.00246374,0.00106658,0.00562563,0.05201166\\0.00000245,
 0.00000363,0.00000035,0.00000033,-0.00000375,-0.00000139,-0.00000252,0
 .00000338,-0.00000040,0.00000290,0.00001387,-0.00002900,-0.00001539,0.
 00000009,0.00001484,0.00000597,-0.00000251,0.00000511,0.00000077,-0.00
 000285,0.00000131,-0.00000071,-0.00000111,0.00000289,-0.00000002,0.000
 00167,-0.00000293,0.00000564,0.00000012,-0.00000107,-0.00001079,0.0000
 0772,-0.00000527,0.00000564,-0.00001294,0.00001044,-0.00000340,0.00001
 678,0.00002847,0.00001859,-0.00000255,-0.00001618,-0.00000651,-0.00000
 548,-0.00000250,-0.00000019,-0.00000240,-0.00000157,0.00000151,0.00000
 167,0.00000197,-0.00000538,-0.00000005,0.00000116,0.00000033,-0.000001
 48,-0.00000130,0.00000781,0.00000723,0.00000287,-0.00000708,-0.0000122
 4,-0.00000788,-0.00000275,-0.00000109,-0.00000020,0.00000013,-0.000000
 20,-0.00000248,0.00000019,-0.00000052,0.00000002,0.00000133,-0.0000009
 8,-0.00000081,-0.00000131,0.00000077,0.00000220,-0.00000185,-0.0000011
 4,-0.00000002,-0.00000090,-0.00000158,0.00000161,0.00000218,-0.0000006
 8,0.00000230,-0.00000069,0.00000195,0.00000234,-0.00000067,0.00000052,
 -0.00000033,-0.00000275,-0.00000006,0.00000040,0.00000068,0.00000115,0
 .00000262,0.00000015,0.00000224,0.00000034,-0.00000176,0.00000188,0.00
 000251,0.00000077,-0.00000064,0.00000453,0.00000074,0.00000222,0.00000
 323,0.00000477,-0.00000172,-0.00000057,0.00000219,-0.00000344,-0.00000
 111,0.00000045,-0.00000186,-0.00000163,0.00000371,-0.00000132,0.000000
 21,0.00000218,0.00000180,-0.00000189,0.00000015,-0.00000031,-0.0000022
 2,0.00000015,0.00000169,-0.00000379,0.00000026,0.00000189,-0.00000318,
 0.00000153,0.00000058,-0.00000185,0.00000040,0.00000049,-0.00000235,-0
 .00000299,-0.00000223,-0.00000287,0.00000082,-0.00000043,0.00000049,-0
 .00000502,-0.00000291,0.00000079,-0.00000203,-0.00000488,0.00000177\\\
 @
 The archive entry for this job was punched.


 YOU KNOW YOU'RE A TEACHER WHEN YOU SAY 2, WRITE 3, AND MEAN 4.
 -- RONALD ANSTROM, HIGH SCHOOL TEACHER, UNDERWOOD, N.D. 1974
 Job cpu time:       0 days  2 hours 38 minutes 37.6 seconds.
 Elapsed time:       0 days  0 hours  3 minutes 59.2 seconds.
 File lengths (MBytes):  RWF=    768 Int=      0 D2E=      0 Chk=     13 Scr=      1
 Normal termination of Gaussian 16 at Sun Feb 25 04:51:03 2024.
