 Entering Gaussian System, Link 0=g16
 Initial command:
 /public/apps/g16-C01//g16/l1.exe "/public/home/ljq/tmp/Gau-56545.inp" -scrdir="/public/home/ljq/tmp/"
 Entering Link 1 = /public/apps/g16-C01//g16/l1.exe PID=     56546.
  
 Copyright (c) 1988-2019, Gaussian, Inc.  All Rights Reserved.
  
 This is part of the Gaussian(R) 16 program.  It is based on
 the Gaussian(R) 09 system (copyright 2009, Gaussian, Inc.),
 the Gaussian(R) 03 system (copyright 2003, Gaussian, Inc.),
 the Gaussian(R) 98 system (copyright 1998, Gaussian, Inc.),
 the Gaussian(R) 94 system (copyright 1995, Gaussian, Inc.),
 the Gaussian 92(TM) system (copyright 1992, Gaussian, Inc.),
 the Gaussian 90(TM) system (copyright 1990, Gaussian, Inc.),
 the Gaussian 88(TM) system (copyright 1988, Gaussian, Inc.),
 the Gaussian 86(TM) system (copyright 1986, Carnegie Mellon
 University), and the Gaussian 82(TM) system (copyright 1983,
 Carnegie Mellon University). Gaussian is a federally registered
 trademark of Gaussian, Inc.
  
 This software contains proprietary and confidential information,
 including trade secrets, belonging to Gaussian, Inc.
  
 This software is provided under written license and may be
 used, copied, transmitted, or stored only in accord with that
 written license.
  
 The following legend is applicable only to US Government
 contracts under FAR:
  
                    RESTRICTED RIGHTS LEGEND
  
 Use, reproduction and disclosure by the US Government is
 subject to restrictions as set forth in subparagraphs (a)
 and (c) of the Commercial Computer Software - Restricted
 Rights clause in FAR 52.227-19.
  
 Gaussian, Inc.
 340 Quinnipiac St., Bldg. 40, Wallingford CT 06492
  
  
 ---------------------------------------------------------------
 Warning -- This program may not be used in any manner that
 competes with the business of Gaussian, Inc. or will provide
 assistance to any competitor of Gaussian, Inc.  The licensee
 of this program is prohibited from giving any competitor of
 Gaussian, Inc. access to this program.  By using this program,
 the user acknowledges that Gaussian, Inc. is engaged in the
 business of creating and licensing software in the field of
 computational chemistry and represents and warrants to the
 licensee that it is not a competitor of Gaussian, Inc. and that
 it will not use this program in any manner prohibited above.
 ---------------------------------------------------------------
  

 Cite this work as:
 Gaussian 16, Revision C.01,
 M. J. Frisch, G. W. Trucks, H. B. Schlegel, G. E. Scuseria, 
 M. A. Robb, J. R. Cheeseman, G. Scalmani, V. Barone, 
 G. A. Petersson, H. Nakatsuji, X. Li, M. Caricato, A. V. Marenich, 
 J. Bloino, B. G. Janesko, R. Gomperts, B. Mennucci, H. P. Hratchian, 
 J. V. Ortiz, A. F. Izmaylov, J. L. Sonnenberg, D. Williams-Young, 
 F. Ding, F. Lipparini, F. Egidi, J. Goings, B. Peng, A. Petrone, 
 T. Henderson, D. Ranasinghe, V. G. Zakrzewski, J. Gao, N. Rega, 
 G. Zheng, W. Liang, M. Hada, M. Ehara, K. Toyota, R. Fukuda, 
 J. Hasegawa, M. Ishida, T. Nakajima, Y. Honda, O. Kitao, H. Nakai, 
 T. Vreven, K. Throssell, J. A. Montgomery, Jr., J. E. Peralta, 
 F. Ogliaro, M. J. Bearpark, J. J. Heyd, E. N. Brothers, K. N. Kudin, 
 V. N. Staroverov, T. A. Keith, R. Kobayashi, J. Normand, 
 K. Raghavachari, A. P. Rendell, J. C. Burant, S. S. Iyengar, 
 J. Tomasi, M. Cossi, J. M. Millam, M. Klene, C. Adamo, R. Cammi, 
 J. W. Ochterski, R. L. Martin, K. Morokuma, O. Farkas, 
 J. B. Foresman, and D. J. Fox, Gaussian, Inc., Wallingford CT, 2019.
 
 ******************************************
 Gaussian 16:  ES64L-G16RevC.01  3-Jul-2019
                25-Feb-2024 
 ******************************************
 %nproc=40
 Will use up to   40 processors via shared memory.
 %mem=56GB
 ------------------------------------------
 #p opt freq b3lyp/def2svpp em=gd3bj nosymm
 ------------------------------------------
 1/18=20,19=15,26=3,38=1/1,3;
 2/9=110,12=2,15=1,17=6,18=5,40=1/2;
 3/5=43,7=202,11=2,25=1,30=1,71=1,74=-5,124=41/1,2,3;
 4//1;
 5/5=2,38=5/2;
 6/7=2,8=2,9=2,10=2,28=1/1;
 7/30=1/1,2,3,16;
 1/18=20,19=15,26=3/3(2);
 2/9=110,15=1/2;
 99//99;
 2/9=110,15=1/2;
 3/5=43,7=202,11=2,25=1,30=1,71=1,74=-5,124=41/1,2,3;
 4/5=5,16=3,69=1/1;
 5/5=2,38=5/2;
 7/30=1/1,2,3,16;
 1/18=20,19=15,26=3/3(-5);
 2/9=110,15=1/2;
 6/7=2,8=2,9=2,10=2,19=2,28=1/1;
 99/9=1/99;
 Leave Link    1 at Sun Feb 25 09:03:10 2024, MaxMem=  7516192768 cpu:               2.0 elap:               0.1
 (Enter /public/apps/g16-C01//g16/l101.exe)
 ----------------------
 $$$$Singlemol####0????
 ----------------------
 Symbolic Z-matrix:
 Charge =  0 Multiplicity = 1
 C                    -5.06059  -1.27636  -0.45773 
 C                    -4.5491   -0.0434    0.28218 
 C                    -5.65153   1.00603   0.39393 
 C                    -3.32494   0.53095  -0.44732 
 C                    -2.5796    1.63808   0.34947 
 O                    -1.26995   1.11783   0.53996 
 C                    -1.24612  -0.08839  -0.07354 
 C                     0.00022  -0.86785   0.00551 
 C                     1.24659  -0.0883    0.08133 
 N                     2.3119   -0.48493   0.63528 
 C                     3.3277    0.52913   0.44555 
 C                     4.54718  -0.04138  -0.29475 
 C                     5.06388  -1.2777    0.43592 
 C                     5.64858   1.00885  -0.40881 
 C                     2.57739   1.64055  -0.34053 
 O                     1.26648   1.12139  -0.52544 
 C                    -0.0483   -2.18699   0.74907 
 C                     0.04872  -2.19018  -0.73222 
 N                    -2.3079   -0.48205  -0.63623 
 H                    -5.41254  -1.00015  -1.44893 
 H                    -4.25942  -2.00096  -0.56825 
 H                    -5.88267  -1.73226   0.08903 
 H                    -4.23187  -0.34371   1.2878 
 H                    -6.50505   0.59389   0.92712 
 H                    -5.98137   1.3112   -0.59695 
 H                    -5.30893   1.88965   0.9273 
 H                    -3.64187   0.8872   -1.43422 
 H                    -3.02255   1.81839   1.33307 
 H                    -2.50742   2.58216  -0.19595 
 H                     3.65084   0.88002   1.43237 
 H                     4.22333  -0.33703  -1.29965 
 H                     5.42478  -1.00567   1.42505 
 H                     5.88066  -1.73239  -0.11975 
 H                     4.26287  -2.00184   0.55059 
 H                     6.49967   0.59851  -0.94721 
 H                     5.30313   1.89382  -0.93809 
 H                     5.98307   1.31142   0.58132 
 H                     2.50878   2.58173   0.21034 
 H                     3.01405   1.82604  -1.32596 
 H                    -0.98965  -2.45631   1.20182 
 H                     0.83146  -2.43117   1.32286 
 H                    -0.8309   -2.43685  -1.30515 
 H                     0.99021  -2.46136  -1.18352 
 
 ITRead=  0  0  0  0  0  0  0  0  0  0  0  0  0  0  0  0  0  0  0  0
 ITRead=  0  0  0  0  0  0  0  0  0  0  0  0  0  0  0  0  0  0  0  0
 ITRead=  0  0  0
 MicOpt= -1 -1 -1 -1 -1 -1 -1 -1 -1 -1 -1 -1 -1 -1 -1 -1 -1 -1 -1 -1
 MicOpt= -1 -1 -1 -1 -1 -1 -1 -1 -1 -1 -1 -1 -1 -1 -1 -1 -1 -1 -1 -1
 MicOpt= -1 -1 -1
 NAtoms=     43 NQM=       43 NQMF=       0 NMMI=      0 NMMIF=      0
                NMic=       0 NMicF=      0.
                    Isotopes and Nuclear Properties:
 (Nuclear quadrupole moments (NQMom) in fm**2, nuclear magnetic moments (NMagM)
  in nuclear magnetons)

  Atom         1           2           3           4           5           6           7           8           9          10
 IAtWgt=          12          12          12          12          12          16          12          12          12          14
 AtmWgt=  12.0000000  12.0000000  12.0000000  12.0000000  12.0000000  15.9949146  12.0000000  12.0000000  12.0000000  14.0030740
 NucSpn=           0           0           0           0           0           0           0           0           0           2
 AtZEff=  -0.0000000  -0.0000000  -0.0000000  -0.0000000  -0.0000000  -0.0000000  -0.0000000  -0.0000000  -0.0000000  -0.0000000
 NQMom=    0.0000000   0.0000000   0.0000000   0.0000000   0.0000000   0.0000000   0.0000000   0.0000000   0.0000000   2.0440000
 NMagM=    0.0000000   0.0000000   0.0000000   0.0000000   0.0000000   0.0000000   0.0000000   0.0000000   0.0000000   0.4037610
 AtZNuc=   6.0000000   6.0000000   6.0000000   6.0000000   6.0000000   8.0000000   6.0000000   6.0000000   6.0000000   7.0000000

  Atom        11          12          13          14          15          16          17          18          19          20
 IAtWgt=          12          12          12          12          12          16          12          12          14           1
 AtmWgt=  12.0000000  12.0000000  12.0000000  12.0000000  12.0000000  15.9949146  12.0000000  12.0000000  14.0030740   1.0078250
 NucSpn=           0           0           0           0           0           0           0           0           2           1
 AtZEff=  -0.0000000  -0.0000000  -0.0000000  -0.0000000  -0.0000000  -0.0000000  -0.0000000  -0.0000000  -0.0000000  -0.0000000
 NQMom=    0.0000000   0.0000000   0.0000000   0.0000000   0.0000000   0.0000000   0.0000000   0.0000000   2.0440000   0.0000000
 NMagM=    0.0000000   0.0000000   0.0000000   0.0000000   0.0000000   0.0000000   0.0000000   0.0000000   0.4037610   2.7928460
 AtZNuc=   6.0000000   6.0000000   6.0000000   6.0000000   6.0000000   8.0000000   6.0000000   6.0000000   7.0000000   1.0000000

  Atom        21          22          23          24          25          26          27          28          29          30
 IAtWgt=           1           1           1           1           1           1           1           1           1           1
 AtmWgt=   1.0078250   1.0078250   1.0078250   1.0078250   1.0078250   1.0078250   1.0078250   1.0078250   1.0078250   1.0078250
 NucSpn=           1           1           1           1           1           1           1           1           1           1
 AtZEff=  -0.0000000  -0.0000000  -0.0000000  -0.0000000  -0.0000000  -0.0000000  -0.0000000  -0.0000000  -0.0000000  -0.0000000
 NQMom=    0.0000000   0.0000000   0.0000000   0.0000000   0.0000000   0.0000000   0.0000000   0.0000000   0.0000000   0.0000000
 NMagM=    2.7928460   2.7928460   2.7928460   2.7928460   2.7928460   2.7928460   2.7928460   2.7928460   2.7928460   2.7928460
 AtZNuc=   1.0000000   1.0000000   1.0000000   1.0000000   1.0000000   1.0000000   1.0000000   1.0000000   1.0000000   1.0000000

  Atom        31          32          33          34          35          36          37          38          39          40
 IAtWgt=           1           1           1           1           1           1           1           1           1           1
 AtmWgt=   1.0078250   1.0078250   1.0078250   1.0078250   1.0078250   1.0078250   1.0078250   1.0078250   1.0078250   1.0078250
 NucSpn=           1           1           1           1           1           1           1           1           1           1
 AtZEff=  -0.0000000  -0.0000000  -0.0000000  -0.0000000  -0.0000000  -0.0000000  -0.0000000  -0.0000000  -0.0000000  -0.0000000
 NQMom=    0.0000000   0.0000000   0.0000000   0.0000000   0.0000000   0.0000000   0.0000000   0.0000000   0.0000000   0.0000000
 NMagM=    2.7928460   2.7928460   2.7928460   2.7928460   2.7928460   2.7928460   2.7928460   2.7928460   2.7928460   2.7928460
 AtZNuc=   1.0000000   1.0000000   1.0000000   1.0000000   1.0000000   1.0000000   1.0000000   1.0000000   1.0000000   1.0000000

  Atom        41          42          43
 IAtWgt=           1           1           1
 AtmWgt=   1.0078250   1.0078250   1.0078250
 NucSpn=           1           1           1
 AtZEff=  -0.0000000  -0.0000000  -0.0000000
 NQMom=    0.0000000   0.0000000   0.0000000
 NMagM=    2.7928460   2.7928460   2.7928460
 AtZNuc=   1.0000000   1.0000000   1.0000000
 Leave Link  101 at Sun Feb 25 09:03:11 2024, MaxMem=  7516192768 cpu:               7.0 elap:               0.2
 (Enter /public/apps/g16-C01//g16/l103.exe)

 GradGradGradGradGradGradGradGradGradGradGradGradGradGradGradGradGradGrad
 Berny optimization.
 Initialization pass.
                           ----------------------------
                           !    Initial Parameters    !
                           ! (Angstroms and Degrees)  !
 --------------------------                            --------------------------
 ! Name  Definition              Value          Derivative Info.                !
 --------------------------------------------------------------------------------
 ! R1    R(1,2)                  1.5262         estimate D2E/DX2                !
 ! R2    R(1,20)                 1.0875         estimate D2E/DX2                !
 ! R3    R(1,21)                 1.0859         estimate D2E/DX2                !
 ! R4    R(1,22)                 1.0875         estimate D2E/DX2                !
 ! R5    R(2,3)                  1.5261         estimate D2E/DX2                !
 ! R6    R(2,4)                  1.5364         estimate D2E/DX2                !
 ! R7    R(2,23)                 1.0964         estimate D2E/DX2                !
 ! R8    R(3,24)                 1.0875         estimate D2E/DX2                !
 ! R9    R(3,25)                 1.088          estimate D2E/DX2                !
 ! R10   R(3,26)                 1.0875         estimate D2E/DX2                !
 ! R11   R(4,5)                  1.5544         estimate D2E/DX2                !
 ! R12   R(4,19)                 1.4478         estimate D2E/DX2                !
 ! R13   R(4,27)                 1.0961         estimate D2E/DX2                !
 ! R14   R(5,6)                  1.422          estimate D2E/DX2                !
 ! R15   R(5,28)                 1.0937         estimate D2E/DX2                !
 ! R16   R(5,29)                 1.0927         estimate D2E/DX2                !
 ! R17   R(6,7)                  1.3535         estimate D2E/DX2                !
 ! R18   R(7,8)                  1.4721         estimate D2E/DX2                !
 ! R19   R(7,19)                 1.2645         estimate D2E/DX2                !
 ! R20   R(8,9)                  1.472          estimate D2E/DX2                !
 ! R21   R(8,17)                 1.515          estimate D2E/DX2                !
 ! R22   R(8,18)                 1.515          estimate D2E/DX2                !
 ! R23   R(9,10)                 1.2645         estimate D2E/DX2                !
 ! R24   R(9,16)                 1.3535         estimate D2E/DX2                !
 ! R25   R(10,11)                1.4478         estimate D2E/DX2                !
 ! R26   R(11,12)                1.5364         estimate D2E/DX2                !
 ! R27   R(11,15)                1.5544         estimate D2E/DX2                !
 ! R28   R(11,30)                1.0961         estimate D2E/DX2                !
 ! R29   R(12,13)                1.5262         estimate D2E/DX2                !
 ! R30   R(12,14)                1.5261         estimate D2E/DX2                !
 ! R31   R(12,31)                1.0964         estimate D2E/DX2                !
 ! R32   R(13,32)                1.0875         estimate D2E/DX2                !
 ! R33   R(13,33)                1.0875         estimate D2E/DX2                !
 ! R34   R(13,34)                1.0859         estimate D2E/DX2                !
 ! R35   R(14,35)                1.0875         estimate D2E/DX2                !
 ! R36   R(14,36)                1.0875         estimate D2E/DX2                !
 ! R37   R(14,37)                1.088          estimate D2E/DX2                !
 ! R38   R(15,16)                1.422          estimate D2E/DX2                !
 ! R39   R(15,38)                1.0927         estimate D2E/DX2                !
 ! R40   R(15,39)                1.0937         estimate D2E/DX2                !
 ! R41   R(17,18)                1.4845         estimate D2E/DX2                !
 ! R42   R(17,40)                1.0787         estimate D2E/DX2                !
 ! R43   R(17,41)                1.0784         estimate D2E/DX2                !
 ! R44   R(18,42)                1.0783         estimate D2E/DX2                !
 ! R45   R(18,43)                1.0787         estimate D2E/DX2                !
 ! A1    A(2,1,20)             110.1913         estimate D2E/DX2                !
 ! A2    A(2,1,21)             109.9475         estimate D2E/DX2                !
 ! A3    A(2,1,22)             110.382          estimate D2E/DX2                !
 ! A4    A(20,1,21)            108.3906         estimate D2E/DX2                !
 ! A5    A(20,1,22)            108.6684         estimate D2E/DX2                !
 ! A6    A(21,1,22)            109.2183         estimate D2E/DX2                !
 ! A7    A(1,2,3)              110.4214         estimate D2E/DX2                !
 ! A8    A(1,2,4)              109.8059         estimate D2E/DX2                !
 ! A9    A(1,2,23)             108.6843         estimate D2E/DX2                !
 ! A10   A(3,2,4)              110.6873         estimate D2E/DX2                !
 ! A11   A(3,2,23)             109.2804         estimate D2E/DX2                !
 ! A12   A(4,2,23)             107.899          estimate D2E/DX2                !
 ! A13   A(2,3,24)             110.0143         estimate D2E/DX2                !
 ! A14   A(2,3,25)             110.1926         estimate D2E/DX2                !
 ! A15   A(2,3,26)             111.5349         estimate D2E/DX2                !
 ! A16   A(24,3,25)            108.3531         estimate D2E/DX2                !
 ! A17   A(24,3,26)            108.3438         estimate D2E/DX2                !
 ! A18   A(25,3,26)            108.3169         estimate D2E/DX2                !
 ! A19   A(2,4,5)              113.8862         estimate D2E/DX2                !
 ! A20   A(2,4,19)             111.1059         estimate D2E/DX2                !
 ! A21   A(2,4,27)             108.5801         estimate D2E/DX2                !
 ! A22   A(5,4,19)             103.203          estimate D2E/DX2                !
 ! A23   A(5,4,27)             111.6353         estimate D2E/DX2                !
 ! A24   A(19,4,27)            108.2428         estimate D2E/DX2                !
 ! A25   A(4,5,6)              104.4593         estimate D2E/DX2                !
 ! A26   A(4,5,28)             112.5954         estimate D2E/DX2                !
 ! A27   A(4,5,29)             113.0287         estimate D2E/DX2                !
 ! A28   A(6,5,28)             108.2307         estimate D2E/DX2                !
 ! A29   A(6,5,29)             108.7913         estimate D2E/DX2                !
 ! A30   A(28,5,29)            109.4646         estimate D2E/DX2                !
 ! A31   A(5,6,7)              106.3526         estimate D2E/DX2                !
 ! A32   A(6,7,8)              117.5447         estimate D2E/DX2                !
 ! A33   A(6,7,19)             117.6689         estimate D2E/DX2                !
 ! A34   A(8,7,19)             124.7468         estimate D2E/DX2                !
 ! A35   A(7,8,9)              116.0528         estimate D2E/DX2                !
 ! A36   A(7,8,17)             117.4035         estimate D2E/DX2                !
 ! A37   A(7,8,18)             117.5879         estimate D2E/DX2                !
 ! A38   A(9,8,17)             117.5764         estimate D2E/DX2                !
 ! A39   A(9,8,18)             117.4005         estimate D2E/DX2                !
 ! A40   A(8,9,10)             124.7333         estimate D2E/DX2                !
 ! A41   A(8,9,16)             117.559          estimate D2E/DX2                !
 ! A42   A(10,9,16)            117.6678         estimate D2E/DX2                !
 ! A43   A(9,10,11)            108.2991         estimate D2E/DX2                !
 ! A44   A(10,11,12)           111.0968         estimate D2E/DX2                !
 ! A45   A(10,11,15)           103.2029         estimate D2E/DX2                !
 ! A46   A(10,11,30)           108.2457         estimate D2E/DX2                !
 ! A47   A(12,11,15)           113.8887         estimate D2E/DX2                !
 ! A48   A(12,11,30)           108.5829         estimate D2E/DX2                !
 ! A49   A(15,11,30)           111.6359         estimate D2E/DX2                !
 ! A50   A(11,12,13)           109.8054         estimate D2E/DX2                !
 ! A51   A(11,12,14)           110.6891         estimate D2E/DX2                !
 ! A52   A(11,12,31)           107.8962         estimate D2E/DX2                !
 ! A53   A(13,12,14)           110.4205         estimate D2E/DX2                !
 ! A54   A(13,12,31)           108.6842         estimate D2E/DX2                !
 ! A55   A(14,12,31)           109.2829         estimate D2E/DX2                !
 ! A56   A(12,13,32)           110.1919         estimate D2E/DX2                !
 ! A57   A(12,13,33)           110.3861         estimate D2E/DX2                !
 ! A58   A(12,13,34)           109.9392         estimate D2E/DX2                !
 ! A59   A(32,13,33)           108.6678         estimate D2E/DX2                !
 ! A60   A(32,13,34)           108.3952         estimate D2E/DX2                !
 ! A61   A(33,13,34)           109.218          estimate D2E/DX2                !
 ! A62   A(12,14,35)           110.0079         estimate D2E/DX2                !
 ! A63   A(12,14,36)           111.5394         estimate D2E/DX2                !
 ! A64   A(12,14,37)           110.1955         estimate D2E/DX2                !
 ! A65   A(35,14,36)           108.3431         estimate D2E/DX2                !
 ! A66   A(35,14,37)           108.3529         estimate D2E/DX2                !
 ! A67   A(36,14,37)           108.3167         estimate D2E/DX2                !
 ! A68   A(11,15,16)           104.4601         estimate D2E/DX2                !
 ! A69   A(11,15,38)           113.0314         estimate D2E/DX2                !
 ! A70   A(11,15,39)           112.5939         estimate D2E/DX2                !
 ! A71   A(16,15,38)           108.7919         estimate D2E/DX2                !
 ! A72   A(16,15,39)           108.2288         estimate D2E/DX2                !
 ! A73   A(38,15,39)           109.464          estimate D2E/DX2                !
 ! A74   A(9,16,15)            106.3523         estimate D2E/DX2                !
 ! A75   A(8,17,40)            116.8282         estimate D2E/DX2                !
 ! A76   A(8,17,41)            115.6059         estimate D2E/DX2                !
 ! A77   A(18,17,40)           118.3795         estimate D2E/DX2                !
 ! A78   A(18,17,41)           118.4995         estimate D2E/DX2                !
 ! A79   A(40,17,41)           115.5996         estimate D2E/DX2                !
 ! A80   A(8,18,42)            115.6119         estimate D2E/DX2                !
 ! A81   A(8,18,43)            116.8143         estimate D2E/DX2                !
 ! A82   A(17,18,42)           118.5126         estimate D2E/DX2                !
 ! A83   A(17,18,43)           118.3633         estimate D2E/DX2                !
 ! A84   A(42,18,43)           115.6041         estimate D2E/DX2                !
 ! A85   A(4,19,7)             108.298          estimate D2E/DX2                !
 ! D1    D(20,1,2,3)            58.3052         estimate D2E/DX2                !
 ! D2    D(20,1,2,4)           -64.0215         estimate D2E/DX2                !
 ! D3    D(20,1,2,23)          178.1629         estimate D2E/DX2                !
 ! D4    D(21,1,2,3)           177.7166         estimate D2E/DX2                !
 ! D5    D(21,1,2,4)            55.3899         estimate D2E/DX2                !
 ! D6    D(21,1,2,23)          -62.4257         estimate D2E/DX2                !
 ! D7    D(22,1,2,3)           -61.7255         estimate D2E/DX2                !
 ! D8    D(22,1,2,4)           175.9478         estimate D2E/DX2                !
 ! D9    D(22,1,2,23)           58.1322         estimate D2E/DX2                !
 ! D10   D(1,2,3,24)            59.1969         estimate D2E/DX2                !
 ! D11   D(1,2,3,25)           -60.2109         estimate D2E/DX2                !
 ! D12   D(1,2,3,26)           179.45           estimate D2E/DX2                !
 ! D13   D(4,2,3,24)          -178.9953         estimate D2E/DX2                !
 ! D14   D(4,2,3,25)            61.5969         estimate D2E/DX2                !
 ! D15   D(4,2,3,26)           -58.7421         estimate D2E/DX2                !
 ! D16   D(23,2,3,24)          -60.301          estimate D2E/DX2                !
 ! D17   D(23,2,3,25)         -179.7088         estimate D2E/DX2                !
 ! D18   D(23,2,3,26)           59.9521         estimate D2E/DX2                !
 ! D19   D(1,2,4,5)           -170.0876         estimate D2E/DX2                !
 ! D20   D(1,2,4,19)           -54.0671         estimate D2E/DX2                !
 ! D21   D(1,2,4,27)            64.8638         estimate D2E/DX2                !
 ! D22   D(3,2,4,5)             67.7437         estimate D2E/DX2                !
 ! D23   D(3,2,4,19)          -176.2358         estimate D2E/DX2                !
 ! D24   D(3,2,4,27)           -57.3049         estimate D2E/DX2                !
 ! D25   D(23,2,4,5)           -51.785          estimate D2E/DX2                !
 ! D26   D(23,2,4,19)           64.2355         estimate D2E/DX2                !
 ! D27   D(23,2,4,27)         -176.8336         estimate D2E/DX2                !
 ! D28   D(2,4,5,6)            119.2286         estimate D2E/DX2                !
 ! D29   D(2,4,5,28)             2.0187         estimate D2E/DX2                !
 ! D30   D(2,4,5,29)          -122.6675         estimate D2E/DX2                !
 ! D31   D(19,4,5,6)            -1.3294         estimate D2E/DX2                !
 ! D32   D(19,4,5,28)         -118.5393         estimate D2E/DX2                !
 ! D33   D(19,4,5,29)          116.7746         estimate D2E/DX2                !
 ! D34   D(27,4,5,6)          -117.3673         estimate D2E/DX2                !
 ! D35   D(27,4,5,28)          125.4228         estimate D2E/DX2                !
 ! D36   D(27,4,5,29)            0.7366         estimate D2E/DX2                !
 ! D37   D(2,4,19,7)          -121.3687         estimate D2E/DX2                !
 ! D38   D(5,4,19,7)             1.0686         estimate D2E/DX2                !
 ! D39   D(27,4,19,7)          119.4981         estimate D2E/DX2                !
 ! D40   D(4,5,6,7)              1.1315         estimate D2E/DX2                !
 ! D41   D(28,5,6,7)           121.3098         estimate D2E/DX2                !
 ! D42   D(29,5,6,7)          -119.8308         estimate D2E/DX2                !
 ! D43   D(5,6,7,8)           -178.347          estimate D2E/DX2                !
 ! D44   D(5,6,7,19)            -0.5269         estimate D2E/DX2                !
 ! D45   D(6,7,8,9)            -30.9            estimate D2E/DX2                !
 ! D46   D(6,7,8,17)           115.5981         estimate D2E/DX2                !
 ! D47   D(6,7,8,18)          -177.3516         estimate D2E/DX2                !
 ! D48   D(19,7,8,9)           151.4497         estimate D2E/DX2                !
 ! D49   D(19,7,8,17)          -62.0523         estimate D2E/DX2                !
 ! D50   D(19,7,8,18)            4.9981         estimate D2E/DX2                !
 ! D51   D(6,7,19,4)            -0.4107         estimate D2E/DX2                !
 ! D52   D(8,7,19,4)           177.2369         estimate D2E/DX2                !
 ! D53   D(7,8,9,10)           152.117          estimate D2E/DX2                !
 ! D54   D(7,8,9,16)           -30.2421         estimate D2E/DX2                !
 ! D55   D(17,8,9,10)            5.6786         estimate D2E/DX2                !
 ! D56   D(17,8,9,16)         -176.6805         estimate D2E/DX2                !
 ! D57   D(18,8,9,10)          -61.3668         estimate D2E/DX2                !
 ! D58   D(18,8,9,16)          116.2741         estimate D2E/DX2                !
 ! D59   D(7,8,17,40)           -1.9073         estimate D2E/DX2                !
 ! D60   D(7,8,17,41)         -143.1046         estimate D2E/DX2                !
 ! D61   D(9,8,17,40)          144.076          estimate D2E/DX2                !
 ! D62   D(9,8,17,41)            2.8786         estimate D2E/DX2                !
 ! D63   D(7,8,18,42)            2.895          estimate D2E/DX2                !
 ! D64   D(7,8,18,43)          144.0896         estimate D2E/DX2                !
 ! D65   D(9,8,18,42)         -143.1027         estimate D2E/DX2                !
 ! D66   D(9,8,18,43)           -1.9081         estimate D2E/DX2                !
 ! D67   D(8,9,10,11)          177.2103         estimate D2E/DX2                !
 ! D68   D(16,9,10,11)          -0.4283         estimate D2E/DX2                !
 ! D69   D(8,9,16,15)         -178.3125         estimate D2E/DX2                !
 ! D70   D(10,9,16,15)          -0.5015         estimate D2E/DX2                !
 ! D71   D(9,10,11,12)        -121.3643         estimate D2E/DX2                !
 ! D72   D(9,10,11,15)           1.0711         estimate D2E/DX2                !
 ! D73   D(9,10,11,30)         119.5026         estimate D2E/DX2                !
 ! D74   D(10,11,12,13)        -54.1143         estimate D2E/DX2                !
 ! D75   D(10,11,12,14)       -176.2827         estimate D2E/DX2                !
 ! D76   D(10,11,12,31)         64.1862         estimate D2E/DX2                !
 ! D77   D(15,11,12,13)       -170.1302         estimate D2E/DX2                !
 ! D78   D(15,11,12,14)         67.7014         estimate D2E/DX2                !
 ! D79   D(15,11,12,31)        -51.8296         estimate D2E/DX2                !
 ! D80   D(30,11,12,13)         64.8164         estimate D2E/DX2                !
 ! D81   D(30,11,12,14)        -57.352          estimate D2E/DX2                !
 ! D82   D(30,11,12,31)       -176.883          estimate D2E/DX2                !
 ! D83   D(10,11,15,16)         -1.3181         estimate D2E/DX2                !
 ! D84   D(10,11,15,38)        116.7884         estimate D2E/DX2                !
 ! D85   D(10,11,15,39)       -118.5253         estimate D2E/DX2                !
 ! D86   D(12,11,15,16)        119.2301         estimate D2E/DX2                !
 ! D87   D(12,11,15,38)       -122.6634         estimate D2E/DX2                !
 ! D88   D(12,11,15,39)          2.0229         estimate D2E/DX2                !
 ! D89   D(30,11,15,16)       -117.3597         estimate D2E/DX2                !
 ! D90   D(30,11,15,38)          0.7468         estimate D2E/DX2                !
 ! D91   D(30,11,15,39)        125.4331         estimate D2E/DX2                !
 ! D92   D(11,12,13,32)        -64.1744         estimate D2E/DX2                !
 ! D93   D(11,12,13,33)        175.7925         estimate D2E/DX2                !
 ! D94   D(11,12,13,34)         55.2378         estimate D2E/DX2                !
 ! D95   D(14,12,13,32)         58.1536         estimate D2E/DX2                !
 ! D96   D(14,12,13,33)        -61.8794         estimate D2E/DX2                !
 ! D97   D(14,12,13,34)        177.5658         estimate D2E/DX2                !
 ! D98   D(31,12,13,32)        178.0137         estimate D2E/DX2                !
 ! D99   D(31,12,13,33)         57.9806         estimate D2E/DX2                !
 ! D100  D(31,12,13,34)        -62.5741         estimate D2E/DX2                !
 ! D101  D(11,12,14,35)       -179.1496         estimate D2E/DX2                !
 ! D102  D(11,12,14,36)        -58.8986         estimate D2E/DX2                !
 ! D103  D(11,12,14,37)         61.445          estimate D2E/DX2                !
 ! D104  D(13,12,14,35)         59.0426         estimate D2E/DX2                !
 ! D105  D(13,12,14,36)        179.2936         estimate D2E/DX2                !
 ! D106  D(13,12,14,37)        -60.3628         estimate D2E/DX2                !
 ! D107  D(31,12,14,35)        -60.4561         estimate D2E/DX2                !
 ! D108  D(31,12,14,36)         59.7949         estimate D2E/DX2                !
 ! D109  D(31,12,14,37)       -179.8615         estimate D2E/DX2                !
 ! D110  D(11,15,16,9)           1.1111         estimate D2E/DX2                !
 ! D111  D(38,15,16,9)        -119.855          estimate D2E/DX2                !
 ! D112  D(39,15,16,9)         121.2871         estimate D2E/DX2                !
 ! D113  D(40,17,18,42)          1.5345         estimate D2E/DX2                !
 ! D114  D(40,17,18,43)       -146.9142         estimate D2E/DX2                !
 ! D115  D(41,17,18,42)        149.9792         estimate D2E/DX2                !
 ! D116  D(41,17,18,43)          1.5304         estimate D2E/DX2                !
 --------------------------------------------------------------------------------
 Trust Radius=3.00D-01 FncErr=1.00D-07 GrdErr=1.00D-06 EigMax=2.50D+02 EigMin=1.00D-04
 Number of steps in this run=    256 maximum allowed number of steps=    258.
 GradGradGradGradGradGradGradGradGradGradGradGradGradGradGradGradGradGrad

 Leave Link  103 at Sun Feb 25 09:03:11 2024, MaxMem=  7516192768 cpu:               1.0 elap:               0.0
 (Enter /public/apps/g16-C01//g16/l202.exe)
                          Input orientation:                          
 ---------------------------------------------------------------------
 Center     Atomic      Atomic             Coordinates (Angstroms)
 Number     Number       Type             X           Y           Z
 ---------------------------------------------------------------------
      1          6           0       -5.060592   -1.276355   -0.457733
      2          6           0       -4.549102   -0.043395    0.282176
      3          6           0       -5.651525    1.006027    0.393932
      4          6           0       -3.324940    0.530946   -0.447315
      5          6           0       -2.579603    1.638082    0.349471
      6          8           0       -1.269946    1.117826    0.539957
      7          6           0       -1.246116   -0.088391   -0.073538
      8          6           0        0.000216   -0.867853    0.005507
      9          6           0        1.246593   -0.088297    0.081330
     10          7           0        2.311897   -0.484929    0.635280
     11          6           0        3.327703    0.529126    0.445548
     12          6           0        4.547181   -0.041378   -0.294745
     13          6           0        5.063882   -1.277701    0.435918
     14          6           0        5.648577    1.008854   -0.408811
     15          6           0        2.577387    1.640547   -0.340526
     16          8           0        1.266480    1.121390   -0.525443
     17          6           0       -0.048302   -2.186991    0.749069
     18          6           0        0.048718   -2.190177   -0.732218
     19          7           0       -2.307905   -0.482053   -0.636229
     20          1           0       -5.412537   -1.000150   -1.448927
     21          1           0       -4.259418   -2.000962   -0.568254
     22          1           0       -5.882668   -1.732255    0.089028
     23          1           0       -4.231866   -0.343708    1.287797
     24          1           0       -6.505048    0.593894    0.927115
     25          1           0       -5.981373    1.311203   -0.596945
     26          1           0       -5.308930    1.889646    0.927302
     27          1           0       -3.641870    0.887198   -1.434220
     28          1           0       -3.022553    1.818388    1.333070
     29          1           0       -2.507423    2.582156   -0.195954
     30          1           0        3.650842    0.880023    1.432365
     31          1           0        4.223327   -0.337026   -1.299646
     32          1           0        5.424785   -1.005674    1.425051
     33          1           0        5.880658   -1.732386   -0.119748
     34          1           0        4.262873   -2.001845    0.550585
     35          1           0        6.499668    0.598510   -0.947212
     36          1           0        5.303134    1.893823   -0.938090
     37          1           0        5.983074    1.311415    0.581319
     38          1           0        2.508778    2.581728    0.210339
     39          1           0        3.014055    1.826041   -1.325958
     40          1           0       -0.989649   -2.456314    1.201823
     41          1           0        0.831463   -2.431173    1.322857
     42          1           0       -0.830895   -2.436849   -1.305152
     43          1           0        0.990205   -2.461360   -1.183521
 ---------------------------------------------------------------------
                    Distance matrix (angstroms):
                    1          2          3          4          5
     1  C    0.000000
     2  C    1.526197   0.000000
     3  C    2.506751   1.526143   0.000000
     4  C    2.505780   1.536424   2.519205   0.000000
     5  C    3.911627   2.590525   3.136587   1.554395   0.000000
     6  O    4.593091   3.488230   4.385437   2.354174   1.422024
     7  C    4.013613   3.322390   4.563322   2.201090   2.222124
     8  C    5.098357   4.631692   5.966949   3.635705   3.612961
     9  C    6.440703   5.799348   6.991373   4.643473   4.206193
    10  N    7.494973   6.884253   8.105386   5.829060   5.340003
    11  C    8.627814   7.899274   8.992032   6.712292   6.011263
    12  C    9.688191   9.114560  10.275453   7.894373   7.350282
    13  C   10.163837   9.693122  10.956145   8.626914   8.181206
    14  C   10.950382  10.275084  11.328579   8.986317   8.286970
    15  C    8.176844   7.349168   8.285954   6.006670   5.202946
    16  O    6.766506   5.985814   6.979782   4.629888   3.978040
    17  C    5.235330   5.007014   6.458916   4.422089   4.604166
    18  C    5.197640   5.174709   6.631493   4.343645   4.767986
    19  N    2.870551   2.461474   3.802027   1.447831   2.353805
    20  H    1.087483   2.158151   2.734592   2.775886   4.268491
    21  H    1.085887   2.153884   3.450470   2.701561   4.111768
    22  H    1.087475   2.160544   2.764884   3.457125   4.726229
    23  H    2.145575   1.096403   2.153186   2.144329   2.745527
    24  H    2.738994   2.155878   1.087492   3.464983   4.102818
    25  H    2.750032   2.158516   1.088012   2.772693   3.546067
    26  H    3.464615   2.174896   1.087491   2.769811   2.801142
    27  H    2.765368   2.152926   2.719370   1.096057   2.207667
    28  H    4.115582   2.626969   2.907474   2.217818   1.093701
    29  H    4.634146   3.360146   3.566164   2.222381   1.092691
    30  H    9.171233   8.331550   9.360996   7.233021   6.369125
    31  H    9.369221   8.918738  10.108645   7.645664   7.273273
    32  H   10.656513  10.085166  11.304636   9.078802   8.498032
    33  H   10.955964  10.573274  11.863980   9.485410   9.119004
    34  H    9.405851   9.030973  10.361811   8.061373   7.752999
    35  H   11.721532  11.135473  12.231771   9.837550   9.230128
    36  H   10.848391  10.114762  11.070999   8.748826   7.991293
    37  H   11.390292  10.623169  11.640115   9.397146   8.572042
    38  H    8.522118   7.530611   8.313067   6.218559   5.177011
    39  H    8.693595   7.955013   8.872583   6.529329   5.842209
    40  H    4.551814   4.397458   5.862899   4.134847   4.474208
    41  H    6.262621   5.977874   7.396376   5.402161   5.398304
    42  H    4.467125   4.698223   6.162691   3.970384   4.732950
    43  H    6.208313   6.219224   7.656612   5.302487   5.647922
                    6          7          8          9         10
     6  O    0.000000
     7  C    1.353478   0.000000
     8  C    2.416996   1.472125   0.000000
     9  C    2.828081   2.497515   1.472044   0.000000
    10  N    3.925240   3.649537   2.426338   1.264536   0.000000
    11  C    4.636147   4.644416   3.635568   2.201110   1.447815
    12  C    5.989946   5.797709   4.631210   3.322276   2.461337
    13  C    6.772500   6.441279   5.098425   4.013989   2.870828
    14  C    6.984125   6.989503   5.966378   4.563052   3.801966
    15  C    3.981263   4.204722   3.612979   2.222133   2.353791
    16  O    2.751099   2.825053   2.417110   1.353481   2.240633
    17  C    3.529583   2.552560   1.515046   2.554828   2.912130
    18  C    3.781559   2.554987   1.514969   2.552384   3.146411
    19  N    2.240622   1.264511   2.426539   3.647518   4.791588
    20  H    5.059895   4.481302   5.606316   6.893270   8.017247
    21  H    4.460035   3.603146   4.444954   5.864845   6.850477
    22  H    5.440910   4.922025   5.946637   7.316353   8.306931
    23  H    3.386490   3.291371   4.453034   5.615542   6.577732
    24  H    5.275480   5.396590   6.730864   7.827431   8.887494
    25  H    4.850514   4.965428   6.394579   7.393386   8.574543
    26  H    4.130270   4.628258   6.053143   6.899479   7.987546
    27  H    3.094606   2.922818   4.291597   5.210139   6.450806
    28  H    2.047302   2.961432   4.256224   4.840238   5.852225
    29  H    2.053577   2.955960   4.269825   4.615283   5.772678
    30  H    5.006705   5.213997   4.291627   2.922901   2.071524
    31  H    5.973004   5.610701   4.451951   3.290882   2.723854
    32  H    7.078988   6.898413   5.608926   4.483799   3.253457
    33  H    7.725934   7.314080   5.944973   4.921181   3.855162
    34  H    6.351736   5.865134   4.444468   3.602751   2.472754
    35  H    7.927690   7.825108   6.730585   5.396703   4.606034
    36  H    6.781753   6.897050   6.052947   4.628557   4.132971
    37  H    7.255721   7.392529   6.393384   4.964215   4.087457
    38  H    4.065761   4.616205   4.270181   2.956144   3.102212
    39  H    4.726084   4.835562   4.255948   2.961262   3.111280
    40  H    3.645697   2.701737   2.221309   3.444385   3.886841
    41  H    4.198124   3.428539   2.206887   2.683801   2.540140
    42  H    4.029008   2.684127   2.206880   3.428409   4.177608
    43  H    4.570474   3.444441   2.221065   2.701298   2.993524
                   11         12         13         14         15
    11  C    0.000000
    12  C    1.536436   0.000000
    13  C    2.505800   1.526218   0.000000
    14  C    2.519231   1.526130   2.506745   0.000000
    15  C    1.554395   2.590571   3.911738   3.136225   0.000000
    16  O    2.354196   3.488302   4.593486   4.385093   1.422039
    17  C    4.343596   5.177998   5.201855   6.633893   4.767757
    18  C    4.419670   5.004487   5.229629   6.457307   4.606738
    19  N    5.826903   6.877718   7.491715   8.098156   5.334693
    20  H    9.073010  10.072108  10.648241  11.290092   8.487680
    21  H    8.061857   9.026127   9.405073  10.356292   7.749474
    22  H    9.490621  10.572989  10.961474  11.863015   9.117721
    23  H    7.656259   8.925666   9.381310  10.115881   7.276993
    24  H    9.844750  11.137696  11.729633  12.233867   9.230007
    25  H    9.399858  10.619381  11.391527  11.635401   8.568932
    26  H    8.756399  10.117568  10.856739  11.073751   7.991460
    27  H    7.227495   8.319929   9.163750   9.347656   6.359470
    28  H    6.540309   7.963001   8.705233   8.881328   5.847382
    29  H    6.218935   7.527292   8.521879   8.309087   5.173280
    30  H    1.096064   2.152978   2.765025   2.719829   2.207679
    31  H    2.144310   1.096410   2.145597   2.153211   2.745874
    32  H    2.777191   2.158183   1.087490   2.733396   4.269359
    33  H    3.457105   2.160623   1.087486   2.766192   4.726206
    34  H    2.700257   2.153798   1.085886   3.450351   4.111200
    35  H    3.464961   2.155777   2.737645   1.087480   4.103437
    36  H    2.771133   2.174939   3.464636   1.087491   2.801951
    37  H    2.771535   2.158547   2.751286   1.088021   3.543562
    38  H    2.222417   3.360191   4.634073   3.565896   1.092694
    39  H    2.217791   2.627000   4.115727   2.906830   1.093692
    40  H    5.303238   6.223192   6.214578   7.659476   5.646845
    41  H    3.970423   4.704712   4.475548   6.167418   4.732230
    42  H    5.399620   5.973517   6.254866   7.393230   5.401115
    43  H    4.130468   4.392985   4.540757   5.860289   4.478329
                   16         17         18         19         20
    16  O    0.000000
    17  C    3.781325   0.000000
    18  C    3.534427   1.484464   0.000000
    19  N    3.919124   3.151455   2.912142   0.000000
    20  H    7.068453   5.917330   5.635170   3.250791   0.000000
    21  H    6.347162   4.416270   4.315405   2.473885   1.762638
    22  H    7.722123   5.889165   6.005454   3.855896   1.767005
    23  H    5.972115   4.603274   5.080680   2.724452   3.051976
    24  H    7.923688   7.032396   7.311381   4.606269   3.062700
    25  H    7.250691   7.017866   6.974235   4.087992   2.528201
    26  H    6.777662   6.657698   6.935658   4.132280   3.742742
    27  H    4.997261   5.208754   4.856283   2.071497   2.587965
    28  H    4.726064   5.022976   5.455888   3.111413   4.625547
    29  H    4.060141   5.448404   5.440276   3.102100   4.779388
    30  H    3.094584   4.853569   5.204502   6.452984   9.694418
    31  H    3.386637   5.085904   4.602554   6.566441   9.659808
    32  H    5.061653   5.639782   5.912610   8.019822  11.211928
    33  H    5.440521   6.009499   5.881855   8.299557  11.394698
    34  H    4.459911   4.319711   4.409099   6.847877   9.930509
    35  H    5.276130   7.315210   7.031199   8.879058  12.029466
    36  H    4.130558   6.938113   6.658102   7.978961  11.111329
    37  H    4.848432   6.974560   7.014493   8.569672  11.803609
    38  H    2.053598   5.437791   5.450815   5.770950   8.850438
    39  H    2.047285   5.457856   5.027500   5.841770   8.888753
    40  H    4.568756   1.078729   2.211233   3.002323   5.358062
    41  H    4.028170   1.078352   2.212262   4.182430   6.979839
    42  H    4.203331   2.212398   1.078341   2.539733   4.803771
    43  H    3.653148   2.211036   1.078709   3.885192   6.572722
                   21         22         23         24         25
    21  H    0.000000
    22  H    1.771769   0.000000
    23  H    2.488408   2.467845   0.000000
    24  H    3.743295   2.549650   2.485266   0.000000
    25  H    3.733147   3.121368   3.058064   1.763952   0.000000
    26  H    4.298255   3.761655   2.505573   1.763426   1.763549
    27  H    3.077780   3.768686   3.045095   3.722864   2.520731
    28  H    4.442106   4.725988   2.477730   3.713752   3.568867
    29  H    4.920677   5.485220   3.706198   4.603854   3.720812
    30  H    8.653021   9.975789   7.978440  10.172475   9.853100
    31  H    8.675286  10.295932   8.842239  10.996504  10.360808
    32  H    9.937185  11.409267   9.680286  12.046886  11.813417
    33  H   10.153543  11.765179  10.304016  12.645680  12.255567
    34  H    8.595420  10.159612   8.686397  11.082769  10.827635
    35  H   11.075143  12.642330  11.002221  13.139093  12.506279
    36  H   10.331918  11.803626  10.043771  12.025056  11.304686
    37  H   10.825987  12.259776  10.372249  12.513497  12.022325
    38  H    8.210708   9.436182   7.426666   9.258202   8.622564
    39  H    8.253695   9.685832   8.002681   9.859404   9.039593
    40  H    3.745919   5.069932   3.870719   6.308634   6.507462
    41  H    5.447793   6.862243   5.476864   7.945567   8.006607
    42  H    3.533806   5.287778   4.761431   6.809143   6.409124
    43  H    5.305569   7.027614   6.153201   8.364698   7.948535
                   26         27         28         29         30
    26  H    0.000000
    27  H    3.059539   0.000000
    28  H    2.323197   2.984721   0.000000
    29  H    3.096727   2.386033   1.785109   0.000000
    30  H    9.030611   7.835880   6.739777   6.593399   0.000000
    31  H   10.038988   7.961040   8.004985   7.419080   3.045132
    32  H   11.128489   9.693432   8.907374   8.855513   2.588973
    33  H   11.807722   9.963363   9.694630   9.432973   3.769060
    34  H   10.339489   8.647022   8.263407   8.210194   3.075269
    35  H   12.025964  10.157328   9.867141   9.253482   3.722559
    36  H   10.774767   9.015128   8.630233   7.875873   3.062175
    37  H   11.312091   9.842861   9.051158   8.620178   2.519858
    38  H    7.880963   6.588359   5.695510   5.032628   2.386097
    39  H    8.622836   6.722684   6.596296   5.686417   2.984760
    40  H    6.133426   5.016181   4.735293   5.444594   5.720004
    41  H    7.518668   6.214802   5.736925   6.211957   4.350277
    42  H    6.614772   4.355172   5.465402   5.406614   6.211409
    43  H    7.941406   5.721172   6.383706   6.216570   5.008661
                   31         32         33         34         35
    31  H    0.000000
    32  H    3.051977   0.000000
    33  H    2.466969   1.767013   0.000000
    34  H    2.489285   1.762693   1.771774   0.000000
    35  H    2.486195   3.058825   2.549695   3.742792   0.000000
    36  H    2.504674   3.742501   3.761995   4.298200   1.763409
    37  H    3.058120   2.528334   3.125173   3.733327   1.763947
    38  H    3.706597   4.779966   5.485445   4.919528   4.604376
    39  H    2.478284   4.625827   4.725966   4.442260   3.714805
    40  H    6.158234   6.580209   7.033615   5.312216   8.369001
    41  H    4.771553   4.810520   5.297526   3.543346   6.816212
    42  H    5.473066   6.973937   6.851744   5.438700   7.942209
    43  H    3.870318   5.346884   5.057623   3.732108   6.306570
                   36         37         38         39         40
    36  H    0.000000
    37  H    1.763554   0.000000
    38  H    3.098472   3.717802   0.000000
    39  H    2.322696   3.566177   1.785098   0.000000
    40  H    7.943679   7.949822   6.213204   6.384190   0.000000
    41  H    6.619163   6.410611   5.401875   5.468437   1.825303
    42  H    7.517697   8.002401   6.215806   5.740758   2.512072
    43  H    6.134265   6.502094   5.448086   4.743212   3.099954
                   41         42         43
    41  H    0.000000
    42  H    3.109646   0.000000
    43  H    2.511581   1.825322   0.000000
 Symmetry turned off by external request.
 Stoichiometry    C15H24N2O2
 Framework group  C1[X(C15H24N2O2)]
 Deg. of freedom   123
 Full point group                 C1      NOp   1
 Rotational constants (GHZ):           1.1039770           0.1632159           0.1487702
 Leave Link  202 at Sun Feb 25 09:03:11 2024, MaxMem=  7516192768 cpu:               1.0 elap:               0.0
 (Enter /public/apps/g16-C01//g16/l301.exe)
 Standard basis: def2SVPP (5D, 7F)
 Ernie: Thresh=  0.10000D-02 Tol=  0.10000D-05 Strict=F.
   314 basis functions,   571 primitive gaussians,   333 cartesian basis functions
    72 alpha electrons       72 beta electrons
       nuclear repulsion energy      1510.5321901325 Hartrees.
 IExCor=  402 DFT=T Ex+Corr=B3LYP ExCW=0 ScaHFX=  0.200000
 ScaDFX=  0.800000  0.720000  1.000000  0.810000 ScalE2=  1.000000  1.000000
 IRadAn=      5 IRanWt=     -1 IRanGd=            0 ICorTp=0 IEmpDi=141
 NAtoms=   43 NActive=   43 NUniq=   43 SFac= 1.00D+00 NAtFMM=   60 NAOKFM=F Big=F
 Integral buffers will be    131072 words long.
 Raffenetti 2 integral format.
 Two-electron integral symmetry is turned off.
 R6Disp:  Grimme-D3(BJ) Dispersion energy=       -0.0783091161 Hartrees.
 Nuclear repulsion after empirical dispersion term =     1510.4538810165 Hartrees.
 Leave Link  301 at Sun Feb 25 09:03:11 2024, MaxMem=  7516192768 cpu:               1.4 elap:               0.0
 (Enter /public/apps/g16-C01//g16/l302.exe)
 NPDir=0 NMtPBC=     1 NCelOv=     1 NCel=       1 NClECP=     1 NCelD=      1
         NCelK=      1 NCelE2=     1 NClLst=     1 CellRange=     0.0.
 One-electron integrals computed using PRISM.
   1 Symmetry operations used in ECPInt.
 ECPInt:  NShTT=   13203 NPrTT=   52969 LenC2=   12005 LenP2D=   32907.
 LDataN:  DoStor=T MaxTD1= 4 Len=   56
 NBasis=   314 RedAO= T EigKep=  8.60D-04  NBF=   314
 NBsUse=   314 1.00D-06 EigRej= -1.00D+00 NBFU=   314
 Precomputing XC quadrature grid using
 IXCGrd= 4 IRadAn=           5 IRanWt=          -1 IRanGd=           0 AccXCQ= 0.00D+00.
 Generated NRdTot=       0 NPtTot=           0 NUsed=           0 NTot=          32
 NSgBfM=   329   329   329   329   329 MxSgAt=    43 MxSgA2=    43.
 Leave Link  302 at Sun Feb 25 09:03:11 2024, MaxMem=  7516192768 cpu:              12.1 elap:               0.3
 (Enter /public/apps/g16-C01//g16/l303.exe)
 DipDrv:  MaxL=1.
 Leave Link  303 at Sun Feb 25 09:03:11 2024, MaxMem=  7516192768 cpu:               1.4 elap:               0.1
 (Enter /public/apps/g16-C01//g16/l401.exe)
 ExpMin= 1.22D-01 ExpMax= 2.27D+03 ExpMxC= 3.41D+02 IAcc=3 IRadAn=         5 AccDes= 0.00D+00
 Harris functional with IExCor=  402 and IRadAn=       5 diagonalized for initial guess.
 HarFok:  IExCor=  402 AccDes= 0.00D+00 IRadAn=         5 IDoV= 1 UseB2=F ITyADJ=14
 ICtDFT=  3500011 ScaDFX=  1.000000  1.000000  1.000000  1.000000
 FoFCou: FMM=F IPFlag=           0 FMFlag=      100000 FMFlg1=           0
         NFxFlg=           0 DoJE=T BraDBF=F KetDBF=T FulRan=T
         wScrn=  0.000000 ICntrl=       500 IOpCl=  0 I1Cent=   200000004 NGrid=           0
         NMat0=    1 NMatS0=      1 NMatT0=    0 NMatD0=    1 NMtDS0=    0 NMtDT0=    0
 Symmetry not used in FoFCou.
 Harris En= -845.356466531378    
 JPrj=0 DoOrth=F DoCkMO=F.
 Leave Link  401 at Sun Feb 25 09:03:12 2024, MaxMem=  7516192768 cpu:              19.8 elap:               0.5
 (Enter /public/apps/g16-C01//g16/l502.exe)
 Two-electron integral symmetry not used.
 Closed shell SCF:
 Using DIIS extrapolation, IDIIS=  1040.
 NGot=  7516192768 LenX=  7515953517 LenY=  7515842187
 Requested convergence on RMS density matrix=1.00D-08 within 128 cycles.
 Requested convergence on MAX density matrix=1.00D-06.
 Requested convergence on             energy=1.00D-06.
 No special actions if energy rises.
 Fock matrices will be formed incrementally for  20 cycles.
 Integral accuracy reduced to 1.0D-05 until final iterations.

 Cycle   1  Pass 0  IDiag  1:
 FoFJK:  IHMeth= 1 ICntrl=       0 DoSepK=F KAlg= 0 I1Cent=           0 FoldK=F
 IRaf= 840000000 NMat=       1 IRICut=       1 DoRegI=T DoRafI=F ISym2E= 0 IDoP0=0 IntGTp=1.
 FoFCou: FMM=F IPFlag=           0 FMFlag=      100000 FMFlg1=           0
         NFxFlg=           0 DoJE=F BraDBF=F KetDBF=F FulRan=T
         wScrn=  0.000000 ICntrl=         0 IOpCl=  0 I1Cent=           0 NGrid=           0
         NMat0=    1 NMatS0=      1 NMatT0=    0 NMatD0=    1 NMtDS0=    0 NMtDT0=    0
 Symmetry not used in FoFCou.
 E= -844.863940384362    
 DIIS: error= 3.86D-02 at cycle   1 NSaved=   1.
 NSaved= 1 IEnMin= 1 EnMin= -844.863940384362     IErMin= 1 ErrMin= 3.86D-02
 ErrMax= 3.86D-02  0.00D+00 EMaxC= 1.00D-01 BMatC= 4.71D-01 BMatP= 4.71D-01
 IDIUse=3 WtCom= 6.14D-01 WtEn= 3.86D-01
 Coeff-Com:  0.100D+01
 Coeff-En:   0.100D+01
 Coeff:      0.100D+01
 Gap=     0.227 Goal=   None    Shift=    0.000
 GapD=    0.227 DampG=1.000 DampE=0.500 DampFc=0.5000 IDamp=-1.
 Damping current iteration by 5.00D-01
 RMSDP=5.96D-03 MaxDP=2.13D-01              OVMax= 2.29D-01

 Cycle   2  Pass 0  IDiag  1:
 RMSU=  2.95D-03    CP:  9.79D-01
 E= -845.053932356291     Delta-E=       -0.189991971929 Rises=F Damp=T
 DIIS: error= 6.85D-03 at cycle   2 NSaved=   2.
 NSaved= 2 IEnMin= 2 EnMin= -845.053932356291     IErMin= 2 ErrMin= 6.85D-03
 ErrMax= 6.85D-03  0.00D+00 EMaxC= 1.00D-01 BMatC= 4.19D-02 BMatP= 4.71D-01
 IDIUse=3 WtCom= 9.31D-01 WtEn= 6.85D-02
 Coeff-Com:  0.141D+00 0.859D+00
 Coeff-En:   0.226D+00 0.774D+00
 Coeff:      0.147D+00 0.853D+00
 Gap=     0.296 Goal=   None    Shift=    0.000
 RMSDP=1.92D-03 MaxDP=8.08D-02 DE=-1.90D-01 OVMax= 2.10D-01

 Cycle   3  Pass 0  IDiag  1:
 RMSU=  1.78D-03    CP:  9.68D-01  7.65D-01
 E= -845.312331070828     Delta-E=       -0.258398714538 Rises=F Damp=F
 DIIS: error= 1.03D-02 at cycle   3 NSaved=   3.
 NSaved= 3 IEnMin= 3 EnMin= -845.312331070828     IErMin= 2 ErrMin= 6.85D-03
 ErrMax= 1.03D-02  0.00D+00 EMaxC= 1.00D-01 BMatC= 5.72D-02 BMatP= 4.19D-02
 IDIUse=2 WtCom= 0.00D+00 WtEn= 1.00D+00
 Coeff-En:   0.000D+00 0.000D+00 0.100D+01
 Coeff:      0.000D+00 0.000D+00 0.100D+01
 Gap=     0.231 Goal=   None    Shift=    0.000
 RMSDP=2.93D-03 MaxDP=1.90D-01 DE=-2.58D-01 OVMax= 2.30D-01

 Cycle   4  Pass 0  IDiag  1:
 RMSU=  1.75D-03    CP:  9.78D-01  1.16D+00 -1.42D-01
 E= -845.078612300842     Delta-E=        0.233718769987 Rises=F Damp=F
 DIIS: error= 2.70D-02 at cycle   4 NSaved=   4.
 NSaved= 4 IEnMin= 3 EnMin= -845.312331070828     IErMin= 2 ErrMin= 6.85D-03
 ErrMax= 2.70D-02  0.00D+00 EMaxC= 1.00D-01 BMatC= 3.22D-01 BMatP= 4.19D-02
 IDIUse=2 WtCom= 0.00D+00 WtEn= 1.00D+00
 Coeff-En:   0.000D+00 0.000D+00 0.790D+00 0.210D+00
 Coeff:      0.000D+00 0.000D+00 0.790D+00 0.210D+00
 Gap=     0.260 Goal=   None    Shift=    0.000
 RMSDP=1.52D-03 MaxDP=1.14D-01 DE= 2.34D-01 OVMax= 1.22D-01

 Cycle   5  Pass 0  IDiag  1:
 RMSU=  2.38D-04    CP:  9.74D-01  9.21D-01  4.05D-01  4.93D-01
 E= -845.343322411573     Delta-E=       -0.264710110732 Rises=F Damp=F
 DIIS: error= 7.26D-03 at cycle   5 NSaved=   5.
 NSaved= 5 IEnMin= 5 EnMin= -845.343322411573     IErMin= 2 ErrMin= 6.85D-03
 ErrMax= 7.26D-03  0.00D+00 EMaxC= 1.00D-01 BMatC= 2.37D-02 BMatP= 4.19D-02
 IDIUse=3 WtCom= 9.27D-01 WtEn= 7.26D-02
 Coeff-Com: -0.248D-02 0.238D-01 0.285D+00-0.105D+00 0.798D+00
 Coeff-En:   0.000D+00 0.000D+00 0.337D+00 0.000D+00 0.663D+00
 Coeff:     -0.230D-02 0.221D-01 0.289D+00-0.971D-01 0.788D+00
 Gap=     0.250 Goal=   None    Shift=    0.000
 RMSDP=5.84D-04 MaxDP=3.60D-02 DE=-2.65D-01 OVMax= 4.41D-02

 Cycle   6  Pass 0  IDiag  1:
 RMSU=  5.89D-05    CP:  9.72D-01  8.51D-01  6.29D-01  2.84D-01  8.13D-01
 E= -845.364553115311     Delta-E=       -0.021230703737 Rises=F Damp=F
 DIIS: error= 2.18D-04 at cycle   6 NSaved=   6.
 NSaved= 6 IEnMin= 6 EnMin= -845.364553115311     IErMin= 6 ErrMin= 2.18D-04
 ErrMax= 2.18D-04  0.00D+00 EMaxC= 1.00D-01 BMatC= 3.65D-05 BMatP= 2.37D-02
 IDIUse=3 WtCom= 9.98D-01 WtEn= 2.18D-03
 Coeff-Com: -0.242D-02 0.842D-02 0.111D+00-0.593D-01 0.387D+00 0.554D+00
 Coeff-En:   0.000D+00 0.000D+00 0.000D+00 0.000D+00 0.000D+00 0.100D+01
 Coeff:     -0.242D-02 0.840D-02 0.111D+00-0.592D-01 0.387D+00 0.555D+00
 Gap=     0.251 Goal=   None    Shift=    0.000
 RMSDP=2.64D-05 MaxDP=1.06D-03 DE=-2.12D-02 OVMax= 1.28D-03

 Cycle   7  Pass 0  IDiag  1:
 RMSU=  1.27D-05    CP:  9.72D-01  8.53D-01  6.25D-01  2.89D-01  8.46D-01
                    CP:  7.23D-01
 E= -845.364587091689     Delta-E=       -0.000033976378 Rises=F Damp=F
 DIIS: error= 7.76D-05 at cycle   7 NSaved=   7.
 NSaved= 7 IEnMin= 7 EnMin= -845.364587091689     IErMin= 7 ErrMin= 7.76D-05
 ErrMax= 7.76D-05  0.00D+00 EMaxC= 1.00D-01 BMatC= 1.82D-06 BMatP= 3.65D-05
 IDIUse=1 WtCom= 1.00D+00 WtEn= 0.00D+00
 Coeff-Com: -0.722D-03 0.152D-02 0.286D-01-0.176D-01 0.107D+00 0.222D+00
 Coeff-Com:  0.659D+00
 Coeff:     -0.722D-03 0.152D-02 0.286D-01-0.176D-01 0.107D+00 0.222D+00
 Coeff:      0.659D+00
 Gap=     0.251 Goal=   None    Shift=    0.000
 RMSDP=6.26D-06 MaxDP=4.36D-04 DE=-3.40D-05 OVMax= 2.57D-04

 Initial convergence to 1.0D-05 achieved.  Increase integral accuracy.
 Cycle   8  Pass 1  IDiag  1:
 E= -845.364558561121     Delta-E=        0.000028530568 Rises=F Damp=F
 DIIS: error= 9.22D-05 at cycle   1 NSaved=   1.
 NSaved= 1 IEnMin= 1 EnMin= -845.364558561121     IErMin= 1 ErrMin= 9.22D-05
 ErrMax= 9.22D-05  0.00D+00 EMaxC= 1.00D-01 BMatC= 1.37D-06 BMatP= 1.37D-06
 IDIUse=1 WtCom= 1.00D+00 WtEn= 0.00D+00
 Coeff-Com:  0.100D+01
 Coeff:      0.100D+01
 Gap=     0.251 Goal=   None    Shift=    0.000
 RMSDP=6.26D-06 MaxDP=4.36D-04 DE= 2.85D-05 OVMax= 2.42D-04

 Cycle   9  Pass 1  IDiag  1:
 RMSU=  4.87D-05    CP:  1.00D+00
 E= -845.364559220712     Delta-E=       -0.000000659591 Rises=F Damp=F
 DIIS: error= 4.05D-05 at cycle   2 NSaved=   2.
 NSaved= 2 IEnMin= 2 EnMin= -845.364559220712     IErMin= 2 ErrMin= 4.05D-05
 ErrMax= 4.05D-05  0.00D+00 EMaxC= 1.00D-01 BMatC= 1.02D-06 BMatP= 1.37D-06
 IDIUse=1 WtCom= 1.00D+00 WtEn= 0.00D+00
 Coeff-Com:  0.451D+00 0.549D+00
 Coeff:      0.451D+00 0.549D+00
 Gap=     0.251 Goal=   None    Shift=    0.000
 RMSDP=5.35D-06 MaxDP=5.04D-04 DE=-6.60D-07 OVMax= 2.17D-04

 Cycle  10  Pass 1  IDiag  1:
 RMSU=  5.31D-06    CP:  1.00D+00  9.99D-01
 E= -845.364559854940     Delta-E=       -0.000000634228 Rises=F Damp=F
 DIIS: error= 1.70D-05 at cycle   3 NSaved=   3.
 NSaved= 3 IEnMin= 3 EnMin= -845.364559854940     IErMin= 3 ErrMin= 1.70D-05
 ErrMax= 1.70D-05  0.00D+00 EMaxC= 1.00D-01 BMatC= 2.31D-07 BMatP= 1.02D-06
 IDIUse=1 WtCom= 1.00D+00 WtEn= 0.00D+00
 Coeff-Com:  0.447D-02 0.321D+00 0.675D+00
 Coeff:      0.447D-02 0.321D+00 0.675D+00
 Gap=     0.251 Goal=   None    Shift=    0.000
 RMSDP=1.91D-06 MaxDP=1.61D-04 DE=-6.34D-07 OVMax= 8.67D-05

 Cycle  11  Pass 1  IDiag  1:
 RMSU=  6.72D-07    CP:  1.00D+00  1.01D+00  6.79D-01
 E= -845.364560029308     Delta-E=       -0.000000174368 Rises=F Damp=F
 DIIS: error= 4.74D-06 at cycle   4 NSaved=   4.
 NSaved= 4 IEnMin= 4 EnMin= -845.364560029308     IErMin= 4 ErrMin= 4.74D-06
 ErrMax= 4.74D-06  0.00D+00 EMaxC= 1.00D-01 BMatC= 1.46D-08 BMatP= 2.31D-07
 IDIUse=1 WtCom= 1.00D+00 WtEn= 0.00D+00
 Coeff-Com: -0.422D-02 0.202D+00 0.441D+00 0.361D+00
 Coeff:     -0.422D-02 0.202D+00 0.441D+00 0.361D+00
 Gap=     0.251 Goal=   None    Shift=    0.000
 RMSDP=4.43D-07 MaxDP=1.97D-05 DE=-1.74D-07 OVMax= 3.50D-05

 Cycle  12  Pass 1  IDiag  1:
 RMSU=  1.85D-07    CP:  1.00D+00  1.01D+00  7.01D-01  4.28D-01
 E= -845.364560041568     Delta-E=       -0.000000012260 Rises=F Damp=F
 DIIS: error= 1.54D-06 at cycle   5 NSaved=   5.
 NSaved= 5 IEnMin= 5 EnMin= -845.364560041568     IErMin= 5 ErrMin= 1.54D-06
 ErrMax= 1.54D-06  0.00D+00 EMaxC= 1.00D-01 BMatC= 5.51D-10 BMatP= 1.46D-08
 IDIUse=1 WtCom= 1.00D+00 WtEn= 0.00D+00
 Coeff-Com: -0.290D-02 0.109D+00 0.240D+00 0.228D+00 0.426D+00
 Coeff:     -0.290D-02 0.109D+00 0.240D+00 0.228D+00 0.426D+00
 Gap=     0.251 Goal=   None    Shift=    0.000
 RMSDP=9.26D-08 MaxDP=4.20D-06 DE=-1.23D-08 OVMax= 6.14D-06

 Cycle  13  Pass 1  IDiag  1:
 RMSU=  6.27D-08    CP:  1.00D+00  1.01D+00  6.95D-01  4.44D-01  6.76D-01
 E= -845.364560042051     Delta-E=       -0.000000000484 Rises=F Damp=F
 DIIS: error= 6.10D-08 at cycle   6 NSaved=   6.
 NSaved= 6 IEnMin= 6 EnMin= -845.364560042051     IErMin= 6 ErrMin= 6.10D-08
 ErrMax= 6.10D-08  0.00D+00 EMaxC= 1.00D-01 BMatC= 3.55D-12 BMatP= 5.51D-10
 IDIUse=1 WtCom= 1.00D+00 WtEn= 0.00D+00
 Coeff-Com: -0.545D-03 0.185D-01 0.409D-01 0.416D-01 0.115D+00 0.784D+00
 Coeff:     -0.545D-03 0.185D-01 0.409D-01 0.416D-01 0.115D+00 0.784D+00
 Gap=     0.251 Goal=   None    Shift=    0.000
 RMSDP=1.24D-08 MaxDP=3.42D-07 DE=-4.84D-10 OVMax= 4.90D-07

 Cycle  14  Pass 1  IDiag  1:
 RMSU=  1.06D-08    CP:  1.00D+00  1.01D+00  6.95D-01  4.41D-01  7.06D-01
                    CP:  9.95D-01
 E= -845.364560042067     Delta-E=       -0.000000000016 Rises=F Damp=F
 DIIS: error= 4.01D-08 at cycle   7 NSaved=   7.
 NSaved= 7 IEnMin= 7 EnMin= -845.364560042067     IErMin= 7 ErrMin= 4.01D-08
 ErrMax= 4.01D-08  0.00D+00 EMaxC= 1.00D-01 BMatC= 1.43D-12 BMatP= 3.55D-12
 IDIUse=1 WtCom= 1.00D+00 WtEn= 0.00D+00
 Coeff-Com: -0.904D-06-0.112D-02-0.228D-02-0.761D-03 0.187D-01 0.437D+00
 Coeff-Com:  0.548D+00
 Coeff:     -0.904D-06-0.112D-02-0.228D-02-0.761D-03 0.187D-01 0.437D+00
 Coeff:      0.548D+00
 Gap=     0.251 Goal=   None    Shift=    0.000
 RMSDP=6.03D-09 MaxDP=2.08D-07 DE=-1.59D-11 OVMax= 2.76D-07

 SCF Done:  E(RB3LYP) =  -845.364560042     A.U. after   14 cycles
            NFock= 14  Conv=0.60D-08     -V/T= 2.0091
 KE= 8.377038737720D+02 PE=-4.984429147838D+03 EE= 1.790906833008D+03
 Leave Link  502 at Sun Feb 25 09:03:24 2024, MaxMem=  7516192768 cpu:             469.4 elap:              11.8
 (Enter /public/apps/g16-C01//g16/l601.exe)
 Copying SCF densities to generalized density rwf, IOpCl= 0 IROHF=0.

 **********************************************************************

            Population analysis using the SCF Density.

 **********************************************************************

 Alpha  occ. eigenvalues --  -19.16424 -19.16415 -14.29494 -14.29490 -10.27172
 Alpha  occ. eigenvalues --  -10.27168 -10.23300 -10.23296 -10.21717 -10.21025
 Alpha  occ. eigenvalues --  -10.21024 -10.19077 -10.19055 -10.18442 -10.18441
 Alpha  occ. eigenvalues --  -10.16967 -10.16966 -10.15711 -10.15709  -1.08940
 Alpha  occ. eigenvalues --   -1.08129  -0.90891  -0.89888  -0.87349  -0.80345
 Alpha  occ. eigenvalues --   -0.80044  -0.75240  -0.73699  -0.68023  -0.67972
 Alpha  occ. eigenvalues --   -0.65811  -0.63824  -0.63478  -0.60485  -0.59140
 Alpha  occ. eigenvalues --   -0.56878  -0.56251  -0.53577  -0.52585  -0.50432
 Alpha  occ. eigenvalues --   -0.49608  -0.49073  -0.47361  -0.46850  -0.46266
 Alpha  occ. eigenvalues --   -0.44945  -0.43540  -0.43380  -0.42348  -0.42076
 Alpha  occ. eigenvalues --   -0.40718  -0.39499  -0.39003  -0.38716  -0.38671
 Alpha  occ. eigenvalues --   -0.38197  -0.37640  -0.37477  -0.36425  -0.36336
 Alpha  occ. eigenvalues --   -0.34064  -0.34011  -0.33699  -0.33699  -0.32621
 Alpha  occ. eigenvalues --   -0.32454  -0.31950  -0.30163  -0.27038  -0.26702
 Alpha  occ. eigenvalues --   -0.24934  -0.23725
 Alpha virt. eigenvalues --    0.01346   0.01913   0.05600   0.05747   0.07208
 Alpha virt. eigenvalues --    0.07463   0.08026   0.08390   0.08515   0.08691
 Alpha virt. eigenvalues --    0.10642   0.11390   0.11909   0.12187   0.12574
 Alpha virt. eigenvalues --    0.13361   0.13401   0.13738   0.14753   0.15284
 Alpha virt. eigenvalues --    0.16043   0.16090   0.16221   0.16523   0.16966
 Alpha virt. eigenvalues --    0.17329   0.17962   0.18682   0.19198   0.20496
 Alpha virt. eigenvalues --    0.20893   0.21241   0.23309   0.23351   0.24107
 Alpha virt. eigenvalues --    0.24212   0.24331   0.24841   0.26011   0.26403
 Alpha virt. eigenvalues --    0.26869   0.29484   0.31722   0.34374   0.35182
 Alpha virt. eigenvalues --    0.38293   0.39367   0.40041   0.40749   0.40760
 Alpha virt. eigenvalues --    0.42174   0.42471   0.43375   0.43690   0.44845
 Alpha virt. eigenvalues --    0.45312   0.46616   0.48115   0.50840   0.51198
 Alpha virt. eigenvalues --    0.52358   0.52378   0.53289   0.53768   0.55557
 Alpha virt. eigenvalues --    0.55872   0.56146   0.57310   0.59195   0.59212
 Alpha virt. eigenvalues --    0.59523   0.61195   0.61827   0.62956   0.63152
 Alpha virt. eigenvalues --    0.63764   0.64387   0.65143   0.65303   0.65523
 Alpha virt. eigenvalues --    0.65735   0.66924   0.67032   0.67592   0.67925
 Alpha virt. eigenvalues --    0.67982   0.68031   0.68740   0.68751   0.69249
 Alpha virt. eigenvalues --    0.69647   0.70427   0.70437   0.71046   0.71092
 Alpha virt. eigenvalues --    0.71597   0.71969   0.72778   0.73209   0.73366
 Alpha virt. eigenvalues --    0.73505   0.73935   0.74150   0.74559   0.74854
 Alpha virt. eigenvalues --    0.75654   0.76009   0.77265   0.78063   0.78329
 Alpha virt. eigenvalues --    0.78980   0.79443   0.80726   0.81729   0.83080
 Alpha virt. eigenvalues --    0.83719   0.85184   0.87135   0.88934   0.89222
 Alpha virt. eigenvalues --    0.91003   0.92527   0.94884   0.98788   0.99302
 Alpha virt. eigenvalues --    1.00358   1.01298   1.05027   1.06991   1.10109
 Alpha virt. eigenvalues --    1.12378   1.12442   1.12968   1.14476   1.17059
 Alpha virt. eigenvalues --    1.19275   1.21221   1.21556   1.22922   1.25247
 Alpha virt. eigenvalues --    1.32220   1.37328   1.39582   1.41581   1.42142
 Alpha virt. eigenvalues --    1.46044   1.49288   1.54366   1.57012   1.57039
 Alpha virt. eigenvalues --    1.58911   1.59832   1.63984   1.64280   1.65266
 Alpha virt. eigenvalues --    1.67760   1.70600   1.71677   1.72444   1.76892
 Alpha virt. eigenvalues --    1.76908   1.78209   1.79780   1.79791   1.81841
 Alpha virt. eigenvalues --    1.82723   1.83860   1.85253   1.86334   1.86694
 Alpha virt. eigenvalues --    1.89500   1.90094   1.91459   1.93312   1.94264
 Alpha virt. eigenvalues --    1.94367   1.94902   1.96183   1.96850   1.97821
 Alpha virt. eigenvalues --    1.97889   2.00435   2.04470   2.04544   2.05713
 Alpha virt. eigenvalues --    2.05985   2.06477   2.08147   2.09775   2.10728
 Alpha virt. eigenvalues --    2.12248   2.14341   2.15519   2.16379   2.16836
 Alpha virt. eigenvalues --    2.16935   2.18065   2.21605   2.22009   2.23957
 Alpha virt. eigenvalues --    2.25013   2.27610   2.29992   2.32235   2.32672
 Alpha virt. eigenvalues --    2.34066   2.40056   2.42258   2.42384   2.44942
 Alpha virt. eigenvalues --    2.47266   2.48431   2.51633   2.53612   2.54380
 Alpha virt. eigenvalues --    2.55224   2.57638   2.61276   2.65780   2.67266
 Alpha virt. eigenvalues --    2.70150   2.72582   2.74017   2.74240   2.77872
 Alpha virt. eigenvalues --    2.77914   2.88098   2.88599   2.90035   2.91696
 Alpha virt. eigenvalues --    2.97101   2.99230   3.00398   3.00811   3.12951
 Alpha virt. eigenvalues --    3.14273   3.27159   3.27387   3.39094   3.40604
 Alpha virt. eigenvalues --    3.59234   3.62164
          Condensed to atoms (all electrons):
               1          2          3          4          5          6
     1  C    4.824273   0.422652  -0.052866  -0.057390   0.010780  -0.000164
     2  C    0.422652   4.882436   0.401593   0.354640  -0.044198   0.000968
     3  C   -0.052866   0.401593   4.847433  -0.053186  -0.002562   0.000108
     4  C   -0.057390   0.354640  -0.053186   4.925497   0.341088  -0.063632
     5  C    0.010780  -0.044198  -0.002562   0.341088   4.753405   0.333294
     6  O   -0.000164   0.000968   0.000108  -0.063632   0.333294   7.880671
     7  C   -0.001934   0.002949  -0.000240  -0.079951  -0.110159   0.395412
     8  C    0.000221   0.000454   0.000007   0.022821   0.002051  -0.098114
     9  C    0.000001  -0.000065   0.000000  -0.000529   0.000573   0.012017
    10  N   -0.000000  -0.000000   0.000000  -0.000002   0.000013  -0.000298
    11  C   -0.000000  -0.000000   0.000000  -0.000001   0.000001  -0.000041
    12  C   -0.000000  -0.000000   0.000000  -0.000000  -0.000000  -0.000000
    13  C   -0.000000  -0.000000   0.000000  -0.000000  -0.000000  -0.000000
    14  C    0.000000   0.000000  -0.000000   0.000000   0.000000   0.000000
    15  C   -0.000000  -0.000000   0.000000   0.000001   0.000007   0.000127
    16  O   -0.000000  -0.000000   0.000000  -0.000043   0.000132  -0.005263
    17  C   -0.000022   0.000200  -0.000004  -0.000173  -0.000217  -0.001653
    18  C   -0.000087  -0.000094   0.000002  -0.000549   0.000008   0.003936
    19  N   -0.009028  -0.078783   0.006803   0.389483  -0.054999  -0.100347
    20  H    0.372610  -0.025281  -0.007746  -0.005476   0.000075   0.000002
    21  H    0.368511  -0.017222   0.009123  -0.016722   0.001711   0.000118
    22  H    0.369160  -0.021421  -0.004462   0.008809  -0.000306   0.000007
    23  H   -0.034587   0.327323  -0.030765  -0.016252  -0.012625   0.000045
    24  H   -0.004787  -0.013990   0.367920   0.008298  -0.000115   0.000003
    25  H   -0.008287  -0.021028   0.371429  -0.008221  -0.002025  -0.000008
    26  H    0.009438  -0.021368   0.369370  -0.007561   0.006799  -0.000077
    27  H   -0.010218  -0.032041  -0.007742   0.337885  -0.026523   0.003296
    28  H    0.000648  -0.010339  -0.003163  -0.012025   0.350865  -0.028297
    29  H   -0.000498   0.004662   0.000643   0.002709   0.340119  -0.030083
    30  H    0.000000   0.000000  -0.000000   0.000000   0.000001   0.000001
    31  H    0.000000   0.000000  -0.000000   0.000000   0.000000   0.000000
    32  H    0.000000   0.000000  -0.000000   0.000000   0.000000   0.000000
    33  H    0.000000   0.000000  -0.000000   0.000000  -0.000000   0.000000
    34  H    0.000000   0.000000  -0.000000   0.000000   0.000000  -0.000000
    35  H   -0.000000  -0.000000   0.000000   0.000000  -0.000000  -0.000000
    36  H   -0.000000  -0.000000   0.000000   0.000000   0.000000  -0.000000
    37  H    0.000000   0.000000  -0.000000  -0.000000   0.000000  -0.000000
    38  H    0.000000   0.000000  -0.000000   0.000001  -0.000010   0.000292
    39  H   -0.000000   0.000000  -0.000000  -0.000000   0.000002  -0.000017
    40  H   -0.000022  -0.000045   0.000005  -0.000806   0.000028   0.000051
    41  H   -0.000000  -0.000009   0.000000   0.000032  -0.000001   0.000008
    42  H   -0.000037  -0.000088   0.000002  -0.000373   0.000267   0.000456
    43  H    0.000000   0.000002  -0.000000  -0.000027   0.000016  -0.000051
               7          8          9         10         11         12
     1  C   -0.001934   0.000221   0.000001  -0.000000  -0.000000  -0.000000
     2  C    0.002949   0.000454  -0.000065  -0.000000  -0.000000  -0.000000
     3  C   -0.000240   0.000007   0.000000   0.000000   0.000000   0.000000
     4  C   -0.079951   0.022821  -0.000529  -0.000002  -0.000001  -0.000000
     5  C   -0.110159   0.002051   0.000573   0.000013   0.000001  -0.000000
     6  O    0.395412  -0.098114   0.012017  -0.000298  -0.000041  -0.000000
     7  C    4.979768   0.078633  -0.003093   0.003089  -0.000533  -0.000064
     8  C    0.078633   5.897823   0.078501  -0.128989   0.022773   0.000447
     9  C   -0.003093   0.078501   4.978953   0.635290  -0.079637   0.002958
    10  N    0.003089  -0.128989   0.635290   6.464447   0.389632  -0.078797
    11  C   -0.000533   0.022773  -0.079637   0.389632   4.925331   0.354506
    12  C   -0.000064   0.000447   0.002958  -0.078797   0.354506   4.882514
    13  C    0.000001   0.000224  -0.001931  -0.009161  -0.057361   0.422751
    14  C    0.000000   0.000007  -0.000242   0.006807  -0.053185   0.401524
    15  C    0.000566   0.002053  -0.110287  -0.054939   0.341019  -0.044107
    16  O    0.012198  -0.098426   0.395829  -0.100329  -0.063653   0.000980
    17  C   -0.038114   0.234130   0.015085   0.005029  -0.000544  -0.000091
    18  C    0.015383   0.233039  -0.037616  -0.002539  -0.000176   0.000198
    19  N    0.635419  -0.128287   0.002966  -0.000070  -0.000003  -0.000000
    20  H   -0.000006  -0.000016   0.000000   0.000000   0.000000   0.000000
    21  H    0.001331  -0.000747   0.000009   0.000000   0.000000   0.000000
    22  H    0.000059  -0.000011  -0.000000   0.000000   0.000000   0.000000
    23  H    0.004495  -0.000826   0.000016   0.000000   0.000000   0.000000
    24  H    0.000003  -0.000001  -0.000000  -0.000000   0.000000  -0.000000
    25  H    0.000029  -0.000001   0.000000   0.000000   0.000000   0.000000
    26  H    0.000017  -0.000000   0.000000   0.000000   0.000000  -0.000000
    27  H    0.002652  -0.001336   0.000128   0.000000   0.000000   0.000000
    28  H    0.006864  -0.000632   0.000190   0.000002  -0.000000   0.000000
    29  H    0.008587   0.000748  -0.000410  -0.000002   0.000001   0.000000
    30  H    0.000124  -0.001320   0.002641  -0.030108   0.337981  -0.032097
    31  H    0.000015  -0.000826   0.004503  -0.001248  -0.016218   0.327274
    32  H    0.000000  -0.000016  -0.000006  -0.001015  -0.005462  -0.025345
    33  H   -0.000000  -0.000011   0.000059   0.000269   0.008805  -0.021333
    34  H    0.000009  -0.000752   0.001319   0.028062  -0.016748  -0.017304
    35  H   -0.000000  -0.000001   0.000003  -0.000197   0.008298  -0.014031
    36  H    0.000000  -0.000000   0.000018   0.000139  -0.007559  -0.021304
    37  H    0.000000  -0.000001   0.000029  -0.000069  -0.008223  -0.021038
    38  H   -0.000404   0.000736   0.008554   0.001243   0.002691   0.004660
    39  H    0.000187  -0.000620   0.006897   0.002865  -0.011979  -0.010359
    40  H    0.002605  -0.016073   0.004687   0.000714  -0.000027   0.000002
    41  H    0.002155   0.000426  -0.016925   0.022115  -0.000368  -0.000086
    42  H   -0.016899   0.000382   0.002186   0.000110   0.000032  -0.000009
    43  H    0.004648  -0.015950   0.002655   0.003316  -0.000820  -0.000045
              13         14         15         16         17         18
     1  C   -0.000000   0.000000  -0.000000  -0.000000  -0.000022  -0.000087
     2  C   -0.000000   0.000000  -0.000000  -0.000000   0.000200  -0.000094
     3  C    0.000000  -0.000000   0.000000   0.000000  -0.000004   0.000002
     4  C   -0.000000   0.000000   0.000001  -0.000043  -0.000173  -0.000549
     5  C   -0.000000   0.000000   0.000007   0.000132  -0.000217   0.000008
     6  O   -0.000000   0.000000   0.000127  -0.005263  -0.001653   0.003936
     7  C    0.000001   0.000000   0.000566   0.012198  -0.038114   0.015383
     8  C    0.000224   0.000007   0.002053  -0.098426   0.234130   0.233039
     9  C   -0.001931  -0.000242  -0.110287   0.395829   0.015085  -0.037616
    10  N   -0.009161   0.006807  -0.054939  -0.100329   0.005029  -0.002539
    11  C   -0.057361  -0.053185   0.341019  -0.063653  -0.000544  -0.000176
    12  C    0.422751   0.401524  -0.044107   0.000980  -0.000091   0.000198
    13  C    4.824447  -0.052860   0.010758  -0.000165  -0.000086  -0.000023
    14  C   -0.052860   4.847496  -0.002556   0.000108   0.000002  -0.000004
    15  C    0.010758  -0.002556   4.753518   0.333209   0.000005  -0.000216
    16  O   -0.000165   0.000108   0.333209   7.880324   0.003909  -0.001602
    17  C   -0.000086   0.000002   0.000005   0.003909   4.876951   0.355204
    18  C   -0.000023  -0.000004  -0.000216  -0.001602   0.355204   4.877131
    19  N   -0.000000   0.000000   0.000013  -0.000309  -0.002570   0.005094
    20  H    0.000000  -0.000000   0.000000   0.000000   0.000002   0.000001
    21  H    0.000000  -0.000000   0.000000  -0.000000  -0.000051   0.000110
    22  H    0.000000  -0.000000  -0.000000   0.000000   0.000001   0.000002
    23  H    0.000000  -0.000000   0.000000   0.000000  -0.000057   0.000030
    24  H   -0.000000   0.000000  -0.000000  -0.000000   0.000000  -0.000000
    25  H    0.000000  -0.000000   0.000000  -0.000000  -0.000000   0.000000
    26  H   -0.000000   0.000000   0.000000  -0.000000   0.000000  -0.000000
    27  H    0.000000  -0.000000   0.000001   0.000001  -0.000025   0.000061
    28  H   -0.000000  -0.000000   0.000002  -0.000017   0.000066  -0.000029
    29  H    0.000000  -0.000000  -0.000010   0.000297  -0.000032   0.000029
    30  H   -0.010193  -0.007754  -0.026598   0.003291   0.000060  -0.000025
    31  H   -0.034549  -0.030762  -0.012627   0.000045   0.000030  -0.000056
    32  H    0.372611  -0.007742   0.000073   0.000002   0.000001   0.000002
    33  H    0.369126  -0.004461  -0.000306   0.000007   0.000002   0.000001
    34  H    0.368486   0.009126   0.001722   0.000119   0.000110  -0.000052
    35  H   -0.004795   0.367933  -0.000114   0.000003  -0.000000   0.000000
    36  H    0.009435   0.369332   0.006791  -0.000077  -0.000000   0.000000
    37  H   -0.008279   0.371428  -0.002033  -0.000008   0.000000  -0.000000
    38  H   -0.000498   0.000644   0.340194  -0.030058   0.000030  -0.000033
    39  H    0.000650  -0.003159   0.350817  -0.028298  -0.000030   0.000067
    40  H    0.000000  -0.000000   0.000016  -0.000050   0.346084   0.000142
    41  H   -0.000038   0.000002   0.000267   0.000456   0.342903   0.001033
    42  H   -0.000000   0.000000  -0.000001   0.000007   0.000892   0.343166
    43  H   -0.000023   0.000005   0.000034   0.000057   0.000272   0.345839
              19         20         21         22         23         24
     1  C   -0.009028   0.372610   0.368511   0.369160  -0.034587  -0.004787
     2  C   -0.078783  -0.025281  -0.017222  -0.021421   0.327323  -0.013990
     3  C    0.006803  -0.007746   0.009123  -0.004462  -0.030765   0.367920
     4  C    0.389483  -0.005476  -0.016722   0.008809  -0.016252   0.008298
     5  C   -0.054999   0.000075   0.001711  -0.000306  -0.012625  -0.000115
     6  O   -0.100347   0.000002   0.000118   0.000007   0.000045   0.000003
     7  C    0.635419  -0.000006   0.001331   0.000059   0.004495   0.000003
     8  C   -0.128287  -0.000016  -0.000747  -0.000011  -0.000826  -0.000001
[...]
 0000068,-0.00000228,0.00000414,-0.00000364,0.00000257,0.00000197,0.000
 01858,-0.00001374,0.00000695,0.00000554,-0.00000586,-0.00000494,0.0000
 0052,-0.00000590,-0.00000225,-0.00082208,0.00237232,-0.00120393,-0.000
 58107,0.00074093,0.00066419,0.00016142,-0.00016933,0.00008162,-0.00006
 629,0.00006218,0.00001840,0.00001264,-0.00013525,0.00000112,0.00004279
 ,-0.00029684,0.00022997,-0.00043214,-0.00073985,0.00048581,0.00019399,
 -0.00008580,0.00019007,0.00386900,0.00066686,-0.00942002,-0.10127209,-
 0.00964056,0.28693000,-0.00001535,0.00001257,0.00000264,0.00001609,0.0
 0001597,-0.00001051,-0.00000446,-0.00000056,0.00001140,-0.00010290,-0.
 00006838,0.00002821,0.00002327,-0.00000137,0.00001627,0.00009352,-0.00
 022081,-0.00022078,0.00038682,0.00132903,-0.00052954,0.00246981,0.0021
 0868,-0.00231759,-0.00078632,0.00049837,-0.00082394,-0.00022459,-0.000
 78825,0.00007892,0.00027742,-0.00000767,0.00018663,0.00000733,-0.00000
 580,-0.00002595,0.00002017,0.00003355,0.00000538,-0.00000136,0.0000100
 8,0.00000902,-0.00003237,-0.00003506,0.00006205,0.00010308,0.00011930,
 0.00018329,-0.27957644,-0.06132623,0.10559854,0.00235077,0.00101675,-0
 .00099880,0.00048649,0.00001585,0.00019723,0.00000669,-0.00000762,0.00
 000300,-0.00000849,-0.00001463,-0.00001416,0.00000763,0.00000020,-0.00
 000306,0.00000122,0.00000864,0.00002203,0.00000651,0.00000049,-0.00000
 125,0.00000296,-0.00000521,0.00000008,-0.00000014,-0.00000592,-0.00000
 006,0.00001620,-0.00002140,0.00000654,0.00002947,-0.00001302,-0.000004
 78,-0.00001038,0.00000529,-0.00000965,-0.00000644,0.00000015,-0.000019
 28,0.00000174,0.00000155,-0.00000595,-0.00000420,-0.00001073,-0.000004
 14,-0.00001939,-0.00000531,0.00000650,0.00002574,-0.00001871,0.0000010
 0,-0.00001034,-0.00000024,0.00000234,0.00000195,-0.00000472,0.00000147
 ,-0.00000076,-0.00000216,-0.00000436,0.00001952,-0.00002602,0.00002470
 ,-0.00000013,-0.00001893,0.00001400,0.28599516,-0.00000409,0.00002807,
 0.00001738,0.00006404,0.00001661,0.00015641,-0.00001972,-0.00003861,-0
 .00002779,0.00015200,-0.00023597,0.00006739,-0.00008498,-0.00020137,0.
 00017498,0.00032628,-0.00026589,-0.00006197,-0.00322571,0.00091751,-0.
 00195134,-0.02581313,-0.00879983,0.01220379,0.00335176,-0.00039033,0.0
 0481251,-0.00057712,0.00003689,-0.00061885,0.00004104,0.00023248,0.000
 10467,0.00001103,-0.00013418,-0.00004663,-0.00002978,-0.00001401,0.000
 04053,-0.00003838,0.00004853,0.00002701,0.00037040,-0.00027449,-0.0000
 4413,-0.00179900,-0.00123276,-0.00019767,-0.05636892,-0.05231984,0.031
 48898,0.01463901,0.00121308,-0.00378579,0.00059773,0.00077934,-0.00040
 248,-0.00000763,-0.00000898,-0.00002212,0.00002648,0.00003219,-0.00000
 026,-0.00003079,-0.00000786,0.00000259,-0.00001344,0.00001556,-0.00007
 675,-0.00002658,0.00000853,0.00000942,-0.00001175,0.00001857,-0.000011
 81,0.00000750,-0.00000562,0.00000122,-0.00004688,0.00006551,-0.0000133
 1,0.00000391,-0.00001485,-0.00001632,0.00005220,0.00000964,-0.00000855
 ,-0.00007184,-0.00004938,-0.00001625,-0.00000113,0.00000213,0.00001775
 ,0.00000397,0.00000149,-0.00000467,-0.00001952,0.00001721,-0.00000762,
 0.00000801,-0.00001453,-0.00000404,-0.00002918,-0.00000845,0.00000491,
 0.00001371,0.00000928,-0.00001061,0.00000476,-0.00000123,-0.00000441,-
 0.00017765,-0.00009734,-0.00000214,-0.00007417,-0.00004206,0.00002755,
 0.06331766,0.05766113,-0.00005757,0.00005460,0.00001948,0.00000516,0.0
 0004421,0.00001431,-0.00001549,-0.00000335,-0.00000696,-0.00021953,0.0
 0000556,0.00007247,0.00001834,0.00008503,0.00002661,-0.00048079,-0.000
 00297,-0.00042806,0.00193283,0.00157191,0.00119803,-0.00029587,0.00091
 896,-0.00409474,-0.00121712,-0.00129544,-0.00100050,-0.00032546,-0.000
 46987,0.00031372,0.00021995,-0.00008880,0.00013920,-0.00001133,-0.0000
 0213,-0.00006847,0.00001127,0.00003472,0.00000638,0.00000298,-0.000001
 62,0.00001717,-0.00011395,-0.00013730,0.00007710,-0.00006106,-0.000265
 62,0.00025361,0.09969656,0.03304032,-0.09343200,0.02447727,0.00711103,
 -0.01120219,-0.00030101,-0.00070302,0.00012904,0.00002122,-0.00002656,
 0.00000110,-0.00003208,-0.00002759,-0.00005599,0.00001732,-0.00000733,
 -0.00000478,-0.00000997,0.00002467,0.00001972,0.00000733,0.00000161,0.
 00000010,0.00000139,-0.00000273,0.00000152,0.00000300,-0.00001940,-0.0
 0000674,0.00004505,-0.00004184,0.00000012,0.00000112,-0.00000524,-0.00
 000743,-0.00003502,-0.00000650,-0.00001373,0.00001127,0.00001902,-0.00
 000783,0.00000110,0.00000302,0.00002285,0.00000399,-0.00000279,0.00000
 589,-0.00001224,-0.00000812,0.00000314,0.00001543,-0.00000908,-0.00001
 506,-0.00000199,0.00000109,-0.00000137,-0.00000078,-0.00000513,0.00000
 004,0.00000418,0.00000531,0.00000149,0.00001600,-0.00001659,0.00002210
 ,-0.00000924,-0.00002976,0.00001433,-0.11121543,-0.03546188,0.09967896
 ,0.00001505,-0.00000532,-0.00000756,0.00003805,-0.00002214,0.00002667,
 0.00000673,-0.00000170,-0.00000730,-0.00000319,-0.00001372,-0.00006411
 ,-0.00000553,-0.00000609,-0.00001524,0.00007486,-0.00005362,0.00008530
 ,-0.00115220,0.00013651,-0.00012647,0.00189023,-0.00078805,0.00174329,
 -0.00006412,-0.00111404,-0.00040588,-0.00086968,-0.00132213,0.00138959
 ,-0.00015957,-0.00005784,-0.00019528,0.00003625,-0.00000965,0.00003999
 ,-0.00003860,-0.00011797,-0.00000623,-0.00001323,0.00000504,-0.0000191
 9,-0.00010154,-0.00003727,-0.00000791,-0.00009326,0.00061135,-0.000573
 05,-0.25444781,0.05407799,-0.12710575,0.00607569,-0.00153354,0.0033178
 6,0.00074345,0.00032590,-0.00000728,-0.00000879,0.00000822,-0.00000410
 ,0.00000655,0.00000730,0.00001747,-0.00000428,0.00000002,0.00000182,-0
 .00000197,-0.00000747,-0.00001980,-0.00000297,-0.00000052,0.00000106,-
 0.00000221,0.00000452,-0.00000070,-0.00000061,0.00000608,0.00000164,-0
 .00000950,0.00002052,0.00001147,0.00000164,-0.00000093,0.00000141,0.00
 000687,-0.00000045,0.00000312,0.00000967,-0.00001552,0.00002204,-0.000
 00009,0.00000258,-0.00000080,0.00000891,0.00001568,0.00000299,0.000036
 05,0.00002006,-0.00001470,-0.00012592,0.00009829,0.00002958,0.00000965
 ,-0.00000383,-0.00000053,0.00000203,0.00001194,-0.00000341,0.00000061,
 0.00000071,0.00000502,-0.00001846,0.00002012,-0.00000948,0.00001019,-0
 .00002370,0.00001344,-0.01287813,0.00577272,-0.01195318,0.25998714,0.0
 0001684,-0.00002546,-0.00005930,0.00004883,-0.00038569,0.00003820,0.00
 011529,0.00012826,-0.00004944,0.00015319,0.00077704,-0.00037853,0.0000
 3816,0.00011966,-0.00004161,0.00015480,-0.00037001,-0.00023324,-0.0031
 6634,-0.00028123,0.00462323,0.02489398,-0.00968990,0.01582753,0.002561
 08,0.00030099,-0.00082747,0.00036972,0.00009771,0.00005428,-0.00089735
 ,0.00009853,-0.00051882,-0.00007163,0.00004649,0.00005363,0.00004068,-
 0.00005797,-0.00003684,0.00003483,-0.00005258,-0.00001787,-0.00001246,
 0.00024992,-0.00017523,0.00023784,0.00136811,-0.00080514,0.04910823,-0
 .04965425,0.03527551,-0.01404633,0.00101441,-0.00540908,0.00135980,-0.
 00065368,0.00032485,-0.00000738,-0.00000103,0.00000825,-0.00002471,-0.
 00003612,0.00000896,0.00003607,0.00002004,0.00000411,-0.00000698,0.000
 01260,-0.00003283,0.00006475,-0.00003325,-0.00000890,-0.00000467,-0.00
 000563,0.00000646,-0.00001780,0.00000013,0.00000376,0.00004607,-0.0001
 0591,0.00000842,0.00005607,-0.00003139,-0.00001801,0.00000863,-0.00003
 668,-0.00000253,0.00000188,0.00000322,0.00004701,0.00000896,-0.0000079
 9,-0.00001838,-0.00002260,-0.00000716,0.00000105,0.00005610,-0.0000051
 8,-0.00001342,-0.00010892,0.00011055,0.00004258,0.00003974,0.00000390,
 -0.00001178,-0.00001587,-0.00000314,0.00000578,-0.00000814,0.00000212,
 0.00000570,0.00000191,0.00006527,-0.00003069,0.00001360,0.00005300,-0.
 00006723,-0.00557429,0.00204925,-0.00559254,-0.05604730,0.05401742,-0.
 00001167,-0.00000925,0.00000739,-0.00001843,0.00003394,-0.00005302,-0.
 00000355,-0.00000039,0.00001392,-0.00003108,0.00004838,0.00016454,0.00
 001318,0.00005776,-0.00005845,0.00005428,0.00004400,-0.00009635,0.0003
 7715,-0.00092394,-0.00027620,0.00054943,0.00077687,-0.00355386,-0.0020
 6516,0.00146071,-0.00030518,-0.00030809,-0.00106480,-0.00025612,0.0003
 7807,-0.00026796,0.00000951,0.00003067,0.00006055,-0.00002156,0.000055
 40,0.00007230,-0.00001754,0.00001981,-0.00000622,0.00000303,-0.0000917
 2,-0.00008585,0.00001350,0.00021659,-0.00019460,0.00036298,-0.12085568
 ,0.03818403,-0.12467496,-0.02174634,0.00643880,-0.01287217,-0.00038982
 ,0.00005210,0.00029689,0.00001397,-0.00001134,0.00000828,0.00000152,-0
 .00000177,-0.00002804,-0.00000301,0.00000325,0.00000111,0.00000373,0.0
 0000494,0.00002866,0.00000261,0.00000084,-0.00000065,0.00000516,-0.000
 00711,0.00000206,0.00000054,-0.00000327,-0.00000148,0.00003494,-0.0000
 4650,-0.00001085,0.00002049,-0.00000145,0.00000924,-0.00000807,-0.0000
 0151,0.00000348,-0.00003354,-0.00003291,-0.00000219,-0.00000700,0.0000
 0805,-0.00001779,-0.00003063,-0.00003272,-0.00000908,-0.00001115,-0.00
 000477,-0.00000347,0.00007613,-0.00002956,0.00005254,-0.00000149,0.000
 00428,0.00000174,-0.00000241,-0.00001008,0.00000271,-0.00000277,-0.000
 00451,-0.00000353,0.00002868,-0.00002475,0.00002417,0.00001260,-0.0000
 1124,0.00001011,0.01037158,-0.00505840,0.00977942,0.13243927,-0.040702
 81,0.13271110,-0.00003854,0.00011788,-0.00000626,0.00003628,0.00000952
 ,0.00004001,-0.00001318,-0.00000497,-0.00001920,-0.00016051,0.00005797
 ,-0.00019547,-0.00010137,0.00003715,-0.00000782,-0.00009419,-0.0006118
 6,-0.00057338,-0.00006187,0.00111435,-0.00040411,0.00189438,0.00078822
 ,0.00174690,-0.00115118,-0.00013648,-0.00012560,0.00074360,-0.00032494
 ,-0.00000716,-0.00000322,0.00001366,-0.00006412,0.00003805,0.00002221,
 0.00002683,0.00001501,0.00000527,-0.00000755,0.00000674,0.00000168,-0.
 00000733,-0.00000554,0.00000610,-0.00001519,0.00007477,0.00005401,0.00
 008526,0.00607180,0.00152847,0.00331785,-0.25443277,-0.05392086,-0.127
 18152,-0.00086942,0.00132012,0.00139100,0.00000880,-0.00001559,0.00000
 296,-0.00012576,-0.00009837,0.00002995,0.00003607,-0.00002003,-0.00001
 476,-0.00000011,-0.00000258,-0.00000085,0.00000968,0.00000383,-0.00000
 055,0.00000060,-0.00000070,0.00000502,0.00000201,-0.00001193,-0.000003
 41,0.00000967,0.00001554,0.00002205,0.00001008,0.00002370,0.00001341,-
 0.00001847,-0.00002016,-0.00000950,-0.00000945,-0.00002048,0.00001146,
 -0.00000196,0.00000745,-0.00001982,-0.00000877,-0.00000820,-0.00000412
 ,-0.00000425,-0.00000001,0.00000181,0.00000650,-0.00000728,0.00001745,
 -0.00000295,0.00000053,0.00000106,-0.00000061,-0.00000607,0.00000163,-
 0.00000221,-0.00000453,-0.00000071,0.00000687,0.00000049,0.00000310,0.
 00000164,0.00000097,0.00000139,0.00079155,-0.00050948,0.00016352,0.000
 25021,0.00046998,0.00123112,0.25997023,-0.00004077,-0.00005769,0.00003
 683,0.00007147,0.00004681,-0.00005352,-0.00003489,-0.00005265,0.000017
 85,0.00089655,0.00009742,0.00051861,0.00001242,0.00024972,0.00017516,-
 0.00023766,0.00136659,0.00080472,-0.00256162,0.00030051,0.00082960,-0.
 02488972,-0.00967394,-0.01583637,0.00316603,-0.00027538,-0.00462404,-0
 .00135910,-0.00065420,-0.00032697,-0.00015408,0.00077707,0.00037929,-0
 .00004865,-0.00038569,-0.00003828,-0.00001684,-0.00002546,0.00005923,-
 0.00011537,0.00012820,0.00004936,-0.00003817,0.00011962,0.00004140,-0.
 00015419,-0.00036997,0.00023321,0.01408149,0.00101950,0.00543172,-0.04
 896097,-0.04955944,-0.03518119,-0.00036962,0.00009607,-0.00005114,0.00
 002264,-0.00000718,-0.00000105,0.00010838,0.00011036,-0.00004262,-0.00
 005600,-0.00000525,0.00001345,-0.00000894,-0.00000800,0.00001839,-0.00
 003972,0.00000391,0.00001182,0.00000814,0.00000212,-0.00000570,0.00001
 588,-0.00000316,-0.00000581,-0.00000180,0.00000318,-0.00004706,-0.0000
 1349,0.00005296,0.00006726,-0.00000198,0.00006512,0.00003060,-0.000045
 95,-0.00010583,-0.00000852,0.00000694,0.00001260,0.00003279,0.00000737
 ,-0.00000105,-0.00000825,-0.00003606,0.00002002,-0.00000412,0.00002472
 ,-0.00003610,-0.00000889,-0.00006474,-0.00003328,0.00000884,0.00001780
 ,0.00000013,-0.00000374,0.00000468,-0.00000564,-0.00000646,-0.00000861
 ,-0.00003672,0.00000256,-0.00005609,-0.00003135,0.00001798,-0.00009466
 ,-0.00043941,-0.00180440,-0.00047241,0.00134443,0.00309729,0.05588189,
 0.05391830,0.00005537,-0.00007252,-0.00001744,0.00003069,-0.00006038,-
 0.00002191,0.00001977,0.00000615,0.00000314,0.00037988,0.00026842,0.00
 001097,-0.00009182,0.00008637,0.00001390,0.00021683,0.00019678,0.00036
 454,-0.00206903,-0.00146071,-0.00030557,0.00051083,-0.00078511,-0.0035
 7959,0.00038146,0.00092428,-0.00028203,-0.00039247,-0.00005465,0.00029
 540,-0.00003106,-0.00004757,0.00016497,-0.00001846,-0.00003444,-0.0000
 5322,-0.00001163,0.00000930,0.00000746,-0.00000370,0.00000055,0.000014
 02,0.00001310,-0.00005769,-0.00005834,0.00005371,-0.00004496,-0.000095
 63,-0.02172409,-0.00642138,-0.01287374,-0.12092059,-0.03808809,-0.1247
 8280,-0.00031084,0.00106551,-0.00025471,-0.00003058,0.00003268,-0.0000
 0903,0.00007644,0.00002984,0.00005211,-0.00001132,0.00000481,-0.000003
 42,-0.00000698,-0.00000806,-0.00001766,-0.00000157,-0.00000428,0.00000
 175,-0.00000275,0.00000449,-0.00000354,-0.00000239,0.00001010,0.000002
 71,-0.00003349,0.00003280,-0.00000223,0.00001266,0.00001138,0.00001027
 ,0.00002871,0.00002486,0.00002421,0.00003482,0.00004635,-0.00001082,0.
 00000372,-0.00000491,0.00002874,0.00001396,0.00001131,0.00000830,-0.00
 000309,-0.00000324,0.00000110,0.00000161,0.00000171,-0.00002802,0.0000
 0252,-0.00000088,-0.00000064,0.00000056,0.00000326,-0.00000149,0.00000
 517,0.00000711,0.00000205,-0.00000808,0.00000142,0.00000351,0.00002037
 ,0.00000135,0.00000931,-0.00031634,0.00180755,0.00204607,0.00123088,-0
 .00308987,-0.00329059,0.13251632,0.04060203,0.13283207,0.00002018,-0.0
 0003355,0.00000538,0.00000728,0.00000590,-0.00002601,-0.00000136,-0.00
 001011,0.00000905,0.00027771,0.00000752,0.00018695,-0.00003251,0.00003
 513,0.00006221,0.00010285,-0.00011899,0.00018328,-0.00078713,-0.000497
 02,-0.00082451,0.00246756,-0.00210338,-0.00231972,0.00038613,-0.001328
 45,-0.00052994,0.00048590,-0.00001585,0.00019629,-0.00010282,0.0000683
 0,0.00002833,0.00001611,-0.00001595,-0.00001062,-0.00001525,-0.0000124
 7,0.00000260,-0.00000446,0.00000055,0.00001144,0.00002308,0.00000159,0
 .00001647,0.00009397,0.00022135,-0.00022095,0.00235380,-0.00101558,-0.
 00100170,-0.27959033,0.06111412,0.10570022,-0.00022522,0.00078856,0.00
 008027,-0.00000418,0.00001071,-0.00000413,0.00002571,0.00001874,0.0000
 0093,-0.00001940,0.00000531,0.00000652,0.00000173,-0.00000154,-0.00000
 592,-0.00001035,0.00000024,0.00000235,-0.00000076,0.00000215,-0.000004
 37,0.00000196,0.00000472,0.00000147,-0.00000642,-0.00000022,-0.0000193
 1,-0.00000013,0.00001899,0.00001403,0.00001952,0.00002603,0.00002469,0
 .00001619,0.00002141,0.00000656,0.00000142,-0.00000856,0.00002195,0.00
 000666,0.00000759,0.00000301,0.00000761,-0.00000020,-0.00000305,-0.000
 00838,0.00001456,-0.00001404,0.00000650,-0.00000049,-0.00000124,-0.000
 00014,0.00000591,-0.00000006,0.00000297,0.00000522,0.00000009,-0.00001
 032,-0.00000526,-0.00000965,0.00002953,0.00001305,-0.00000473,0.000541
 05,0.00021665,-0.00030717,0.00079185,0.00009573,-0.00031530,-0.0128781
 8,0.00555572,0.01038090,0.28601008,0.00002973,-0.00001397,-0.00004058,
 -0.00001092,-0.00013441,0.00004661,0.00003838,0.00004863,-0.00002706,-
 0.00004157,0.00023305,-0.00010483,-0.00037004,-0.00027456,0.00004423,0
 .00179812,-0.00123233,0.00019568,-0.00335073,-0.00038529,-0.00481118,0
 .02581794,-0.00877369,-0.01221250,0.00321903,0.00091862,0.00194987,-0.
 00059714,0.00077613,0.00040271,-0.00015111,-0.00023619,-0.00006809,-0.
 00006389,0.00001686,-0.00015630,0.00000420,0.00002817,-0.00001737,0.00
 001975,-0.00003862,0.00002773,0.00008453,-0.00020146,-0.00017491,-0.00
 032561,-0.00026616,0.00006349,-0.01467730,0.00121497,0.00380419,0.0561
 6961,-0.05219638,-0.03140678,0.00057834,0.00003512,0.00061957,-0.00000
 397,0.00000149,0.00000467,-0.00000805,-0.00001457,0.00000405,0.0000195
 5,0.00001721,0.00000760,0.00000111,0.00000213,-0.00001779,0.00002921,-
 0.00000846,-0.00000495,-0.00000476,-0.00000123,0.00000441,-0.00001371,
 0.00000925,0.00001061,0.00007194,-0.00004944,0.00001619,0.00007414,-0.
 00004207,-0.00002761,0.00017759,-0.00009733,0.00000201,0.00004675,0.00
 006537,0.00001338,0.00001344,0.00001565,0.00007654,0.00000757,-0.00000
 902,0.00002210,0.00003077,-0.00000787,-0.00000256,-0.00002639,0.000032
 07,0.00000040,0.00002659,0.00000854,-0.00000938,-0.00000751,-0.0000056
 7,-0.00000121,0.00001172,0.00001854,0.00001183,-0.00005208,0.00000967,
 0.00000857,-0.00000393,-0.00001492,0.00001637,-0.00021641,0.00143404,0
 .00311655,0.00050967,-0.00043880,-0.00181039,-0.00575645,0.00203276,0.
 00504833,-0.06309812,0.05752418,0.00001127,-0.00003472,0.00000634,-0.0
 0001143,0.00000201,-0.00006845,0.00000304,0.00000168,0.00001714,0.0002
 1996,0.00008907,0.00013933,-0.00011438,0.00013691,0.00007724,-0.000058
 55,0.00026401,0.00025350,-0.00122255,0.00129595,-0.00100480,-0.0002551
 9,-0.00092652,-0.00411556,0.00193720,-0.00157126,0.00119869,-0.0003031
 5,0.00070382,0.00013024,-0.00021930,-0.00000632,0.00007235,0.00000497,
 -0.00004426,0.00001360,-0.00005740,-0.00005432,0.00001936,-0.00001544,
 0.00000328,-0.00000678,0.00001846,-0.00008537,0.00002642,-0.00048104,0
 .00000202,-0.00042773,0.02445516,-0.00708714,-0.01120746,0.09979303,-0
 .03295904,-0.09353490,-0.00032512,0.00046930,0.00031611,0.00000403,0.0
 0000275,0.00000591,0.00001536,0.00000907,-0.00001515,-0.00001222,0.000
 00814,0.00000317,0.00000112,-0.00000300,0.00002287,-0.00000195,-0.0000
 0110,-0.00000137,0.00000418,-0.00000532,0.00000150,-0.00000079,0.00000
 513,0.00000005,0.00001142,-0.00001917,-0.00000786,-0.00000908,0.000029
 70,0.00001432,0.00001623,0.00001645,0.00002207,0.00004511,0.00004202,0
 .00000017,-0.00001000,-0.00002472,0.00002003,0.00002122,0.00002655,0.0
 0000121,0.00001726,0.00000729,-0.00000477,-0.00003183,0.00002754,-0.00
 005591,0.00000735,-0.00000159,0.00000008,0.00000299,0.00001939,-0.0000
 0674,0.00000143,0.00000280,0.00000155,-0.00003509,0.00000648,-0.000013
 72,0.00000114,0.00000517,-0.00000734,-0.00030726,-0.00310884,-0.003518
 11,0.00016405,0.00180224,0.00204671,-0.01196165,0.00557811,0.00979583,
 -0.11132257,0.03537579,0.09979087\\-0.00000173,-0.00000420,-0.00000234
 ,-0.00000298,0.00000002,0.00000622,-0.00000285,0.00000167,0.00000051,-
 0.00000245,0.00000173,-0.00000361,0.00000768,0.00000022,0.00000288,-0.
 00000706,0.00000693,0.00000216,0.00000754,-0.00001374,-0.00000572,-0.0
 0000043,0.00001231,0.00000273,-0.00000651,-0.00001549,0.00000608,-0.00
 000085,0.00000616,-0.00000055,0.00000367,0.00000196,0.00000199,0.00000
 274,0.00000054,-0.00000578,0.00000157,-0.00000395,0.00000238,0.0000030
 0,0.00000191,-0.00000043,-0.00000926,0.00000003,-0.00000213,0.00000776
 ,0.00000725,-0.00000334,-0.00000802,-0.00000451,-0.00000539,0.00000851
 ,-0.00000347,0.00000225,0.00000004,0.00000523,0.00000256,0.00000081,-0
 .00000077,0.00000209,-0.00000215,0.00000110,-0.00000014,0.00000060,-0.
 00000052,-0.00000053,0.00000065,0.00000167,-0.00000133,0.00000036,0.00
 000066,-0.00000038,0.00000005,-0.00000053,0.00000229,-0.00000018,-0.00
 000088,-0.00000047,0.00000063,-0.00000107,0.00000230,0.00000030,0.0000
 0021,-0.00000075,-0.00000026,-0.00000034,-0.00000075,-0.00000117,-0.00
 000116,-0.00000167,-0.00000080,0.00000166,0.00000138,-0.00000069,-0.00
 000068,-0.00000214,-0.00000068,-0.00000063,0.00000053,0.00000186,0.000
 00096,0.00000007,-0.00000031,0.00000067,0.00000047,0.00000043,-0.00000
 107,0.00000052,0.,-0.00000045,-0.00000224,0.00000055,-0.00000027,-0.00
 000007,-0.00000008,-0.00000049,0.00000043,0.00000248,-0.00000094,0.000
 00290,0.00000110,0.00000165,-0.00000033,-0.00000136,0.00000182,0.00000
 074,-0.00000251,-0.00000122,-0.00000338\\\@
 The archive entry for this job was punched.


 ROSE IS A RED
 TY COBB IS BLUE
 'CAUSE PETE JUST HIT
 NO. 4592.
 Job cpu time:       0 days  1 hours 16 minutes 56.7 seconds.
 Elapsed time:       0 days  0 hours  1 minutes 57.6 seconds.
 File lengths (MBytes):  RWF=    505 Int=      0 D2E=      0 Chk=     10 Scr=      1
 Normal termination of Gaussian 16 at Sun Feb 25 09:09:10 2024.
