 Entering Gaussian System, Link 0=g16
 Initial command:
 /public/apps/g16-C01//g16/l1.exe "/public/home/ljq/tmp/Gau-104171.inp" -scrdir="/public/home/ljq/tmp/"
 Entering Link 1 = /public/apps/g16-C01//g16/l1.exe PID=    104172.
  
 Copyright (c) 1988-2019, Gaussian, Inc.  All Rights Reserved.
  
 This is part of the Gaussian(R) 16 program.  It is based on
 the Gaussian(R) 09 system (copyright 2009, Gaussian, Inc.),
 the Gaussian(R) 03 system (copyright 2003, Gaussian, Inc.),
 the Gaussian(R) 98 system (copyright 1998, Gaussian, Inc.),
 the Gaussian(R) 94 system (copyright 1995, Gaussian, Inc.),
 the Gaussian 92(TM) system (copyright 1992, Gaussian, Inc.),
 the Gaussian 90(TM) system (copyright 1990, Gaussian, Inc.),
 the Gaussian 88(TM) system (copyright 1988, Gaussian, Inc.),
 the Gaussian 86(TM) system (copyright 1986, Carnegie Mellon
 University), and the Gaussian 82(TM) system (copyright 1983,
 Carnegie Mellon University). Gaussian is a federally registered
 trademark of Gaussian, Inc.
  
 This software contains proprietary and confidential information,
 including trade secrets, belonging to Gaussian, Inc.
  
 This software is provided under written license and may be
 used, copied, transmitted, or stored only in accord with that
 written license.
  
 The following legend is applicable only to US Government
 contracts under FAR:
  
                    RESTRICTED RIGHTS LEGEND
  
 Use, reproduction and disclosure by the US Government is
 subject to restrictions as set forth in subparagraphs (a)
 and (c) of the Commercial Computer Software - Restricted
 Rights clause in FAR 52.227-19.
  
 Gaussian, Inc.
 340 Quinnipiac St., Bldg. 40, Wallingford CT 06492
  
  
 ---------------------------------------------------------------
 Warning -- This program may not be used in any manner that
 competes with the business of Gaussian, Inc. or will provide
 assistance to any competitor of Gaussian, Inc.  The licensee
 of this program is prohibited from giving any competitor of
 Gaussian, Inc. access to this program.  By using this program,
 the user acknowledges that Gaussian, Inc. is engaged in the
 business of creating and licensing software in the field of
 computational chemistry and represents and warrants to the
 licensee that it is not a competitor of Gaussian, Inc. and that
 it will not use this program in any manner prohibited above.
 ---------------------------------------------------------------
  

 Cite this work as:
 Gaussian 16, Revision C.01,
 M. J. Frisch, G. W. Trucks, H. B. Schlegel, G. E. Scuseria, 
 M. A. Robb, J. R. Cheeseman, G. Scalmani, V. Barone, 
 G. A. Petersson, H. Nakatsuji, X. Li, M. Caricato, A. V. Marenich, 
 J. Bloino, B. G. Janesko, R. Gomperts, B. Mennucci, H. P. Hratchian, 
 J. V. Ortiz, A. F. Izmaylov, J. L. Sonnenberg, D. Williams-Young, 
 F. Ding, F. Lipparini, F. Egidi, J. Goings, B. Peng, A. Petrone, 
 T. Henderson, D. Ranasinghe, V. G. Zakrzewski, J. Gao, N. Rega, 
 G. Zheng, W. Liang, M. Hada, M. Ehara, K. Toyota, R. Fukuda, 
 J. Hasegawa, M. Ishida, T. Nakajima, Y. Honda, O. Kitao, H. Nakai, 
 T. Vreven, K. Throssell, J. A. Montgomery, Jr., J. E. Peralta, 
 F. Ogliaro, M. J. Bearpark, J. J. Heyd, E. N. Brothers, K. N. Kudin, 
 V. N. Staroverov, T. A. Keith, R. Kobayashi, J. Normand, 
 K. Raghavachari, A. P. Rendell, J. C. Burant, S. S. Iyengar, 
 J. Tomasi, M. Cossi, J. M. Millam, M. Klene, C. Adamo, R. Cammi, 
 J. W. Ochterski, R. L. Martin, K. Morokuma, O. Farkas, 
 J. B. Foresman, and D. J. Fox, Gaussian, Inc., Wallingford CT, 2019.
 
 ******************************************
 Gaussian 16:  ES64L-G16RevC.01  3-Jul-2019
                25-Feb-2024 
 ******************************************
 %nproc=40
 Will use up to   40 processors via shared memory.
 %mem=56GB
 ------------------------------------------
 #p opt freq b3lyp/def2svpp em=gd3bj nosymm
 ------------------------------------------
 1/18=20,19=15,26=3,38=1/1,3;
 2/9=110,12=2,15=1,17=6,18=5,40=1/2;
 3/5=43,7=202,11=2,25=1,30=1,71=1,74=-5,124=41/1,2,3;
 4//1;
 5/5=2,38=5/2;
 6/7=2,8=2,9=2,10=2,28=1/1;
 7/30=1/1,2,3,16;
 1/18=20,19=15,26=3/3(2);
 2/9=110,15=1/2;
 99//99;
 2/9=110,15=1/2;
 3/5=43,7=202,11=2,25=1,30=1,71=1,74=-5,124=41/1,2,3;
 4/5=5,16=3,69=1/1;
 5/5=2,38=5/2;
 7/30=1/1,2,3,16;
 1/18=20,19=15,26=3/3(-5);
 2/9=110,15=1/2;
 6/7=2,8=2,9=2,10=2,19=2,28=1/1;
 99/9=1/99;
 Leave Link    1 at Sun Feb 25 07:09:03 2024, MaxMem=  7516192768 cpu:               1.0 elap:               0.0
 (Enter /public/apps/g16-C01//g16/l101.exe)
 ----------------------
 $$$$Singlemol####0????
 ----------------------
 Symbolic Z-matrix:
 Charge =  0 Multiplicity = 1
 C                     4.85352  -0.75803  -0.24254 
 C                     3.80221   0.29742  -0.56078 
 C                     2.47113   0.0632    0.17945 
 C                     2.64312   0.11276   1.70842 
 C                     1.32354   0.21148   2.46671 
 C                     1.50059   1.1309   -0.23247 
 N                     0.40911   0.91338  -0.82794 
 C                    -0.29776   2.16943  -0.92214 
 C                    -1.4419    2.18098   0.0535 
 C                    -2.52742   1.32874   0.08309 
 C                    -3.43891   1.45552   1.11998 
 C                    -3.25961   2.41539   2.10293 
 C                    -2.16018   3.26066   2.07577 
 C                    -1.24572   3.13277   1.04768 
 C                     0.01766   3.91447   0.8299 
 C                     0.70806   3.21599  -0.35349 
 O                     1.8092    2.41415   0.0713 
 C                     1.82966  -1.21507  -0.27338 
 N                     1.24923  -2.05425   0.47026 
 C                     0.58028  -3.01244  -0.38346 
 C                    -0.90948  -2.83154  -0.30035 
 C                    -1.72815  -3.06404   0.78664 
 C                    -3.08128  -2.78338   0.6717 
 C                    -3.59753  -2.27983  -0.51093 
 C                    -2.76962  -2.03918  -1.59754 
 C                    -1.41962  -2.31195  -1.4838 
 C                    -0.35058  -2.1051   -2.51311 
 C                     0.95272  -2.55196  -1.82655 
 O                     1.82091  -1.44528  -1.60599 
 H                     5.16066  -0.70704   0.79857 
 H                     4.46309  -1.75343  -0.4403 
 H                     5.73195  -0.60318  -0.86511 
 H                     4.17378   1.28901  -0.29431 
 H                     3.59586   0.28599  -1.63307 
 H                     3.26826   0.9758    1.94874 
 H                     3.15735  -0.7955    2.02142 
 H                     0.68461  -0.62511   2.20132 
 H                     0.7992    1.13513   2.23449 
 H                     1.51326   0.18789   3.53778 
 H                    -0.61628   2.34899  -1.95238 
 H                    -2.64752   0.57018  -0.67427 
 H                    -4.29127   0.79427   1.16394 
 H                    -3.97767   2.50187   2.90516 
 H                    -2.01554   3.99981   2.85017 
 H                     0.66596   3.89778   1.70779 
 H                    -0.20128   4.95716   0.59075 
 H                     1.08143   3.92742  -1.09619 
 H                     0.8957   -4.02772  -0.12436 
 H                    -1.31669  -3.44899   1.70699 
 H                    -3.73762  -2.95743   1.51166 
 H                    -4.65416  -2.06689  -0.58723 
 H                    -3.17289  -1.64021  -2.51745 
 H                    -0.26782  -1.04798  -2.77272 
 H                    -0.54526  -2.67517  -3.42309 
 H                     1.49876  -3.29948  -2.4085 
 
 ITRead=  0  0  0  0  0  0  0  0  0  0  0  0  0  0  0  0  0  0  0  0
 ITRead=  0  0  0  0  0  0  0  0  0  0  0  0  0  0  0  0  0  0  0  0
 ITRead=  0  0  0  0  0  0  0  0  0  0  0  0  0  0  0
 MicOpt= -1 -1 -1 -1 -1 -1 -1 -1 -1 -1 -1 -1 -1 -1 -1 -1 -1 -1 -1 -1
 MicOpt= -1 -1 -1 -1 -1 -1 -1 -1 -1 -1 -1 -1 -1 -1 -1 -1 -1 -1 -1 -1
 MicOpt= -1 -1 -1 -1 -1 -1 -1 -1 -1 -1 -1 -1 -1 -1 -1
 NAtoms=     55 NQM=       55 NQMF=       0 NMMI=      0 NMMIF=      0
                NMic=       0 NMicF=      0.
                    Isotopes and Nuclear Properties:
 (Nuclear quadrupole moments (NQMom) in fm**2, nuclear magnetic moments (NMagM)
  in nuclear magnetons)

  Atom         1           2           3           4           5           6           7           8           9          10
 IAtWgt=          12          12          12          12          12          12          14          12          12          12
 AtmWgt=  12.0000000  12.0000000  12.0000000  12.0000000  12.0000000  12.0000000  14.0030740  12.0000000  12.0000000  12.0000000
 NucSpn=           0           0           0           0           0           0           2           0           0           0
 AtZEff=  -0.0000000  -0.0000000  -0.0000000  -0.0000000  -0.0000000  -0.0000000  -0.0000000  -0.0000000  -0.0000000  -0.0000000
 NQMom=    0.0000000   0.0000000   0.0000000   0.0000000   0.0000000   0.0000000   2.0440000   0.0000000   0.0000000   0.0000000
 NMagM=    0.0000000   0.0000000   0.0000000   0.0000000   0.0000000   0.0000000   0.4037610   0.0000000   0.0000000   0.0000000
 AtZNuc=   6.0000000   6.0000000   6.0000000   6.0000000   6.0000000   6.0000000   7.0000000   6.0000000   6.0000000   6.0000000

  Atom        11          12          13          14          15          16          17          18          19          20
 IAtWgt=          12          12          12          12          12          12          16          12          14          12
 AtmWgt=  12.0000000  12.0000000  12.0000000  12.0000000  12.0000000  12.0000000  15.9949146  12.0000000  14.0030740  12.0000000
 NucSpn=           0           0           0           0           0           0           0           0           2           0
 AtZEff=  -0.0000000  -0.0000000  -0.0000000  -0.0000000  -0.0000000  -0.0000000  -0.0000000  -0.0000000  -0.0000000  -0.0000000
 NQMom=    0.0000000   0.0000000   0.0000000   0.0000000   0.0000000   0.0000000   0.0000000   0.0000000   2.0440000   0.0000000
 NMagM=    0.0000000   0.0000000   0.0000000   0.0000000   0.0000000   0.0000000   0.0000000   0.0000000   0.4037610   0.0000000
 AtZNuc=   6.0000000   6.0000000   6.0000000   6.0000000   6.0000000   6.0000000   8.0000000   6.0000000   7.0000000   6.0000000

  Atom        21          22          23          24          25          26          27          28          29          30
 IAtWgt=          12          12          12          12          12          12          12          12          16           1
 AtmWgt=  12.0000000  12.0000000  12.0000000  12.0000000  12.0000000  12.0000000  12.0000000  12.0000000  15.9949146   1.0078250
 NucSpn=           0           0           0           0           0           0           0           0           0           1
 AtZEff=  -0.0000000  -0.0000000  -0.0000000  -0.0000000  -0.0000000  -0.0000000  -0.0000000  -0.0000000  -0.0000000  -0.0000000
 NQMom=    0.0000000   0.0000000   0.0000000   0.0000000   0.0000000   0.0000000   0.0000000   0.0000000   0.0000000   0.0000000
 NMagM=    0.0000000   0.0000000   0.0000000   0.0000000   0.0000000   0.0000000   0.0000000   0.0000000   0.0000000   2.7928460
 AtZNuc=   6.0000000   6.0000000   6.0000000   6.0000000   6.0000000   6.0000000   6.0000000   6.0000000   8.0000000   1.0000000

  Atom        31          32          33          34          35          36          37          38          39          40
 IAtWgt=           1           1           1           1           1           1           1           1           1           1
 AtmWgt=   1.0078250   1.0078250   1.0078250   1.0078250   1.0078250   1.0078250   1.0078250   1.0078250   1.0078250   1.0078250
 NucSpn=           1           1           1           1           1           1           1           1           1           1
 AtZEff=  -0.0000000  -0.0000000  -0.0000000  -0.0000000  -0.0000000  -0.0000000  -0.0000000  -0.0000000  -0.0000000  -0.0000000
 NQMom=    0.0000000   0.0000000   0.0000000   0.0000000   0.0000000   0.0000000   0.0000000   0.0000000   0.0000000   0.0000000
 NMagM=    2.7928460   2.7928460   2.7928460   2.7928460   2.7928460   2.7928460   2.7928460   2.7928460   2.7928460   2.7928460
 AtZNuc=   1.0000000   1.0000000   1.0000000   1.0000000   1.0000000   1.0000000   1.0000000   1.0000000   1.0000000   1.0000000

  Atom        41          42          43          44          45          46          47          48          49          50
 IAtWgt=           1           1           1           1           1           1           1           1           1           1
 AtmWgt=   1.0078250   1.0078250   1.0078250   1.0078250   1.0078250   1.0078250   1.0078250   1.0078250   1.0078250   1.0078250
 NucSpn=           1           1           1           1           1           1           1           1           1           1
 AtZEff=  -0.0000000  -0.0000000  -0.0000000  -0.0000000  -0.0000000  -0.0000000  -0.0000000  -0.0000000  -0.0000000  -0.0000000
 NQMom=    0.0000000   0.0000000   0.0000000   0.0000000   0.0000000   0.0000000   0.0000000   0.0000000   0.0000000   0.0000000
 NMagM=    2.7928460   2.7928460   2.7928460   2.7928460   2.7928460   2.7928460   2.7928460   2.7928460   2.7928460   2.7928460
 AtZNuc=   1.0000000   1.0000000   1.0000000   1.0000000   1.0000000   1.0000000   1.0000000   1.0000000   1.0000000   1.0000000

  Atom        51          52          53          54          55
 IAtWgt=           1           1           1           1           1
 AtmWgt=   1.0078250   1.0078250   1.0078250   1.0078250   1.0078250
 NucSpn=           1           1           1           1           1
 AtZEff=  -0.0000000  -0.0000000  -0.0000000  -0.0000000  -0.0000000
 NQMom=    0.0000000   0.0000000   0.0000000   0.0000000   0.0000000
 NMagM=    2.7928460   2.7928460   2.7928460   2.7928460   2.7928460
 AtZNuc=   1.0000000   1.0000000   1.0000000   1.0000000   1.0000000
 Leave Link  101 at Sun Feb 25 07:09:03 2024, MaxMem=  7516192768 cpu:              11.4 elap:               0.3
 (Enter /public/apps/g16-C01//g16/l103.exe)

 GradGradGradGradGradGradGradGradGradGradGradGradGradGradGradGradGradGrad
 Berny optimization.
 Initialization pass.
                           ----------------------------
                           !    Initial Parameters    !
                           ! (Angstroms and Degrees)  !
 --------------------------                            --------------------------
 ! Name  Definition              Value          Derivative Info.                !
 --------------------------------------------------------------------------------
 ! R1    R(1,2)                  1.5233         estimate D2E/DX2                !
 ! R2    R(1,30)                 1.0867         estimate D2E/DX2                !
 ! R3    R(1,31)                 1.0874         estimate D2E/DX2                !
 ! R4    R(1,32)                 1.0878         estimate D2E/DX2                !
 ! R5    R(2,3)                  1.541          estimate D2E/DX2                !
 ! R6    R(2,33)                 1.0919         estimate D2E/DX2                !
 ! R7    R(2,34)                 1.092          estimate D2E/DX2                !
 ! R8    R(3,4)                  1.5394         estimate D2E/DX2                !
 ! R9    R(3,6)                  1.5005         estimate D2E/DX2                !
 ! R10   R(3,18)                 1.5002         estimate D2E/DX2                !
 ! R11   R(4,5)                  1.5251         estimate D2E/DX2                !
 ! R12   R(4,35)                 1.0924         estimate D2E/DX2                !
 ! R13   R(4,36)                 1.0897         estimate D2E/DX2                !
 ! R14   R(5,37)                 1.0856         estimate D2E/DX2                !
 ! R15   R(5,38)                 1.0872         estimate D2E/DX2                !
 ! R16   R(5,39)                 1.088          estimate D2E/DX2                !
 ! R17   R(6,7)                  1.2622         estimate D2E/DX2                !
 ! R18   R(6,17)                 1.3544         estimate D2E/DX2                !
 ! R19   R(7,8)                  1.4444         estimate D2E/DX2                !
 ! R20   R(8,9)                  1.5037         estimate D2E/DX2                !
 ! R21   R(8,16)                 1.5589         estimate D2E/DX2                !
 ! R22   R(8,40)                 1.0932         estimate D2E/DX2                !
 ! R23   R(9,10)                 1.3804         estimate D2E/DX2                !
 ! R24   R(9,14)                 1.3902         estimate D2E/DX2                !
 ! R25   R(10,11)                1.3864         estimate D2E/DX2                !
 ! R26   R(10,41)                1.0786         estimate D2E/DX2                !
 ! R27   R(11,12)                1.3855         estimate D2E/DX2                !
 ! R28   R(11,42)                1.0797         estimate D2E/DX2                !
 ! R29   R(12,13)                1.3871         estimate D2E/DX2                !
 ! R30   R(12,43)                1.0801         estimate D2E/DX2                !
 ! R31   R(13,14)                1.3819         estimate D2E/DX2                !
 ! R32   R(13,44)                1.0803         estimate D2E/DX2                !
 ! R33   R(14,15)                1.5015         estimate D2E/DX2                !
 ! R34   R(15,16)                1.5378         estimate D2E/DX2                !
 ! R35   R(15,45)                1.0915         estimate D2E/DX2                !
 ! R36   R(15,46)                1.0919         estimate D2E/DX2                !
 ! R37   R(16,17)                1.4269         estimate D2E/DX2                !
 ! R38   R(16,47)                1.0941         estimate D2E/DX2                !
 ! R39   R(18,19)                1.2626         estimate D2E/DX2                !
 ! R40   R(18,29)                1.3524         estimate D2E/DX2                !
 ! R41   R(19,20)                1.4472         estimate D2E/DX2                !
 ! R42   R(20,21)                1.503          estimate D2E/DX2                !
 ! R43   R(20,28)                1.5599         estimate D2E/DX2                !
 ! R44   R(20,48)                1.0943         estimate D2E/DX2                !
 ! R45   R(21,22)                1.3805         estimate D2E/DX2                !
 ! R46   R(21,26)                1.3895         estimate D2E/DX2                !
 ! R47   R(22,23)                1.3867         estimate D2E/DX2                !
 ! R48   R(22,49)                1.0791         estimate D2E/DX2                !
 ! R49   R(23,24)                1.3852         estimate D2E/DX2                !
 ! R50   R(23,50)                1.0801         estimate D2E/DX2                !
 ! R51   R(24,25)                1.3871         estimate D2E/DX2                !
 ! R52   R(24,51)                1.0806         estimate D2E/DX2                !
 ! R53   R(25,26)                1.382          estimate D2E/DX2                !
 ! R54   R(25,52)                1.0807         estimate D2E/DX2                !
 ! R55   R(26,27)                1.4984         estimate D2E/DX2                !
 ! R56   R(27,28)                1.5394         estimate D2E/DX2                !
 ! R57   R(27,53)                1.0917         estimate D2E/DX2                !
 ! R58   R(27,54)                1.0913         estimate D2E/DX2                !
 ! R59   R(28,29)                1.4238         estimate D2E/DX2                !
 ! R60   R(28,55)                1.0934         estimate D2E/DX2                !
 ! A1    A(2,1,30)             111.2666         estimate D2E/DX2                !
 ! A2    A(2,1,31)             110.3929         estimate D2E/DX2                !
 ! A3    A(2,1,32)             109.8236         estimate D2E/DX2                !
 ! A4    A(30,1,31)            108.584          estimate D2E/DX2                !
 ! A5    A(30,1,32)            108.2655         estimate D2E/DX2                !
 ! A6    A(31,1,32)            108.4327         estimate D2E/DX2                !
 ! A7    A(1,2,3)              112.9839         estimate D2E/DX2                !
 ! A8    A(1,2,33)             110.0814         estimate D2E/DX2                !
 ! A9    A(1,2,34)             109.1654         estimate D2E/DX2                !
 ! A10   A(3,2,33)             108.3453         estimate D2E/DX2                !
 ! A11   A(3,2,34)             107.8708         estimate D2E/DX2                !
 ! A12   A(33,2,34)            108.2666         estimate D2E/DX2                !
 ! A13   A(2,3,4)              112.0676         estimate D2E/DX2                !
 ! A14   A(2,3,6)              108.583          estimate D2E/DX2                !
 ! A15   A(2,3,18)             110.7244         estimate D2E/DX2                !
 ! A16   A(4,3,6)              108.7842         estimate D2E/DX2                !
 ! A17   A(4,3,18)             112.0252         estimate D2E/DX2                !
 ! A18   A(6,3,18)             104.2924         estimate D2E/DX2                !
 ! A19   A(3,4,5)              113.5304         estimate D2E/DX2                !
 ! A20   A(3,4,35)             107.9307         estimate D2E/DX2                !
 ! A21   A(3,4,36)             108.1312         estimate D2E/DX2                !
 ! A22   A(5,4,35)             109.5489         estimate D2E/DX2                !
 ! A23   A(5,4,36)             108.6294         estimate D2E/DX2                !
 ! A24   A(35,4,36)            108.9817         estimate D2E/DX2                !
 ! A25   A(4,5,37)             109.7428         estimate D2E/DX2                !
 ! A26   A(4,5,38)             111.4741         estimate D2E/DX2                !
 ! A27   A(4,5,39)             109.7055         estimate D2E/DX2                !
 ! A28   A(37,5,38)            108.5795         estimate D2E/DX2                !
 ! A29   A(37,5,39)            109.0615         estimate D2E/DX2                !
 ! A30   A(38,5,39)            108.2276         estimate D2E/DX2                !
 ! A31   A(3,6,7)              124.4844         estimate D2E/DX2                !
 ! A32   A(3,6,17)             117.7259         estimate D2E/DX2                !
 ! A33   A(7,6,17)             117.7838         estimate D2E/DX2                !
 ! A34   A(6,7,8)              107.7039         estimate D2E/DX2                !
 ! A35   A(7,8,9)              109.6785         estimate D2E/DX2                !
 ! A36   A(7,8,16)             104.1376         estimate D2E/DX2                !
 ! A37   A(7,8,40)             110.2969         estimate D2E/DX2                !
 ! A38   A(9,8,16)             104.424          estimate D2E/DX2                !
 ! A39   A(9,8,40)             112.8618         estimate D2E/DX2                !
 ! A40   A(16,8,40)            114.9278         estimate D2E/DX2                !
 ! A41   A(8,9,10)             127.4098         estimate D2E/DX2                !
 ! A42   A(8,9,14)             111.2154         estimate D2E/DX2                !
 ! A43   A(10,9,14)            121.2188         estimate D2E/DX2                !
 ! A44   A(9,10,11)            118.4627         estimate D2E/DX2                !
 ! A45   A(9,10,41)            120.443          estimate D2E/DX2                !
 ! A46   A(11,10,41)           121.0822         estimate D2E/DX2                !
 ! A47   A(10,11,12)           120.5887         estimate D2E/DX2                !
 ! A48   A(10,11,42)           119.5696         estimate D2E/DX2                !
 ! A49   A(12,11,42)           119.8401         estimate D2E/DX2                !
 ! A50   A(11,12,13)           120.7215         estimate D2E/DX2                !
 ! A51   A(11,12,43)           119.7585         estimate D2E/DX2                !
 ! A52   A(13,12,43)           119.5174         estimate D2E/DX2                !
 ! A53   A(12,13,14)           118.861          estimate D2E/DX2                !
 ! A54   A(12,13,44)           120.6012         estimate D2E/DX2                !
 ! A55   A(14,13,44)           120.5349         estimate D2E/DX2                !
 ! A56   A(9,14,13)            120.1333         estimate D2E/DX2                !
 ! A57   A(9,14,15)            111.8038         estimate D2E/DX2                !
 ! A58   A(13,14,15)           128.0621         estimate D2E/DX2                !
 ! A59   A(14,15,16)           104.6485         estimate D2E/DX2                !
 ! A60   A(14,15,45)           112.0339         estimate D2E/DX2                !
 ! A61   A(14,15,46)           111.1118         estimate D2E/DX2                !
 ! A62   A(16,15,45)           110.202          estimate D2E/DX2                !
 ! A63   A(16,15,46)           110.8048         estimate D2E/DX2                !
 ! A64   A(45,15,46)           108.0511         estimate D2E/DX2                !
 ! A65   A(8,16,15)            107.2143         estimate D2E/DX2                !
 ! A66   A(8,16,17)            103.253          estimate D2E/DX2                !
 ! A67   A(8,16,47)            114.1469         estimate D2E/DX2                !
 ! A68   A(15,16,17)           111.8768         estimate D2E/DX2                !
 ! A69   A(15,16,47)           112.347          estimate D2E/DX2                !
 ! A70   A(17,16,47)           107.7063         estimate D2E/DX2                !
 ! A71   A(6,17,16)            106.8481         estimate D2E/DX2                !
 ! A72   A(3,18,19)            125.812          estimate D2E/DX2                !
 ! A73   A(3,18,29)            116.4395         estimate D2E/DX2                !
 ! A74   A(19,18,29)           117.6622         estimate D2E/DX2                !
 ! A75   A(18,19,20)           107.7651         estimate D2E/DX2                !
 ! A76   A(19,20,21)           110.2335         estimate D2E/DX2                !
 ! A77   A(19,20,28)           103.8815         estimate D2E/DX2                !
 ! A78   A(19,20,48)           109.9614         estimate D2E/DX2                !
 ! A79   A(21,20,28)           104.6123         estimate D2E/DX2                !
 ! A80   A(21,20,48)           112.5999         estimate D2E/DX2                !
 ! A81   A(28,20,48)           115.0951         estimate D2E/DX2                !
 ! A82   A(20,21,22)           127.666          estimate D2E/DX2                !
 ! A83   A(20,21,26)           111.2117         estimate D2E/DX2                !
 ! A84   A(22,21,26)           121.0554         estimate D2E/DX2                !
 ! A85   A(21,22,23)           118.6401         estimate D2E/DX2                !
 ! A86   A(21,22,49)           120.3639         estimate D2E/DX2                !
 ! A87   A(23,22,49)           120.9942         estimate D2E/DX2                !
 ! A88   A(22,23,24)           120.5321         estimate D2E/DX2                !
 ! A89   A(22,23,50)           119.7273         estimate D2E/DX2                !
 ! A90   A(24,23,50)           119.7405         estimate D2E/DX2                !
 ! A91   A(23,24,25)           120.6267         estimate D2E/DX2                !
 ! A92   A(23,24,51)           119.7595         estimate D2E/DX2                !
 ! A93   A(25,24,51)           119.6129         estimate D2E/DX2                !
 ! A94   A(24,25,26)           118.969          estimate D2E/DX2                !
 ! A95   A(24,25,52)           120.538          estimate D2E/DX2                !
 ! A96   A(26,25,52)           120.4923         estimate D2E/DX2                !
 ! A97   A(21,26,25)           120.1686         estimate D2E/DX2                !
 ! A98   A(21,26,27)           112.0089         estimate D2E/DX2                !
 ! A99   A(25,26,27)           127.8199         estimate D2E/DX2                !
 ! A100  A(26,27,28)           104.9281         estimate D2E/DX2                !
 ! A101  A(26,27,53)           110.5564         estimate D2E/DX2                !
 ! A102  A(26,27,54)           111.9265         estimate D2E/DX2                !
 ! A103  A(28,27,53)           108.8431         estimate D2E/DX2                !
 ! A104  A(28,27,54)           111.7957         estimate D2E/DX2                !
 ! A105  A(53,27,54)           108.7275         estimate D2E/DX2                !
 ! A106  A(20,28,27)           107.2267         estimate D2E/DX2                !
 ! A107  A(20,28,29)           103.3991         estimate D2E/DX2                !
 ! A108  A(20,28,55)           114.1913         estimate D2E/DX2                !
 ! A109  A(27,28,29)           111.0834         estimate D2E/DX2                !
 ! A110  A(27,28,55)           112.5742         estimate D2E/DX2                !
 ! A111  A(29,28,55)           108.0184         estimate D2E/DX2                !
 ! A112  A(18,29,28)           106.7926         estimate D2E/DX2                !
 ! D1    D(30,1,2,3)           -65.881          estimate D2E/DX2                !
 ! D2    D(30,1,2,33)           55.389          estimate D2E/DX2                !
 ! D3    D(30,1,2,34)          174.0987         estimate D2E/DX2                !
 ! D4    D(31,1,2,3)            54.7522         estimate D2E/DX2                !
 ! D5    D(31,1,2,33)          176.0222         estimate D2E/DX2                !
 ! D6    D(31,1,2,34)          -65.2681         estimate D2E/DX2                !
 ! D7    D(32,1,2,3)           174.2635         estimate D2E/DX2                !
 ! D8    D(32,1,2,33)          -64.4665         estimate D2E/DX2                !
 ! D9    D(32,1,2,34)           54.2431         estimate D2E/DX2                !
 ! D10   D(1,2,3,4)             61.3545         estimate D2E/DX2                !
 ! D11   D(1,2,3,6)           -178.4554         estimate D2E/DX2                !
 ! D12   D(1,2,3,18)           -64.522          estimate D2E/DX2                !
 ! D13   D(33,2,3,4)           -60.8929         estimate D2E/DX2                !
 ! D14   D(33,2,3,6)            59.2971         estimate D2E/DX2                !
 ! D15   D(33,2,3,18)          173.2305         estimate D2E/DX2                !
 ! D16   D(34,2,3,4)          -177.8857         estimate D2E/DX2                !
 ! D17   D(34,2,3,6)           -57.6957         estimate D2E/DX2                !
 ! D18   D(34,2,3,18)           56.2377         estimate D2E/DX2                !
 ! D19   D(2,3,4,5)            166.5505         estimate D2E/DX2                !
 ! D20   D(2,3,4,35)            44.9165         estimate D2E/DX2                !
 ! D21   D(2,3,4,36)           -72.8384         estimate D2E/DX2                !
 ! D22   D(6,3,4,5)             46.4776         estimate D2E/DX2                !
 ! D23   D(6,3,4,35)           -75.1564         estimate D2E/DX2                !
 ! D24   D(6,3,4,36)           167.0887         estimate D2E/DX2                !
 ! D25   D(18,3,4,5)           -68.2862         estimate D2E/DX2                !
 ! D26   D(18,3,4,35)          170.0798         estimate D2E/DX2                !
 ! D27   D(18,3,4,36)           52.3249         estimate D2E/DX2                !
 ! D28   D(2,3,6,7)            117.941          estimate D2E/DX2                !
 ! D29   D(2,3,6,17)           -62.9644         estimate D2E/DX2                !
 ! D30   D(4,3,6,7)           -119.8496         estimate D2E/DX2                !
 ! D31   D(4,3,6,17)            59.2451         estimate D2E/DX2                !
 ! D32   D(18,3,6,7)            -0.1526         estimate D2E/DX2                !
 ! D33   D(18,3,6,17)          178.942          estimate D2E/DX2                !
 ! D34   D(2,3,18,19)          139.1814         estimate D2E/DX2                !
 ! D35   D(2,3,18,29)          -44.2925         estimate D2E/DX2                !
 ! D36   D(4,3,18,19)           13.2811         estimate D2E/DX2                !
 ! D37   D(4,3,18,29)         -170.1928         estimate D2E/DX2                !
 ! D38   D(6,3,18,19)         -104.2034         estimate D2E/DX2                !
 ! D39   D(6,3,18,29)           72.3227         estimate D2E/DX2                !
 ! D40   D(3,4,5,37)            57.1393         estimate D2E/DX2                !
 ! D41   D(3,4,5,38)           -63.1891         estimate D2E/DX2                !
 ! D42   D(3,4,5,39)           176.9478         estimate D2E/DX2                !
 ! D43   D(35,4,5,37)          177.866          estimate D2E/DX2                !
 ! D44   D(35,4,5,38)           57.5377         estimate D2E/DX2                !
 ! D45   D(35,4,5,39)          -62.3254         estimate D2E/DX2                !
 ! D46   D(36,4,5,37)          -63.1905         estimate D2E/DX2                !
 ! D47   D(36,4,5,38)          176.4812         estimate D2E/DX2                !
 ! D48   D(36,4,5,39)           56.6181         estimate D2E/DX2                !
 ! D49   D(3,6,7,8)            174.0709         estimate D2E/DX2                !
 ! D50   D(17,6,7,8)            -5.0233         estimate D2E/DX2                !
 ! D51   D(3,6,17,16)         -176.8334         estimate D2E/DX2                !
 ! D52   D(7,6,17,16)            2.323          estimate D2E/DX2                !
 ! D53   D(6,7,8,9)           -106.059          estimate D2E/DX2                !
 ! D54   D(6,7,8,16)             5.2187         estimate D2E/DX2                !
 ! D55   D(6,7,8,40)           129.0378         estimate D2E/DX2                !
 ! D56   D(7,8,9,10)           -61.4015         estimate D2E/DX2                !
 ! D57   D(7,8,9,14)           114.0559         estimate D2E/DX2                !
 ! D58   D(16,8,9,10)         -172.4911         estimate D2E/DX2                !
 ! D59   D(16,8,9,14)            2.9663         estimate D2E/DX2                !
 ! D60   D(40,8,9,10)           62.0063         estimate D2E/DX2                !
 ! D61   D(40,8,9,14)         -122.5363         estimate D2E/DX2                !
 ! D62   D(7,8,16,15)         -122.1001         estimate D2E/DX2                !
 ! D63   D(7,8,16,17)           -3.8234         estimate D2E/DX2                !
 ! D64   D(7,8,16,47)          112.7926         estimate D2E/DX2                !
 ! D65   D(9,8,16,15)           -7.0541         estimate D2E/DX2                !
 ! D66   D(9,8,16,17)          111.2227         estimate D2E/DX2                !
 ! D67   D(9,8,16,47)         -132.1614         estimate D2E/DX2                !
 ! D68   D(40,8,16,15)         117.1337         estimate D2E/DX2                !
 ! D69   D(40,8,16,17)        -124.5896         estimate D2E/DX2                !
 ! D70   D(40,8,16,47)          -7.9736         estimate D2E/DX2                !
 ! D71   D(8,9,10,11)          176.1233         estimate D2E/DX2                !
 ! D72   D(8,9,10,41)           -2.6236         estimate D2E/DX2                !
 ! D73   D(14,9,10,11)           1.0761         estimate D2E/DX2                !
 ! D74   D(14,9,10,41)        -177.6708         estimate D2E/DX2                !
 ! D75   D(8,9,14,13)         -177.2122         estimate D2E/DX2                !
 ! D76   D(8,9,14,15)            2.4841         estimate D2E/DX2                !
 ! D77   D(10,9,14,13)          -1.4309         estimate D2E/DX2                !
 ! D78   D(10,9,14,15)         178.2654         estimate D2E/DX2                !
 ! D79   D(9,10,11,12)          -0.0986         estimate D2E/DX2                !
 ! D80   D(9,10,11,42)        -179.6282         estimate D2E/DX2                !
 ! D81   D(41,10,11,12)        178.6399         estimate D2E/DX2                !
 ! D82   D(41,10,11,42)         -0.8897         estimate D2E/DX2                !
 ! D83   D(10,11,12,13)         -0.534          estimate D2E/DX2                !
 ! D84   D(10,11,12,43)       -179.9491         estimate D2E/DX2                !
 ! D85   D(42,11,12,13)        178.9943         estimate D2E/DX2                !
 ! D86   D(42,11,12,43)         -0.4207         estimate D2E/DX2                !
 ! D87   D(11,12,13,14)          0.1916         estimate D2E/DX2                !
 ! D88   D(11,12,13,44)       -179.201          estimate D2E/DX2                !
 ! D89   D(43,12,13,14)        179.608          estimate D2E/DX2                !
 ! D90   D(43,12,13,44)          0.2154         estimate D2E/DX2                !
 ! D91   D(12,13,14,9)           0.7727         estimate D2E/DX2                !
 ! D92   D(12,13,14,15)       -178.8692         estimate D2E/DX2                !
 ! D93   D(44,13,14,9)        -179.8343         estimate D2E/DX2                !
 ! D94   D(44,13,14,15)          0.5239         estimate D2E/DX2                !
 ! D95   D(9,14,15,16)          -6.8769         estimate D2E/DX2                !
 ! D96   D(9,14,15,45)        -126.2729         estimate D2E/DX2                !
 ! D97   D(9,14,15,46)         112.7569         estimate D2E/DX2                !
 ! D98   D(13,14,15,16)        172.7895         estimate D2E/DX2                !
 ! D99   D(13,14,15,45)         53.3935         estimate D2E/DX2                !
 ! D100  D(13,14,15,46)        -67.5767         estimate D2E/DX2                !
 ! D101  D(14,15,16,8)           8.3797         estimate D2E/DX2                !
 ! D102  D(14,15,16,17)       -104.1418         estimate D2E/DX2                !
 ! D103  D(14,15,16,47)        134.5652         estimate D2E/DX2                !
 ! D104  D(45,15,16,8)         129.0007         estimate D2E/DX2                !
 ! D105  D(45,15,16,17)         16.4792         estimate D2E/DX2                !
 ! D106  D(45,15,16,47)       -104.8138         estimate D2E/DX2                !
 ! D107  D(46,15,16,8)        -111.4599         estimate D2E/DX2                !
 ! D108  D(46,15,16,17)        136.0185         estimate D2E/DX2                !
 ! D109  D(46,15,16,47)         14.7256         estimate D2E/DX2                !
 ! D110  D(8,16,17,6)            1.2638         estimate D2E/DX2                !
 ! D111  D(15,16,17,6)         116.2378         estimate D2E/DX2                !
 ! D112  D(47,16,17,6)        -119.8248         estimate D2E/DX2                !
 ! D113  D(3,18,19,20)         170.3457         estimate D2E/DX2                !
 ! D114  D(29,18,19,20)         -6.1423         estimate D2E/DX2                !
 ! D115  D(3,18,29,28)        -168.896          estimate D2E/DX2                !
 ! D116  D(19,18,29,28)          7.9236         estimate D2E/DX2                !
 ! D117  D(18,19,20,21)       -109.8022         estimate D2E/DX2                !
 ! D118  D(18,19,20,28)          1.7931         estimate D2E/DX2                !
 ! D119  D(18,19,20,48)        125.4739         estimate D2E/DX2                !
 ! D120  D(19,20,21,22)        -67.0019         estimate D2E/DX2                !
 ! D121  D(19,20,21,26)        110.016          estimate D2E/DX2                !
 ! D122  D(28,20,21,22)       -178.1227         estimate D2E/DX2                !
 ! D123  D(28,20,21,26)         -1.1048         estimate D2E/DX2                !
 ! D124  D(48,20,21,22)         56.1959         estimate D2E/DX2                !
 ! D125  D(48,20,21,26)       -126.7862         estimate D2E/DX2                !
 ! D126  D(19,20,28,27)       -114.9538         estimate D2E/DX2                !
 ! D127  D(19,20,28,29)          2.4993         estimate D2E/DX2                !
 ! D128  D(19,20,28,55)        119.6032         estimate D2E/DX2                !
 ! D129  D(21,20,28,27)          0.6782         estimate D2E/DX2                !
 ! D130  D(21,20,28,29)        118.1313         estimate D2E/DX2                !
 ! D131  D(21,20,28,55)       -124.7648         estimate D2E/DX2                !
 ! D132  D(48,20,28,27)        124.7778         estimate D2E/DX2                !
 ! D133  D(48,20,28,29)       -117.7691         estimate D2E/DX2                !
 ! D134  D(48,20,28,55)         -0.6652         estimate D2E/DX2                !
 ! D135  D(20,21,22,23)        177.5249         estimate D2E/DX2                !
 ! D136  D(20,21,22,49)         -1.9947         estimate D2E/DX2                !
 ! D137  D(26,21,22,23)          0.7704         estimate D2E/DX2                !
 ! D138  D(26,21,22,49)       -178.7492         estimate D2E/DX2                !
 ! D139  D(20,21,26,25)       -178.3348         estimate D2E/DX2                !
 ! D140  D(20,21,26,27)          1.1286         estimate D2E/DX2                !
 ! D141  D(22,21,26,25)         -1.0901         estimate D2E/DX2                !
 ! D142  D(22,21,26,27)        178.3732         estimate D2E/DX2                !
 ! D143  D(21,22,23,24)         -0.0155         estimate D2E/DX2                !
 ! D144  D(21,22,23,50)       -179.9205         estimate D2E/DX2                !
 ! D145  D(49,22,23,24)        179.501          estimate D2E/DX2                !
 ! D146  D(49,22,23,50)         -0.4041         estimate D2E/DX2                !
 ! D147  D(22,23,24,25)         -0.4278         estimate D2E/DX2                !
 ! D148  D(22,23,24,51)        179.9128         estimate D2E/DX2                !
 ! D149  D(50,23,24,25)        179.4773         estimate D2E/DX2                !
 ! D150  D(50,23,24,51)         -0.1821         estimate D2E/DX2                !
 ! D151  D(23,24,25,26)          0.1164         estimate D2E/DX2                !
 ! D152  D(23,24,25,52)       -179.5994         estimate D2E/DX2                !
 ! D153  D(51,24,25,26)        179.7763         estimate D2E/DX2                !
 ! D154  D(51,24,25,52)          0.0605         estimate D2E/DX2                !
 ! D155  D(24,25,26,21)          0.6303         estimate D2E/DX2                !
 ! D156  D(24,25,26,27)       -178.7398         estimate D2E/DX2                !
 ! D157  D(52,25,26,21)       -179.6537         estimate D2E/DX2                !
 ! D158  D(52,25,26,27)          0.9761         estimate D2E/DX2                !
 ! D159  D(21,26,27,28)         -0.6348         estimate D2E/DX2                !
 ! D160  D(21,26,27,53)       -117.8265         estimate D2E/DX2                !
 ! D161  D(21,26,27,54)        120.8014         estimate D2E/DX2                !
 ! D162  D(25,26,27,28)        178.7778         estimate D2E/DX2                !
 ! D163  D(25,26,27,53)         61.5861         estimate D2E/DX2                !
 ! D164  D(25,26,27,54)        -59.7859         estimate D2E/DX2                !
 ! D165  D(26,27,28,20)         -0.0738         estimate D2E/DX2                !
 ! D166  D(26,27,28,29)       -112.3804         estimate D2E/DX2                !
 ! D167  D(26,27,28,55)        126.3342         estimate D2E/DX2                !
 ! D168  D(53,27,28,20)        118.2826         estimate D2E/DX2                !
 ! D169  D(53,27,28,29)          5.976          estimate D2E/DX2                !
 ! D170  D(53,27,28,55)       -115.3093         estimate D2E/DX2                !
 ! D171  D(54,27,28,20)       -121.5958         estimate D2E/DX2                !
 ! D172  D(54,27,28,29)        126.0976         estimate D2E/DX2                !
 ! D173  D(54,27,28,55)          4.8122         estimate D2E/DX2                !
 ! D174  D(20,28,29,18)         -5.662          estimate D2E/DX2                !
 ! D175  D(27,28,29,18)        109.0541         estimate D2E/DX2                !
 ! D176  D(55,28,29,18)       -127.0252         estimate D2E/DX2                !
 --------------------------------------------------------------------------------
 Trust Radius=3.00D-01 FncErr=1.00D-07 GrdErr=1.00D-06 EigMax=2.50D+02 EigMin=1.00D-04
 Number of steps in this run=    330 maximum allowed number of steps=    330.
 GradGradGradGradGradGradGradGradGradGradGradGradGradGradGradGradGradGrad

 Leave Link  103 at Sun Feb 25 07:09:03 2024, MaxMem=  7516192768 cpu:               0.3 elap:               0.0
 (Enter /public/apps/g16-C01//g16/l202.exe)
 Symmetry turned off by external request.
 Stoichiometry    C25H26N2O2
 Framework group  C1[X(C25H26N2O2)]
 Deg. of freedom   159
 Full point group                 C1      NOp   1
                          Input orientation:                          
 ---------------------------------------------------------------------
 Center     Atomic      Atomic             Coordinates (Angstroms)
 Number     Number       Type             X           Y           Z
 ---------------------------------------------------------------------
      1          6           0        4.853522   -0.758029   -0.242537
      2          6           0        3.802211    0.297424   -0.560783
      3          6           0        2.471125    0.063196    0.179446
      4          6           0        2.643124    0.112761    1.708419
      5          6           0        1.323543    0.211480    2.466709
      6          6           0        1.500589    1.130896   -0.232466
      7          7           0        0.409106    0.913378   -0.827942
      8          6           0       -0.297764    2.169431   -0.922136
      9          6           0       -1.441898    2.180978    0.053504
     10          6           0       -2.527424    1.328739    0.083094
     11          6           0       -3.438914    1.455524    1.119982
     12          6           0       -3.259608    2.415390    2.102927
     13          6           0       -2.160175    3.260663    2.075774
     14          6           0       -1.245719    3.132770    1.047678
     15          6           0        0.017655    3.914472    0.829901
     16          6           0        0.708060    3.215989   -0.353491
     17          8           0        1.809204    2.414154    0.071299
     18          6           0        1.829660   -1.215073   -0.273383
     19          7           0        1.249226   -2.054251    0.470255
     20          6           0        0.580279   -3.012444   -0.383459
     21          6           0       -0.909480   -2.831537   -0.300353
     22          6           0       -1.728154   -3.064042    0.786642
     23          6           0       -3.081283   -2.783382    0.671696
     24          6           0       -3.597529   -2.279828   -0.510932
     25          6           0       -2.769618   -2.039179   -1.597544
     26          6           0       -1.419623   -2.311945   -1.483803
     27          6           0       -0.350577   -2.105101   -2.513109
     28          6           0        0.952720   -2.551958   -1.826553
     29          8           0        1.820911   -1.445280   -1.605989
     30          1           0        5.160658   -0.707037    0.798566
     31          1           0        4.463085   -1.753426   -0.440302
     32          1           0        5.731951   -0.603178   -0.865110
     33          1           0        4.173784    1.289008   -0.294305
     34          1           0        3.595863    0.285993   -1.633073
     35          1           0        3.268264    0.975801    1.948736
     36          1           0        3.157350   -0.795502    2.021424
     37          1           0        0.684609   -0.625105    2.201315
     38          1           0        0.799197    1.135127    2.234485
     39          1           0        1.513260    0.187893    3.537781
     40          1           0       -0.616283    2.348988   -1.952376
     41          1           0       -2.647515    0.570182   -0.674270
     42          1           0       -4.291269    0.794267    1.163943
     43          1           0       -3.977674    2.501865    2.905160
     44          1           0       -2.015537    3.999811    2.850174
     45          1           0        0.665962    3.897779    1.707788
     46          1           0       -0.201279    4.957156    0.590745
     47          1           0        1.081425    3.927419   -1.096186
     48          1           0        0.895700   -4.027718   -0.124360
     49          1           0       -1.316694   -3.448994    1.706987
     50          1           0       -3.737615   -2.957434    1.511660
     51          1           0       -4.654164   -2.066886   -0.587227
     52          1           0       -3.172886   -1.640213   -2.517446
     53          1           0       -0.267817   -1.047985   -2.772718
     54          1           0       -0.545263   -2.675168   -3.423087
     55          1           0        1.498758   -3.299479   -2.408501
 ---------------------------------------------------------------------
 Rotational constants (GHZ):           0.2107745           0.1995035           0.1256917
 Leave Link  202 at Sun Feb 25 07:09:03 2024, MaxMem=  7516192768 cpu:               0.4 elap:               0.0
 (Enter /public/apps/g16-C01//g16/l301.exe)
 Standard basis: def2SVPP (5D, 7F)
 Ernie: Thresh=  0.10000D-02 Tol=  0.10000D-05 Strict=F.
   458 basis functions,   829 primitive gaussians,   487 cartesian basis functions
   103 alpha electrons      103 beta electrons
       nuclear repulsion energy      2931.8178967474 Hartrees.
 IExCor=  402 DFT=T Ex+Corr=B3LYP ExCW=0 ScaHFX=  0.200000
 ScaDFX=  0.800000  0.720000  1.000000  0.810000 ScalE2=  1.000000  1.000000
 IRadAn=      5 IRanWt=     -1 IRanGd=            0 ICorTp=0 IEmpDi=141
 NAtoms=   55 NActive=   55 NUniq=   55 SFac= 1.00D+00 NAtFMM=   60 NAOKFM=F Big=F
 Integral buffers will be    131072 words long.
 Raffenetti 2 integral format.
 Two-electron integral symmetry is turned off.
 R6Disp:  Grimme-D3(BJ) Dispersion energy=       -0.1351162642 Hartrees.
 Nuclear repulsion after empirical dispersion term =     2931.6827804833 Hartrees.
 Leave Link  301 at Sun Feb 25 07:09:03 2024, MaxMem=  7516192768 cpu:               1.1 elap:               0.0
 (Enter /public/apps/g16-C01//g16/l302.exe)
 NPDir=0 NMtPBC=     1 NCelOv=     1 NCel=       1 NClECP=     1 NCelD=      1
         NCelK=      1 NCelE2=     1 NClLst=     1 CellRange=     0.0.
 One-electron integrals computed using PRISM.
   1 Symmetry operations used in ECPInt.
 ECPInt:  NShTT=   25651 NPrTT=  102833 LenC2=   23989 LenP2D=   63622.
 LDataN:  DoStor=T MaxTD1= 4 Len=   56
 NBasis=   458 RedAO= T EigKep=  2.38D-04  NBF=   458
 NBsUse=   458 1.00D-06 EigRej= -1.00D+00 NBFU=   458
 Precomputing XC quadrature grid using
 IXCGrd= 4 IRadAn=           5 IRanWt=          -1 IRanGd=           0 AccXCQ= 0.00D+00.
 Generated NRdTot=       0 NPtTot=           0 NUsed=           0 NTot=          32
 NSgBfM=   486   484   485   486   486 MxSgAt=    55 MxSgA2=    55.
 Leave Link  302 at Sun Feb 25 07:09:04 2024, MaxMem=  7516192768 cpu:              24.6 elap:               0.7
 (Enter /public/apps/g16-C01//g16/l303.exe)
 DipDrv:  MaxL=1.
 Leave Link  303 at Sun Feb 25 07:09:04 2024, MaxMem=  7516192768 cpu:               3.1 elap:               0.1
 (Enter /public/apps/g16-C01//g16/l401.exe)
 ExpMin= 1.22D-01 ExpMax= 2.27D+03 ExpMxC= 3.41D+02 IAcc=3 IRadAn=         5 AccDes= 0.00D+00
 Harris functional with IExCor=  402 and IRadAn=       5 diagonalized for initial guess.
 HarFok:  IExCor=  402 AccDes= 0.00D+00 IRadAn=         5 IDoV= 1 UseB2=F ITyADJ=14
 ICtDFT=  3500011 ScaDFX=  1.000000  1.000000  1.000000  1.000000
 FoFCou: FMM=F IPFlag=           0 FMFlag=      100000 FMFlg1=           0
         NFxFlg=           0 DoJE=T BraDBF=F KetDBF=T FulRan=T
         wScrn=  0.000000 ICntrl=       500 IOpCl=  0 I1Cent=   200000004 NGrid=           0
         NMat0=    1 NMatS0=      1 NMatT0=    0 NMatD0=    1 NMtDS0=    0 NMtDT0=    0
 Symmetry not used in FoFCou.
 Harris En= -1227.40534019523    
 JPrj=0 DoOrth=F DoCkMO=F.
 Leave Link  401 at Sun Feb 25 07:09:05 2024, MaxMem=  7516192768 cpu:              40.3 elap:               1.0
 (Enter /public/apps/g16-C01//g16/l502.exe)
 Two-electron integral symmetry not used.
 Closed shell SCF:
 Using DIIS extrapolation, IDIIS=  1040.
 NGot=  7516192768 LenX=  7515693379 LenY=  7515455723
 Requested convergence on RMS density matrix=1.00D-08 within 128 cycles.
 Requested convergence on MAX density matrix=1.00D-06.
 Requested convergence on             energy=1.00D-06.
 No special actions if energy rises.
 Fock matrices will be formed incrementally for  20 cycles.
 Integral accuracy reduced to 1.0D-05 until final iterations.

 Cycle   1  Pass 0  IDiag  1:
 FoFJK:  IHMeth= 1 ICntrl=       0 DoSepK=F KAlg= 0 I1Cent=           0 FoldK=F
 IRaf= 870000000 NMat=       1 IRICut=       1 DoRegI=T DoRafI=F ISym2E= 0 IDoP0=0 IntGTp=1.
 FoFCou: FMM=F IPFlag=           0 FMFlag=      100000 FMFlg1=           0
         NFxFlg=           0 DoJE=F BraDBF=F KetDBF=F FulRan=T
         wScrn=  0.000000 ICntrl=         0 IOpCl=  0 I1Cent=           0 NGrid=           0
         NMat0=    1 NMatS0=      1 NMatT0=    0 NMatD0=    1 NMtDS0=    0 NMtDT0=    0
 Symmetry not used in FoFCou.
 E= -1226.82089319327    
 DIIS: error= 2.16D-02 at cycle   1 NSaved=   1.
 NSaved= 1 IEnMin= 1 EnMin= -1226.82089319327     IErMin= 1 ErrMin= 2.16D-02
 ErrMax= 2.16D-02  0.00D+00 EMaxC= 1.00D-01 BMatC= 5.65D-01 BMatP= 5.65D-01
 IDIUse=3 WtCom= 7.84D-01 WtEn= 2.16D-01
 Coeff-Com:  0.100D+01
 Coeff-En:   0.100D+01
 Coeff:      0.100D+01
 Gap=     0.270 Goal=   None    Shift=    0.000
 GapD=    0.270 DampG=1.000 DampE=0.500 DampFc=0.5000 IDamp=-1.
 Damping current iteration by 5.00D-01
 RMSDP=5.59D-03 MaxDP=2.91D-01              OVMax= 1.79D-01

 Cycle   2  Pass 0  IDiag  1:
 RMSU=  2.68D-03    CP:  9.58D-01
 E= -1227.08918901814     Delta-E=       -0.268295824873 Rises=F Damp=T
 DIIS: error= 4.90D-03 at cycle   2 NSaved=   2.
 NSaved= 2 IEnMin= 2 EnMin= -1227.08918901814     IErMin= 2 ErrMin= 4.90D-03
 ErrMax= 4.90D-03  0.00D+00 EMaxC= 1.00D-01 BMatC= 3.91D-02 BMatP= 5.65D-01
 IDIUse=3 WtCom= 9.51D-01 WtEn= 4.90D-02
 Coeff-Com:  0.855D-01 0.915D+00
 Coeff-En:   0.131D+00 0.869D+00
 Coeff:      0.877D-01 0.912D+00
 Gap=     0.277 Goal=   None    Shift=    0.000
 RMSDP=2.03D-03 MaxDP=9.60D-02 DE=-2.68D-01 OVMax= 1.83D-01

 Cycle   3  Pass 0  IDiag  1:
 RMSU=  1.91D-03    CP:  9.25D-01  8.87D-01
 E= -1227.39809296446     Delta-E=       -0.308903946323 Rises=F Damp=F
 DIIS: error= 8.08D-03 at cycle   3 NSaved=   3.
 NSaved= 3 IEnMin= 3 EnMin= -1227.39809296446     IErMin= 2 ErrMin= 4.90D-03
 ErrMax= 8.08D-03  0.00D+00 EMaxC= 1.00D-01 BMatC= 5.49D-02 BMatP= 3.91D-02
 IDIUse=3 WtCom= 1.00D-01 WtEn= 9.00D-01
 Coeff-Com:  0.367D-02 0.548D+00 0.448D+00
 Coeff-En:   0.000D+00 0.000D+00 0.100D+01
 Coeff:      0.368D-03 0.549D-01 0.945D+00
 Gap=     0.237 Goal=   None    Shift=    0.000
 RMSDP=2.14D-03 MaxDP=1.81D-01 DE=-3.09D-01 OVMax= 1.94D-01

 Cycle   4  Pass 0  IDiag  1:
 RMSU=  1.47D-03    CP:  9.34D-01  1.21D+00  3.30D-01
 E= -1227.22017281463     Delta-E=        0.177920149834 Rises=F Damp=F
 DIIS: error= 1.71D-02 at cycle   4 NSaved=   4.
 NSaved= 4 IEnMin= 3 EnMin= -1227.39809296446     IErMin= 2 ErrMin= 4.90D-03
 ErrMax= 1.71D-02  0.00D+00 EMaxC= 1.00D-01 BMatC= 2.53D-01 BMatP= 3.91D-02
 IDIUse=2 WtCom= 0.00D+00 WtEn= 1.00D+00
 Coeff-En:   0.000D+00 0.000D+00 0.762D+00 0.238D+00
 Coeff:      0.000D+00 0.000D+00 0.762D+00 0.238D+00
 Gap=     0.239 Goal=   None    Shift=    0.000
 RMSDP=1.12D-03 MaxDP=1.13D-01 DE= 1.78D-01 OVMax= 8.46D-02

 Cycle   5  Pass 0  IDiag  1:
 RMSU=  2.34D-04    CP:  9.29D-01  1.04D+00  6.53D-01  4.79D-01
 E= -1227.43342813081     Delta-E=       -0.213255316183 Rises=F Damp=F
 DIIS: error= 4.31D-03 at cycle   5 NSaved=   5.
 NSaved= 5 IEnMin= 5 EnMin= -1227.43342813081     IErMin= 5 ErrMin= 4.31D-03
 ErrMax= 4.31D-03  0.00D+00 EMaxC= 1.00D-01 BMatC= 1.63D-02 BMatP= 3.91D-02
 IDIUse=3 WtCom= 9.57D-01 WtEn= 4.31D-02
 Coeff-Com:  0.363D-02 0.466D-02 0.288D+00-0.608D-01 0.765D+00
 Coeff-En:   0.000D+00 0.000D+00 0.280D+00 0.000D+00 0.720D+00
 Coeff:      0.347D-02 0.446D-02 0.288D+00-0.582D-01 0.763D+00
 Gap=     0.227 Goal=   None    Shift=    0.000
 RMSDP=3.85D-04 MaxDP=3.23D-02 DE=-2.13D-01 OVMax= 3.00D-02

 Cycle   6  Pass 0  IDiag  1:
 RMSU=  6.88D-05    CP:  9.27D-01  9.83D-01  7.73D-01  3.07D-01  8.69D-01
 E= -1227.44794919083     Delta-E=       -0.014521060020 Rises=F Damp=F
 DIIS: error= 2.49D-04 at cycle   6 NSaved=   6.
 NSaved= 6 IEnMin= 6 EnMin= -1227.44794919083     IErMin= 6 ErrMin= 2.49D-04
 ErrMax= 2.49D-04  0.00D+00 EMaxC= 1.00D-01 BMatC= 7.31D-05 BMatP= 1.63D-02
 IDIUse=3 WtCom= 9.98D-01 WtEn= 2.49D-03
 Coeff-Com:  0.111D-02-0.290D-02 0.120D+00-0.521D-01 0.434D+00 0.500D+00
 Coeff-En:   0.000D+00 0.000D+00 0.000D+00 0.000D+00 0.000D+00 0.100D+01
 Coeff:      0.111D-02-0.289D-02 0.120D+00-0.520D-01 0.433D+00 0.501D+00
 Gap=     0.226 Goal=   None    Shift=    0.000
 RMSDP=3.32D-05 MaxDP=1.42D-03 DE=-1.45D-02 OVMax= 1.96D-03

 Cycle   7  Pass 0  IDiag  1:
 RMSU=  1.81D-05    CP:  9.27D-01  9.84D-01  7.74D-01  3.11D-01  8.73D-01
                    CP:  6.11D-01
 E= -1227.44802392109     Delta-E=       -0.000074730260 Rises=F Damp=F
 DIIS: error= 8.46D-05 at cycle   7 NSaved=   7.
 NSaved= 7 IEnMin= 7 EnMin= -1227.44802392109     IErMin= 7 ErrMin= 8.46D-05
 ErrMax= 8.46D-05  0.00D+00 EMaxC= 1.00D-01 BMatC= 6.59D-06 BMatP= 7.31D-05
 IDIUse=1 WtCom= 1.00D+00 WtEn= 0.00D+00
 Coeff-Com:  0.478D-03-0.192D-02 0.539D-01-0.285D-01 0.214D+00 0.301D+00
 Coeff-Com:  0.462D+00
 Coeff:      0.478D-03-0.192D-02 0.539D-01-0.285D-01 0.214D+00 0.301D+00
 Coeff:      0.462D+00
 Gap=     0.226 Goal=   None    Shift=    0.000
 RMSDP=8.65D-06 MaxDP=2.77D-04 DE=-7.47D-05 OVMax= 6.97D-04

 Initial convergence to 1.0D-05 achieved.  Increase integral accuracy.
 Cycle   8  Pass 1  IDiag  1:
 E= -1227.44805938652     Delta-E=       -0.000035465430 Rises=F Damp=F
 DIIS: error= 1.64D-04 at cycle   1 NSaved=   1.
 NSaved= 1 IEnMin= 1 EnMin= -1227.44805938652     IErMin= 1 ErrMin= 1.64D-04
 ErrMax= 1.64D-04  0.00D+00 EMaxC= 1.00D-01 BMatC= 8.91D-06 BMatP= 8.91D-06
 IDIUse=3 WtCom= 9.98D-01 WtEn= 1.64D-03
 Coeff-Com:  0.100D+01
 Coeff-En:   0.100D+01
 Coeff:      0.100D+01
 Gap=     0.226 Goal=   None    Shift=    0.000
 RMSDP=8.65D-06 MaxDP=2.77D-04 DE=-3.55D-05 OVMax= 7.09D-04

 Cycle   9  Pass 1  IDiag  1:
 RMSU=  1.63D-04    CP:  1.00D+00
 E= -1227.44806738978     Delta-E=       -0.000008003258 Rises=F Damp=F
 DIIS: error= 4.63D-05 at cycle   2 NSaved=   2.
 NSaved= 2 IEnMin= 2 EnMin= -1227.44806738978     IErMin= 2 ErrMin= 4.63D-05
 ErrMax= 4.63D-05  0.00D+00 EMaxC= 1.00D-01 BMatC= 2.00D-06 BMatP= 8.91D-06
 IDIUse=1 WtCom= 1.00D+00 WtEn= 0.00D+00
 Coeff-Com:  0.227D+00 0.773D+00
 Coeff:      0.227D+00 0.773D+00
 Gap=     0.226 Goal=   None    Shift=    0.000
 RMSDP=1.07D-05 MaxDP=5.10D-04 DE=-8.00D-06 OVMax= 8.74D-04

 Cycle  10  Pass 1  IDiag  1:
 RMSU=  1.06D-05    CP:  1.00D+00  1.01D+00
 E= -1227.44806505591     Delta-E=        0.000002333869 Rises=F Damp=F
 DIIS: error= 6.48D-05 at cycle   3 NSaved=   3.
 NSaved= 3 IEnMin= 2 EnMin= -1227.44806738978     IErMin= 2 ErrMin= 4.63D-05
 ErrMax= 6.48D-05  0.00D+00 EMaxC= 1.00D-01 BMatC= 4.37D-06 BMatP= 2.00D-06
 IDIUse=1 WtCom= 1.00D+00 WtEn= 0.00D+00
 Coeff-Com: -0.390D-03 0.597D+00 0.403D+00
 Coeff:     -0.390D-03 0.597D+00 0.403D+00
 Gap=     0.226 Goal=   None    Shift=    0.000
 RMSDP=6.45D-06 MaxDP=3.32D-04 DE= 2.33D-06 OVMax= 5.31D-04

 Cycle  11  Pass 1  IDiag  1:
 RMSU=  1.07D-06    CP:  1.00D+00  1.01D+00  4.04D-01
 E= -1227.44806936978     Delta-E=       -0.000004313864 Rises=F Damp=F
 DIIS: error= 7.91D-06 at cycle   4 NSaved=   4.
 NSaved= 4 IEnMin= 4 EnMin= -1227.44806936978     IErMin= 4 ErrMin= 7.91D-06
 ErrMax= 7.91D-06  0.00D+00 EMaxC= 1.00D-01 BMatC= 5.81D-08 BMatP= 2.00D-06
 IDIUse=1 WtCom= 1.00D+00 WtEn= 0.00D+00
 Coeff-Com: -0.426D-02 0.358D+00 0.250D+00 0.396D+00
 Coeff:     -0.426D-02 0.358D+00 0.250D+00 0.396D+00
 Gap=     0.226 Goal=   None    Shift=    0.000
 RMSDP=6.47D-07 MaxDP=2.94D-05 DE=-4.31D-06 OVMax= 4.66D-05

 Cycle  12  Pass 1  IDiag  1:
 RMSU=  3.59D-07    CP:  1.00D+00  1.01D+00  4.15D-01  5.11D-01
 E= -1227.44806942062     Delta-E=       -0.000000050843 Rises=F Damp=F
 DIIS: error= 1.09D-06 at cycle   5 NSaved=   5.
 NSaved= 5 IEnMin= 5 EnMin= -1227.44806942062     IErMin= 5 ErrMin= 1.09D-06
 ErrMax= 1.09D-06  0.00D+00 EMaxC= 1.00D-01 BMatC= 1.34D-09 BMatP= 5.81D-08
 IDIUse=1 WtCom= 1.00D+00 WtEn= 0.00D+00
 Coeff-Com: -0.251D-02 0.196D+00 0.137D+00 0.235D+00 0.434D+00
 Coeff:     -0.251D-02 0.196D+00 0.137D+00 0.235D+00 0.434D+00
 Gap=     0.226 Goal=   None    Shift=    0.000
 RMSDP=1.34D-07 MaxDP=4.65D-06 DE=-5.08D-08 OVMax= 1.05D-05

 Cycle  13  Pass 1  IDiag  1:
 RMSU=  1.11D-07    CP:  1.00D+00  1.01D+00  4.15D-01  5.27D-01  8.00D-01
 E= -1227.44806942195     Delta-E=       -0.000000001333 Rises=F Damp=F
 DIIS: error= 2.56D-07 at cycle   6 NSaved=   6.
 NSaved= 6 IEnMin= 6 EnMin= -1227.44806942195     IErMin= 6 ErrMin= 2.56D-07
 ErrMax= 2.56D-07  0.00D+00 EMaxC= 1.00D-01 BMatC= 8.08D-11 BMatP= 1.34D-09
 IDIUse=1 WtCom= 1.00D+00 WtEn= 0.00D+00
 Coeff-Com: -0.675D-03 0.490D-01 0.344D-01 0.643D-01 0.227D+00 0.626D+00
 Coeff:     -0.675D-03 0.490D-01 0.344D-01 0.643D-01 0.227D+00 0.626D+00
 Gap=     0.226 Goal=   None    Shift=    0.000
 RMSDP=3.61D-08 MaxDP=2.36D-06 DE=-1.33D-09 OVMax= 2.33D-06

 Cycle  14  Pass 1  IDiag  1:
 RMSU=  2.89D-08    CP:  1.00D+00  1.01D+00  4.15D-01  5.29D-01  8.32D-01
                    CP:  8.41D-01
 E= -1227.44806942199     Delta-E=       -0.000000000034 Rises=F Damp=F
 DIIS: error= 5.48D-08 at cycle   7 NSaved=   7.
 NSaved= 7 IEnMin= 7 EnMin= -1227.44806942199     IErMin= 7 ErrMin= 5.48D-08
 ErrMax= 5.48D-08  0.00D+00 EMaxC= 1.00D-01 BMatC= 5.84D-12 BMatP= 8.08D-11
 IDIUse=1 WtCom= 1.00D+00 WtEn= 0.00D+00
 Coeff-Com: -0.106D-03 0.658D-02 0.464D-02 0.104D-01 0.710D-01 0.292D+00
 Coeff-Com:  0.615D+00
 Coeff:     -0.106D-03 0.658D-02 0.464D-02 0.104D-01 0.710D-01 0.292D+00
 Coeff:      0.615D+00
 Gap=     0.226 Goal=   None    Shift=    0.000
 RMSDP=1.10D-08 MaxDP=5.30D-07 DE=-3.37D-11 OVMax= 4.74D-07

 Cycle  15  Pass 1  IDiag  1:
 RMSU=  7.99D-09    CP:  1.00D+00  1.01D+00  4.15D-01  5.30D-01  8.37D-01
                    CP:  8.61D-01  7.72D-01
 E= -1227.44806942200     Delta-E=       -0.000000000010 Rises=F Damp=F
 DIIS: error= 2.25D-08 at cycle   8 NSaved=   8.
 NSaved= 8 IEnMin= 8 EnMin= -1227.44806942200     IErMin= 8 ErrMin= 2.25D-08
 ErrMax= 2.25D-08  0.00D+00 EMaxC= 1.00D-01 BMatC= 6.94D-13 BMatP= 5.84D-12
 IDIUse=1 WtCom= 1.00D+00 WtEn= 0.00D+00
 Coeff-Com:  0.154D-04-0.168D-02-0.113D-02-0.139D-02 0.126D-01 0.794D-01
 Coeff-Com:  0.311D+00 0.602D+00
 Coeff:      0.154D-04-0.168D-02-0.113D-02-0.139D-02 0.126D-01 0.794D-01
 Coeff:      0.311D+00 0.602D+00
 Gap=     0.226 Goal=   None    Shift=    0.000
 RMSDP=3.26D-09 MaxDP=1.77D-07 DE=-1.00D-11 OVMax= 1.54D-07

 SCF Done:  E(RB3LYP) =  -1227.44806942     A.U. after   15 cycles
            NFock= 15  Conv=0.33D-08     -V/T= 2.0092
 KE= 1.216237336614D+03 PE=-8.712959051626D+03 EE= 3.337590865106D+03
 Leave Link  502 at Sun Feb 25 07:09:41 2024, MaxMem=  7516192768 cpu:            1431.2 elap:              35.9
 (Enter /public/apps/g16-C01//g16/l601.exe)
 Copying SCF densities to generalized density rwf, IOpCl= 0 IROHF=0.

 **********************************************************************

            Population analysis using the SCF Density.

 **********************************************************************

 Alpha  occ. eigenvalues --  -19.17057 -19.15915 -14.30008 -14.29390 -10.26994
 Alpha  occ. eigenvalues --  -10.26462 -10.24389 -10.23643 -10.21523 -10.21063
 Alpha  occ. eigenvalues --  -10.21035 -10.18769 -10.18640 -10.18329 -10.18170
 Alpha  occ. eigenvalues --  -10.18117 -10.18098 -10.18070 -10.17978 -10.17976
 Alpha  occ. eigenvalues --  -10.17906 -10.17878 -10.17865 -10.17864 -10.17733
 Alpha  occ. eigenvalues --  -10.17713 -10.17341 -10.16562 -10.14591  -1.09136
 Alpha  occ. eigenvalues --   -1.08227  -0.90909  -0.90034  -0.87019  -0.86162
 Alpha  occ. eigenvalues --   -0.83524  -0.80464  -0.79508  -0.75182  -0.75008
 Alpha  occ. eigenvalues --   -0.74381  -0.72284  -0.71898  -0.70118  -0.68898
 Alpha  occ. eigenvalues --   -0.67257  -0.63310  -0.62273  -0.60769  -0.60111
 Alpha  occ. eigenvalues --   -0.58870  -0.58862  -0.57762  -0.57200  -0.56730
 Alpha  occ. eigenvalues --   -0.53355  -0.52409  -0.52064  -0.50749  -0.49552
 Alpha  occ. eigenvalues --   -0.48350  -0.47130  -0.45873  -0.45767  -0.45436
 Alpha  occ. eigenvalues --   -0.45141  -0.44744  -0.44443  -0.43571  -0.43091
 Alpha  occ. eigenvalues --   -0.42828  -0.42551  -0.41776  -0.41431  -0.41232
 Alpha  occ. eigenvalues --   -0.40804  -0.40132  -0.39816  -0.39055  -0.37916
 Alpha  occ. eigenvalues --   -0.37285  -0.36623  -0.36192  -0.35539  -0.35461
 Alpha  occ. eigenvalues --   -0.35159  -0.34756  -0.34625  -0.34027  -0.33859
 Alpha  occ. eigenvalues --   -0.33679  -0.33344  -0.32992  -0.32303  -0.31746
 Alpha  occ. eigenvalues --   -0.27121  -0.26534  -0.25833  -0.25285  -0.25041
 Alpha  occ. eigenvalues --   -0.24583  -0.24220  -0.23725
 Alpha virt. eigenvalues --   -0.01154  -0.01082  -0.00304  -0.00127   0.02524
 Alpha virt. eigenvalues --    0.02902   0.05997   0.06259   0.06801   0.07627
 Alpha virt. eigenvalues --    0.08001   0.08543   0.09073   0.10271   0.10501
 Alpha virt. eigenvalues --    0.10904   0.11276   0.11683   0.11839   0.12591
 Alpha virt. eigenvalues --    0.12986   0.13381   0.13893   0.14205   0.14758
 Alpha virt. eigenvalues --    0.14815   0.15126   0.15296   0.15750   0.16127
 Alpha virt. eigenvalues --    0.16272   0.16635   0.17098   0.17644   0.18272
 Alpha virt. eigenvalues --    0.18743   0.19413   0.20383   0.20718   0.21574
 Alpha virt. eigenvalues --    0.22173   0.23083   0.23641   0.23853   0.25541
 Alpha virt. eigenvalues --    0.26145   0.26407   0.26874   0.27082   0.28476
 Alpha virt. eigenvalues --    0.29019   0.29920   0.30767   0.31660   0.31762
 Alpha virt. eigenvalues --    0.32266   0.33052   0.33792   0.34813   0.35395
 Alpha virt. eigenvalues --    0.36562   0.36911   0.37466   0.37965   0.39338
 Alpha virt. eigenvalues --    0.40494   0.41624   0.42007   0.42269   0.42670
 Alpha virt. eigenvalues --    0.43375   0.44103   0.44802   0.45262   0.45807
 Alpha virt. eigenvalues --    0.46394   0.46650   0.46909   0.47343   0.47744
 Alpha virt. eigenvalues --    0.48745   0.48901   0.49128   0.49790   0.50646
 Alpha virt. eigenvalues --    0.50915   0.51171   0.51678   0.52256   0.52742
 Alpha virt. eigenvalues --    0.53240   0.54307   0.55280   0.55598   0.57035
 Alpha virt. eigenvalues --    0.57203   0.57597   0.58247   0.58580   0.58950
 Alpha virt. eigenvalues --    0.59649   0.60089   0.60509   0.61412   0.61751
 Alpha virt. eigenvalues --    0.62153   0.63127   0.63247   0.63794   0.63917
 Alpha virt. eigenvalues --    0.64331   0.65294   0.65551   0.65832   0.66154
 Alpha virt. eigenvalues --    0.66483   0.66783   0.67259   0.67542   0.68272
 Alpha virt. eigenvalues --    0.68395   0.68691   0.68982   0.69160   0.69279
 Alpha virt. eigenvalues --    0.69650   0.69657   0.69994   0.70515   0.70690
 Alpha virt. eigenvalues --    0.70965   0.71342   0.71808   0.71987   0.72446
 Alpha virt. eigenvalues --    0.72790   0.73497   0.73795   0.74135   0.74350
 Alpha virt. eigenvalues --    0.74833   0.75279   0.75530   0.75823   0.76349
 Alpha virt. eigenvalues --    0.77080   0.77352   0.77644   0.78550   0.78593
 Alpha virt. eigenvalues --    0.79404   0.79754   0.80160   0.81505   0.81980
 Alpha virt. eigenvalues --    0.82748   0.83303   0.83657   0.84614   0.84813
 Alpha virt. eigenvalues --    0.86123   0.87174   0.87319   0.89157   0.89410
 Alpha virt. eigenvalues --    0.90636   0.91563   0.92386   0.93967   0.94806
 Alpha virt. eigenvalues --    0.95349   0.95917   0.96081   0.97500   0.98835
 Alpha virt. eigenvalues --    1.00281   1.02732   1.04088   1.04688   1.06450
 Alpha virt. eigenvalues --    1.09096   1.09647   1.11622   1.12028   1.13537
 Alpha virt. eigenvalues --    1.13953   1.14452   1.15081   1.16324   1.17013
 Alpha virt. eigenvalues --    1.19392   1.21853   1.22706   1.24301   1.26737
 Alpha virt. eigenvalues --    1.27719   1.29159   1.30099   1.31001   1.31943
 Alpha virt. eigenvalues --    1.32915   1.34168   1.36107   1.38824   1.40814
 Alpha virt. eigenvalues --    1.42119   1.43412   1.44622   1.46263   1.46524
 Alpha virt. eigenvalues --    1.47570   1.49221   1.49721   1.50183   1.51079
 Alpha virt. eigenvalues --    1.52544   1.53173   1.55563   1.56823   1.58853
 Alpha virt. eigenvalues --    1.60229   1.62570   1.64855   1.65498   1.65942
 Alpha virt. eigenvalues --    1.67987   1.69621   1.71232   1.71906   1.73987
 Alpha virt. eigenvalues --    1.74620   1.75655   1.77345   1.77578   1.78279
 Alpha virt. eigenvalues --    1.78422   1.79064   1.80240   1.81613   1.82029
 Alpha virt. eigenvalues --    1.82819   1.83858   1.85328   1.85896   1.86437
 Alpha virt. eigenvalues --    1.86692   1.87473   1.87846   1.88327   1.88519
 Alpha virt. eigenvalues --    1.89501   1.90877   1.91352   1.91874   1.94608
 Alpha virt. eigenvalues --    1.95500   1.96428   1.97572   1.98234   1.99031
 Alpha virt. eigenvalues --    1.99978   2.01241   2.01474   2.01966   2.03230
 Alpha virt. eigenvalues --    2.03994   2.04260   2.05037   2.05719   2.07571
 Alpha virt. eigenvalues --    2.09665   2.12298   2.12837   2.12973   2.13755
 Alpha virt. eigenvalues --    2.14518   2.14654   2.16384   2.17027   2.17286
 Alpha virt. eigenvalues --    2.17874   2.18467   2.19287   2.20841   2.21210
 Alpha virt. eigenvalues --    2.22504   2.23102   2.23320   2.25576   2.26757
 Alpha virt. eigenvalues --    2.27535   2.28000   2.29836   2.30323   2.32730
 Alpha virt. eigenvalues --    2.33500   2.33963   2.34472   2.36003   2.36413
 Alpha virt. eigenvalues --    2.40764   2.41238   2.42162   2.42777   2.47149
 Alpha virt. eigenvalues --    2.48204   2.48832   2.49818   2.51420   2.52282
 Alpha virt. eigenvalues --    2.55237   2.55632   2.57110   2.57719   2.58638
 Alpha virt. eigenvalues --    2.60751   2.61854   2.63271   2.65302   2.65973
 Alpha virt. eigenvalues --    2.66732   2.69602   2.70089   2.71424   2.74643
 Alpha virt. eigenvalues --    2.75121   2.75822   2.77141   2.77788   2.79411
 Alpha virt. eigenvalues --    2.80616   2.83803   2.84304   2.85077   2.85230
 Alpha virt. eigenvalues --    2.89822   2.90124   2.92624   2.93993   2.97577
 Alpha virt. eigenvalues --    2.98991   3.01144   3.03323   3.10998   3.11523
 Alpha virt. eigenvalues --    3.15725   3.16903   3.25428   3.26697   3.39446
 Alpha virt. eigenvalues --    3.41774   3.43407   3.43641   3.59880   3.65171
          Condensed to atoms (all electrons):
 Mulliken charges:
               1
     1  C   -0.218531
     2  C   -0.113709
     3  C   -0.104618
     4  C   -0.099281
     5  C   -0.246986
     6  C    0.090339
     7  N   -0.140228
     8  C    0.008861
     9  C    0.068667
    10  C   -0.113968
    11  C   -0.045648
    12  C   -0.031571
    13  C   -0.138213
    14  C   -0.020280
    15  C    0.021722
    16  C    0.059087
    17  O   -0.305120
    18  C    0.103740
    19  N   -0.140351
    20  C    0.002727
    21  C    0.078851
    22  C   -0.118272
    23  C   -0.041620
    24  C   -0.043169
    25  C   -0.133659
    26  C   -0.020396
    27  C    0.047491
    28  C    0.045264
    29  O   -0.300011
    30  H    0.092966
    31  H    0.097150
    32  H    0.090435
    33  H    0.083093
    34  H    0.088308
    35  H    0.072578
    36  H    0.083619
    37  H    0.125162
    38  H    0.105340
    39  H    0.076805
    40  H    0.071905
    41  H    0.046105
    42  H    0.043028
    43  H    0.043796
    44  H    0.026045
    45  H    0.087943
    46  H    0.086404
    47  H    0.070340
    48  H    0.069065
    49  H    0.034677
    50  H    0.043598
    51  H    0.043147
    52  H    0.026985
    53  H    0.093064
    54  H    0.078666
    55  H    0.068658
 Sum of Mulliken charges =  -0.00000
 Mulliken charges with hydrogens summed into heavy atoms:
               1
     1  C    0.062021
     2  C    0.057692
     3  C   -0.104618
     4  C    0.056916
     5  C    0.060321
     6  C    0.090339
     7  N   -0.140228
     8  C    0.080767
     9  C    0.068667
    10  C   -0.067864
    11  C   -0.002620
    12  C    0.012224
    13  C   -0.112167
    14  C   -0.020280
    15  C    0.196069
    16  C    0.129426
    17  O   -0.305120
    18  C    0.103740
    19  N   -0.140351
    20  C    0.071792
    21  C    0.078851
    22  C   -0.083596
    23  C    0.001978
    24  C   -0.000022
    25  C   -0.106674
    26  C   -0.020396
    27  C    0.219222
    28  C    0.113922
    29  O   -0.300011
 Electronic spatial extent (au):  <R**2>=           9218.7344
 Charge=              0.0000 electrons
 Dipole moment (field-independent basis, Debye):
    X=             -0.2822    Y=              1.0413    Z=             -0.8859  Tot=              1.3960
 Quadrupole moment (field-independent basis, Debye-Ang):
   XX=           -164.8824   YY=           -161.3148   ZZ=           -165.4528
   XY=              0.3763   XZ=             -1.6198   YZ=              2.6498
 Traceless Quadrupole moment (field-independent basis, Debye-Ang):
   XX=             -0.9991   YY=              2.5685   ZZ=             -1.5695
   XY=              0.3763   XZ=             -1.6198   YZ=              2.6498
 Octapole moment (field-independent basis, Debye-Ang**2):
  XXX=             -2.7406  YYY=             28.3071  ZZZ=            -18.9565  XYY=             20.3395
  XXY=             -9.9149  XXZ=              5.7588  XZZ=            -10.3800  YZZ=              3.8770
  YYZ=             -5.9063  XYZ=              2.2793
 Hexadecapole moment (field-independent basis, Debye-Ang**3):
 XXXX=          -5437.6417 YYYY=          -5117.3871 ZZZZ=          -1866.2994 XXXY=             80.8484
 XXXZ=            133.9104 YYYX=            -30.9019 YYYZ=           -591.0574 ZZZX=            179.5554
 ZZZY=           -574.2804 XXYY=          -1899.2802 XXZZ=          -1206.7998 YYZZ=          -1116.3118
 XXYZ=           -202.1227 YYXZ=             -3.6508 ZZXY=             -1.9903
 N-N= 2.931682780483D+03 E-N=-8.712959044147D+03  KE= 1.216237336614D+03
 No NMR shielding tensors so no spin-rotation constants.
 Leave Link  601 at Sun Feb 25 07:09:41 2024, MaxMem=  7516192768 cpu:               6.4 elap:               0.2
 (Enter /public/apps/g16-C01//g16/l701.exe)
 ... and contract with generalized density number  0.
 Compute integral first derivatives.
 R6Disp: Adding Grimme-D3(BJ) dispersion energy 1st derivatives to the gradient.
   1 Symmetry operations used in ECPInt.
 ECPInt:  NShTT=   25651 NPrTT=  102833 LenC2=   23989 LenP2D=   63622.
 LDataN:  DoStor=T MaxTD1= 5 Len=  102
 Leave Link  701 at Sun Feb 25 07:09:42 2024, MaxMem=  7516192768 cpu:              11.3 elap:               0.3
 (Enter /public/apps/g16-C01//g16/l702.exe)
 L702 exits ... SP integral derivatives will be done elsewhere.
 Leave Link  702 at Sun Feb 25 07:09:42 2024, MaxMem=  7516192768 cpu:               0.4 elap:               0.0
 (Enter /public/apps/g16-C01//g16/l703.exe)
 Integral derivatives from FoFJK, PRISM(SPDF).
 Compute integral first derivatives, UseDBF=F ICtDFT=           0.
 Calling FoFJK, ICntrl=      2127 FMM=F ISym2X=0 I1Cent= 0 IOpClX= 0 NMat=1 NMatS=1 NMatT=0.
 FoFJK:  IHMeth= 1 ICntrl=    2127 DoSepK=F KAlg= 0 I1Cent=           0 FoldK=F
 IRaf=         0 NMat=       1 IRICut=       1 DoRegI=T DoRafI=F ISym2E= 0 IDoP0=0 IntGTp=1.
 FoFCou: FMM=F IPFlag=           0 FMFlag=      100000 FMFlg1=         800
         NFxFlg=           0 DoJE=F BraDBF=F KetDBF=F FulRan=T
         wScrn=  0.000000 ICntrl=      2127 IOpCl=  0 I1Cent=           0 NGrid=           0
         NMat0=    1 NMatS0=      1 NMatT0=    0 NMatD0=    1 NMtDS0=    0 NMtDT0=    0
 Symmetry not used in FoFCou.
 Leave Link  703 at Sun Feb 25 07:09:50 2024, MaxMem=  7516192768 cpu:             321.4 elap:               8.2
 (Enter /public/apps/g16-C01//g16/l716.exe)
 Dipole        =-1.11043403D-01 4.09683859D-01-3.48556456D-01
 -------------------------------------------------------------------
 Center     Atomic                   Forces (Hartrees/Bohr)
 Number     Number              X              Y              Z
 -------------------------------------------------------------------
      1        6          -0.005916288    0.008019481   -0.002552162
      2        6           0.002333620   -0.006776794    0.002820109
      3        6           0.002908791    0.006724282   -0.003370182
      4        6          -0.009836743   -0.001426868   -0.000494461
      5        6           0.006520812   -0.000725506   -0.001862689
      6        6           0.003866228    0.000215360   -0.002728038
      7        7          -0.007759879   -0.011106175   -0.007436048
      8        6          -0.000099191    0.001362068    0.003573594
      9        6           0.004081020    0.004257417   -0.004256287
     10        6          -0.001080343   -0.001147167   -0.001850819
     11        6          -0.003489735   -0.004316398   -0.002396482
     12        6          -0.002165074    0.002261925    0.004867392
     13        6          -0.000490891    0.001476259    0.002385687
     14        6           0.004799445    0.002175454   -0.002019383
     15        6           0.000867603   -0.004242507   -0.002809784
     16        6          -0.006253096    0.009708213   -0.001909593
     17        8           0.008976755   -0.001879001    0.005853179
     18        6           0.003242043   -0.001395644    0.001015688
     19        7           0.001931960   -0.003814287    0.015298802
     20        6           0.000092608    0.001535098   -0.001693543
     21        6           0.005456264   -0.002902410   -0.003141592
     22        6           0.000083162   -0.000838136    0.001630701
     23        6          -0.001618990   -0.001585044    0.005952930
     24        6          -0.005008726    0.002017500   -0.002622702
     25        6          -0.001979786    0.000711061   -0.002099115
     26        6           0.004211459   -0.000312789   -0.003432513
     27        6           0.002561265    0.000233198    0.002811970
     28        6          -0.005152562   -0.004854192   -0.004859996
     29        8           0.008052914    0.004015863   -0.003985242
     30        1           0.004027481   -0.000832939    0.010238964
     31        1          -0.002168993   -0.011067965   -0.001853183
     32        1           0.009507797    0.000230770   -0.005503137
     33        1           0.001587217    0.007172209    0.000656868
     34        1          -0.000838478    0.001752882   -0.006813642
     35        1           0.005971624    0.004679481    0.001289241
     36        1           0.005691096   -0.005493961    0.002281072
     37        1          -0.006132504   -0.006220307   -0.000432590
     38        1          -0.005620993    0.009424439   -0.000895083
     39        1           0.000789257    0.000367567    0.011168511
     40        1          -0.001623438    0.002334061   -0.006387293
     41        1          -0.001360575   -0.007686071   -0.006347439
     42        1          -0.008163716   -0.006542469    0.000514097
     43        1          -0.006969350    0.000624758    0.007572784
     44        1           0.000994940    0.006784726    0.007586251
     45        1           0.005245859    0.001866747    0.005702689
     46        1          -0.000449665    0.008825678   -0.001231254
     47        1           0.002407345    0.002518664   -0.002937489
     48        1           0.001728978   -0.006445947    0.000318995
     49        1           0.003708142   -0.003619586    0.009072925
     50        1          -0.006325005   -0.001618376    0.007868270
     51        1          -0.009879110    0.001861209   -0.000502345
     52        1          -0.004021032    0.003747396   -0.008283371
     53        1           0.001112162    0.006272023   -0.003469652
     54        1          -0.001329376   -0.003844729   -0.007854069
     55        1           0.002975694   -0.002480522   -0.002449540
 -------------------------------------------------------------------
 Cartesian Forces:  Max     0.015298802 RMS     0.004860484
 Leave Link  716 at Sun Feb 25 07:09:50 2024, MaxMem=  7516192768 cpu:               1.1 elap:               0.1
 (Enter /public/apps/g16-C01//g16/l103.exe)

 GradGradGradGradGradGradGradGradGradGradGradGradGradGradGradGradGradGrad
 Berny optimization.
 FormGI is forming the generalized inverse of G from B-inverse, IUseBI=4.
[...]
 00002012,0.00014204,-0.00011459,-0.00002872,0.00001790,0.00000145,-0.0
 0000319,0.00001129,0.00000633,-0.00000164,0.00000252,0.00000223,0.0000
 0401,0.00000545,0.00000270,0.00000230,-0.00000192,-0.00000252,0.000003
 75,-0.00000274,0.00000152,-0.00008038,-0.00001283,0.00002965,-0.000108
 79,-0.00030667,-0.00015669,-0.00046365,0.00040512,-0.00083795,-0.00014
 658,-0.00143120,0.00070089,0.08276954,-0.09466464,0.28968077,-0.000000
 96,0.00002195,0.00002232,-0.00001754,-0.00001370,-0.00007238,-0.000064
 51,0.00005916,0.00001391,0.00000441,0.00001532,0.00000098,0.00001941,-
 0.00001378,-0.00000998,0.00003969,-0.00018412,-0.00006612,-0.00026510,
 -0.00009214,-0.00016880,0.00003621,0.00004887,0.00012882,-0.00003434,0
 .00001673,0.00001626,0.00002265,0.00004373,-0.00000599,-0.00003821,-0.
 00001821,0.00000787,0.00000785,-0.00000075,-0.00002023,0.00000813,0.00
 000150,-0.00000226,0.00000796,0.00000898,0.00000297,-0.00000501,-0.000
 00164,0.00000086,0.00000755,0.00001966,-0.00001458,-0.00007735,-0.0000
 4705,-0.00005858,0.00025968,-0.00008579,-0.00120931,-0.00005161,-0.000
 72976,-0.00058106,-0.00309040,0.00044397,0.00011899,-0.00232122,-0.000
 07332,0.00070272,0.00028845,0.00076439,0.00060831,-0.00016460,-0.00024
 867,0.00030208,0.00043037,0.00059816,0.00021217,0.00103692,0.00026403,
 0.00029755,-0.00212267,-0.02340827,0.00967453,-0.04890129,-0.02789574,
 0.00995419,0.00142119,0.02556478,-0.01047262,0.00235704,0.00066846,0.0
 0193447,0.00000915,-0.00000630,0.00000610,0.00000018,0.00000358,-0.000
 00842,-0.00000332,-0.00000231,-0.00000230,0.00000536,-0.00000164,0.000
 02322,-0.00005388,-0.00003751,0.00001561,0.00000420,-0.00000518,0.0000
 0202,0.00000985,0.00000452,0.00000809,-0.00002789,-0.00000120,0.000008
 43,-0.00000265,-0.00000502,-0.00000069,-0.00000476,-0.00000473,-0.0000
 0298,0.00000903,0.00006684,-0.00003111,-0.00005324,-0.00005562,0.00004
 789,0.00002539,-0.00000773,-0.00001128,0.00000100,-0.00000350,-0.00000
 230,0.00000233,0.00000044,-0.00000116,0.00000178,-0.00000129,-0.000003
 28,0.00000261,0.00000242,0.00000004,-0.00000270,-0.00000691,-0.0000014
 4,0.00027499,0.00001336,-0.00052184,-0.00012697,-0.00000729,0.00017473
 ,-0.00001018,-0.00001452,-0.00002724,-0.00001809,0.00003289,-0.0000199
 3,-0.00041487,-0.00016701,-0.00048599,0.05349723,0.00000580,0.00001040
 ,-0.00001367,-0.00000824,-0.00000859,0.00004834,0.00005317,-0.00003257
 ,0.00008203,0.00003467,-0.00000128,-0.00003475,-0.00000177,0.00000743,
 -0.00000650,-0.00030503,-0.00005239,-0.00014613,0.00018436,-0.00046177
 ,0.00002466,0.00004691,-0.00013693,-0.00004892,0.00000133,0.00001302,-
 0.00000325,-0.00003069,-0.00002245,-0.00002026,0.00000395,0.00001747,0
 .00000162,-0.00000691,-0.00000139,0.00000381,0.00000015,-0.00000105,-0
 .00000179,-0.00000629,0.00000024,0.00000751,0.00000546,0.00000445,-0.0
 0000453,0.00004307,-0.00005234,0.00003569,0.00008782,0.00020405,0.0000
 4904,-0.00028568,0.00055104,0.00048587,0.00016790,0.00000476,-0.000297
 01,0.00014994,-0.00060603,-0.00069279,0.00000980,-0.00034155,-0.000412
 00,0.00011979,-0.00008335,-0.00010734,-0.00014307,0.00015746,-0.000421
 86,-0.00039434,0.00001398,0.00058996,0.00103355,0.00026429,0.00002184,
 -0.00128414,0.00479379,0.00065158,-0.02433085,-0.28034697,0.08795851,-
 0.00020531,-0.00602502,0.00201888,-0.00223542,0.00104602,-0.00205554,-
 0.00000390,-0.00000295,-0.00000254,0.,-0.00001085,0.00000987,0.0000114
 6,-0.00000224,0.00000078,-0.00000089,0.00000015,-0.00000737,-0.0000081
 1,0.00000562,-0.00000416,0.00000276,0.00000216,0.00001417,0.00000467,-
 0.00000145,0.00001161,-0.00000279,0.00000493,0.00000355,0.00000366,-0.
 00000430,-0.00000221,-0.00000029,-0.00000164,0.00000375,0.00000044,-0.
 00000282,-0.00000688,0.00006431,-0.00002522,0.00001219,-0.00000128,-0.
 00000262,0.00000152,-0.00000120,0.00000003,0.00000370,0.00000071,0.000
 00173,0.00000333,-0.00000011,-0.00000087,0.00000301,-0.00000500,0.0000
 0693,0.00000167,-0.00000201,0.00000962,-0.00000553,-0.00006952,0.00000
 454,0.00027260,0.00000429,0.00002289,-0.00002353,-0.00002875,-0.000046
 66,-0.00002390,-0.00000819,-0.00001611,0.00001949,-0.00026076,-0.00015
 109,-0.00000123,0.02814517,0.29669191,0.00002821,0.00003695,-0.0000149
 8,-0.00002900,-0.00007848,0.00005148,-0.00000133,0.00010422,0.00016353
 ,0.00005480,-0.00003753,-0.00005633,0.00001299,0.00001777,0.00000127,-
 0.00119864,-0.00025040,-0.00064583,0.00043756,0.00005316,0.00102874,0.
 00042262,-0.00036204,0.00005075,0.00005049,-0.00000847,-0.00009493,-0.
 00003507,-0.00002226,0.00001436,0.00002910,0.00002299,-0.00001048,-0.0
 0002024,0.00000026,0.00003327,-0.00000973,-0.00001568,-0.00000323,-0.0
 0002239,0.00000136,0.00001563,0.00004297,0.00000870,-0.00000932,0.0001
 7936,-0.00007498,0.00010278,0.00041547,0.00092220,0.00022426,0.0000340
 6,0.00043481,-0.00156118,-0.00027130,-0.00062664,-0.00000469,-0.001184
 90,0.00142884,-0.00082238,0.00183445,0.00006375,-0.00142515,-0.0005248
 8,-0.00076636,-0.00065346,0.00026875,-0.00007239,0.00033838,0.00010486
 ,-0.00052550,-0.00103357,-0.00177421,-0.00001877,0.00082545,0.00369318
 ,0.01848631,-0.00914437,0.00850079,0.08466565,-0.07467043,0.00095181,0
 .01363722,-0.00691261,0.00120440,0.00022183,0.00203499,0.00000353,-0.0
 0000490,0.00000633,-0.00000138,-0.00000879,-0.00000212,0.00002601,-0.0
 0001239,0.00000141,-0.00001177,-0.00000171,0.00000235,-0.00003380,-0.0
 0000936,0.00001080,-0.00000355,0.00000144,0.00001823,0.00002640,-0.000
 00404,0.00005344,-0.00001020,0.00001545,-0.00000531,0.00001055,-0.0000
 2468,-0.00002269,0.00000670,-0.00000721,0.00002101,-0.00004489,-0.0000
 0876,-0.00004622,0.00009646,0.00004885,-0.00003741,-0.00003092,0.00000
 032,0.00002090,-0.00000694,0.00000229,0.00000977,-0.00000086,0.0000043
 7,0.00000872,-0.00000972,0.00000064,0.00001498,-0.00002129,0.00001783,
 0.00000717,-0.00000642,0.00003950,-0.00001305,-0.00009817,0.00001853,-
 0.00060817,0.00013014,0.00006142,-0.00014811,0.00006344,0.00012943,0.0
 0003548,0.00003241,-0.00000115,-0.00000017,0.00022600,0.00038297,0.000
 31387,-0.01087929,-0.09486505,0.08257422,0.00000549,0.00001356,0.00000
 613,0.00005649,0.00000039,-0.00000684,0.00014100,0.00002452,-0.0001709
 1,-0.00003203,-0.00007801,0.00002932,-0.00001086,-0.00000340,-0.000014
 09,-0.00012856,0.00016790,-0.00004978,0.00016643,-0.00005944,-0.000029
 56,-0.00006565,0.00001621,-0.00000430,-0.00002666,-0.00000253,0.000040
 98,-0.00000347,-0.00003760,-0.00003901,-0.00001290,0.00001287,0.000010
 94,0.00000675,-0.00000127,-0.00001445,0.00000829,0.00001291,0.00000739
 ,0.00001430,-0.00000508,-0.00000621,-0.00001068,-0.00000043,0.00000630
 ,-0.00004725,0.00002404,-0.00001638,0.00007222,-0.00013813,0.00003222,
 -0.00085283,-0.00008744,0.00208948,0.00057553,0.00027173,-0.00102978,-
 0.00174542,0.00076032,-0.00022387,-0.00233690,0.00012096,0.00056025,-0
 .00021769,-0.00103678,0.00010263,-0.00007399,0.00005650,0.00053748,0.0
 0020247,-0.00080570,-0.00034425,0.00057809,-0.00062467,0.00012992,0.00
 435426,0.01658074,0.02101390,-0.05189446,-0.01952205,-0.02670082,-0.00
 106509,-0.01670303,-0.01797636,-0.00484356,-0.00040712,-0.00485128,-0.
 00000673,-0.00000473,-0.00000883,0.00002713,-0.00003057,0.00000573,-0.
 00001981,-0.00000970,0.00000017,-0.00003366,-0.00001558,-0.00001315,0.
 00002453,0.00003503,-0.00002546,-0.00000249,-0.00001975,-0.00004687,0.
 00001852,0.00000052,0.00000799,-0.00003092,0.00001773,0.00002326,-0.00
 000064,-0.00001467,-0.00000175,0.00000507,-0.00000718,-0.00001731,0.00
 000994,-0.00001017,0.00000322,-0.00000480,-0.00003922,0.00000891,0.000
 02462,-0.00000737,-0.00001234,0.00000150,0.00000105,0.00000134,0.00000
 135,0.00000336,-0.00000050,0.00000615,0.00000499,-0.00000270,0.0000100
 9,-0.00000074,-0.00000433,0.00001003,-0.00000686,0.00000238,0.00029727
 ,0.00011080,-0.00030619,-0.00013050,-0.00003927,0.00017546,0.00000098,
 0.00002510,-0.00000574,-0.00004818,-0.00000913,-0.00002018,-0.00020842
 ,0.00054953,-0.00028302,-0.00018103,-0.00121458,-0.00216833,0.05688255
 ,-0.00000714,-0.00000603,0.00001045,0.00001587,0.00001333,-0.00002526,
 0.00001791,-0.00003083,0.00005675,-0.00000870,0.00003478,0.00002236,0.
 00000343,-0.00000030,0.00000014,0.00039754,0.00014131,0.00023707,-0.00
 013453,-0.00024046,-0.00049607,-0.00016134,0.00011284,-0.00001330,-0.0
 0001942,0.00000235,0.00002719,0.00001202,0.00001004,0.00001143,-0.0000
 0087,-0.00000945,-0.00000115,0.00000518,-0.00000028,-0.00000369,0.0000
 0072,0.00000142,0.00000247,0.00000970,0.00000027,-0.00000849,-0.000015
 61,-0.00000222,-0.00000018,-0.00005566,0.00003116,-0.00004231,-0.00012
 568,-0.00034398,-0.00007137,0.00006565,0.00020175,0.00062567,0.0000765
 9,0.00022183,0.00006567,0.00057521,-0.00065458,0.00069511,-0.00000289,
 -0.00053667,0.00053527,0.00000744,-0.00028656,0.00007158,0.00005873,-0
 .00004655,0.00002733,0.00014637,-0.00007107,-0.00008853,0.00004629,0.0
 0077128,-0.00036141,0.00118318,0.00391927,0.00390701,-0.02305058,-0.14
 785081,-0.12510824,0.00218010,0.00512266,0.00848401,-0.00030440,0.0002
 3254,0.00006451,-0.00000030,0.00000284,-0.00000167,0.00000757,-0.00000
 078,-0.00000496,-0.00001779,-0.00000008,0.00000004,-0.00000400,-0.0000
 0397,-0.00000025,0.00001442,0.00000122,-0.00000473,-0.00000166,-0.0000
 0523,0.00000134,-0.00000061,0.00000473,-0.00001584,-0.00000266,-0.0000
 0090,0.00001076,-0.00000382,0.00000488,0.00000866,-0.00000468,0.000000
 41,-0.00001082,0.00000602,0.00001818,0.00000993,-0.00002784,0.00000502
 ,0.00000188,-0.00000131,0.00000632,-0.00000081,0.00000242,0.00000006,-
 0.00000561,-0.00000137,-0.00000309,-0.00000493,0.00000233,-0.00000021,
 -0.00000575,0.00000693,-0.00000999,-0.00000076,0.00000123,-0.00001659,
 0.00000770,-0.00008038,-0.00002837,0.00013246,-0.00000639,0.00004080,0
 .00003308,0.00001292,0.00000644,0.00000961,0.00002050,-0.00000643,-0.0
 0002299,0.00020896,-0.00011838,-0.00001347,-0.00373703,-0.01544642,-0.
 02324783,0.02292111,0.15360731,0.00000215,0.00000491,0.00000692,0.0000
 3023,-0.00001295,-0.00001085,0.00003610,0.00007301,-0.00000002,-0.0000
 0606,-0.00003452,0.00000386,0.00000220,0.00000897,-0.00000099,-0.00013
 850,0.00005273,-0.00006842,0.00004159,0.00004015,0.00024711,0.00002828
 ,-0.00000956,-0.00002674,0.00002293,-0.00001656,-0.00001938,-0.0000018
 9,0.00002101,0.00002844,0.00000941,-0.00001164,-0.00000480,-0.00000443
 ,-0.00000013,0.00001314,-0.00000522,-0.00000635,-0.00000127,-0.0000028
 0,0.00000074,0.00000136,0.00000659,-0.00000168,-0.00000252,0.00000082,
 0.00000857,-0.00000946,0.00006733,0.00001415,0.00002110,-0.00016051,0.
 00041862,0.00009259,-0.00037984,-0.00018825,-0.00034672,-0.00042347,-0
 .00006253,-0.00081505,0.00183363,0.00004965,-0.00105928,-0.00016755,0.
 00111932,-0.00003925,0.00040783,-0.00028740,0.00046841,0.00058827,0.00
 099823,-0.00091271,-0.00201976,0.00069820,0.00072150,0.00045933,-0.010
 25928,-0.01620345,-0.03032889,-0.12408178,-0.19884582,0.00034849,-0.00
 894898,-0.00915090,-0.00127590,0.00034161,-0.00083072,0.00000131,-0.00
 000171,-0.00000261,0.00001531,-0.00001379,-0.00000093,-0.00001214,-0.0
 0000617,0.00000211,-0.00002052,-0.00000695,-0.00000373,0.00000437,0.00
 001620,-0.00000532,-0.00000607,-0.00001530,-0.00001479,0.00001422,0.00
 000248,0.00001377,-0.00000933,0.00000866,0.00001709,0.00000229,-0.0000
 0575,-0.00000214,-0.00000218,-0.00000550,-0.00000791,0.00000479,-0.000
 00989,0.00000356,0.00000729,0.00003466,-0.00001492,-0.00001692,0.00000
 786,0.00000917,0.00000008,-0.00000004,-0.00000418,-0.00000293,-0.00000
 288,-0.00000224,-0.00000382,0.00000194,0.00000114,-0.00000180,-0.00000
 506,0.00000291,-0.00000282,-0.00000635,0.00000395,0.00000353,0.0001195
 7,-0.00028398,0.00010005,-0.00001902,-0.00014171,0.00000560,-0.0001699
 8,-0.00004442,0.00005298,0.00000039,-0.00002358,0.00013681,-0.00068183
 ,-0.00000713,0.00150604,0.00610480,0.01060584,0.02905813,0.13445742,0.
 21545303,0.00000549,-0.00006798,0.00002581,0.00008139,0.00000453,-0.00
 003353,-0.00029212,0.00033035,-0.00093834,-0.00017095,-0.00028899,0.00
 004328,-0.00003895,0.00000897,0.00000261,-0.00018276,0.00024652,-0.000
 05818,0.00023610,-0.00004946,0.00014578,-0.00001558,-0.00001620,-0.000
 04825,-0.00000664,-0.00001089,0.00002666,-0.00000553,-0.00003612,-0.00
 002993,-0.00000165,0.00001468,0.00000741,0.00000347,-0.00000129,-0.000
 00760,0.00000444,0.00000900,0.00000420,0.00000643,-0.00000494,-0.00000
 337,-0.00000447,-0.00000012,0.00000543,-0.00001274,0.00000058,0.000000
 28,0.00009316,0.00002978,0.00004479,-0.00121206,-0.00379121,0.00322699
 ,0.00002459,0.00124756,-0.00026015,-0.00148493,0.00448702,0.00068798,-
 0.00070975,-0.00017343,0.00106626,-0.00020155,-0.00002577,-0.00000628,
 -0.00007840,-0.00000706,0.00009240,-0.00021191,0.00005154,-0.00011122,
 -0.00056629,-0.00043644,0.00081928,-0.00202429,0.00139761,-0.00209206,
 -0.01117724,0.01441610,0.00915580,-0.14046525,0.11387781,0.07492238,0.
 01118352,-0.02405280,-0.01649342,0.00000739,0.00001902,0.00000227,-0.0
 0000436,0.00004609,-0.00003485,-0.00000412,0.00001055,0.00000169,-0.00
 003466,-0.00000654,0.00000978,0.00002609,0.00001648,0.00001669,-0.0000
 1411,-0.00001446,-0.00012071,0.00000421,0.00001067,0.00000787,0.000014
 07,0.00000407,-0.00000245,0.00000770,-0.00000635,-0.00000275,0.0000172
 5,0.00000079,-0.00000634,0.00000666,-0.00002462,0.00000814,0.00000145,
 -0.00002047,-0.00000299,0.00001291,-0.00000567,-0.00001069,-0.00000052
 ,0.00000159,0.00000361,0.00000140,0.00000427,0.00000178,0.00000436,0.0
 0000392,0.00000068,0.00000487,0.00000214,-0.00000381,0.00000476,-0.000
 00067,-0.00000182,0.00051249,-0.00043955,-0.00002855,-0.00001839,-0.00
 000332,0.00004739,-0.00002879,0.00000149,0.00001944,-0.00007431,0.0000
 3735,0.00007676,0.00005008,0.00001156,-0.00001112,-0.00173622,0.000659
 94,-0.00048829,0.00053413,-0.00022971,0.00019536,0.14793015,-0.0000422
 8,-0.00008532,0.00001301,0.00016367,0.00004749,-0.00007400,-0.00021392
 ,0.00035952,-0.00114289,-0.00021948,-0.00037688,0.00011042,-0.00004362
 ,0.00002232,0.00000140,-0.00001219,0.00048921,0.00008315,0.00015715,-0
 .00018684,0.00002639,-0.00007539,0.00004053,-0.00005512,-0.00000847,-0
 .00002053,0.00002394,0.00000310,-0.00000309,-0.00000193,-0.00000190,-0
 .00000580,-0.00000019,0.00000376,-0.00000039,-0.00000175,-0.00000004,0
 .00000372,0.00000382,0.00001188,-0.00000177,-0.00000824,-0.00000767,-0
 .00000461,0.00000361,-0.00003482,0.00002977,-0.00003419,0.00004204,-0.
 00019745,0.00000029,-0.00080753,-0.00469661,0.00738846,0.00069167,0.00
 186092,0.00057130,-0.00525028,0.00879409,0.00411195,-0.00034181,0.0000
 8505,0.00158670,-0.00044430,0.00005658,-0.00013351,-0.00003041,-0.0000
 2635,0.00012418,0.00010753,-0.00003015,0.00003088,0.00007939,0.0001989
 4,-0.00038673,0.00062066,-0.00061260,0.00131347,0.00514446,-0.00185868
 ,-0.00499471,0.10734861,-0.16907591,-0.07878843,0.00117809,-0.02807678
 ,-0.02202458,0.00000078,0.00002766,0.00000463,0.00005033,-0.00001449,0
 .00000237,-0.00005097,-0.00000145,-0.00000629,-0.00007339,-0.00000640,
 0.00000107,0.00006579,0.00003618,-0.00001375,-0.00001975,-0.00002427,-
 0.00015851,0.00000654,0.00002713,-0.00000556,0.00001092,0.00001186,0.0
 0002122,0.00000488,-0.00000205,0.00000356,0.00001457,-0.00000102,-0.00
 002166,0.00001483,-0.00000991,0.00001088,-0.00000978,0.00000074,-0.000
 00077,0.00000157,0.00000383,-0.00000124,0.00000239,0.00000016,-0.00000
 453,-0.00000158,-0.00000188,-0.00000428,0.00000114,0.00000420,-0.00000
 387,0.00000777,-0.00000855,-0.00000070,0.00000346,-0.00001715,0.000007
 16,-0.00006312,0.00106223,-0.00058753,0.00001187,0.00000309,-0.0000030
 2,-0.00003822,0.00000795,-0.00000741,0.00001919,-0.00002150,-0.0000361
 4,-0.00001841,-0.00000434,0.00000155,0.00006883,0.00005002,0.00022633,
 -0.00078967,0.00120516,0.00026796,-0.10723789,0.19094441,-0.00002582,-
 0.00010377,-0.00000766,0.00010240,-0.00000632,0.00002439,0.00015855,0.
 00002221,-0.00014168,-0.00001411,-0.00010801,0.00004327,-0.00000240,-0
 .00000950,-0.00002559,-0.00010369,0.00019525,0.00000376,0.00010997,-0.
 00007834,0.00008791,-0.00004025,0.00001343,-0.00004387,0.00000282,-0.0
 0001431,0.00001127,-0.00000340,-0.00001048,-0.00000354,0.00000278,-0.0
 0000131,0.00000370,0.00000033,-0.00000063,0.00000326,0.00000047,0.0000
 0310,0.00000444,0.00000680,-0.00000158,-0.00000439,-0.00000213,-0.0000
 0120,0.00000189,-0.00002674,0.00001343,-0.00001797,0.00006389,-0.00010
 853,0.00002551,0.00018260,0.00009995,-0.00126941,-0.00035830,-0.001557
 17,-0.00251614,0.01452647,-0.01680666,-0.00638354,0.00035272,0.0008551
 6,-0.00384236,0.00092931,-0.00011491,0.00061894,0.00013197,-0.00000149
 ,-0.00020345,-0.00009373,0.00002934,-0.00018801,-0.00053158,-0.0003847
 2,0.00076746,-0.00108335,0.00149096,-0.00219820,-0.01237541,0.01192840
 ,0.00814757,0.07121086,-0.08292198,-0.10624292,-0.00198672,-0.00597764
 ,0.00047230,0.00000581,0.00002654,-0.00000009,0.00003248,0.00000767,0.
 00001835,-0.00001456,0.00002000,0.00000559,-0.00005863,0.00000821,-0.0
 0001750,0.00001107,0.00002945,-0.00002142,-0.00001464,-0.00003988,-0.0
 0005243,0.00002757,0.00001178,0.00001170,-0.00006410,0.00004287,0.0000
 7096,-0.00000930,-0.00002534,-0.00000520,-0.00000782,-0.00001837,-0.00
 002229,0.00000751,-0.00001672,0.00000868,-0.00000073,0.00000494,-0.000
 00936,-0.00000146,0.00000338,-0.00000125,0.00000104,0.00000115,-0.0000
 0253,-0.00000159,-0.00000059,-0.00000229,0.00000109,0.00000490,-0.0000
 0139,0.00000468,-0.00000504,0.00000019,0.00000331,-0.00000932,0.000004
 79,-0.00070624,0.00017970,0.00162576,-0.00005210,-0.00000912,0.0000137
 4,0.00010568,-0.00005715,0.00000818,-0.00003972,0.00003061,0.00007413,
 0.00007735,-0.00000108,0.00002906,-0.00111003,0.00076335,-0.00064321,0
 .00054107,0.00004354,0.00119093,-0.06987207,0.09256180,0.11058996\\-0.
 00000834,0.00000483,-0.00000025,0.00001178,-0.00000520,-0.00000380,-0.
 00000842,0.00000036,0.00001180,-0.00000913,0.00000225,-0.00001573,0.00
 000085,-0.00000129,-0.00000487,0.00000795,-0.00000010,-0.00000221,-0.0
 0000328,-0.00000136,0.00000082,-0.00000520,0.00000443,0.00000141,-0.00
 000287,-0.00000432,-0.00000170,0.00000618,0.00000616,-0.00000069,-0.00
 000107,-0.00000106,0.00000339,0.00000019,-0.00000128,-0.00000093,0.000
 00480,-0.00000231,-0.00000250,-0.00000391,0.00000273,0.00000384,0.0000
 0296,-0.00001121,-0.00000043,-0.00000518,0.00000455,0.00000218,-0.0000
 0086,-0.00000931,-0.00000088,0.00000543,0.00001089,0.00000392,-0.00000
 779,0.00000382,-0.00000038,-0.00000684,-0.00000418,0.00000247,0.000001
 16,0.00000133,0.00000378,0.00000293,0.00000200,-0.00000473,-0.00000047
 ,0.00000244,0.00000180,0.00000146,-0.00000106,0.00000140,0.00000197,-0
 .00000367,0.00000331,-0.00000082,0.00000108,-0.00000040,-0.00000739,-0
 .00000585,-0.00000198,0.00000813,0.00001197,-0.00000208,0.00000267,-0.
 00001405,-0.00000464,0.00000118,0.00000063,-0.00000334,0.00000167,-0.0
 0000076,-0.00000033,-0.00000042,0.00000045,-0.00000336,-0.00000141,0.0
 0000101,0.00000009,-0.00000087,0.00000216,0.00000186,0.00000343,-0.000
 00137,0.00000249,0.00000568,0.00000064,0.00000090,0.00000101,-0.000000
 65,-0.00000098,0.00000216,0.00000098,-0.00000144,0.00000188,-0.0000003
 1,-0.00000058,0.00000112,0.00000087,-0.00000012,-0.00000187,-0.0000013
 1,0.00000369,0.00000219,0.00000067,-0.00000011,0.00000215,0.00000015,0
 .00000063,-0.00000047,-0.00000112,0.00000039,-0.00000258,0.00000577,-0
 .00000118,-0.00000097,0.00000123,-0.00000184,0.00000129,-0.00000109,0.
 00000177,0.00000220,-0.00000034,0.00000106,-0.00000075,-0.00000082,0.0
 0000049,0.00000182,-0.00000081,0.00000023,0.00000049,-0.00000018,0.000
 00116,-0.00000111,-0.00000088,0.00000159,-0.00000032,-0.00000007,0.000
 00556,-0.00000160,0.00000191,-0.00000022,-0.00000280,0.00000064,-0.000
 00036\\\@
 The archive entry for this job was punched.


 UNDER MOST GREENE GRASSE LY MOST GREATE SNAKES.
 -- PROVERBS AND REASONS OF THE YEAR 1585
           AS REPRINTED IN PAISLEY MAGAZINE 1828.
 Job cpu time:       0 days  4 hours 48 minutes 57.5 seconds.
 Elapsed time:       0 days  0 hours  7 minutes 15.6 seconds.
 File lengths (MBytes):  RWF=   1362 Int=      0 D2E=      0 Chk=     20 Scr=      1
 Normal termination of Gaussian 16 at Sun Feb 25 07:27:11 2024.
