 Entering Gaussian System, Link 0=g16
 Initial command:
 /public/apps/g16-C01//g16/l1.exe "/public/home/ljq/tmp/Gau-30444.inp" -scrdir="/public/home/ljq/tmp/"
 Entering Link 1 = /public/apps/g16-C01//g16/l1.exe PID=     30445.
  
 Copyright (c) 1988-2019, Gaussian, Inc.  All Rights Reserved.
  
 This is part of the Gaussian(R) 16 program.  It is based on
 the Gaussian(R) 09 system (copyright 2009, Gaussian, Inc.),
 the Gaussian(R) 03 system (copyright 2003, Gaussian, Inc.),
 the Gaussian(R) 98 system (copyright 1998, Gaussian, Inc.),
 the Gaussian(R) 94 system (copyright 1995, Gaussian, Inc.),
 the Gaussian 92(TM) system (copyright 1992, Gaussian, Inc.),
 the Gaussian 90(TM) system (copyright 1990, Gaussian, Inc.),
 the Gaussian 88(TM) system (copyright 1988, Gaussian, Inc.),
 the Gaussian 86(TM) system (copyright 1986, Carnegie Mellon
 University), and the Gaussian 82(TM) system (copyright 1983,
 Carnegie Mellon University). Gaussian is a federally registered
 trademark of Gaussian, Inc.
  
 This software contains proprietary and confidential information,
 including trade secrets, belonging to Gaussian, Inc.
  
 This software is provided under written license and may be
 used, copied, transmitted, or stored only in accord with that
 written license.
  
 The following legend is applicable only to US Government
 contracts under FAR:
  
                    RESTRICTED RIGHTS LEGEND
  
 Use, reproduction and disclosure by the US Government is
 subject to restrictions as set forth in subparagraphs (a)
 and (c) of the Commercial Computer Software - Restricted
 Rights clause in FAR 52.227-19.
  
 Gaussian, Inc.
 340 Quinnipiac St., Bldg. 40, Wallingford CT 06492
  
  
 ---------------------------------------------------------------
 Warning -- This program may not be used in any manner that
 competes with the business of Gaussian, Inc. or will provide
 assistance to any competitor of Gaussian, Inc.  The licensee
 of this program is prohibited from giving any competitor of
 Gaussian, Inc. access to this program.  By using this program,
 the user acknowledges that Gaussian, Inc. is engaged in the
 business of creating and licensing software in the field of
 computational chemistry and represents and warrants to the
 licensee that it is not a competitor of Gaussian, Inc. and that
 it will not use this program in any manner prohibited above.
 ---------------------------------------------------------------
  

 Cite this work as:
 Gaussian 16, Revision C.01,
 M. J. Frisch, G. W. Trucks, H. B. Schlegel, G. E. Scuseria, 
 M. A. Robb, J. R. Cheeseman, G. Scalmani, V. Barone, 
 G. A. Petersson, H. Nakatsuji, X. Li, M. Caricato, A. V. Marenich, 
 J. Bloino, B. G. Janesko, R. Gomperts, B. Mennucci, H. P. Hratchian, 
 J. V. Ortiz, A. F. Izmaylov, J. L. Sonnenberg, D. Williams-Young, 
 F. Ding, F. Lipparini, F. Egidi, J. Goings, B. Peng, A. Petrone, 
 T. Henderson, D. Ranasinghe, V. G. Zakrzewski, J. Gao, N. Rega, 
 G. Zheng, W. Liang, M. Hada, M. Ehara, K. Toyota, R. Fukuda, 
 J. Hasegawa, M. Ishida, T. Nakajima, Y. Honda, O. Kitao, H. Nakai, 
 T. Vreven, K. Throssell, J. A. Montgomery, Jr., J. E. Peralta, 
 F. Ogliaro, M. J. Bearpark, J. J. Heyd, E. N. Brothers, K. N. Kudin, 
 V. N. Staroverov, T. A. Keith, R. Kobayashi, J. Normand, 
 K. Raghavachari, A. P. Rendell, J. C. Burant, S. S. Iyengar, 
 J. Tomasi, M. Cossi, J. M. Millam, M. Klene, C. Adamo, R. Cammi, 
 J. W. Ochterski, R. L. Martin, K. Morokuma, O. Farkas, 
 J. B. Foresman, and D. J. Fox, Gaussian, Inc., Wallingford CT, 2019.
 
 ******************************************
 Gaussian 16:  ES64L-G16RevC.01  3-Jul-2019
                15-Aug-2022 
 ******************************************
 %nproc=40
 Will use up to   40 processors via shared memory.
 %mem=56GB
 ------------------------------------------
 #p opt freq b3lyp/def2svpp em=gd3bj nosymm
 ------------------------------------------
 1/18=20,19=15,26=3,38=1/1,3;
 2/9=110,12=2,15=1,17=6,18=5,40=1/2;
 3/5=43,7=202,11=2,25=1,30=1,71=1,74=-5,124=41/1,2,3;
 4//1;
 5/5=2,38=5/2;
 6/7=2,8=2,9=2,10=2,28=1/1;
 7/30=1/1,2,3,16;
 1/18=20,19=15,26=3/3(2);
 2/9=110,15=1/2;
 99//99;
 2/9=110,15=1/2;
 3/5=43,7=202,11=2,25=1,30=1,71=1,74=-5,124=41/1,2,3;
 4/5=5,16=3,69=1/1;
 5/5=2,38=5/2;
 7/30=1/1,2,3,16;
 1/18=20,19=15,26=3/3(-5);
 2/9=110,15=1/2;
 6/7=2,8=2,9=2,10=2,19=2,28=1/1;
 99/9=1/99;
 Leave Link    1 at Mon Aug 15 09:35:58 2022, MaxMem=  7516192768 cpu:               1.7 elap:               0.1
 (Enter /public/apps/g16-C01//g16/l101.exe)
 ----------------------
 $$$$Singlemol####0????
 ----------------------
 Symbolic Z-matrix:
 Charge =  0 Multiplicity = 1
 C                     3.57416  -0.20607  -5.30174 
 C                     2.68176  -0.55155  -4.14852 
 C                     2.57652   0.28209  -3.04303 
 C                     1.74622  -0.02748  -1.98465 
 C                     0.96934  -1.18606  -2.00794 
 N                     0.14196  -1.52803  -0.95031 
 C                    -0.27612  -2.89197  -0.66716 
 C                    -0.98552  -2.74926   0.703 
 C                    -2.41954  -3.32125   0.77592 
 C                    -2.40272  -4.81937   0.467 
 C                    -2.927    -3.10243   2.20361 
 C                    -3.34395  -2.58711  -0.19676 
 N                    -1.00045  -1.32538   0.97081 
 C                    -0.37841  -0.72673   0.0332 
 C                    -0.37973   0.737    -0.04021 
 N                    -1.00633   1.33796  -0.97328 
 C                    -0.99149   2.76105  -0.70053 
 C                    -2.42578   3.33305  -0.767 
 C                    -3.34566   2.60124   0.21175 
 C                    -2.94099   3.11202  -2.19156 
 C                    -2.40629   4.8317   -0.46071 
 C                    -0.27786   2.89988   0.66806 
 N                     0.14274   1.53545   0.94429 
 C                     0.96685   1.18633   2.00231 
 C                     1.06693   2.01792   3.11835 
 C                     1.90227   1.68921   4.16779 
 C                     2.66821   0.53178   4.14498 
 C                     3.55401   0.1663    5.29708 
 C                     2.57891  -0.28479   3.02449 
 C                     1.75425   0.03479   1.96541 
 C                     1.08403  -2.03425  -3.11076 
 C                     1.92452  -1.7157   -4.15849 
 H                     4.05661  -1.09727  -5.69805 
 H                     4.33986   0.50498  -5.00102 
 H                     2.99023   0.2436   -6.10565 
 H                     3.16655   1.18669  -3.00002 
 H                     1.71399   0.63114  -1.13173 
 H                     0.59137  -3.55654  -0.62481 
 H                    -0.95986  -3.25163  -1.44121 
 H                    -0.39704  -3.23092   1.4954 
 H                    -2.08279  -5.01392  -0.55394 
 H                    -3.40072  -5.23304   0.5928 
 H                    -1.72804  -5.3418    1.1421 
 H                    -2.8562   -2.04865   2.45618 
 H                    -3.96239  -3.42284   2.29253 
 H                    -2.32783  -3.66775   2.91397 
 H                    -3.31836  -1.51949   0.00688 
 H                    -3.04933  -2.74598  -1.2316 
 H                    -4.36532  -2.94154  -0.07903 
 H                    -0.40578   3.24571  -1.49318 
 H                    -3.05026   2.76769   1.24517 
 H                    -3.31656   1.53249   0.01455 
 H                    -4.36853   2.95115   0.09355 
 H                    -2.87554   2.05725  -2.44133 
 H                    -3.97552   3.43632  -2.27639 
 H                    -2.34301   3.67276  -2.90651 
 H                    -3.40473   5.24591  -0.58117 
 H                    -1.73534   5.35251  -1.14077 
 H                    -2.07987   5.0276    0.55794 
 H                    -0.95963   3.25616   1.44534 
 H                     0.58886   3.56549   0.62574 
 H                     0.48438   2.92421   3.17291 
 H                     1.95821   2.34861   5.02243 
 H                     4.4293   -0.38131   4.95454 
 H                     3.01221  -0.47029   5.99779 
 H                     3.88056   1.0546    5.83297 
 H                     3.17774  -1.1831    2.97225 
 H                     1.73443  -0.60904   1.10077 
 H                     0.50888  -2.94575  -3.15559 
 H                     1.99289  -2.38758  -5.00244 
 
 ITRead=  0  0  0  0  0  0  0  0  0  0  0  0  0  0  0  0  0  0  0  0
 ITRead=  0  0  0  0  0  0  0  0  0  0  0  0  0  0  0  0  0  0  0  0
 ITRead=  0  0  0  0  0  0  0  0  0  0  0  0  0  0  0  0  0  0  0  0
 ITRead=  0  0  0  0  0  0  0  0  0  0
 MicOpt= -1 -1 -1 -1 -1 -1 -1 -1 -1 -1 -1 -1 -1 -1 -1 -1 -1 -1 -1 -1
 MicOpt= -1 -1 -1 -1 -1 -1 -1 -1 -1 -1 -1 -1 -1 -1 -1 -1 -1 -1 -1 -1
 MicOpt= -1 -1 -1 -1 -1 -1 -1 -1 -1 -1 -1 -1 -1 -1 -1 -1 -1 -1 -1 -1
 MicOpt= -1 -1 -1 -1 -1 -1 -1 -1 -1 -1
 NAtoms=     70 NQM=       70 NQMF=       0 NMMI=      0 NMMIF=      0
                NMic=       0 NMicF=      0.
                    Isotopes and Nuclear Properties:
 (Nuclear quadrupole moments (NQMom) in fm**2, nuclear magnetic moments (NMagM)
  in nuclear magnetons)

  Atom         1           2           3           4           5           6           7           8           9          10
 IAtWgt=          12          12          12          12          12          14          12          12          12          12
 AtmWgt=  12.0000000  12.0000000  12.0000000  12.0000000  12.0000000  14.0030740  12.0000000  12.0000000  12.0000000  12.0000000
 NucSpn=           0           0           0           0           0           2           0           0           0           0
 AtZEff=  -0.0000000  -0.0000000  -0.0000000  -0.0000000  -0.0000000  -0.0000000  -0.0000000  -0.0000000  -0.0000000  -0.0000000
 NQMom=    0.0000000   0.0000000   0.0000000   0.0000000   0.0000000   2.0440000   0.0000000   0.0000000   0.0000000   0.0000000
 NMagM=    0.0000000   0.0000000   0.0000000   0.0000000   0.0000000   0.4037610   0.0000000   0.0000000   0.0000000   0.0000000
 AtZNuc=   6.0000000   6.0000000   6.0000000   6.0000000   6.0000000   7.0000000   6.0000000   6.0000000   6.0000000   6.0000000

  Atom        11          12          13          14          15          16          17          18          19          20
 IAtWgt=          12          12          14          12          12          14          12          12          12          12
 AtmWgt=  12.0000000  12.0000000  14.0030740  12.0000000  12.0000000  14.0030740  12.0000000  12.0000000  12.0000000  12.0000000
 NucSpn=           0           0           2           0           0           2           0           0           0           0
 AtZEff=  -0.0000000  -0.0000000  -0.0000000  -0.0000000  -0.0000000  -0.0000000  -0.0000000  -0.0000000  -0.0000000  -0.0000000
 NQMom=    0.0000000   0.0000000   2.0440000   0.0000000   0.0000000   2.0440000   0.0000000   0.0000000   0.0000000   0.0000000
 NMagM=    0.0000000   0.0000000   0.4037610   0.0000000   0.0000000   0.4037610   0.0000000   0.0000000   0.0000000   0.0000000
 AtZNuc=   6.0000000   6.0000000   7.0000000   6.0000000   6.0000000   7.0000000   6.0000000   6.0000000   6.0000000   6.0000000

  Atom        21          22          23          24          25          26          27          28          29          30
 IAtWgt=          12          12          14          12          12          12          12          12          12          12
 AtmWgt=  12.0000000  12.0000000  14.0030740  12.0000000  12.0000000  12.0000000  12.0000000  12.0000000  12.0000000  12.0000000
 NucSpn=           0           0           2           0           0           0           0           0           0           0
 AtZEff=  -0.0000000  -0.0000000  -0.0000000  -0.0000000  -0.0000000  -0.0000000  -0.0000000  -0.0000000  -0.0000000  -0.0000000
 NQMom=    0.0000000   0.0000000   2.0440000   0.0000000   0.0000000   0.0000000   0.0000000   0.0000000   0.0000000   0.0000000
 NMagM=    0.0000000   0.0000000   0.4037610   0.0000000   0.0000000   0.0000000   0.0000000   0.0000000   0.0000000   0.0000000
 AtZNuc=   6.0000000   6.0000000   7.0000000   6.0000000   6.0000000   6.0000000   6.0000000   6.0000000   6.0000000   6.0000000

  Atom        31          32          33          34          35          36          37          38          39          40
 IAtWgt=          12          12           1           1           1           1           1           1           1           1
 AtmWgt=  12.0000000  12.0000000   1.0078250   1.0078250   1.0078250   1.0078250   1.0078250   1.0078250   1.0078250   1.0078250
 NucSpn=           0           0           1           1           1           1           1           1           1           1
 AtZEff=  -0.0000000  -0.0000000  -0.0000000  -0.0000000  -0.0000000  -0.0000000  -0.0000000  -0.0000000  -0.0000000  -0.0000000
 NQMom=    0.0000000   0.0000000   0.0000000   0.0000000   0.0000000   0.0000000   0.0000000   0.0000000   0.0000000   0.0000000
 NMagM=    0.0000000   0.0000000   2.7928460   2.7928460   2.7928460   2.7928460   2.7928460   2.7928460   2.7928460   2.7928460
 AtZNuc=   6.0000000   6.0000000   1.0000000   1.0000000   1.0000000   1.0000000   1.0000000   1.0000000   1.0000000   1.0000000

  Atom        41          42          43          44          45          46          47          48          49          50
 IAtWgt=           1           1           1           1           1           1           1           1           1           1
 AtmWgt=   1.0078250   1.0078250   1.0078250   1.0078250   1.0078250   1.0078250   1.0078250   1.0078250   1.0078250   1.0078250
 NucSpn=           1           1           1           1           1           1           1           1           1           1
 AtZEff=  -0.0000000  -0.0000000  -0.0000000  -0.0000000  -0.0000000  -0.0000000  -0.0000000  -0.0000000  -0.0000000  -0.0000000
 NQMom=    0.0000000   0.0000000   0.0000000   0.0000000   0.0000000   0.0000000   0.0000000   0.0000000   0.0000000   0.0000000
 NMagM=    2.7928460   2.7928460   2.7928460   2.7928460   2.7928460   2.7928460   2.7928460   2.7928460   2.7928460   2.7928460
 AtZNuc=   1.0000000   1.0000000   1.0000000   1.0000000   1.0000000   1.0000000   1.0000000   1.0000000   1.0000000   1.0000000

  Atom        51          52          53          54          55          56          57          58          59          60
 IAtWgt=           1           1           1           1           1           1           1           1           1           1
 AtmWgt=   1.0078250   1.0078250   1.0078250   1.0078250   1.0078250   1.0078250   1.0078250   1.0078250   1.0078250   1.0078250
 NucSpn=           1           1           1           1           1           1           1           1           1           1
 AtZEff=  -0.0000000  -0.0000000  -0.0000000  -0.0000000  -0.0000000  -0.0000000  -0.0000000  -0.0000000  -0.0000000  -0.0000000
 NQMom=    0.0000000   0.0000000   0.0000000   0.0000000   0.0000000   0.0000000   0.0000000   0.0000000   0.0000000   0.0000000
 NMagM=    2.7928460   2.7928460   2.7928460   2.7928460   2.7928460   2.7928460   2.7928460   2.7928460   2.7928460   2.7928460
 AtZNuc=   1.0000000   1.0000000   1.0000000   1.0000000   1.0000000   1.0000000   1.0000000   1.0000000   1.0000000   1.0000000

  Atom        61          62          63          64          65          66          67          68          69          70
 IAtWgt=           1           1           1           1           1           1           1           1           1           1
 AtmWgt=   1.0078250   1.0078250   1.0078250   1.0078250   1.0078250   1.0078250   1.0078250   1.0078250   1.0078250   1.0078250
 NucSpn=           1           1           1           1           1           1           1           1           1           1
 AtZEff=  -0.0000000  -0.0000000  -0.0000000  -0.0000000  -0.0000000  -0.0000000  -0.0000000  -0.0000000  -0.0000000  -0.0000000
 NQMom=    0.0000000   0.0000000   0.0000000   0.0000000   0.0000000   0.0000000   0.0000000   0.0000000   0.0000000   0.0000000
 NMagM=    2.7928460   2.7928460   2.7928460   2.7928460   2.7928460   2.7928460   2.7928460   2.7928460   2.7928460   2.7928460
 AtZNuc=   1.0000000   1.0000000   1.0000000   1.0000000   1.0000000   1.0000000   1.0000000   1.0000000   1.0000000   1.0000000
 Leave Link  101 at Mon Aug 15 09:35:59 2022, MaxMem=  7516192768 cpu:              13.2 elap:               0.8
 (Enter /public/apps/g16-C01//g16/l103.exe)

 GradGradGradGradGradGradGradGradGradGradGradGradGradGradGradGradGradGrad
 Berny optimization.
 Initialization pass.
                           ----------------------------
                           !    Initial Parameters    !
                           ! (Angstroms and Degrees)  !
 --------------------------                            --------------------------
 ! Name  Definition              Value          Derivative Info.                !
 --------------------------------------------------------------------------------
 ! R1    R(1,2)                  1.4985         estimate D2E/DX2                !
 ! R2    R(1,33)                 1.0881         estimate D2E/DX2                !
 ! R3    R(1,34)                 1.0874         estimate D2E/DX2                !
 ! R4    R(1,35)                 1.0906         estimate D2E/DX2                !
 ! R5    R(2,3)                  1.3886         estimate D2E/DX2                !
 ! R6    R(2,32)                 1.3888         estimate D2E/DX2                !
 ! R7    R(3,4)                  1.3804         estimate D2E/DX2                !
 ! R8    R(3,36)                 1.0809         estimate D2E/DX2                !
 ! R9    R(4,5)                  1.3951         estimate D2E/DX2                !
 ! R10   R(4,37)                 1.0781         estimate D2E/DX2                !
 ! R11   R(5,6)                  1.3857         estimate D2E/DX2                !
 ! R12   R(5,31)                 1.396          estimate D2E/DX2                !
 ! R13   R(6,7)                  1.4544         estimate D2E/DX2                !
 ! R14   R(6,14)                 1.3712         estimate D2E/DX2                !
 ! R15   R(7,8)                  1.5495         estimate D2E/DX2                !
 ! R16   R(7,38)                 1.0936         estimate D2E/DX2                !
 ! R17   R(7,39)                 1.0936         estimate D2E/DX2                !
 ! R18   R(8,9)                  1.5456         estimate D2E/DX2                !
 ! R19   R(8,13)                 1.4489         estimate D2E/DX2                !
 ! R20   R(8,40)                 1.0983         estimate D2E/DX2                !
 ! R21   R(9,10)                 1.5297         estimate D2E/DX2                !
 ! R22   R(9,11)                 1.5309         estimate D2E/DX2                !
 ! R23   R(9,12)                 1.5296         estimate D2E/DX2                !
 ! R24   R(10,41)                1.0874         estimate D2E/DX2                !
 ! R25   R(10,42)                1.0876         estimate D2E/DX2                !
 ! R26   R(10,43)                1.0881         estimate D2E/DX2                !
 ! R27   R(11,44)                1.0859         estimate D2E/DX2                !
 ! R28   R(11,45)                1.0875         estimate D2E/DX2                !
 ! R29   R(11,46)                1.0878         estimate D2E/DX2                !
 ! R30   R(12,47)                1.0872         estimate D2E/DX2                !
 ! R31   R(12,48)                1.0876         estimate D2E/DX2                !
 ! R32   R(12,49)                1.0875         estimate D2E/DX2                !
 ! R33   R(13,14)                1.2745         estimate D2E/DX2                !
 ! R34   R(14,15)                1.4656         estimate D2E/DX2                !
 ! R35   R(15,16)                1.2745         estimate D2E/DX2                !
 ! R36   R(15,23)                1.371          estimate D2E/DX2                !
 ! R37   R(16,17)                1.4491         estimate D2E/DX2                !
 ! R38   R(17,18)                1.5456         estimate D2E/DX2                !
 ! R39   R(17,22)                1.5497         estimate D2E/DX2                !
 ! R40   R(17,50)                1.0983         estimate D2E/DX2                !
 ! R41   R(18,19)                1.5296         estimate D2E/DX2                !
 ! R42   R(18,20)                1.5309         estimate D2E/DX2                !
 ! R43   R(18,21)                1.5298         estimate D2E/DX2                !
 ! R44   R(19,51)                1.0876         estimate D2E/DX2                !
 ! R45   R(19,52)                1.0872         estimate D2E/DX2                !
 ! R46   R(19,53)                1.0875         estimate D2E/DX2                !
 ! R47   R(20,54)                1.0859         estimate D2E/DX2                !
 ! R48   R(20,55)                1.0875         estimate D2E/DX2                !
 ! R49   R(20,56)                1.0877         estimate D2E/DX2                !
 ! R50   R(21,57)                1.0876         estimate D2E/DX2                !
 ! R51   R(21,58)                1.0881         estimate D2E/DX2                !
 ! R52   R(21,59)                1.0875         estimate D2E/DX2                !
 ! R53   R(22,23)                1.4543         estimate D2E/DX2                !
 ! R54   R(22,60)                1.0936         estimate D2E/DX2                !
 ! R55   R(22,61)                1.0936         estimate D2E/DX2                !
 ! R56   R(23,24)                1.3858         estimate D2E/DX2                !
 ! R57   R(24,25)                1.3954         estimate D2E/DX2                !
 ! R58   R(24,30)                1.3955         estimate D2E/DX2                !
 ! R59   R(25,26)                1.381          estimate D2E/DX2                !
 ! R60   R(25,62)                1.0787         estimate D2E/DX2                !
 ! R61   R(26,27)                1.3881         estimate D2E/DX2                !
 ! R62   R(26,63)                1.0809         estimate D2E/DX2                !
 ! R63   R(27,28)                1.4985         estimate D2E/DX2                !
 ! R64   R(27,29)                1.3893         estimate D2E/DX2                !
 ! R65   R(28,64)                1.0878         estimate D2E/DX2                !
 ! R66   R(28,65)                1.0908         estimate D2E/DX2                !
 ! R67   R(28,66)                1.0876         estimate D2E/DX2                !
 ! R68   R(29,30)                1.3798         estimate D2E/DX2                !
 ! R69   R(29,67)                1.0809         estimate D2E/DX2                !
 ! R70   R(30,68)                1.0782         estimate D2E/DX2                !
 ! R71   R(31,32)                1.3804         estimate D2E/DX2                !
 ! R72   R(31,69)                1.0787         estimate D2E/DX2                !
 ! R73   R(32,70)                1.0809         estimate D2E/DX2                !
 ! A1    A(2,1,33)             110.8242         estimate D2E/DX2                !
 ! A2    A(2,1,34)             110.9332         estimate D2E/DX2                !
 ! A3    A(2,1,35)             110.0884         estimate D2E/DX2                !
 ! A4    A(33,1,34)            108.9095         estimate D2E/DX2                !
 ! A5    A(33,1,35)            107.8549         estimate D2E/DX2                !
 ! A6    A(34,1,35)            108.1356         estimate D2E/DX2                !
 ! A7    A(1,2,3)              121.2917         estimate D2E/DX2                !
 ! A8    A(1,2,32)             120.8255         estimate D2E/DX2                !
 ! A9    A(3,2,32)             117.8811         estimate D2E/DX2                !
 ! A10   A(2,3,4)              121.4243         estimate D2E/DX2                !
 ! A11   A(2,3,36)             119.5218         estimate D2E/DX2                !
 ! A12   A(4,3,36)             119.0479         estimate D2E/DX2                !
 ! A13   A(3,4,5)              120.557          estimate D2E/DX2                !
 ! A14   A(3,4,37)             119.1807         estimate D2E/DX2                !
 ! A15   A(5,4,37)             120.2577         estimate D2E/DX2                !
 ! A16   A(4,5,6)              121.648          estimate D2E/DX2                !
 ! A17   A(4,5,31)             118.1649         estimate D2E/DX2                !
 ! A18   A(6,5,31)             120.1373         estimate D2E/DX2                !
 ! A19   A(5,6,7)              123.4821         estimate D2E/DX2                !
 ! A20   A(5,6,14)             129.0382         estimate D2E/DX2                !
 ! A21   A(7,6,14)             107.416          estimate D2E/DX2                !
 ! A22   A(6,7,8)              102.5554         estimate D2E/DX2                !
 ! A23   A(6,7,38)             110.451          estimate D2E/DX2                !
 ! A24   A(6,7,39)             110.5081         estimate D2E/DX2                !
 ! A25   A(8,7,38)             112.6366         estimate D2E/DX2                !
 ! A26   A(8,7,39)             111.7107         estimate D2E/DX2                !
 ! A27   A(38,7,39)            108.8744         estimate D2E/DX2                !
 ! A28   A(7,8,9)              115.6203         estimate D2E/DX2                !
 ! A29   A(7,8,13)             104.991          estimate D2E/DX2                !
 ! A30   A(7,8,40)             110.6274         estimate D2E/DX2                !
 ! A31   A(9,8,13)             110.2057         estimate D2E/DX2                !
 ! A32   A(9,8,40)             107.5054         estimate D2E/DX2                !
 ! A33   A(13,8,40)            107.6468         estimate D2E/DX2                !
 ! A34   A(8,9,10)             110.0415         estimate D2E/DX2                !
 ! A35   A(8,9,11)             107.3765         estimate D2E/DX2                !
 ! A36   A(8,9,12)             110.6772         estimate D2E/DX2                !
 ! A37   A(10,9,11)            109.3873         estimate D2E/DX2                !
 ! A38   A(10,9,12)            110.3813         estimate D2E/DX2                !
 ! A39   A(11,9,12)            108.9111         estimate D2E/DX2                !
 ! A40   A(9,10,41)            111.5944         estimate D2E/DX2                !
 ! A41   A(9,10,42)            109.8178         estimate D2E/DX2                !
 ! A42   A(9,10,43)            110.5937         estimate D2E/DX2                !
 ! A43   A(41,10,42)           108.0898         estimate D2E/DX2                !
 ! A44   A(41,10,43)           108.3121         estimate D2E/DX2                !
 ! A45   A(42,10,43)           108.3361         estimate D2E/DX2                !
 ! A46   A(9,11,44)            109.5112         estimate D2E/DX2                !
 ! A47   A(9,11,45)            110.4718         estimate D2E/DX2                !
 ! A48   A(9,11,46)            110.6183         estimate D2E/DX2                !
 ! A49   A(44,11,45)           109.2065         estimate D2E/DX2                !
 ! A50   A(44,11,46)           108.4526         estimate D2E/DX2                !
 ! A51   A(45,11,46)           108.5377         estimate D2E/DX2                !
 ! A52   A(9,12,47)            109.7542         estimate D2E/DX2                !
 ! A53   A(9,12,48)            111.7915         estimate D2E/DX2                !
 ! A54   A(9,12,49)            110.0193         estimate D2E/DX2                !
 ! A55   A(47,12,48)           108.3782         estimate D2E/DX2                !
 ! A56   A(47,12,49)           108.7762         estimate D2E/DX2                !
 ! A57   A(48,12,49)           108.0483         estimate D2E/DX2                !
 ! A58   A(8,13,14)            108.6978         estimate D2E/DX2                !
 ! A59   A(6,14,13)            116.0012         estimate D2E/DX2                !
 ! A60   A(6,14,15)            123.2346         estimate D2E/DX2                !
 ! A61   A(13,14,15)           120.3657         estimate D2E/DX2                !
 ! A62   A(14,15,16)           120.5334         estimate D2E/DX2                !
 ! A63   A(14,15,23)           123.0472         estimate D2E/DX2                !
 ! A64   A(16,15,23)           116.0049         estimate D2E/DX2                !
 ! A65   A(15,16,17)           108.6766         estimate D2E/DX2                !
 ! A66   A(16,17,18)           110.2336         estimate D2E/DX2                !
 ! A67   A(16,17,22)           105.0061         estimate D2E/DX2                !
 ! A68   A(16,17,50)           107.6374         estimate D2E/DX2                !
 ! A69   A(18,17,22)           115.6053         estimate D2E/DX2                !
 ! A70   A(18,17,50)           107.4902         estimate D2E/DX2                !
 ! A71   A(22,17,50)           110.6253         estimate D2E/DX2                !
 ! A72   A(17,18,19)           110.7019         estimate D2E/DX2                !
 ! A73   A(17,18,20)           107.3914         estimate D2E/DX2                !
 ! A74   A(17,18,21)           110.0066         estimate D2E/DX2                !
 ! A75   A(19,18,20)           108.9025         estimate D2E/DX2                !
 ! A76   A(19,18,21)           110.3803         estimate D2E/DX2                !
 ! A77   A(20,18,21)           109.3928         estimate D2E/DX2                !
 ! A78   A(18,19,51)           111.8039         estimate D2E/DX2                !
 ! A79   A(18,19,52)           109.7645         estimate D2E/DX2                !
 ! A80   A(18,19,53)           110.0085         estimate D2E/DX2                !
 ! A81   A(51,19,52)           108.3924         estimate D2E/DX2                !
 ! A82   A(51,19,53)           108.0285         estimate D2E/DX2                !
 ! A83   A(52,19,53)           108.7693         estimate D2E/DX2                !
 ! A84   A(18,20,54)           109.5108         estimate D2E/DX2                !
 ! A85   A(18,20,55)           110.4682         estimate D2E/DX2                !
 ! A86   A(18,20,56)           110.6213         estimate D2E/DX2                !
 ! A87   A(54,20,55)           109.2108         estimate D2E/DX2                !
 ! A88   A(54,20,56)           108.4459         estimate D2E/DX2                !
 ! A89   A(55,20,56)           108.5408         estimate D2E/DX2                !
 ! A90   A(18,21,57)           109.8291         estimate D2E/DX2                !
 ! A91   A(18,21,58)           110.5873         estimate D2E/DX2                !
 ! A92   A(18,21,59)           111.5832         estimate D2E/DX2                !
 ! A93   A(57,21,58)           108.3345         estimate D2E/DX2                !
 ! A94   A(57,21,59)           108.1005         estimate D2E/DX2                !
 ! A95   A(58,21,59)           108.3099         estimate D2E/DX2                !
 ! A96   A(17,22,23)           102.5261         estimate D2E/DX2                !
 ! A97   A(17,22,60)           111.7031         estimate D2E/DX2                !
 ! A98   A(17,22,61)           112.6623         estimate D2E/DX2                !
 ! A99   A(23,22,60)           110.5469         estimate D2E/DX2                !
 ! A100  A(23,22,61)           110.4368         estimate D2E/DX2                !
 ! A101  A(60,22,61)           108.8618         estimate D2E/DX2                !
 ! A102  A(15,23,22)           107.4449         estimate D2E/DX2                !
 ! A103  A(15,23,24)           128.9124         estimate D2E/DX2                !
 ! A104  A(22,23,24)           123.5988         estimate D2E/DX2                !
 ! A105  A(23,24,25)           120.2084         estimate D2E/DX2                !
 ! A106  A(23,24,30)           121.5499         estimate D2E/DX2                !
 ! A107  A(25,24,30)           118.1936         estimate D2E/DX2                !
 ! A108  A(24,25,26)           120.618          estimate D2E/DX2                !
 ! A109  A(24,25,62)           120.1594         estimate D2E/DX2                !
 ! A110  A(26,25,62)           119.2212         estimate D2E/DX2                !
 ! A111  A(25,26,27)           121.3151         estimate D2E/DX2                !
 ! A112  A(25,26,63)           119.1394         estimate D2E/DX2                !
 ! A113  A(27,26,63)           119.5455         estimate D2E/DX2                !
 ! A114  A(26,27,28)           121.1244         estimate D2E/DX2                !
 ! A115  A(26,27,29)           117.8956         estimate D2E/DX2                !
 ! A116  A(28,27,29)           120.9775         estimate D2E/DX2                !
 ! A117  A(27,28,64)           110.8741         estimate D2E/DX2                !
 ! A118  A(27,28,65)           110.0368         estimate D2E/DX2                !
 ! A119  A(27,28,66)           110.9219         estimate D2E/DX2                !
 ! A120  A(64,28,65)           107.9486         estimate D2E/DX2                !
 ! A121  A(64,28,66)           108.9481         estimate D2E/DX2                !
 ! A122  A(65,28,66)           108.0156         estimate D2E/DX2                !
 ! A123  A(27,29,30)           121.4211         estimate D2E/DX2                !
 ! A124  A(27,29,67)           119.4612         estimate D2E/DX2                !
 ! A125  A(30,29,67)           119.1118         estimate D2E/DX2                !
 ! A126  A(24,30,29)           120.5344         estimate D2E/DX2                !
 ! A127  A(24,30,68)           120.2365         estimate D2E/DX2                !
 ! A128  A(29,30,68)           119.2238         estimate D2E/DX2                !
 ! A129  A(5,31,32)            120.6242         estimate D2E/DX2                !
 ! A130  A(5,31,69)            120.1614         estimate D2E/DX2                !
 ! A131  A(32,31,69)           119.2131         estimate D2E/DX2                !
 ! A132  A(2,32,31)            121.3292         estimate D2E/DX2                !
 ! A133  A(2,32,70)            119.4823         estimate D2E/DX2                !
 ! A134  A(31,32,70)           119.1885         estimate D2E/DX2                !
 ! D1    D(33,1,2,3)           142.1416         estimate D2E/DX2                !
 ! D2    D(33,1,2,32)          -38.3382         estimate D2E/DX2                !
 ! D3    D(34,1,2,3)            21.0291         estimate D2E/DX2                !
 ! D4    D(34,1,2,32)         -159.4506         estimate D2E/DX2                !
 ! D5    D(35,1,2,3)           -98.624          estimate D2E/DX2                !
 ! D6    D(35,1,2,32)           80.8963         estimate D2E/DX2                !
 ! D7    D(1,2,3,4)            179.4075         estimate D2E/DX2                !
 ! D8    D(1,2,3,36)            -1.49           estimate D2E/DX2                !
 ! D9    D(32,2,3,4)            -0.1264         estimate D2E/DX2                !
 ! D10   D(32,2,3,36)          178.9761         estimate D2E/DX2                !
 ! D11   D(1,2,32,31)         -179.0247         estimate D2E/DX2                !
 ! D12   D(1,2,32,70)            0.9795         estimate D2E/DX2                !
 ! D13   D(3,2,32,31)            0.5116         estimate D2E/DX2                !
 ! D14   D(3,2,32,70)         -179.4843         estimate D2E/DX2                !
 ! D15   D(2,3,4,5)             -0.985          estimate D2E/DX2                !
 ! D16   D(2,3,4,37)           178.2324         estimate D2E/DX2                !
 ! D17   D(36,3,4,5)           179.9083         estimate D2E/DX2                !
 ! D18   D(36,3,4,37)           -0.8743         estimate D2E/DX2                !
 ! D19   D(3,4,5,6)            179.1111         estimate D2E/DX2                !
 ! D20   D(3,4,5,31)             1.6744         estimate D2E/DX2                !
 ! D21   D(37,4,5,6)            -0.0979         estimate D2E/DX2                !
 ! D22   D(37,4,5,31)         -177.5345         estimate D2E/DX2                !
 ! D23   D(4,5,6,7)           -155.5101         estimate D2E/DX2                !
 ! D24   D(4,5,6,14)            21.2108         estimate D2E/DX2                !
 ! D25   D(31,5,6,7)            21.8768         estimate D2E/DX2                !
 ! D26   D(31,5,6,14)         -161.4023         estimate D2E/DX2                !
 ! D27   D(4,5,31,32)           -1.2956         estimate D2E/DX2                !
 ! D28   D(4,5,31,69)          179.1282         estimate D2E/DX2                !
 ! D29   D(6,5,31,32)         -178.7724         estimate D2E/DX2                !
 ! D30   D(6,5,31,69)            1.6514         estimate D2E/DX2                !
 ! D31   D(5,6,7,8)            171.7226         estimate D2E/DX2                !
 ! D32   D(5,6,7,38)            51.4649         estimate D2E/DX2                !
 ! D33   D(5,6,7,39)           -69.0727         estimate D2E/DX2                !
 ! D34   D(14,6,7,8)            -5.6085         estimate D2E/DX2                !
 ! D35   D(14,6,7,38)         -125.8663         estimate D2E/DX2                !
 ! D36   D(14,6,7,39)          113.5962         estimate D2E/DX2                !
 ! D37   D(5,6,14,13)         -172.8731         estimate D2E/DX2                !
 ! D38   D(5,6,14,15)           14.3641         estimate D2E/DX2                !
 ! D39   D(7,6,14,13)            4.2609         estimate D2E/DX2                !
 ! D40   D(7,6,14,15)         -168.5019         estimate D2E/DX2                !
 ! D41   D(6,7,8,9)            126.9412         estimate D2E/DX2                !
 ! D42   D(6,7,8,13)             5.2752         estimate D2E/DX2                !
 ! D43   D(6,7,8,40)          -110.5817         estimate D2E/DX2                !
 ! D44   D(38,7,8,9)          -114.3266         estimate D2E/DX2                !
 ! D45   D(38,7,8,13)          124.0074         estimate D2E/DX2                !
 ! D46   D(38,7,8,40)            8.1505         estimate D2E/DX2                !
 ! D47   D(39,7,8,9)             8.5817         estimate D2E/DX2                !
 ! D48   D(39,7,8,13)         -113.0843         estimate D2E/DX2                !
 ! D49   D(39,7,8,40)          131.0588         estimate D2E/DX2                !
 ! D50   D(7,8,9,10)            60.1214         estimate D2E/DX2                !
 ! D51   D(7,8,9,11)           179.0946         estimate D2E/DX2                !
 ! D52   D(7,8,9,12)           -62.1491         estimate D2E/DX2                !
 ! D53   D(13,8,9,10)          178.9494         estimate D2E/DX2                !
 ! D54   D(13,8,9,11)          -62.0774         estimate D2E/DX2                !
 ! D55   D(13,8,9,12)           56.6789         estimate D2E/DX2                !
 ! D56   D(40,8,9,10)          -63.9988         estimate D2E/DX2                !
 ! D57   D(40,8,9,11)           54.9744         estimate D2E/DX2                !
 ! D58   D(40,8,9,12)          173.7307         estimate D2E/DX2                !
 ! D59   D(7,8,13,14)           -3.1363         estimate D2E/DX2                !
 ! D60   D(9,8,13,14)         -128.2744         estimate D2E/DX2                !
 ! D61   D(40,8,13,14)         114.7616         estimate D2E/DX2                !
 ! D62   D(8,9,10,41)          -64.4185         estimate D2E/DX2                !
 ! D63   D(8,9,10,42)          175.7394         estimate D2E/DX2                !
 ! D64   D(8,9,10,43)           56.2257         estimate D2E/DX2                !
 ! D65   D(11,9,10,41)         177.8465         estimate D2E/DX2                !
 ! D66   D(11,9,10,42)          58.0044         estimate D2E/DX2                !
 ! D67   D(11,9,10,43)         -61.5092         estimate D2E/DX2                !
 ! D68   D(12,9,10,41)          58.0268         estimate D2E/DX2                !
 ! D69   D(12,9,10,42)         -61.8153         estimate D2E/DX2                !
 ! D70   D(12,9,10,43)         178.671          estimate D2E/DX2                !
 ! D71   D(8,9,11,44)           55.5876         estimate D2E/DX2                !
 ! D72   D(8,9,11,45)          175.9074         estimate D2E/DX2                !
 ! D73   D(8,9,11,46)          -63.891          estimate D2E/DX2                !
 ! D74   D(10,9,11,44)         174.9806         estimate D2E/DX2                !
 ! D75   D(10,9,11,45)         -64.6997         estimate D2E/DX2                !
 ! D76   D(10,9,11,46)          55.5019         estimate D2E/DX2                !
 ! D77   D(12,9,11,44)         -64.3004         estimate D2E/DX2                !
 ! D78   D(12,9,11,45)          56.0194         estimate D2E/DX2                !
 ! D79   D(12,9,11,46)         176.2209         estimate D2E/DX2                !
 ! D80   D(8,9,12,47)          -55.7341         estimate D2E/DX2                !
 ! D81   D(8,9,12,48)           64.5547         estimate D2E/DX2                !
 ! D82   D(8,9,12,49)         -175.3932         estimate D2E/DX2                !
 ! D83   D(10,9,12,47)        -177.8056         estimate D2E/DX2                !
 ! D84   D(10,9,12,48)         -57.5168         estimate D2E/DX2                !
 ! D85   D(10,9,12,49)          62.5353         estimate D2E/DX2                !
 ! D86   D(11,9,12,47)          62.0878         estimate D2E/DX2                !
 ! D87   D(11,9,12,48)        -177.6234         estimate D2E/DX2                !
 ! D88   D(11,9,12,49)         -57.5713         estimate D2E/DX2                !
 ! D89   D(8,13,14,6)           -0.5449         estimate D2E/DX2                !
 ! D90   D(8,13,14,15)         172.4403         estimate D2E/DX2                !
 ! D91   D(6,14,15,16)          61.712          estimate D2E/DX2                !
 ! D92   D(6,14,15,23)        -125.9769         estimate D2E/DX2                !
 ! D93   D(13,14,15,16)       -110.7474         estimate D2E/DX2                !
 ! D94   D(13,14,15,23)         61.5637         estimate D2E/DX2                !
 ! D95   D(14,15,16,17)        172.3499         estimate D2E/DX2                !
 ! D96   D(23,15,16,17)         -0.4819         estimate D2E/DX2                !
 ! D97   D(14,15,23,22)       -168.4026         estimate D2E/DX2                !
 ! D98   D(14,15,23,24)         13.9731         estimate D2E/DX2                !
 ! D99   D(16,15,23,22)          4.2305         estimate D2E/DX2                !
 ! D100  D(16,15,23,24)       -173.3939         estimate D2E/DX2                !
 ! D101  D(15,16,17,18)       -128.3468         estimate D2E/DX2                !
 ! D102  D(15,16,17,22)         -3.2009         estimate D2E/DX2                !
 ! D103  D(15,16,17,50)        114.6977         estimate D2E/DX2                !
 ! D104  D(16,17,18,19)         57.0154         estimate D2E/DX2                !
 ! D105  D(16,17,18,20)        -61.7534         estimate D2E/DX2                !
 ! D106  D(16,17,18,21)        179.2775         estimate D2E/DX2                !
 ! D107  D(22,17,18,19)        -61.843          estimate D2E/DX2                !
 ! D108  D(22,17,18,20)        179.3882         estimate D2E/DX2                !
 ! D109  D(22,17,18,21)         60.4191         estimate D2E/DX2                !
 ! D110  D(50,17,18,19)        174.0623         estimate D2E/DX2                !
 ! D111  D(50,17,18,20)         55.2935         estimate D2E/DX2                !
 ! D112  D(50,17,18,21)        -63.6756         estimate D2E/DX2                !
 ! D113  D(16,17,22,23)          5.3187         estimate D2E/DX2                !
 ! D114  D(16,17,22,60)       -113.066          estimate D2E/DX2                !
 ! D115  D(16,17,22,61)        124.029          estimate D2E/DX2                !
 ! D116  D(18,17,22,23)        127.0219         estimate D2E/DX2                !
 ! D117  D(18,17,22,60)          8.6372         estimate D2E/DX2                !
 ! D118  D(18,17,22,61)       -114.2679         estimate D2E/DX2                !
 ! D119  D(50,17,22,23)       -110.5344         estimate D2E/DX2                !
 ! D120  D(50,17,22,60)        131.0809         estimate D2E/DX2                !
 ! D121  D(50,17,22,61)          8.1758         estimate D2E/DX2                !
 ! D122  D(17,18,19,51)         64.962          estimate D2E/DX2                !
 ! D123  D(17,18,19,52)        -55.3598         estimate D2E/DX2                !
 ! D124  D(17,18,19,53)       -175.0101         estimate D2E/DX2                !
 ! D125  D(20,18,19,51)       -177.1888         estimate D2E/DX2                !
 ! D126  D(20,18,19,52)         62.4895         estimate D2E/DX2                !
 ! D127  D(20,18,19,53)        -57.1608         estimate D2E/DX2                !
 ! D128  D(21,18,19,51)        -57.0815         estimate D2E/DX2                !
 ! D129  D(21,18,19,52)       -177.4033         estimate D2E/DX2                !
 ! D130  D(21,18,19,53)         62.9464         estimate D2E/DX2                !
 ! D131  D(17,18,20,54)         55.8191         estimate D2E/DX2                !
 ! D132  D(17,18,20,55)        176.1418         estimate D2E/DX2                !
 ! D133  D(17,18,20,56)        -63.6531         estimate D2E/DX2                !
 ! D134  D(19,18,20,54)        -64.1022         estimate D2E/DX2                !
 ! D135  D(19,18,20,55)         56.2205         estimate D2E/DX2                !
 ! D136  D(19,18,20,56)        176.4257         estimate D2E/DX2                !
 ! D137  D(21,18,20,54)        175.182          estimate D2E/DX2                !
 ! D138  D(21,18,20,55)        -64.4954         estimate D2E/DX2                !
 ! D139  D(21,18,20,56)         55.7098         estimate D2E/DX2                !
 ! D140  D(17,18,21,57)        175.7791         estimate D2E/DX2                !
 ! D141  D(17,18,21,58)         56.2642         estimate D2E/DX2                !
 ! D142  D(17,18,21,59)        -64.3652         estimate D2E/DX2                !
 ! D143  D(19,18,21,57)        -61.7686         estimate D2E/DX2                !
 ! D144  D(19,18,21,58)        178.7166         estimate D2E/DX2                !
 ! D145  D(19,18,21,59)         58.0871         estimate D2E/DX2                !
 ! D146  D(20,18,21,57)         58.0433         estimate D2E/DX2                !
 ! D147  D(20,18,21,58)        -61.4716         estimate D2E/DX2                !
 ! D148  D(20,18,21,59)        177.899          estimate D2E/DX2                !
 ! D149  D(17,22,23,15)         -5.62           estimate D2E/DX2                !
 ! D150  D(17,22,23,24)        172.1608         estimate D2E/DX2                !
 ! D151  D(60,22,23,15)        113.5775         estimate D2E/DX2                !
 ! D152  D(60,22,23,24)        -68.6416         estimate D2E/DX2                !
 ! D153  D(61,22,23,15)       -125.8846         estimate D2E/DX2                !
 ! D154  D(61,22,23,24)         51.8963         estimate D2E/DX2                !
 ! D155  D(15,23,24,25)       -160.1966         estimate D2E/DX2                !
 ! D156  D(15,23,24,30)         22.3699         estimate D2E/DX2                !
 ! D157  D(22,23,24,25)         22.5246         estimate D2E/DX2                !
 ! D158  D(22,23,24,30)       -154.9089         estimate D2E/DX2                !
 ! D159  D(23,24,25,26)       -178.9309         estimate D2E/DX2                !
 ! D160  D(23,24,25,62)          1.5166         estimate D2E/DX2                !
 ! D161  D(30,24,25,26)         -1.4124         estimate D2E/DX2                !
 ! D162  D(30,24,25,62)        179.0351         estimate D2E/DX2                !
 ! D163  D(23,24,30,29)        179.2545         estimate D2E/DX2                !
 ! D164  D(23,24,30,68)          0.0928         estimate D2E/DX2                !
 ! D165  D(25,24,30,29)          1.771          estimate D2E/DX2                !
 ! D166  D(25,24,30,68)       -177.3907         estimate D2E/DX2                !
 ! D167  D(24,25,26,27)          0.2491         estimate D2E/DX2                !
 ! D168  D(24,25,26,63)       -179.7446         estimate D2E/DX2                !
 ! D169  D(62,25,26,27)        179.8057         estimate D2E/DX2                !
 ! D170  D(62,25,26,63)         -0.1879         estimate D2E/DX2                !
 ! D171  D(25,26,27,28)       -178.8545         estimate D2E/DX2                !
 ! D172  D(25,26,27,29)          0.5748         estimate D2E/DX2                !
 ! D173  D(63,26,27,28)          1.1391         estimate D2E/DX2                !
 ! D174  D(63,26,27,29)       -179.4316         estimate D2E/DX2                !
 ! D175  D(26,27,28,64)       -148.8772         estimate D2E/DX2                !
 ! D176  D(26,27,28,65)         91.7733         estimate D2E/DX2                !
 ! D177  D(26,27,28,66)        -27.6897         estimate D2E/DX2                !
 ! D178  D(29,27,28,64)         31.7111         estimate D2E/DX2                !
 ! D179  D(29,27,28,65)        -87.6384         estimate D2E/DX2                !
 ! D180  D(29,27,28,66)        152.8985         estimate D2E/DX2                !
 ! D181  D(26,27,29,30)         -0.2099         estimate D2E/DX2                !
 ! D182  D(26,27,29,67)        178.9016         estimate D2E/DX2                !
 ! D183  D(28,27,29,30)        179.2202         estimate D2E/DX2                !
 ! D184  D(28,27,29,67)         -1.6682         estimate D2E/DX2                !
 ! D185  D(27,29,30,24)         -0.9811         estimate D2E/DX2                !
 ! D186  D(27,29,30,68)        178.1891         estimate D2E/DX2                !
 ! D187  D(67,29,30,24)        179.9044         estimate D2E/DX2                !
 ! D188  D(67,29,30,68)         -0.9255         estimate D2E/DX2                !
 ! D189  D(5,31,32,2)            0.2118         estimate D2E/DX2                !
 ! D190  D(5,31,32,70)        -179.7923         estimate D2E/DX2                !
 ! D191  D(69,31,32,2)         179.792          estimate D2E/DX2                !
 ! D192  D(69,31,32,70)         -0.2122         estimate D2E/DX2                !
 --------------------------------------------------------------------------------
 Trust Radius=3.00D-01 FncErr=1.00D-07 GrdErr=1.00D-06 EigMax=2.50D+02 EigMin=1.00D-04
 Number of steps in this run=    409 maximum allowed number of steps=    420.
 GradGradGradGradGradGradGradGradGradGradGradGradGradGradGradGradGradGrad

 Leave Link  103 at Mon Aug 15 09:35:59 2022, MaxMem=  7516192768 cpu:               1.2 elap:               0.1
 (Enter /public/apps/g16-C01//g16/l202.exe)
 Symmetry turned off by external request.
 Stoichiometry    C28H38N4
 Framework group  C1[X(C28H38N4)]
 Deg. of freedom   204
 Full point group                 C1      NOp   1
                          Input orientation:                          
 ---------------------------------------------------------------------
 Center     Atomic      Atomic             Coordinates (Angstroms)
 Number     Number       Type             X           Y           Z
 ---------------------------------------------------------------------
      1          6           0        3.574155   -0.206073   -5.301740
      2          6           0        2.681755   -0.551549   -4.148522
      3          6           0        2.576524    0.282090   -3.043025
      4          6           0        1.746220   -0.027481   -1.984650
      5          6           0        0.969338   -1.186055   -2.007943
      6          7           0        0.141960   -1.528033   -0.950307
      7          6           0       -0.276118   -2.891969   -0.667162
      8          6           0       -0.985515   -2.749262    0.703000
      9          6           0       -2.419536   -3.321251    0.775921
     10          6           0       -2.402721   -4.819372    0.467001
     11          6           0       -2.927004   -3.102429    2.203611
     12          6           0       -3.343951   -2.587112   -0.196763
     13          7           0       -1.000452   -1.325378    0.970811
     14          6           0       -0.378407   -0.726730    0.033201
     15          6           0       -0.379732    0.736997   -0.040208
     16          7           0       -1.006335    1.337956   -0.973279
     17          6           0       -0.991485    2.761051   -0.700526
     18          6           0       -2.425777    3.333051   -0.766998
     19          6           0       -3.345659    2.601244    0.211750
     20          6           0       -2.940986    3.112024   -2.191555
     21          6           0       -2.406285    4.831703   -0.460709
     22          6           0       -0.277855    2.899875    0.668058
     23          7           0        0.142744    1.535452    0.944288
     24          6           0        0.966845    1.186334    2.002311
     25          6           0        1.066925    2.017924    3.118348
     26          6           0        1.902272    1.689207    4.167795
     27          6           0        2.668206    0.531779    4.144977
     28          6           0        3.554008    0.166295    5.297082
     29          6           0        2.578906   -0.284787    3.024487
     30          6           0        1.754254    0.034785    1.965413
     31          6           0        1.084031   -2.034248   -3.110756
     32          6           0        1.924515   -1.715704   -4.158491
     33          1           0        4.056615   -1.097270   -5.698052
     34          1           0        4.339860    0.504978   -5.001017
     35          1           0        2.990234    0.243600   -6.105651
     36          1           0        3.166551    1.186687   -3.000018
     37          1           0        1.713990    0.631141   -1.131734
     38          1           0        0.591373   -3.556544   -0.624813
     39          1           0       -0.959861   -3.251627   -1.441214
     40          1           0       -0.397038   -3.230922    1.495401
     41          1           0       -2.082794   -5.013917   -0.553937
     42          1           0       -3.400722   -5.233037    0.592804
     43          1           0       -1.728041   -5.341799    1.142104
     44          1           0       -2.856200   -2.048650    2.456181
     45          1           0       -3.962394   -3.422841    2.292534
     46          1           0       -2.327827   -3.667749    2.913970
     47          1           0       -3.318358   -1.519488    0.006882
     48          1           0       -3.049325   -2.745978   -1.231598
     49          1           0       -4.365323   -2.941535   -0.079027
     50          1           0       -0.405775    3.245707   -1.493175
     51          1           0       -3.050264    2.767693    1.245174
     52          1           0       -3.316555    1.532493    0.014547
     53          1           0       -4.368533    2.951151    0.093545
     54          1           0       -2.875539    2.057249   -2.441326
     55          1           0       -3.975524    3.436318   -2.276387
     56          1           0       -2.343008    3.672759   -2.906507
     57          1           0       -3.404726    5.245909   -0.581166
     58          1           0       -1.735335    5.352509   -1.140774
     59          1           0       -2.079873    5.027596    0.557941
     60          1           0       -0.959625    3.256160    1.445335
     61          1           0        0.588857    3.565491    0.625742
     62          1           0        0.484380    2.924211    3.172914
     63          1           0        1.958208    2.348605    5.022430
     64          1           0        4.429300   -0.381311    4.954543
     65          1           0        3.012214   -0.470286    5.997793
     66          1           0        3.880562    1.054599    5.832966
     67          1           0        3.177736   -1.183096    2.972249
     68          1           0        1.734425   -0.609042    1.100774
     69          1           0        0.508880   -2.945752   -3.155595
     70          1           0        1.992894   -2.387580   -5.002444
 ---------------------------------------------------------------------
 Rotational constants (GHZ):           0.1200838           0.1071289           0.1010627
 Leave Link  202 at Mon Aug 15 09:35:59 2022, MaxMem=  7516192768 cpu:               2.2 elap:               0.2
 (Enter /public/apps/g16-C01//g16/l301.exe)
 Standard basis: def2SVPP (5D, 7F)
 Ernie: Thresh=  0.10000D-02 Tol=  0.10000D-05 Strict=F.
   524 basis functions,   952 primitive gaussians,   556 cartesian basis functions
   117 alpha electrons      117 beta electrons
       nuclear repulsion energy      3372.6012346346 Hartrees.
 IExCor=  402 DFT=T Ex+Corr=B3LYP ExCW=0 ScaHFX=  0.200000
 ScaDFX=  0.800000  0.720000  1.000000  0.810000 ScalE2=  1.000000  1.000000
 IRadAn=      5 IRanWt=     -1 IRanGd=            0 ICorTp=0 IEmpDi=141
 NAtoms=   70 NActive=   70 NUniq=   70 SFac= 1.00D+00 NAtFMM=   60 NAOKFM=T Big=T
 Integral buffers will be    131072 words long.
 Raffenetti 2 integral format.
 Two-electron integral symmetry is turned off.
 R6Disp:  Grimme-D3(BJ) Dispersion energy=       -0.1592604003 Hartrees.
 Nuclear repulsion after empirical dispersion term =     3372.4419742343 Hartrees.
 Leave Link  301 at Mon Aug 15 09:35:59 2022, MaxMem=  7516192768 cpu:               2.1 elap:               0.2
 (Enter /public/apps/g16-C01//g16/l302.exe)
 NPDir=0 NMtPBC=     1 NCelOv=     1 NCel=       1 NClECP=     1 NCelD=      1
         NCelK=      1 NCelE2=     1 NClLst=     1 CellRange=     0.0.
 One-electron integrals computed using PRISM.
   1 Symmetry operations used in ECPInt.
 ECPInt:  NShTT=   36046 NPrTT=  144446 LenC2=   31869 LenP2D=   81212.
 LDataN:  DoStor=T MaxTD1= 4 Len=   56
 NBasis=   524 RedAO= T EigKep=  2.31D-04  NBF=   524
 NBsUse=   524 1.00D-06 EigRej= -1.00D+00 NBFU=   524
 Precomputing XC quadrature grid using
 IXCGrd= 4 IRadAn=           5 IRanWt=          -1 IRanGd=           0 AccXCQ= 0.00D+00.
 Generated NRdTot=       0 NPtTot=           0 NUsed=           0 NTot=          32
 NSgBfM=   549   549   549   549   549 MxSgAt=    70 MxSgA2=    70.
 Leave Link  302 at Mon Aug 15 09:36:06 2022, MaxMem=  7516192768 cpu:             110.4 elap:               6.3
 (Enter /public/apps/g16-C01//g16/l303.exe)
 DipDrv:  MaxL=1.
 Leave Link  303 at Mon Aug 15 09:36:08 2022, MaxMem=  7516192768 cpu:              19.1 elap:               1.1
 (Enter /public/apps/g16-C01//g16/l401.exe)
 ExpMin= 1.22D-01 ExpMax= 1.71D+03 ExpMxC= 2.58D+02 IAcc=3 IRadAn=         5 AccDes= 0.00D+00
 Harris functional with IExCor=  402 and IRadAn=       5 diagonalized for initial guess.
 HarFok:  IExCor=  402 AccDes= 0.00D+00 IRadAn=         5 IDoV= 1 UseB2=F ITyADJ=14
 ICtDFT=  3500011 ScaDFX=  1.000000  1.000000  1.000000  1.000000
 FoFCou: FMM=F IPFlag=           0 FMFlag=      100000 FMFlg1=        2001
         NFxFlg=           0 DoJE=T BraDBF=F KetDBF=T FulRan=T
         wScrn=  0.000000 ICntrl=       500 IOpCl=  0 I1Cent=   200000004 NGrid=           0
         NMat0=    1 NMatS0=      1 NMatT0=    0 NMatD0=    1 NMtDS0=    0 NMtDT0=    0
 Symmetry not used in FoFCou.
 Harris En= -1308.00984036680    
 JPrj=0 DoOrth=F DoCkMO=F.
 Leave Link  401 at Mon Aug 15 09:36:16 2022, MaxMem=  7516192768 cpu:             140.5 elap:               8.2
 (Enter /public/apps/g16-C01//g16/l502.exe)
 Two-electron integral symmetry not used.
 Closed shell SCF:
 Using DIIS extrapolation, IDIIS=  1040.
 NGot=  7516192768 LenX=  7515545530 LenY=  7515235838
 Requested convergence on RMS density matrix=1.00D-08 within 128 cycles.
 Requested convergence on MAX density matrix=1.00D-06.
 Requested convergence on             energy=1.00D-06.
 No special actions if energy rises.
 Fock matrices will be formed incrementally for  20 cycles.
 Integral accuracy reduced to 1.0D-05 until final iterations.

 Cycle   1  Pass 0  IDiag  1:
 FoFJK:  IHMeth= 1 ICntrl=       0 DoSepK=F KAlg= 0 I1Cent=           0 FoldK=F
 IRaf= 990000000 NMat=       1 IRICut=       1 DoRegI=T DoRafI=F ISym2E= 0 IDoP0=0 IntGTp=1.
 FoFCou: FMM=T IPFlag=           0 FMFlag=      100000 FMFlg1=        2001
         NFxFlg=           0 DoJE=F BraDBF=F KetDBF=F FulRan=T
         wScrn=  0.000000 ICntrl=         0 IOpCl=  0 I1Cent=           0 NGrid=           0
         NMat0=    1 NMatS0=      1 NMatT0=    0 NMatD0=    1 NMtDS0=    0 NMtDT0=    0
 Symmetry not used in FoFCou.
 FMM levels:  10  Number of levels for PrismC:   9
 E= -1307.09189251981    
 DIIS: error= 4.72D-02 at cycle   1 NSaved=   1.
 NSaved= 1 IEnMin= 1 EnMin= -1307.09189251981     IErMin= 1 ErrMin= 4.72D-02
 ErrMax= 4.72D-02  0.00D+00 EMaxC= 1.00D-01 BMatC= 8.05D-01 BMatP= 8.05D-01
 IDIUse=3 WtCom= 5.28D-01 WtEn= 4.72D-01
 Coeff-Com:  0.100D+01
 Coeff-En:   0.100D+01
 Coeff:      0.100D+01
 Gap=     0.235 Goal=   None    Shift=    0.000
 GapD=    0.235 DampG=1.000 DampE=0.500 DampFc=0.5000 IDamp=-1.
 Damping current iteration by 5.00D-01
 RMSDP=5.78D-03 MaxDP=1.80D-01              OVMax= 2.36D-01

 Cycle   2  Pass 0  IDiag  1:
 RMSU=  2.73D-03    CP:  9.45D-01
 E= -1307.42482826365     Delta-E=       -0.332935743836 Rises=F Damp=T
 DIIS: error= 1.05D-02 at cycle   2 NSaved=   2.
 NSaved= 2 IEnMin= 2 EnMin= -1307.42482826365     IErMin= 2 ErrMin= 1.05D-02
 ErrMax= 1.05D-02  0.00D+00 EMaxC= 1.00D-01 BMatC= 8.35D-02 BMatP= 8.05D-01
 IDIUse=3 WtCom= 8.95D-01 WtEn= 1.05D-01
 Coeff-Com:  0.152D+00 0.848D+00
 Coeff-En:   0.237D+00 0.763D+00
 Coeff:      0.161D+00 0.839D+00
 Gap=     0.176 Goal=   None    Shift=    0.000
 RMSDP=2.01D-03 MaxDP=7.60D-02 DE=-3.33D-01 OVMax= 2.66D-01

 Cycle   3  Pass 0  IDiag  1:
 RMSU=  1.88D-03    CP:  9.19D-01  7.88D-01
 E= -1307.86387101214     Delta-E=       -0.439042748494 Rises=F Damp=F
 DIIS: error= 1.42D-02 at cycle   3 NSaved=   3.
 NSaved= 3 IEnMin= 3 EnMin= -1307.86387101214     IErMin= 2 ErrMin= 1.05D-02
 ErrMax= 1.42D-02  0.00D+00 EMaxC= 1.00D-01 BMatC= 1.33D-01 BMatP= 8.35D-02
 IDIUse=2 WtCom= 0.00D+00 WtEn= 1.00D+00
 Coeff-En:   0.000D+00 0.000D+00 0.100D+01
 Coeff:      0.000D+00 0.000D+00 0.100D+01
 Gap=     0.182 Goal=   None    Shift=    0.000
 RMSDP=3.02D-03 MaxDP=1.33D-01 DE=-4.39D-01 OVMax= 2.66D-01

 Cycle   4  Pass 0  IDiag  1:
 RMSU=  1.87D-03    CP:  9.22D-01  1.26D+00 -6.21D-02
 E= -1307.22597918187     Delta-E=        0.637891830266 Rises=F Damp=F
 DIIS: error= 4.22D-02 at cycle   4 NSaved=   4.
 NSaved= 4 IEnMin= 3 EnMin= -1307.86387101214     IErMin= 2 ErrMin= 1.05D-02
 ErrMax= 4.22D-02  0.00D+00 EMaxC= 1.00D-01 BMatC= 8.05D-01 BMatP= 8.35D-02
 IDIUse=2 WtCom= 0.00D+00 WtEn= 1.00D+00
 Coeff-En:   0.000D+00 0.000D+00 0.796D+00 0.204D+00
 Coeff:      0.000D+00 0.000D+00 0.796D+00 0.204D+00
 Gap=     0.198 Goal=   None    Shift=    0.000
 RMSDP=1.62D-03 MaxDP=8.72D-02 DE= 6.38D-01 OVMax= 1.63D-01

 Cycle   5  Pass 0  IDiag  1:
 RMSU=  3.24D-04    CP:  9.21D-01  9.79D-01  4.89D-01  4.99D-01
 E= -1307.93451868806     Delta-E=       -0.708539506189 Rises=F Damp=F
 DIIS: error= 1.13D-02 at cycle   5 NSaved=   5.
 NSaved= 5 IEnMin= 5 EnMin= -1307.93451868806     IErMin= 2 ErrMin= 1.05D-02
 ErrMax= 1.13D-02  0.00D+00 EMaxC= 1.00D-01 BMatC= 6.29D-02 BMatP= 8.35D-02
 IDIUse=3 WtCom= 8.87D-01 WtEn= 1.13D-01
 Coeff-Com: -0.331D-02 0.334D-01 0.306D+00-0.100D+00 0.764D+00
 Coeff-En:   0.000D+00 0.000D+00 0.362D+00 0.000D+00 0.638D+00
 Coeff:     -0.294D-02 0.296D-01 0.312D+00-0.890D-01 0.750D+00
 Gap=     0.172 Goal=   None    Shift=    0.000
 RMSDP=6.06D-04 MaxDP=2.68D-02 DE=-7.09D-01 OVMax= 6.81D-02

 Cycle   6  Pass 0  IDiag  1:
 RMSU=  7.53D-05    CP:  9.20D-01  8.98D-01  7.03D-01  2.92D-01  8.57D-01
 E= -1307.99513344402     Delta-E=       -0.060614755957 Rises=F Damp=F
 DIIS: error= 6.65D-04 at cycle   6 NSaved=   6.
 NSaved= 6 IEnMin= 6 EnMin= -1307.99513344402     IErMin= 6 ErrMin= 6.65D-04
 ErrMax= 6.65D-04  0.00D+00 EMaxC= 1.00D-01 BMatC= 1.89D-04 BMatP= 6.29D-02
 IDIUse=3 WtCom= 9.93D-01 WtEn= 6.65D-03
 Coeff-Com: -0.351D-02 0.135D-01 0.135D+00-0.604D-01 0.403D+00 0.513D+00
 Coeff-En:   0.000D+00 0.000D+00 0.000D+00 0.000D+00 0.000D+00 0.100D+01
 Coeff:     -0.348D-02 0.134D-01 0.134D+00-0.600D-01 0.400D+00 0.516D+00
 Gap=     0.174 Goal=   None    Shift=    0.000
 RMSDP=3.82D-05 MaxDP=1.90D-03 DE=-6.06D-02 OVMax= 4.12D-03

 Cycle   7  Pass 0  IDiag  1:
 RMSU=  2.86D-05    CP:  9.19D-01  9.01D-01  6.99D-01  2.94D-01  8.75D-01
                    CP:  7.16D-01
 E= -1307.99531035344     Delta-E=       -0.000176909416 Rises=F Damp=F
 DIIS: error= 2.35D-04 at cycle   7 NSaved=   7.
 NSaved= 7 IEnMin= 7 EnMin= -1307.99531035344     IErMin= 7 ErrMin= 2.35D-04
 ErrMax= 2.35D-04  0.00D+00 EMaxC= 1.00D-01 BMatC= 1.98D-05 BMatP= 1.89D-04
 IDIUse=3 WtCom= 9.98D-01 WtEn= 2.35D-03
 Coeff-Com: -0.932D-03 0.184D-02 0.319D-01-0.165D-01 0.102D+00 0.260D+00
 Coeff-Com:  0.622D+00
 Coeff-En:   0.000D+00 0.000D+00 0.000D+00 0.000D+00 0.000D+00 0.235D-01
 Coeff-En:   0.976D+00
 Coeff:     -0.930D-03 0.183D-02 0.318D-01-0.165D-01 0.101D+00 0.260D+00
 Coeff:      0.622D+00
 Gap=     0.174 Goal=   None    Shift=    0.000
 RMSDP=1.44D-05 MaxDP=4.78D-04 DE=-1.77D-04 OVMax= 1.38D-03

 Cycle   8  Pass 0  IDiag  1:
 RMSU=  1.04D-05    CP:  9.20D-01  9.00D-01  7.00D-01  2.93D-01  8.71D-01
                    CP:  7.43D-01  6.86D-01
 E= -1307.99534568811     Delta-E=       -0.000035334671 Rises=F Damp=F
 DIIS: error= 6.46D-05 at cycle   8 NSaved=   8.
 NSaved= 8 IEnMin= 8 EnMin= -1307.99534568811     IErMin= 8 ErrMin= 6.46D-05
 ErrMax= 6.46D-05  0.00D+00 EMaxC= 1.00D-01 BMatC= 2.83D-06 BMatP= 1.98D-05
 IDIUse=1 WtCom= 1.00D+00 WtEn= 0.00D+00
 Coeff-Com: -0.345D-04-0.992D-03 0.482D-02-0.222D-02 0.137D-01 0.982D-01
 Coeff-Com:  0.364D+00 0.523D+00
 Coeff:     -0.345D-04-0.992D-03 0.482D-02-0.222D-02 0.137D-01 0.982D-01
 Coeff:      0.364D+00 0.523D+00
 Gap=     0.174 Goal=   None    Shift=    0.000
 RMSDP=5.12D-06 MaxDP=2.36D-04 DE=-3.53D-05 OVMax= 4.35D-04

 Initial convergence to 1.0D-05 achieved.  Increase integral accuracy.
 Cycle   9  Pass 1  IDiag  1:
 E= -1307.99512357523     Delta-E=        0.000222112881 Rises=F Damp=F
 DIIS: error= 5.84D-04 at cycle   1 NSaved=   1.
 NSaved= 1 IEnMin= 1 EnMin= -1307.99512357523     IErMin= 1 ErrMin= 5.84D-04
 ErrMax= 5.84D-04  0.00D+00 EMaxC= 1.00D-01 BMatC= 4.64D-05 BMatP= 4.64D-05
 IDIUse=3 WtCom= 9.94D-01 WtEn= 5.84D-03
 Coeff-Com:  0.100D+01
 Coeff-En:   0.100D+01
 Coeff:      0.100D+01
 Gap=     0.174 Goal=   None    Shift=    0.000
 RMSDP=5.12D-06 MaxDP=2.36D-04 DE= 2.22D-04 OVMax= 1.12D-03

 Cycle  10  Pass 1  IDiag  1:
 RMSU=  3.96D-04    CP:  9.99D-01
 E= -1307.99518050368     Delta-E=       -0.000056928451 Rises=F Damp=F
 DIIS: error= 3.09D-05 at cycle   2 NSaved=   2.
 NSaved= 2 IEnMin= 2 EnMin= -1307.99518050368     IErMin= 2 ErrMin= 3.09D-05
 ErrMax= 3.09D-05  0.00D+00 EMaxC= 1.00D-01 BMatC= 3.37D-07 BMatP= 4.64D-05
 IDIUse=1 WtCom= 1.00D+00 WtEn= 0.00D+00
 Coeff-Com: -0.109D-03 0.100D+01
 Coeff:     -0.109D-03 0.100D+01
 Gap=     0.173 Goal=   None    Shift=    0.000
 RMSDP=7.13D-06 MaxDP=1.75D-04 DE=-5.69D-05 OVMax= 4.85D-04

 Cycle  11  Pass 1  IDiag  1:
 RMSU=  4.61D-06    CP:  9.99D-01  1.01D+00
 E= -1307.99517952667     Delta-E=        0.000000977009 Rises=F Damp=F
 DIIS: error= 6.14D-05 at cycle   3 NSaved=   3.
 NSaved= 3 IEnMin= 2 EnMin= -1307.99518050368     IErMin= 2 ErrMin= 3.09D-05
 ErrMax= 6.14D-05  0.00D+00 EMaxC= 1.00D-01 BMatC= 1.19D-06 BMatP= 3.37D-07
 IDIUse=1 WtCom= 1.00D+00 WtEn= 0.00D+00
 Coeff-Com: -0.729D-02 0.659D+00 0.348D+00
 Coeff:     -0.729D-02 0.659D+00 0.348D+00
 Gap=     0.174 Goal=   None    Shift=    0.000
 RMSDP=2.81D-06 MaxDP=1.10D-04 DE= 9.77D-07 OVMax= 3.26D-04

 Cycle  12  Pass 1  IDiag  1:
 RMSU=  1.04D-06    CP:  9.99D-01  1.01D+00  4.33D-01
 E= -1307.99518088723     Delta-E=       -0.000001360561 Rises=F Damp=F
 DIIS: error= 4.26D-06 at cycle   4 NSaved=   4.
 NSaved= 4 IEnMin= 4 EnMin= -1307.99518088723     IErMin= 4 ErrMin= 4.26D-06
 ErrMax= 4.26D-06  0.00D+00 EMaxC= 1.00D-01 BMatC= 9.02D-09 BMatP= 3.37D-07
 IDIUse=1 WtCom= 1.00D+00 WtEn= 0.00D+00
 Coeff-Com: -0.433D-02 0.379D+00 0.207D+00 0.418D+00
 Coeff:     -0.433D-02 0.379D+00 0.207D+00 0.418D+00
 Gap=     0.174 Goal=   None    Shift=    0.000
 RMSDP=2.75D-07 MaxDP=1.63D-05 DE=-1.36D-06 OVMax= 2.94D-05

 Cycle  13  Pass 1  IDiag  1:
 RMSU=  2.52D-07    CP:  9.99D-01  1.01D+00  4.37D-01  8.95D-01
 E= -1307.99518089487     Delta-E=       -0.000000007636 Rises=F Damp=F
 DIIS: error= 1.01D-06 at cycle   5 NSaved=   5.
 NSaved= 5 IEnMin= 5 EnMin= -1307.99518089487     IErMin= 5 ErrMin= 1.01D-06
 ErrMax= 1.01D-06  0.00D+00 EMaxC= 1.00D-01 BMatC= 8.10D-10 BMatP= 9.02D-09
 IDIUse=1 WtCom= 1.00D+00 WtEn= 0.00D+00
 Coeff-Com: -0.162D-02 0.139D+00 0.781D-01 0.251D+00 0.533D+00
 Coeff:     -0.162D-02 0.139D+00 0.781D-01 0.251D+00 0.533D+00
 Gap=     0.174 Goal=   None    Shift=    0.000
 RMSDP=9.40D-08 MaxDP=6.98D-06 DE=-7.64D-09 OVMax= 1.10D-05

 Cycle  14  Pass 1  IDiag  1:
 RMSU=  8.23D-08    CP:  9.99D-01  1.01D+00  4.38D-01  9.06D-01  8.33D-01
 E= -1307.99518089542     Delta-E=       -0.000000000558 Rises=F Damp=F
 DIIS: error= 3.66D-07 at cycle   6 NSaved=   6.
 NSaved= 6 IEnMin= 6 EnMin= -1307.99518089542     IErMin= 6 ErrMin= 3.66D-07
 ErrMax= 3.66D-07  0.00D+00 EMaxC= 1.00D-01 BMatC= 1.69D-10 BMatP= 8.10D-10
 IDIUse=1 WtCom= 1.00D+00 WtEn= 0.00D+00
 Coeff-Com: -0.282D-03 0.230D-01 0.138D-01 0.888D-01 0.354D+00 0.521D+00
 Coeff:     -0.282D-03 0.230D-01 0.138D-01 0.888D-01 0.354D+00 0.521D+00
 Gap=     0.174 Goal=   None    Shift=    0.000
 RMSDP=3.38D-08 MaxDP=2.16D-06 DE=-5.58D-10 OVMax= 3.30D-06

 Cycle  15  Pass 1  IDiag  1:
 RMSU=  1.96D-08    CP:  9.99D-01  1.01D+00  4.39D-01  9.11D-01  8.71D-01
                    CP:  7.00D-01
 E= -1307.99518089560     Delta-E=       -0.000000000176 Rises=F Damp=F
 DIIS: error= 1.08D-07 at cycle   7 NSaved=   7.
 NSaved= 7 IEnMin= 7 EnMin= -1307.99518089560     IErMin= 7 ErrMin= 1.08D-07
 ErrMax= 1.08D-07  0.00D+00 EMaxC= 1.00D-01 BMatC= 8.70D-12 BMatP= 1.69D-10
 IDIUse=1 WtCom= 1.00D+00 WtEn= 0.00D+00
 Coeff-Com:  0.194D-05-0.838D-03-0.399D-04 0.225D-01 0.135D+00 0.268D+00
 Coeff-Com:  0.575D+00
 Coeff:      0.194D-05-0.838D-03-0.399D-04 0.225D-01 0.135D+00 0.268D+00
 Coeff:      0.575D+00
 Gap=     0.174 Goal=   None    Shift=    0.000
 RMSDP=9.43D-09 MaxDP=4.48D-07 DE=-1.76D-10 OVMax= 6.37D-07

 SCF Done:  E(RB3LYP) =  -1307.99518090     A.U. after   15 cycles
            NFock= 15  Conv=0.94D-08     -V/T= 2.0097
 KE= 1.295379793056D+03 PE=-9.772939392340D+03 EE= 3.797122444153D+03
 Leave Link  502 at Mon Aug 15 09:38:41 2022, MaxMem=  7516192768 cpu:            2618.7 elap:             144.5
 (Enter /public/apps/g16-C01//g16/l601.exe)
 Copying SCF densities to generalized density rwf, IOpCl= 0 IROHF=0.

 **********************************************************************

            Population analysis using the SCF Density.

 **********************************************************************

 Alpha  occ. eigenvalues --  -14.36359 -14.36333 -14.29484 -14.29465 -10.25793
 Alpha  occ. eigenvalues --  -10.25769 -10.22765 -10.22744 -10.21811 -10.21801
 Alpha  occ. eigenvalues --  -10.20853 -10.20846 -10.18912 -10.18904 -10.18364
 Alpha  occ. eigenvalues --  -10.18359 -10.18067 -10.18041 -10.18010 -10.17984
 Alpha  occ. eigenvalues --  -10.17937 -10.17933 -10.17926 -10.17926 -10.17263
 Alpha  occ. eigenvalues --  -10.17261 -10.16503 -10.16495 -10.15658 -10.15653
 Alpha  occ. eigenvalues --  -10.15176 -10.15165  -1.01421  -0.99365  -0.89720
 Alpha  occ. eigenvalues --   -0.89499  -0.84438  -0.84370  -0.82159  -0.80982
 Alpha  occ. eigenvalues --   -0.77212  -0.76407  -0.75595  -0.74401  -0.73997
 Alpha  occ. eigenvalues --   -0.72384  -0.69058  -0.68548  -0.67903  -0.67886
 Alpha  occ. eigenvalues --   -0.67293  -0.67272  -0.64051  -0.63456  -0.62787
 Alpha  occ. eigenvalues --   -0.61149  -0.60178  -0.59478  -0.58976  -0.55673
 Alpha  occ. eigenvalues --   -0.55465  -0.53126  -0.53032  -0.50520  -0.50193
 Alpha  occ. eigenvalues --   -0.49334  -0.48327  -0.46954  -0.46891  -0.46658
 Alpha  occ. eigenvalues --   -0.45730  -0.45032  -0.44783  -0.44766  -0.43806
 Alpha  occ. eigenvalues --   -0.43742  -0.43550  -0.43206  -0.42884  -0.42496
 Alpha  occ. eigenvalues --   -0.42269  -0.42252  -0.42001  -0.41388  -0.41275
 Alpha  occ. eigenvalues --   -0.40216  -0.39913  -0.38837  -0.38678  -0.38326
 Alpha  occ. eigenvalues --   -0.38304  -0.37627  -0.37251  -0.36947  -0.36869
 Alpha  occ. eigenvalues --   -0.36371  -0.36132  -0.36106  -0.35724  -0.35226
 Alpha  occ. eigenvalues --   -0.34859  -0.34296  -0.33424  -0.32720  -0.32650
 Alpha  occ. eigenvalues --   -0.32526  -0.32218  -0.32052  -0.31847  -0.27605
 Alpha  occ. eigenvalues --   -0.26833  -0.25872  -0.25711  -0.25630  -0.25272
 Alpha  occ. eigenvalues --   -0.20064  -0.19733
 Alpha virt. eigenvalues --   -0.02382  -0.00757  -0.00583  -0.00268   0.01773
 Alpha virt. eigenvalues --    0.04658   0.04699   0.05571   0.06537   0.06784
 Alpha virt. eigenvalues --    0.07727   0.07793   0.08155   0.08337   0.09265
 Alpha virt. eigenvalues --    0.09710   0.10281   0.10367   0.10471   0.10911
 Alpha virt. eigenvalues --    0.11185   0.11586   0.11756   0.12529   0.13145
 Alpha virt. eigenvalues --    0.13311   0.13927   0.14295   0.14385   0.15032
 Alpha virt. eigenvalues --    0.15224   0.15635   0.15896   0.15993   0.16193
 Alpha virt. eigenvalues --    0.16251   0.16829   0.16910   0.16956   0.17674
 Alpha virt. eigenvalues --    0.17838   0.18404   0.18547   0.19013   0.19379
 Alpha virt. eigenvalues --    0.20398   0.20524   0.21210   0.21321   0.21934
 Alpha virt. eigenvalues --    0.22379   0.23348   0.23446   0.23814   0.24115
 Alpha virt. eigenvalues --    0.24223   0.24679   0.25023   0.25376   0.26107
 Alpha virt. eigenvalues --    0.26382   0.27536   0.28107   0.29054   0.29406
 Alpha virt. eigenvalues --    0.30012   0.30817   0.31234   0.31844   0.32637
 Alpha virt. eigenvalues --    0.33326   0.33613   0.34284   0.34830   0.35342
 Alpha virt. eigenvalues --    0.36096   0.36613   0.38461   0.39683   0.40375
 Alpha virt. eigenvalues --    0.40574   0.40966   0.41243   0.41655   0.41878
 Alpha virt. eigenvalues --    0.42122   0.42564   0.42720   0.43495   0.43743
 Alpha virt. eigenvalues --    0.44400   0.44623   0.44881   0.45504   0.46124
 Alpha virt. eigenvalues --    0.46737   0.46982   0.47306   0.48206   0.48733
 Alpha virt. eigenvalues --    0.49350   0.49432   0.50592   0.50727   0.51815
 Alpha virt. eigenvalues --    0.52883   0.53547   0.53574   0.54117   0.54185
 Alpha virt. eigenvalues --    0.54374   0.55727   0.55937   0.56666   0.57134
 Alpha virt. eigenvalues --    0.57621   0.58557   0.58671   0.58693   0.59949
 Alpha virt. eigenvalues --    0.60362   0.60550   0.61473   0.61677   0.62530
 Alpha virt. eigenvalues --    0.62754   0.63668   0.64077   0.64342   0.64682
 Alpha virt. eigenvalues --    0.65287   0.65523   0.65855   0.66056   0.66205
 Alpha virt. eigenvalues --    0.66482   0.67311   0.67758   0.68036   0.68482
 Alpha virt. eigenvalues --    0.68615   0.68833   0.69018   0.69110   0.69144
 Alpha virt. eigenvalues --    0.69517   0.69573   0.69826   0.69981   0.70080
 Alpha virt. eigenvalues --    0.70140   0.70225   0.70829   0.70864   0.71035
 Alpha virt. eigenvalues --    0.71296   0.71739   0.71938   0.72078   0.72409
 Alpha virt. eigenvalues --    0.73083   0.73193   0.73396   0.73506   0.73589
 Alpha virt. eigenvalues --    0.73721   0.74352   0.74392   0.74851   0.74914
 Alpha virt. eigenvalues --    0.75523   0.75621   0.75930   0.76043   0.76204
 Alpha virt. eigenvalues --    0.76551   0.76737   0.76868   0.77202   0.77965
 Alpha virt. eigenvalues --    0.78238   0.78886   0.79329   0.80295   0.80505
 Alpha virt. eigenvalues --    0.81327   0.81736   0.82221   0.82509   0.83236
 Alpha virt. eigenvalues --    0.83969   0.84104   0.85262   0.85610   0.86605
 Alpha virt. eigenvalues --    0.87253   0.87552   0.89469   0.89596   0.90038
 Alpha virt. eigenvalues --    0.91372   0.91655   0.92965   0.93260   0.94218
 Alpha virt. eigenvalues --    0.96141   0.96890   0.97654   0.98890   0.99823
 Alpha virt. eigenvalues --    1.00881   1.01454   1.02465   1.02639   1.03678
 Alpha virt. eigenvalues --    1.05488   1.06924   1.09580   1.09956   1.10140
 Alpha virt. eigenvalues --    1.12265   1.12615   1.13629   1.14945   1.16817
 Alpha virt. eigenvalues --    1.18840   1.19513   1.20218   1.21142   1.21305
 Alpha virt. eigenvalues --    1.21462   1.22948   1.24291   1.26319   1.26823
 Alpha virt. eigenvalues --    1.27842   1.29753   1.30987   1.33146   1.33597
 Alpha virt. eigenvalues --    1.36120   1.36757   1.38710   1.38959   1.39323
 Alpha virt. eigenvalues --    1.39943   1.42590   1.42677   1.46018   1.46527
 Alpha virt. eigenvalues --    1.46858   1.48064   1.49126   1.49149   1.51109
 Alpha virt. eigenvalues --    1.51807   1.52440   1.53555   1.53632   1.53811
 Alpha virt. eigenvalues --    1.54977   1.59326   1.62298   1.62649   1.69408
 Alpha virt. eigenvalues --    1.70865   1.72750   1.72913   1.74472   1.74749
 Alpha virt. eigenvalues --    1.75485   1.75574   1.75891   1.75969   1.77972
 Alpha virt. eigenvalues --    1.78287   1.78711   1.79224   1.80658   1.81167
 Alpha virt. eigenvalues --    1.83102   1.84243   1.84960   1.85221   1.85754
 Alpha virt. eigenvalues --    1.86194   1.86247   1.87526   1.87952   1.88016
 Alpha virt. eigenvalues --    1.88536   1.89159   1.89463   1.90537   1.91140
 Alpha virt. eigenvalues --    1.91758   1.94040   1.94260   1.95596   1.97941
 Alpha virt. eigenvalues --    1.99496   2.00774   2.02012   2.02156   2.02718
 Alpha virt. eigenvalues --    2.03099   2.04075   2.04459   2.04847   2.05067
 Alpha virt. eigenvalues --    2.05659   2.05967   2.06369   2.06921   2.07478
 Alpha virt. eigenvalues --    2.07871   2.08875   2.10126   2.11275   2.12063
 Alpha virt. eigenvalues --    2.12617   2.13101   2.13570   2.13703   2.15182
 Alpha virt. eigenvalues --    2.15598   2.16184   2.16623   2.18130   2.18323
 Alpha virt. eigenvalues --    2.18512   2.18647   2.19085   2.19248   2.20415
 Alpha virt. eigenvalues --    2.20606   2.20927   2.21326   2.22312   2.25245
 Alpha virt. eigenvalues --    2.26797   2.27405   2.27819   2.28539   2.29700
 Alpha virt. eigenvalues --    2.30391   2.30489   2.30936   2.32324   2.32788
 Alpha virt. eigenvalues --    2.34876   2.38594   2.39920   2.40511   2.40578
 Alpha virt. eigenvalues --    2.43178   2.43702   2.44662   2.46560   2.47868
 Alpha virt. eigenvalues --    2.48602   2.49797   2.52917   2.52984   2.54510
 Alpha virt. eigenvalues --    2.57183   2.57800   2.58652   2.59317   2.61461
 Alpha virt. eigenvalues --    2.64742   2.65763   2.65906   2.67220   2.67327
 Alpha virt. eigenvalues --    2.68557   2.70643   2.71628   2.72327   2.74225
 Alpha virt. eigenvalues --    2.74341   2.74599   2.76046   2.76594   2.78199
 Alpha virt. eigenvalues --    2.78510   2.79406   2.80508   2.82070   2.83385
 Alpha virt. eigenvalues --    2.83967   2.84959   2.88534   2.93429   2.93991
 Alpha virt. eigenvalues --    2.98093   2.99471   3.03300   3.09267   3.20553
 Alpha virt. eigenvalues --    3.25416   3.26602   3.33502   3.41306   3.45521
 Alpha virt. eigenvalues --    3.51722   3.53267
          Condensed to atoms (all electrons):
 Mulliken charges:
               1
     1  C   -0.183532
     2  C    0.077749
     3  C   -0.134626
     4  C   -0.131867
     5  C    0.274717
     6  N   -0.221620
     7  C    0.023179
     8  C    0.006075
     9  C   -0.189251
    10  C   -0.179325
    11  C   -0.178802
    12  C   -0.220911
    13  N   -0.180856
    14  C    0.055036
    15  C    0.056104
    16  N   -0.180534
    17  C    0.004984
    18  C   -0.189176
    19  C   -0.220942
    20  C   -0.178612
    21  C   -0.179354
    22  C    0.024443
    23  N   -0.222612
    24  C    0.274837
    25  C   -0.157354
    26  C   -0.112666
    27  C    0.077389
    28  C   -0.183783
    29  C   -0.132242
    30  C   -0.131593
    31  C   -0.157866
    32  C   -0.110819
    33  H    0.092892
    34  H    0.088823
    35  H    0.103810
    36  H    0.028296
    37  H    0.056156
    38  H    0.086263
    39  H    0.100282
    40  H    0.056615
    41  H    0.078949
    42  H    0.085582
    43  H    0.078045
    44  H    0.104751
    45  H    0.076451
    46  H    0.070189
    47  H    0.123042
    48  H    0.079518
    49  H    0.080879
    50  H    0.056635
    51  H    0.079389
[...]
 0.00009115,-0.00001580,0.00023431,-0.00016087,-0.00027611,0.00002375,-
 0.00055752,-0.00012856,-0.00054179,-0.00071215,-0.00001156,-0.00015254
 ,0.00010150,0.00004510,0.00027990,0.00018958,-0.00000656,0.00003889,-0
 .00007095,-0.00001460,-0.00000371,0.00002202,0.00000528,-0.00001292,0.
 00000123,-0.00004363,-0.00002729,0.00003195,-0.00038755,0.00011325,-0.
 00126003,-0.00305848,-0.00031188,0.00073546,-0.00016292,-0.00046796,-0
 .00000535,0.00006280,0.00007966,0.00017860,0.00003391,0.00003484,-0.00
 008711,-0.00000515,0.00000849,0.00001860,-0.00000016,-0.00000934,-0.00
 000553,0.00000903,-0.00000482,-0.00000135,0.00000199,-0.00000111,-0.00
 000578,0.00011913,0.00005624,-0.00001921,0.00151683,0.00037400,0.00015
 996,-0.00222957,0.00153016,0.00329894,-0.00119221,-0.00040509,0.001786
 10,-0.00016351,0.00084732,0.00036442,-0.00464099,0.00137531,-0.0008071
 6,0.00015880,-0.00090404,-0.00044599,0.00120360,-0.01642563,-0.0158445
 6,0.00050876,-0.13856460,-0.24160729,0.00005234,-0.00004041,-0.0000032
 3,-0.00004066,-0.00001528,0.00003711,-0.00000141,0.00000105,0.00000359
 ,-0.00000476,-0.00000360,0.00000199,-0.00000174,-0.00000340,0.00000172
 ,-0.00001073,-0.00000385,0.00000910,0.00000016,0.00029063,-0.00085037,
 0.00003368,0.00005936,0.00003651,0.00001842,0.00007108,-0.00001474,0.0
 0010431,0.00022226,-0.00009865,0.00000204,-0.00000201,-0.00000610,-0.0
 0000934,-0.00001104,-0.00000308,0.00000081,0.00001053,-0.00000706,0.00
 001291,-0.00000010,-0.00000613,-0.00001609,-0.00000740,-0.00000153,0.0
 0000187,0.00001269,-0.00001153,0.00001119,-0.00001254,-0.00000160,0.00
 000121,0.00000019,-0.00000917,-0.00001657,-0.00000765,-0.00001413,-0.0
 0000476,0.00002546,0.00000335,-0.00000371,-0.00000052,0.00000312,0.000
 00079,0.00000242,0.00000409,0.00000306,0.00000142,0.00000120,-0.000001
 88,0.00000012,0.00000148,0.00000232,-0.00000153,0.00000319,0.00000043,
 0.00000127,-0.00000069,0.00000203,-0.00000086,0.00000215,0.00000021,0.
 00000174,-0.00000053,-0.00000178,0.00000369,0.00000376,0.00000911,-0.0
 0003925,-0.00000642,-0.00001391,0.00001861,-0.00001743,-0.00016047,0.0
 0013542,0.00015880,0.00024739,0.00010080,-0.00019814,-0.00001598,0.000
 01550,0.00001431,-0.00000260,0.00002948,-0.00005193,-0.00014362,0.0001
 0152,-0.00031975,0.00165036,0.00121224,0.00036516,0.00682618,0.1506166
 5,0.25570017,0.00009253,-0.00069606,-0.00026695,0.00278420,-0.00229035
 ,0.00479765,-0.00022569,0.00064261,0.00032251,0.00351877,-0.00131908,0
 .00172688,0.00507477,0.00152717,0.00014033,-0.00190187,0.00053844,-0.0
 0123345,-0.00053403,-0.00031457,0.00138937,-0.00009584,0.00020994,-0.0
 0034705,0.00003554,-0.00002039,0.00000254,-0.00000736,-0.00000410,-0.0
 0000307,-0.00001544,0.00000645,-0.00000441,0.00000601,0.00000672,0.000
 04546,0.00024229,0.00027850,0.00027398,-0.00060306,0.00006010,0.000010
 74,0.00009080,0.00002082,0.00017958,-0.00001477,-0.00001158,-0.0001005
 2,-0.00000458,0.00001522,0.00000359,0.00000144,0.00000084,0.00000142,0
 .00000009,0.00000161,0.00000093,-0.00000023,0.00000602,0.00000159,-0.0
 0000010,0.00000107,-0.00000133,-0.00000296,-0.00000436,-0.00000440,-0.
 00007796,-0.00002454,-0.00010341,0.00004918,-0.00002188,0.00007346,-0.
 00001204,-0.00000379,-0.00002242,0.00000427,-0.00000039,0.00000907,-0.
 00000634,0.00000514,-0.00000257,0.00000291,0.00000214,0.00000149,0.000
 00819,-0.00001228,-0.00000082,-0.00001461,0.00001947,-0.00000980,-0.12
 349346,-0.13561728,0.00046254,-0.00603943,-0.01533823,-0.00248012,0.00
 000589,0.00008205,0.00000736,-0.00005384,-0.00007415,0.00003313,-0.000
 08645,-0.00003802,0.00018429,-0.00051148,0.00028777,-0.00025679,0.0001
 6310,0.00017769,0.00016034,-0.00012337,0.00018229,-0.00050816,-0.00051
 982,-0.00053849,0.00158227,0.00001650,0.00001332,-0.00001284,0.0000197
 6,-0.00000890,0.00001466,-0.00000526,0.00000273,0.00000223,-0.00000443
 ,0.00000781,-0.00002342,-0.00000046,0.00000277,0.00000687,-0.00000111,
 -0.00000036,0.00000502,-0.00000298,0.00000236,-0.00001112,-0.00000721,
 0.00000987,-0.00000034,-0.00000329,-0.00001361,-0.00001550,0.00000536,
 0.00000683,-0.00001827,0.00000291,0.00000597,-0.00000301,-0.00000077,-
 0.00000121,-0.00000353,-0.00000171,-0.00000083,0.00000219,0.00000160,-
 0.00000102,0.00000056,-0.00000489,-0.00000120,0.00000112,0.00000258,-0
 .00000328,-0.00000210,0.00000005,0.00000311,-0.00000134,0.00000149,-0.
 00000087,0.00000054,-0.00000015,0.00000080,0.00000049,-0.00000104,-0.0
 0000151,-0.00000314,0.00000259,-0.00000066,-0.00000253,-0.00000294,-0.
 00000080,-0.00000023,-0.00000062,0.00000265,0.00000305,-0.00000042,0.0
 0000011,-0.00000109,-0.00000371,-0.00000061,-0.00000124,-0.00000023,0.
 00000083,-0.00000422,-0.00000096,0.00000051,-0.00000031,-0.00000496,0.
 00000296,-0.00000448,0.00000927,-0.00002016,0.00001532,0.12427366,-0.0
 0019802,-0.00010676,-0.00025778,-0.00239630,0.00311281,0.00026212,0.00
 069532,0.00051313,-0.00021505,-0.00062808,0.00065773,-0.00440764,-0.01
 194972,-0.01104671,0.00293658,0.00134222,-0.00080279,0.00131935,-0.000
 68209,-0.00028860,0.00108225,0.00045603,0.00028473,-0.00011026,0.00001
 570,0.00006266,-0.00000955,0.00000236,0.00000207,-0.00001019,-0.000002
 57,-0.00002561,-0.00000606,-0.00000214,-0.00003669,-0.00005833,-0.0002
 2620,0.00023937,-0.00001808,0.00025607,-0.00002273,0.00008204,-0.00019
 413,-0.00011780,-0.00003176,0.00008734,0.00007867,-0.00000300,-0.00001
 948,-0.00000416,0.00002152,-0.00000887,0.00001489,-0.00001149,0.000007
 22,-0.00001332,0.00000181,-0.00000060,-0.00001750,0.00000115,0.0000037
 4,-0.00000300,0.00000529,-0.00001074,0.00002505,0.00001636,0.00011287,
 0.00006458,-0.00001194,-0.00001550,-0.00000132,0.00003063,0.00000330,0
 .00000036,0.00000285,-0.00000009,0.00000183,-0.00000439,-0.00000093,-0
 .00000523,-0.00000002,-0.00000063,-0.00000174,0.00000167,0.00001598,-0
 .00000272,-0.00000397,0.00002129,0.00003685,0.00000453,-0.13476663,-0.
 25417716,-0.01789692,-0.00332898,-0.00323979,-0.00193656,0.00001833,-0
 .00001275,0.00001448,-0.00008400,-0.00005196,0.00013119,-0.00004573,-0
 .00005638,-0.00000762,0.00025375,-0.00027412,0.00018158,-0.00061476,-0
 .00061955,0.00013550,-0.00043173,-0.00003408,0.00034665,0.00033597,0.0
 0035154,0.00060402,-0.00001588,0.00002755,0.00007731,-0.00000390,0.000
 02178,0.00001058,-0.00001065,-0.00000443,0.00000680,0.00000836,-0.0000
 0241,0.00000625,-0.00000008,0.00000502,-0.00000441,-0.00001046,0.00000
 084,0.00000897,0.00000481,-0.00000344,0.00000893,0.00000557,-0.0000035
 6,-0.00000403,0.00002079,0.00002725,0.00003079,-0.00001723,-0.00000312
 ,0.00002418,-0.00000372,0.00002744,-0.00000963,-0.00000087,0.00000180,
 0.00000340,-0.00000205,0.00000180,-0.00000104,0.00000441,-0.00000067,-
 0.00000201,-0.00000181,0.00000095,-0.00000255,0.00000363,0.00000028,0.
 00000229,0.00000199,0.00000496,-0.00000298,0.00000203,-0.00000252,-0.0
 0000010,0.00000144,0.00000409,-0.00000324,-0.00000031,0.00000351,0.000
 00356,0.00000377,-0.00000387,-0.00000581,-0.00000013,0.00001060,0.0000
 0936,-0.00000265,-0.00000396,0.00000008,-0.00000084,-0.00000115,-0.000
 00095,0.00000009,-0.00000083,0.00000019,-0.00000054,0.00000207,-0.0000
 0273,-0.00000066,-0.00000032,-0.00000096,-0.00000443,-0.00000153,0.000
 00200,-0.00002713,-0.00004010,0.00001867,0.15009673,0.26579169,0.00049
 285,0.00070614,0.00035812,0.00426312,-0.00054957,-0.00242201,0.0001853
 7,-0.00011560,-0.00107771,0.00230599,-0.00318828,-0.00302396,-0.013239
 61,-0.02118438,0.00349421,-0.00179037,0.00123859,0.00076676,-0.0000354
 7,-0.00050219,-0.00162310,0.00026344,-0.00023402,-0.00036331,0.0000619
 1,0.00007085,0.00007001,-0.00001874,-0.00000563,-0.00003354,-0.0000497
 7,-0.00003425,-0.00002427,-0.00002111,-0.00003346,-0.00003106,-0.00004
 514,0.00022697,0.00023964,0.00008490,-0.00016168,-0.00021940,-0.000133
 47,-0.00016443,0.00013059,0.00001105,0.00010746,-0.00006450,-0.0000069
 5,-0.00001165,0.00000870,0.00000565,0.00000672,0.00000396,0.00000045,-
 0.00000740,-0.00000209,-0.00000079,0.00000087,-0.00000029,-0.00000302,
 0.00000094,-0.00000339,-0.00000409,0.00001732,0.00001205,0.00004300,0.
 00006730,-0.00012198,0.00002059,-0.00001969,0.00007906,-0.00000549,-0.
 00000257,-0.00001564,0.00000699,-0.00000268,0.00000660,-0.00000760,0.0
 0000537,-0.00000236,-0.00000127,-0.00000015,0.00000131,0.00001162,0.00
 000194,-0.00000647,0.00001143,0.00002475,-0.00000493,-0.00009440,-0.01
 551315,-0.05487411,0.01359614,0.02190198,0.00495093,-0.00003769,-0.000
 03889,-0.00000389,0.00015871,0.00009334,-0.00022080,0.00006252,0.00006
 250,-0.00005635,-0.00026625,0.00022607,-0.00008845,-0.00065419,-0.0011
 0538,0.00015890,0.00011549,0.00038581,-0.00065687,0.00106882,0.0004637
 3,-0.00065545,-0.00006142,0.00001942,0.00016643,0.00001061,0.00001980,
 0.00002593,-0.00002402,-0.00001113,0.00002310,0.00000509,0.00000626,-0
 .00000063,0.00000185,0.00001161,0.00000195,-0.00002401,-0.00000394,0.0
 0002499,0.00000493,-0.00000175,-0.00000165,-0.00000526,0.00001040,0.00
 000690,0.00001745,0.00000487,0.00004263,-0.00003197,-0.00000076,0.0000
 2182,0.00000575,0.00002957,-0.00000981,0.00000001,-0.00000190,-0.00000
 342,0.00000295,0.00000029,0.00000456,-0.00000010,0.00000299,-0.0000006
 4,-0.00000135,-0.00000231,0.00000643,-0.00000027,0.00000031,-0.0000009
 0,0.00000278,0.00000491,-0.00000235,-0.00000047,0.00000169,0.00000055,
 0.00000178,0.00000210,-0.00000090,-0.00000083,-0.00000167,-0.00000160,
 0.00000330,-0.00000128,-0.00000347,-0.00000316,0.00001231,0.00000778,-
 0.00000305,0.00000008,0.00000257,-0.00000050,0.00000068,0.00000066,-0.
 00000035,-0.00000141,-0.00000062,-0.00000040,0.00000039,-0.00000313,-0
 .00000034,0.00000168,0.00000088,-0.00000782,-0.00000020,-0.00000291,-0
 .00002034,-0.00003753,0.00002269,-0.00438387,0.01644365,0.05478817,-0.
 00188730,0.00115522,-0.00289975,0.00445519,-0.01002192,-0.01228669,0.0
 0200645,-0.00513529,0.00180659,-0.00070953,0.00003676,0.00008506,0.002
 38848,-0.00395147,0.00404372,-0.00012219,0.00058612,0.00069372,0.00003
 794,0.00008964,-0.00002457,-0.00000331,0.00002190,0.00002155,0.0000163
 0,0.00000668,0.00000416,-0.00000930,-0.00000021,0.00000829,-0.00001087
 ,-0.00000195,-0.00000065,-0.00000934,-0.00000021,0.00001324,-0.0001846
 3,-0.00002167,0.00013022,0.00021817,-0.00025342,-0.00009320,-0.0000072
 3,-0.00001243,0.00000937,-0.00003736,0.00002571,0.00000833,0.00000128,
 -0.00002518,0.00000132,0.00000954,-0.00000163,0.00000697,-0.00000422,0
 .00000063,-0.00000289,-0.00000340,0.00000402,0.00000025,-0.00000532,0.
 00000130,-0.00000344,0.00000503,-0.00000652,-0.00000044,-0.00001608,0.
 00001087,-0.00001548,0.00000051,-0.00000060,0.00000207,-0.00000108,-0.
 00000095,-0.00000144,0.00000149,-0.00000082,0.00000175,-0.00000265,0.0
 0000204,0.00000086,0.00000072,0.00000008,-0.00000044,0.00000047,-0.000
 00214,-0.00000142,0.00000294,0.00000355,-0.00000524,0.00296699,0.01100
 827,0.01493082,-0.04578888,-0.00393948,0.01125490,-0.00014413,0.000213
 00,0.00062412,-0.00010936,-0.00016673,0.00031680,0.00032594,0.00038579
 ,-0.00025215,0.00018566,-0.00048087,-0.00070061,-0.00046670,0.00036431
 ,-0.00024773,0.00000423,0.00000763,0.00000567,-0.00002030,-0.00000879,
 0.00001077,0.00000185,-0.00001022,-0.00000146,0.00000435,0.00000155,-0
 .00000237,-0.00000199,-0.00000416,0.00000112,-0.00000083,0.00000182,-0
 .00000389,0.00000480,-0.00000071,-0.00000384,-0.00000331,-0.00000279,0
 .00000298,-0.00000003,0.00000105,-0.00000339,0.00000620,-0.00000003,0.
 00000096,0.00000545,-0.00000275,-0.00000451,-0.00000411,-0.00000176,-0
 .00000096,0.00000481,0.00000936,-0.00000160,0.00000076,-0.00000128,-0.
 00000343,0.00000391,-0.00000007,0.00000241,-0.00000197,0.00000258,0.00
 000066,0.00000096,-0.00000304,0.00000601,-0.00000118,0.00000124,-0.000
 00197,0.00000182,0.00000316,-0.00000048,-0.00000068,0.00000262,0.00000
 038,0.00000077,0.00000021,0.00000055,-0.00000026,-0.00000223,-0.000002
 53,-0.00000001,0.00000234,0.00000093,0.00000025,0.00000286,0.00000136,
 -0.00000042,0.00000084,0.00000050,0.00000039,0.00000049,0.00000053,-0.
 00000058,-0.00000005,-0.00000011,0.00000010,-0.00000048,-0.00000016,0.
 ,0.00000058,0.00000034,-0.00000024,0.00000125,-0.00000154,-0.00000116,
 -0.00000486,-0.00000349,-0.00202391,0.00193016,-0.00184160,0.03892008,
 0.00311233,-0.00035643,-0.00034397,0.00153447,-0.01094307,-0.02229401,
 -0.00549248,-0.00222322,0.00013109,-0.00029595,-0.00031837,0.00096168,
 -0.00343014,0.00214894,0.00067446,0.00005602,0.00049277,0.00006966,0.0
 0001018,-0.00001048,-0.00004021,-0.00000717,-0.00001199,0.00001936,-0.
 00001245,-0.00000164,0.00000020,0.00000440,0.00000048,0.00000473,0.000
 00428,-0.00000122,0.00000283,0.00000412,0.00000008,-0.00000135,0.00002
 471,0.00002129,-0.00006470,-0.00009753,-0.00000226,0.00026083,-0.00002
 589,-0.00001791,0.00000977,0.00004020,-0.00001435,-0.00001667,-0.00001
 818,0.00001574,0.00001207,-0.00001086,0.00000984,-0.00001272,0.0000074
 6,-0.00000336,0.00000502,0.00000504,-0.00000374,0.00000051,0.00000583,
 -0.00000164,0.00000459,-0.00001080,0.00001055,0.00000313,0.00002841,-0
 .00000075,-0.00001645,0.00000898,-0.00000564,0.00002321,-0.00000101,0.
 00000014,-0.00000136,-0.00000235,0.00000314,-0.00000171,0.00000257,-0.
 00000615,0.00000106,0.00000170,0.00000056,0.00000165,0.00000708,-0.000
 00285,0.00000252,-0.00000125,0.00001234,0.00000110,-0.00103383,0.00775
 951,0.00765680,-0.00417319,-0.15299239,-0.13586479,-0.00066358,0.00013
 404,0.00077961,0.00013784,0.00045232,0.00004004,-0.00040004,-0.0002282
 6,0.00029168,0.00003234,-0.00065845,-0.00118683,0.00034203,-0.00019172
 ,0.00010101,-0.00000156,-0.00000697,0.00001616,-0.00001083,-0.00000333
 ,-0.00001286,-0.00000044,0.00000505,-0.00000325,-0.00000267,-0.0000024
 0,-0.00000287,0.00000355,0.00000285,-0.00000239,-0.00000051,-0.0000018
 4,0.00000123,-0.00000285,-0.00000131,0.00000089,0.00000357,0.00000244,
 -0.00000204,-0.00000077,-0.00000043,0.00000119,-0.00000375,-0.00000131
 ,-0.00000182,-0.00000449,0.00000244,-0.00000157,0.00000427,0.00000275,
 -0.00000120,-0.00000419,0.00000567,-0.00000707,-0.00000209,0.00000128,
 0.00000363,-0.00000483,0.,-0.00000170,0.00000528,-0.00000289,-0.000000
 96,-0.00000287,0.00000352,-0.00000667,0.00000501,-0.00000266,0.0000015
 3,-0.00000434,-0.00000205,-0.00000146,0.00000383,-0.00000383,-0.000000
 42,-0.00000218,0.00000169,-0.00000159,-0.00000067,0.00000282,0.0000027
 4,0.00000349,-0.00000191,-0.00000489,-0.00000166,0.00000277,0.00000385
 ,-0.00000011,-0.00000115,0.00000068,-0.00000049,-0.00000144,-0.0000022
 5,-0.00000148,0.00000046,-0.00000011,-0.00000068,0.00000192,-0.0000020
 3,-0.00000055,-0.00000168,-0.00000170,-0.00000022,-0.00000003,0.000002
 06,-0.00000228,-0.00000841,0.00000373,0.00215310,-0.00034352,0.0007572
 6,0.00818109,0.15728566,-0.00083604,0.00179278,-0.00018541,0.00175041,
 0.00039897,0.00170516,0.00144555,-0.00092904,0.00214228,0.00012529,0.0
 0080641,0.00023341,0.00463870,0.00115732,-0.00025672,0.00033654,-0.001
 21367,-0.00116040,-0.00002717,-0.00028864,-0.00000111,-0.00001424,-0.0
 0008419,0.00003380,-0.00003898,-0.00002699,-0.00000524,0.00002503,0.00
 000099,-0.00000975,0.00002290,0.00001032,0.00000690,0.00001807,0.00000
 996,-0.00000866,0.00030185,0.00002001,-0.00032668,-0.00034894,0.000523
 11,0.00022931,0.00001122,0.00012644,0.00003605,0.00002624,-0.00007726,
 -0.00002662,-0.00001206,0.00003016,0.00000608,-0.00001484,0.00000631,-
 0.00000931,0.00000645,-0.00000147,0.00000448,0.00000486,-0.00000147,-0
 .00000066,0.00000909,-0.00000084,0.00000295,-0.00001451,0.00001522,-0.
 00000835,-0.00000945,-0.00005353,-0.00003978,0.00003644,-0.00001778,0.
 00005026,-0.00000659,-0.00000369,-0.00000505,-0.00000573,0.00000519,-0
 .00000353,-0.00000002,-0.00000943,-0.00000137,0.00000657,0.00000074,0.
 00000246,0.00001506,-0.00002278,0.00000380,-0.00001600,0.00003824,0.00
 000591,-0.00090981,-0.01597576,-0.01549069,0.01114969,-0.13593144,-0.2
 2916624,-0.00019861,0.00000745,0.00058455,-0.00012167,-0.00006406,0.00
 016473,0.00011633,0.00025974,-0.00003757,0.00002813,0.00003762,0.00010
 519,-0.00025287,0.00012386,-0.00019842,-0.00001279,0.00002580,0.000014
 87,0.00001259,0.00003962,0.00003861,-0.00000943,0.00002696,-0.00001357
 ,-0.00000382,-0.00000929,0.00000401,0.00000752,0.00001324,-0.00000299,
 -0.00000470,-0.00000236,-0.00000301,-0.00001405,0.00000046,0.00001281,
 0.00001243,0.00000793,-0.00000860,-0.00000484,-0.00000071,0.00000043,-
 0.00002007,0.00000442,0.00000046,-0.00001243,-0.00000560,-0.00000213,0
 .00001430,0.00000823,-0.00000330,-0.00000467,-0.00000474,-0.00000363,-
 0.00000273,0.00000199,0.00000206,-0.00000855,-0.00000054,-0.00000168,0
 .00000665,-0.00000503,0.00000041,-0.00000780,0.00000153,-0.00000576,0.
 00000680,-0.00000528,0.00000108,-0.00000278,0.00000135,-0.00000075,0.0
 0000462,-0.00000580,0.00000058,-0.00000237,0.00000166,-0.00000004,-0.0
 0000136,0.00000248,0.00000049,0.00000485,-0.00000689,-0.00000504,-0.00
 000248,-0.00000512,-0.00000049,0.00000109,-0.00000095,0.00000066,-0.00
 000052,-0.00000225,-0.00000485,-0.00000549,0.00000133,-0.00000116,-0.0
 0000142,0.00000334,-0.00000547,-0.00000162,-0.00000222,-0.00000380,-0.
 00000123,0.00000425,0.00000046,0.00001795,-0.00000917,0.00000234,-0.00
 162470,0.00120246,0.00019912,-0.01558586,0.14805008,0.24141214\\-0.000
 00067,0.00000065,-0.00000078,-0.00000039,0.00000788,0.00000151,0.00000
 065,-0.00000143,-0.00000081,-0.00000115,-0.00000117,0.00000095,0.00000
 148,0.00000046,0.00000296,-0.00000276,0.00000542,-0.00000100,-0.000001
 67,-0.00000149,0.00000223,0.00000313,-0.00000427,-0.00000317,-0.000001
 39,0.00000015,0.00000030,0.00000022,-0.00000129,-0.00000099,-0.0000000
 4,-0.00000067,-0.00000027,-0.00000027,-0.00000016,-0.00000068,-0.00000
 133,0.00000260,0.00000086,0.00000422,-0.00000179,-0.00000139,0.0000000
 7,0.00000122,0.00000403,-0.00000107,-0.00000319,-0.00000200,0.00000122
 ,0.00000503,0.00000339,-0.00000057,0.,-0.00000031,-0.00000055,0.000000
 09,0.00000069,-0.00000016,0.00000069,0.00000036,-0.00000002,0.00000139
 ,0.00000087,0.00000031,0.00000064,-0.00000167,0.,-0.00000338,-0.000005
 72,0.00000145,-0.00000011,0.00000518,-0.00000094,-0.00000130,-0.000000
 87,0.00000075,0.00000012,0.00000089,-0.00000090,-0.00000178,-0.0000000
 9,-0.00000010,-0.00000061,0.00000023,-0.00000004,-0.00000134,-0.000000
 81,0.00000141,0.00000077,-0.00000077,0.00000180,-0.00000128,-0.0000014
 9,-0.00000068,-0.00000127,-0.00000060,0.00000091,0.00000039,-0.0000001
 3,0.00000074,0.00000020,-0.00000019,0.00000018,-0.00000090,0.00000086,
 -0.00000057,0.00000040,-0.00000047,-0.00000068,0.00000070,-0.00000031,
 0.00000012,0.00000049,-0.00000064,0.00000011,0.00000048,-0.00000014,-0
 .00000056,0.00000023,-0.00000009,-0.00000001,0.00000039,-0.00000052,0.
 00000009,0.00000013,-0.00000074,-0.00000028,0.00000026,-0.00000089,0.0
 0000003,-0.00000072,-0.00000047,0.00000005,-0.00000018,-0.00000042,-0.
 00000022,-0.00000037,-0.00000076,0.00000003,-0.00000020,-0.00000014,-0
 .00000010,-0.00000002,-0.00000008,0.00000028,0.00000025,-0.00000040,-0
 .00000007,-0.00000048,0.00000021,-0.00000004,0.00000005,0.00000011,0.0
 0000016,0.00000027,0.00000013,0.00000026,-0.00000018,0.00000041,0.0000
 0003,0.00000065,0.00000052,0.00000003,0.00000012,0.00000039,-0.0000002
 6,0.00000038,0.00000082,0.00000012,-0.00000004,0.00000072,-0.00000026,
 -0.00000022,0.00000089,-0.00000010,-0.00000036,0.00000043,-0.00000037,
 -0.00000041,0.00000015,0.00000005,-0.00000052,0.00000075,-0.00000030,-
 0.00000032,0.00000035,-0.00000026,-0.00000087,0.00000037,0.00000019,-0
 .00000026,0.00000004,0.00000027,-0.00000039,-0.00000063,0.00000014,-0.
 00000090,0.00000023,-0.00000012,-0.00000016,0.00000051,-0.00000053,0.0
 0000018,-0.00000034,-0.00000016,0.00000081,-0.00000115,-0.00000092,0.0
 0000057,-0.00000034\\\@
 The archive entry for this job was punched.


 A leading authority is anyone who has guessed right more than once.
 -- Frank A. Clark
 Job cpu time:       0 days  8 hours 27 minutes 38.0 seconds.
 Elapsed time:       0 days  0 hours 26 minutes 56.2 seconds.
 File lengths (MBytes):  RWF=   2093 Int=      0 D2E=      0 Chk=     26 Scr=      1
 Normal termination of Gaussian 16 at Mon Aug 15 11:25:01 2022.
