 Entering Gaussian System, Link 0=g16
 Initial command:
 /public/apps/g16-C01//g16/l1.exe "/public/home/ljq/tmp/Gau-69384.inp" -scrdir="/public/home/ljq/tmp/"
 Entering Link 1 = /public/apps/g16-C01//g16/l1.exe PID=     69385.
  
 Copyright (c) 1988-2019, Gaussian, Inc.  All Rights Reserved.
  
 This is part of the Gaussian(R) 16 program.  It is based on
 the Gaussian(R) 09 system (copyright 2009, Gaussian, Inc.),
 the Gaussian(R) 03 system (copyright 2003, Gaussian, Inc.),
 the Gaussian(R) 98 system (copyright 1998, Gaussian, Inc.),
 the Gaussian(R) 94 system (copyright 1995, Gaussian, Inc.),
 the Gaussian 92(TM) system (copyright 1992, Gaussian, Inc.),
 the Gaussian 90(TM) system (copyright 1990, Gaussian, Inc.),
 the Gaussian 88(TM) system (copyright 1988, Gaussian, Inc.),
 the Gaussian 86(TM) system (copyright 1986, Carnegie Mellon
 University), and the Gaussian 82(TM) system (copyright 1983,
 Carnegie Mellon University). Gaussian is a federally registered
 trademark of Gaussian, Inc.
  
 This software contains proprietary and confidential information,
 including trade secrets, belonging to Gaussian, Inc.
  
 This software is provided under written license and may be
 used, copied, transmitted, or stored only in accord with that
 written license.
  
 The following legend is applicable only to US Government
 contracts under FAR:
  
                    RESTRICTED RIGHTS LEGEND
  
 Use, reproduction and disclosure by the US Government is
 subject to restrictions as set forth in subparagraphs (a)
 and (c) of the Commercial Computer Software - Restricted
 Rights clause in FAR 52.227-19.
  
 Gaussian, Inc.
 340 Quinnipiac St., Bldg. 40, Wallingford CT 06492
  
  
 ---------------------------------------------------------------
 Warning -- This program may not be used in any manner that
 competes with the business of Gaussian, Inc. or will provide
 assistance to any competitor of Gaussian, Inc.  The licensee
 of this program is prohibited from giving any competitor of
 Gaussian, Inc. access to this program.  By using this program,
 the user acknowledges that Gaussian, Inc. is engaged in the
 business of creating and licensing software in the field of
 computational chemistry and represents and warrants to the
 licensee that it is not a competitor of Gaussian, Inc. and that
 it will not use this program in any manner prohibited above.
 ---------------------------------------------------------------
  

 Cite this work as:
 Gaussian 16, Revision C.01,
 M. J. Frisch, G. W. Trucks, H. B. Schlegel, G. E. Scuseria, 
 M. A. Robb, J. R. Cheeseman, G. Scalmani, V. Barone, 
 G. A. Petersson, H. Nakatsuji, X. Li, M. Caricato, A. V. Marenich, 
 J. Bloino, B. G. Janesko, R. Gomperts, B. Mennucci, H. P. Hratchian, 
 J. V. Ortiz, A. F. Izmaylov, J. L. Sonnenberg, D. Williams-Young, 
 F. Ding, F. Lipparini, F. Egidi, J. Goings, B. Peng, A. Petrone, 
 T. Henderson, D. Ranasinghe, V. G. Zakrzewski, J. Gao, N. Rega, 
 G. Zheng, W. Liang, M. Hada, M. Ehara, K. Toyota, R. Fukuda, 
 J. Hasegawa, M. Ishida, T. Nakajima, Y. Honda, O. Kitao, H. Nakai, 
 T. Vreven, K. Throssell, J. A. Montgomery, Jr., J. E. Peralta, 
 F. Ogliaro, M. J. Bearpark, J. J. Heyd, E. N. Brothers, K. N. Kudin, 
 V. N. Staroverov, T. A. Keith, R. Kobayashi, J. Normand, 
 K. Raghavachari, A. P. Rendell, J. C. Burant, S. S. Iyengar, 
 J. Tomasi, M. Cossi, J. M. Millam, M. Klene, C. Adamo, R. Cammi, 
 J. W. Ochterski, R. L. Martin, K. Morokuma, O. Farkas, 
 J. B. Foresman, and D. J. Fox, Gaussian, Inc., Wallingford CT, 2019.
 
 ******************************************
 Gaussian 16:  ES64L-G16RevC.01  3-Jul-2019
                26-Feb-2024 
 ******************************************
 %nproc=40
 Will use up to   40 processors via shared memory.
 %mem=56GB
 ------------------------------------------
 #p opt freq b3lyp/def2svpp em=gd3bj nosymm
 ------------------------------------------
 1/18=20,19=15,26=3,38=1/1,3;
 2/9=110,12=2,15=1,17=6,18=5,40=1/2;
 3/5=43,7=202,11=2,25=1,30=1,71=1,74=-5,124=41/1,2,3;
 4//1;
 5/5=2,38=5/2;
 6/7=2,8=2,9=2,10=2,28=1/1;
 7/30=1/1,2,3,16;
 1/18=20,19=15,26=3/3(2);
 2/9=110,15=1/2;
 99//99;
 2/9=110,15=1/2;
 3/5=43,7=202,11=2,25=1,30=1,71=1,74=-5,124=41/1,2,3;
 4/5=5,16=3,69=1/1;
 5/5=2,38=5/2;
 7/30=1/1,2,3,16;
 1/18=20,19=15,26=3/3(-5);
 2/9=110,15=1/2;
 6/7=2,8=2,9=2,10=2,19=2,28=1/1;
 99/9=1/99;
 Leave Link    1 at Mon Feb 26 05:45:28 2024, MaxMem=  7516192768 cpu:               1.1 elap:               0.0
 (Enter /public/apps/g16-C01//g16/l101.exe)
 -----------------------
 $$$$Singlemol####-2????
 -----------------------
 Symbolic Z-matrix:
 Charge = -2 Multiplicity = 1
 C                     6.98578  -0.11381  -3.34498 
 C                     6.34208   0.96296  -2.45735 
 C                     5.21335   1.61923  -3.25702 
 C                     7.38445   2.04556  -2.13565 
 C                     5.84278   0.32941  -1.16542 
 C                     4.52425   0.3393   -0.76804 
 C                     4.10287  -0.26135   0.41558 
 C                     2.71296  -0.21807   0.77563 
 N                     1.83059   0.40679   0.09994 
 C                     0.47586   0.44213   0.57583 
 C                     0.22639   1.74665   1.34836 
 C                     0.4634    2.95379   0.44962 
 C                    -0.46939   2.89419  -0.75419 
 C                    -0.24157   1.59792  -1.52163 
 C                    -0.49916   0.38303  -0.61694 
 N                    -1.85404   0.40586  -0.13978 
 C                    -2.74428  -0.26489  -0.75843 
 C                    -4.13466  -0.25699  -0.39616 
 C                    -4.5491    0.44447   0.72941 
 C                    -5.86956   0.49378   1.12862 
 C                    -6.25361   1.27195   2.38136 
 C                    -7.75711   1.24033   2.67759 
 C                    -5.52101   0.67345   3.59142 
 C                    -5.83718   2.74094   2.21418 
 C                    -6.79686  -0.1987    0.33886 
 C                    -6.45458  -0.90682  -0.78689 
 C                    -7.50325  -1.64237  -1.61628 
 C                    -7.47924  -1.08096  -3.0445 
 C                    -8.93402  -1.51489  -1.07732 
 C                    -7.13954  -3.13263  -1.65788 
 C                    -5.07343  -0.97606  -1.22257 
 O                    -4.71105  -1.60787  -2.24942 
 C                     5.02732  -0.92374   1.30129 
 O                     4.6554   -1.4601    2.3776 
 C                     6.41139  -0.91683   0.86396 
 C                     7.4474   -1.59734   1.75315 
 C                     7.05805  -3.07215   1.91993 
 C                     7.43403  -0.91648   3.12845 
 C                     8.87903  -1.53944   1.20481 
 C                     6.75896  -0.3126   -0.31579 
 H                     7.82685  -0.58307  -2.84054 
 H                     7.34353   0.31734  -4.28193 
 H                     6.25528  -0.88686  -3.57402 
 H                     4.73795   2.40556  -2.67635 
 H                     5.61196   2.06004  -4.17274 
 H                     4.45914   0.88574  -3.52954 
 H                     7.74919   2.51751  -3.04998 
 H                     6.93848   2.81049  -1.50318 
 H                     8.23471   1.62311  -1.60594 
 H                     3.74835   0.80683  -1.35397 
 H                     2.45821  -0.76568   1.69634 
 H                     0.25572  -0.40404   1.25741 
 H                    -0.8087    1.73789   1.69342 
 H                     0.89549   1.78277   2.21333 
 H                     1.50048   2.93325   0.10773 
 H                     0.30028   3.88066   1.01197 
 H                    -1.50667   2.91812  -0.41287 
 H                    -0.29919   3.75573  -1.41039 
 H                    -0.91161   1.54799  -2.38517 
 H                     0.79306   1.54599  -1.86418 
 H                    -0.28523  -0.53089  -1.20648 
 H                    -2.49777  -0.89445  -1.62744 
 H                    -3.7705    0.94974   1.28403 
 H                    -7.96837   1.81653   3.58027 
 H                    -8.09997   0.2205    2.83962 
 H                    -8.3241    1.67592   1.85728 
 H                    -5.75801   1.2252    4.50309 
 H                    -4.44647   0.70174   3.43782 
 H                    -5.81457  -0.36598   3.72753 
 H                    -6.0834    3.31957   3.10655 
 H                    -6.35283   3.17973   1.36159 
 H                    -4.76864   2.8159    2.03661 
 H                    -7.83495  -0.17216   0.63397 
 H                    -6.47074  -1.18325  -3.4353 
 H                    -8.17411  -1.62145  -3.69035 
 H                    -7.75076  -0.02563  -3.04091 
 H                    -9.61524  -2.06759  -1.72701 
 H                    -9.0154   -1.92931  -0.07375 
 H                    -9.25682  -0.47512  -1.05774 
 H                    -7.16656  -3.55677  -0.65462 
 H                    -7.8318   -3.68773  -2.29408 
 H                    -6.13204  -3.22848  -2.0528 
 H                     7.0762   -3.57951   0.95589 
 H                     6.0496   -3.11688   2.32149 
 H                     7.7416   -3.5836    2.60056 
 H                     7.72276   0.13014   3.03539 
 H                     6.42434  -0.96867   3.52606 
 H                     8.12062  -1.41163   3.818 
 H                     9.21838  -0.51024   1.09739 
 H                     8.95138  -2.03852   0.23971 
 H                     9.55272  -2.04627   1.8982 
 H                     7.79725  -0.32413  -0.62176 
 
 ITRead=  0  0  0  0  0  0  0  0  0  0  0  0  0  0  0  0  0  0  0  0
 ITRead=  0  0  0  0  0  0  0  0  0  0  0  0  0  0  0  0  0  0  0  0
 ITRead=  0  0  0  0  0  0  0  0  0  0  0  0  0  0  0  0  0  0  0  0
 ITRead=  0  0  0  0  0  0  0  0  0  0  0  0  0  0  0  0  0  0  0  0
 ITRead=  0  0  0  0  0  0  0  0  0  0  0  0
 MicOpt= -1 -1 -1 -1 -1 -1 -1 -1 -1 -1 -1 -1 -1 -1 -1 -1 -1 -1 -1 -1
 MicOpt= -1 -1 -1 -1 -1 -1 -1 -1 -1 -1 -1 -1 -1 -1 -1 -1 -1 -1 -1 -1
 MicOpt= -1 -1 -1 -1 -1 -1 -1 -1 -1 -1 -1 -1 -1 -1 -1 -1 -1 -1 -1 -1
 MicOpt= -1 -1 -1 -1 -1 -1 -1 -1 -1 -1 -1 -1 -1 -1 -1 -1 -1 -1 -1 -1
 MicOpt= -1 -1 -1 -1 -1 -1 -1 -1 -1 -1 -1 -1
 NAtoms=     92 NQM=       92 NQMF=       0 NMMI=      0 NMMIF=      0
                NMic=       0 NMicF=      0.
                    Isotopes and Nuclear Properties:
 (Nuclear quadrupole moments (NQMom) in fm**2, nuclear magnetic moments (NMagM)
  in nuclear magnetons)

  Atom         1           2           3           4           5           6           7           8           9          10
 IAtWgt=          12          12          12          12          12          12          12          12          14          12
 AtmWgt=  12.0000000  12.0000000  12.0000000  12.0000000  12.0000000  12.0000000  12.0000000  12.0000000  14.0030740  12.0000000
 NucSpn=           0           0           0           0           0           0           0           0           2           0
 AtZEff=  -0.0000000  -0.0000000  -0.0000000  -0.0000000  -0.0000000  -0.0000000  -0.0000000  -0.0000000  -0.0000000  -0.0000000
 NQMom=    0.0000000   0.0000000   0.0000000   0.0000000   0.0000000   0.0000000   0.0000000   0.0000000   2.0440000   0.0000000
 NMagM=    0.0000000   0.0000000   0.0000000   0.0000000   0.0000000   0.0000000   0.0000000   0.0000000   0.4037610   0.0000000
 AtZNuc=   6.0000000   6.0000000   6.0000000   6.0000000   6.0000000   6.0000000   6.0000000   6.0000000   7.0000000   6.0000000

  Atom        11          12          13          14          15          16          17          18          19          20
 IAtWgt=          12          12          12          12          12          14          12          12          12          12
 AtmWgt=  12.0000000  12.0000000  12.0000000  12.0000000  12.0000000  14.0030740  12.0000000  12.0000000  12.0000000  12.0000000
 NucSpn=           0           0           0           0           0           2           0           0           0           0
 AtZEff=  -0.0000000  -0.0000000  -0.0000000  -0.0000000  -0.0000000  -0.0000000  -0.0000000  -0.0000000  -0.0000000  -0.0000000
 NQMom=    0.0000000   0.0000000   0.0000000   0.0000000   0.0000000   2.0440000   0.0000000   0.0000000   0.0000000   0.0000000
 NMagM=    0.0000000   0.0000000   0.0000000   0.0000000   0.0000000   0.4037610   0.0000000   0.0000000   0.0000000   0.0000000
 AtZNuc=   6.0000000   6.0000000   6.0000000   6.0000000   6.0000000   7.0000000   6.0000000   6.0000000   6.0000000   6.0000000

  Atom        21          22          23          24          25          26          27          28          29          30
 IAtWgt=          12          12          12          12          12          12          12          12          12          12
 AtmWgt=  12.0000000  12.0000000  12.0000000  12.0000000  12.0000000  12.0000000  12.0000000  12.0000000  12.0000000  12.0000000
 NucSpn=           0           0           0           0           0           0           0           0           0           0
 AtZEff=  -0.0000000  -0.0000000  -0.0000000  -0.0000000  -0.0000000  -0.0000000  -0.0000000  -0.0000000  -0.0000000  -0.0000000
 NQMom=    0.0000000   0.0000000   0.0000000   0.0000000   0.0000000   0.0000000   0.0000000   0.0000000   0.0000000   0.0000000
 NMagM=    0.0000000   0.0000000   0.0000000   0.0000000   0.0000000   0.0000000   0.0000000   0.0000000   0.0000000   0.0000000
 AtZNuc=   6.0000000   6.0000000   6.0000000   6.0000000   6.0000000   6.0000000   6.0000000   6.0000000   6.0000000   6.0000000

  Atom        31          32          33          34          35          36          37          38          39          40
 IAtWgt=          12          16          12          16          12          12          12          12          12          12
 AtmWgt=  12.0000000  15.9949146  12.0000000  15.9949146  12.0000000  12.0000000  12.0000000  12.0000000  12.0000000  12.0000000
 NucSpn=           0           0           0           0           0           0           0           0           0           0
 AtZEff=  -0.0000000  -0.0000000  -0.0000000  -0.0000000  -0.0000000  -0.0000000  -0.0000000  -0.0000000  -0.0000000  -0.0000000
 NQMom=    0.0000000   0.0000000   0.0000000   0.0000000   0.0000000   0.0000000   0.0000000   0.0000000   0.0000000   0.0000000
 NMagM=    0.0000000   0.0000000   0.0000000   0.0000000   0.0000000   0.0000000   0.0000000   0.0000000   0.0000000   0.0000000
 AtZNuc=   6.0000000   8.0000000   6.0000000   8.0000000   6.0000000   6.0000000   6.0000000   6.0000000   6.0000000   6.0000000

  Atom        41          42          43          44          45          46          47          48          49          50
 IAtWgt=           1           1           1           1           1           1           1           1           1           1
 AtmWgt=   1.0078250   1.0078250   1.0078250   1.0078250   1.0078250   1.0078250   1.0078250   1.0078250   1.0078250   1.0078250
 NucSpn=           1           1           1           1           1           1           1           1           1           1
 AtZEff=  -0.0000000  -0.0000000  -0.0000000  -0.0000000  -0.0000000  -0.0000000  -0.0000000  -0.0000000  -0.0000000  -0.0000000
 NQMom=    0.0000000   0.0000000   0.0000000   0.0000000   0.0000000   0.0000000   0.0000000   0.0000000   0.0000000   0.0000000
 NMagM=    2.7928460   2.7928460   2.7928460   2.7928460   2.7928460   2.7928460   2.7928460   2.7928460   2.7928460   2.7928460
 AtZNuc=   1.0000000   1.0000000   1.0000000   1.0000000   1.0000000   1.0000000   1.0000000   1.0000000   1.0000000   1.0000000

  Atom        51          52          53          54          55          56          57          58          59          60
 IAtWgt=           1           1           1           1           1           1           1           1           1           1
 AtmWgt=   1.0078250   1.0078250   1.0078250   1.0078250   1.0078250   1.0078250   1.0078250   1.0078250   1.0078250   1.0078250
 NucSpn=           1           1           1           1           1           1           1           1           1           1
 AtZEff=  -0.0000000  -0.0000000  -0.0000000  -0.0000000  -0.0000000  -0.0000000  -0.0000000  -0.0000000  -0.0000000  -0.0000000
 NQMom=    0.0000000   0.0000000   0.0000000   0.0000000   0.0000000   0.0000000   0.0000000   0.0000000   0.0000000   0.0000000
 NMagM=    2.7928460   2.7928460   2.7928460   2.7928460   2.7928460   2.7928460   2.7928460   2.7928460   2.7928460   2.7928460
 AtZNuc=   1.0000000   1.0000000   1.0000000   1.0000000   1.0000000   1.0000000   1.0000000   1.0000000   1.0000000   1.0000000

  Atom        61          62          63          64          65          66          67          68          69          70
 IAtWgt=           1           1           1           1           1           1           1           1           1           1
 AtmWgt=   1.0078250   1.0078250   1.0078250   1.0078250   1.0078250   1.0078250   1.0078250   1.0078250   1.0078250   1.0078250
 NucSpn=           1           1           1           1           1           1           1           1           1           1
 AtZEff=  -0.0000000  -0.0000000  -0.0000000  -0.0000000  -0.0000000  -0.0000000  -0.0000000  -0.0000000  -0.0000000  -0.0000000
 NQMom=    0.0000000   0.0000000   0.0000000   0.0000000   0.0000000   0.0000000   0.0000000   0.0000000   0.0000000   0.0000000
 NMagM=    2.7928460   2.7928460   2.7928460   2.7928460   2.7928460   2.7928460   2.7928460   2.7928460   2.7928460   2.7928460
 AtZNuc=   1.0000000   1.0000000   1.0000000   1.0000000   1.0000000   1.0000000   1.0000000   1.0000000   1.0000000   1.0000000

  Atom        71          72          73          74          75          76          77          78          79          80
 IAtWgt=           1           1           1           1           1           1           1           1           1           1
 AtmWgt=   1.0078250   1.0078250   1.0078250   1.0078250   1.0078250   1.0078250   1.0078250   1.0078250   1.0078250   1.0078250
 NucSpn=           1           1           1           1           1           1           1           1           1           1
 AtZEff=  -0.0000000  -0.0000000  -0.0000000  -0.0000000  -0.0000000  -0.0000000  -0.0000000  -0.0000000  -0.0000000  -0.0000000
 NQMom=    0.0000000   0.0000000   0.0000000   0.0000000   0.0000000   0.0000000   0.0000000   0.0000000   0.0000000   0.0000000
 NMagM=    2.7928460   2.7928460   2.7928460   2.7928460   2.7928460   2.7928460   2.7928460   2.7928460   2.7928460   2.7928460
 AtZNuc=   1.0000000   1.0000000   1.0000000   1.0000000   1.0000000   1.0000000   1.0000000   1.0000000   1.0000000   1.0000000

  Atom        81          82          83          84          85          86          87          88          89          90
 IAtWgt=           1           1           1           1           1           1           1           1           1           1
 AtmWgt=   1.0078250   1.0078250   1.0078250   1.0078250   1.0078250   1.0078250   1.0078250   1.0078250   1.0078250   1.0078250
 NucSpn=           1           1           1           1           1           1           1           1           1           1
 AtZEff=  -0.0000000  -0.0000000  -0.0000000  -0.0000000  -0.0000000  -0.0000000  -0.0000000  -0.0000000  -0.0000000  -0.0000000
 NQMom=    0.0000000   0.0000000   0.0000000   0.0000000   0.0000000   0.0000000   0.0000000   0.0000000   0.0000000   0.0000000
 NMagM=    2.7928460   2.7928460   2.7928460   2.7928460   2.7928460   2.7928460   2.7928460   2.7928460   2.7928460   2.7928460
 AtZNuc=   1.0000000   1.0000000   1.0000000   1.0000000   1.0000000   1.0000000   1.0000000   1.0000000   1.0000000   1.0000000

  Atom        91          92
 IAtWgt=           1           1
 AtmWgt=   1.0078250   1.0078250
 NucSpn=           1           1
 AtZEff=  -0.0000000  -0.0000000
 NQMom=    0.0000000   0.0000000
 NMagM=    2.7928460   2.7928460
 AtZNuc=   1.0000000   1.0000000
 Leave Link  101 at Mon Feb 26 05:45:28 2024, MaxMem=  7516192768 cpu:               8.2 elap:               0.2
 (Enter /public/apps/g16-C01//g16/l103.exe)

 GradGradGradGradGradGradGradGradGradGradGradGradGradGradGradGradGradGrad
 Berny optimization.
 Initialization pass.
                           ----------------------------
                           !    Initial Parameters    !
                           ! (Angstroms and Degrees)  !
 --------------------------                            --------------------------
 ! Name  Definition              Value          Derivative Info.                !
 --------------------------------------------------------------------------------
 ! R1    R(1,2)                  1.5368         estimate D2E/DX2                !
 ! R2    R(1,41)                 1.0872         estimate D2E/DX2                !
 ! R3    R(1,42)                 1.0917         estimate D2E/DX2                !
 ! R4    R(1,43)                 1.088          estimate D2E/DX2                !
 ! R5    R(2,3)                  1.5311         estimate D2E/DX2                !
 ! R6    R(2,4)                  1.5369         estimate D2E/DX2                !
 ! R7    R(2,5)                  1.5231         estimate D2E/DX2                !
 ! R8    R(3,44)                 1.087          estimate D2E/DX2                !
 ! R9    R(3,45)                 1.0917         estimate D2E/DX2                !
 ! R10   R(3,46)                 1.0868         estimate D2E/DX2                !
 ! R11   R(4,47)                 1.0917         estimate D2E/DX2                !
 ! R12   R(4,48)                 1.0881         estimate D2E/DX2                !
 ! R13   R(4,49)                 1.0872         estimate D2E/DX2                !
 ! R14   R(5,6)                  1.3771         estimate D2E/DX2                !
 ! R15   R(5,40)                 1.4048         estimate D2E/DX2                !
 ! R16   R(6,7)                  1.3926         estimate D2E/DX2                !
 ! R17   R(6,50)                 1.0788         estimate D2E/DX2                !
 ! R18   R(7,8)                  1.4364         estimate D2E/DX2                !
 ! R19   R(7,33)                 1.4415         estimate D2E/DX2                !
 ! R20   R(8,9)                  1.275          estimate D2E/DX2                !
 ! R21   R(8,51)                 1.1011         estimate D2E/DX2                !
 ! R22   R(9,10)                 1.4363         estimate D2E/DX2                !
 ! R23   R(10,11)                1.5365         estimate D2E/DX2                !
 ! R24   R(10,15)                1.5417         estimate D2E/DX2                !
 ! R25   R(10,52)                1.1086         estimate D2E/DX2                !
 ! R26   R(11,12)                1.5235         estimate D2E/DX2                !
 ! R27   R(11,53)                1.0911         estimate D2E/DX2                !
 ! R28   R(11,54)                1.0942         estimate D2E/DX2                !
 ! R29   R(12,13)                1.5241         estimate D2E/DX2                !
 ! R30   R(12,55)                1.0922         estimate D2E/DX2                !
 ! R31   R(12,56)                1.0963         estimate D2E/DX2                !
 ! R32   R(13,14)                1.5235         estimate D2E/DX2                !
 ! R33   R(13,57)                1.0922         estimate D2E/DX2                !
 ! R34   R(13,58)                1.0963         estimate D2E/DX2                !
 ! R35   R(14,15)                1.5365         estimate D2E/DX2                !
 ! R36   R(14,59)                1.0941         estimate D2E/DX2                !
 ! R37   R(14,60)                1.0911         estimate D2E/DX2                !
 ! R38   R(15,16)                1.4366         estimate D2E/DX2                !
 ! R39   R(15,61)                1.1084         estimate D2E/DX2                !
 ! R40   R(16,17)                1.2748         estimate D2E/DX2                !
 ! R41   R(17,18)                1.4368         estimate D2E/DX2                !
 ! R42   R(17,62)                1.101          estimate D2E/DX2                !
 ! R43   R(18,19)                1.3895         estimate D2E/DX2                !
 ! R44   R(18,31)                1.4427         estimate D2E/DX2                !
 ! R45   R(19,20)                1.3804         estimate D2E/DX2                !
 ! R46   R(19,63)                1.0813         estimate D2E/DX2                !
 ! R47   R(20,21)                1.5239         estimate D2E/DX2                !
 ! R48   R(20,25)                1.4011         estimate D2E/DX2                !
 ! R49   R(21,22)                1.5327         estimate D2E/DX2                !
 ! R50   R(21,23)                1.536          estimate D2E/DX2                !
 ! R51   R(21,24)                1.536          estimate D2E/DX2                !
 ! R52   R(22,64)                1.0915         estimate D2E/DX2                !
 ! R53   R(22,65)                1.0881         estimate D2E/DX2                !
 ! R54   R(22,66)                1.0882         estimate D2E/DX2                !
 ! R55   R(23,67)                1.0917         estimate D2E/DX2                !
 ! R56   R(23,68)                1.0858         estimate D2E/DX2                !
 ! R57   R(23,69)                1.0886         estimate D2E/DX2                !
 ! R58   R(24,70)                1.0917         estimate D2E/DX2                !
 ! R59   R(24,71)                1.0887         estimate D2E/DX2                !
 ! R60   R(24,72)                1.0858         estimate D2E/DX2                !
 ! R61   R(25,26)                1.3733         estimate D2E/DX2                !
 ! R62   R(25,73)                1.0795         estimate D2E/DX2                !
 ! R63   R(26,27)                1.526          estimate D2E/DX2                !
 ! R64   R(26,31)                1.4499         estimate D2E/DX2                !
 ! R65   R(27,28)                1.5348         estimate D2E/DX2                !
 ! R66   R(27,29)                1.5342         estimate D2E/DX2                !
 ! R67   R(27,30)                1.5346         estimate D2E/DX2                !
 ! R68   R(28,74)                1.0864         estimate D2E/DX2                !
 ! R69   R(28,75)                1.0918         estimate D2E/DX2                !
 ! R70   R(28,76)                1.0897         estimate D2E/DX2                !
 ! R71   R(29,77)                1.0916         estimate D2E/DX2                !
 ! R72   R(29,78)                1.0888         estimate D2E/DX2                !
 ! R73   R(29,79)                1.0889         estimate D2E/DX2                !
 ! R74   R(30,80)                1.0896         estimate D2E/DX2                !
 ! R75   R(30,81)                1.0918         estimate D2E/DX2                !
 ! R76   R(30,82)                1.0864         estimate D2E/DX2                !
 ! R77   R(31,32)                1.2589         estimate D2E/DX2                !
 ! R78   R(33,34)                1.2588         estimate D2E/DX2                !
 ! R79   R(33,35)                1.4515         estimate D2E/DX2                !
 ! R80   R(35,36)                1.5255         estimate D2E/DX2                !
 ! R81   R(35,40)                1.3703         estimate D2E/DX2                !
 ! R82   R(36,37)                1.5344         estimate D2E/DX2                !
 ! R83   R(36,38)                1.5347         estimate D2E/DX2                !
 ! R84   R(36,39)                1.5341         estimate D2E/DX2                !
 ! R85   R(37,83)                1.0896         estimate D2E/DX2                !
 ! R86   R(37,84)                1.0864         estimate D2E/DX2                !
 ! R87   R(37,85)                1.0918         estimate D2E/DX2                !
 ! R88   R(38,86)                1.0897         estimate D2E/DX2                !
 ! R89   R(38,87)                1.0864         estimate D2E/DX2                !
 ! R90   R(38,88)                1.0918         estimate D2E/DX2                !
 ! R91   R(39,89)                1.089          estimate D2E/DX2                !
 ! R92   R(39,90)                1.0889         estimate D2E/DX2                !
 ! R93   R(39,91)                1.0916         estimate D2E/DX2                !
 ! R94   R(40,92)                1.0825         estimate D2E/DX2                !
 ! A1    A(2,1,41)             111.0059         estimate D2E/DX2                !
 ! A2    A(2,1,42)             110.8718         estimate D2E/DX2                !
 ! A3    A(2,1,43)             109.7678         estimate D2E/DX2                !
 ! A4    A(41,1,42)            108.3703         estimate D2E/DX2                !
 ! A5    A(41,1,43)            108.0839         estimate D2E/DX2                !
 ! A6    A(42,1,43)            108.6609         estimate D2E/DX2                !
 ! A7    A(1,2,3)              107.9053         estimate D2E/DX2                !
 ! A8    A(1,2,4)              109.2912         estimate D2E/DX2                !
 ! A9    A(1,2,5)              109.6209         estimate D2E/DX2                !
 ! A10   A(3,2,4)              107.9025         estimate D2E/DX2                !
 ! A11   A(3,2,5)              112.312          estimate D2E/DX2                !
 ! A12   A(4,2,5)              109.7428         estimate D2E/DX2                !
 ! A13   A(2,3,44)             110.7011         estimate D2E/DX2                !
 ! A14   A(2,3,45)             109.9994         estimate D2E/DX2                !
 ! A15   A(2,3,46)             110.6892         estimate D2E/DX2                !
 ! A16   A(44,3,45)            108.4027         estimate D2E/DX2                !
 ! A17   A(44,3,46)            108.5828         estimate D2E/DX2                !
 ! A18   A(45,3,46)            108.396          estimate D2E/DX2                !
 ! A19   A(2,4,47)             110.8433         estimate D2E/DX2                !
 ! A20   A(2,4,48)             109.808          estimate D2E/DX2                !
 ! A21   A(2,4,49)             111.0202         estimate D2E/DX2                !
 ! A22   A(47,4,48)            108.6533         estimate D2E/DX2                !
 ! A23   A(47,4,49)            108.3468         estimate D2E/DX2                !
 ! A24   A(48,4,49)            108.0887         estimate D2E/DX2                !
 ! A25   A(2,5,6)              123.7549         estimate D2E/DX2                !
 ! A26   A(2,5,40)             119.2961         estimate D2E/DX2                !
 ! A27   A(6,5,40)             116.9485         estimate D2E/DX2                !
 ! A28   A(5,6,7)              122.1315         estimate D2E/DX2                !
 ! A29   A(5,6,50)             122.3425         estimate D2E/DX2                !
 ! A30   A(7,6,50)             115.5251         estimate D2E/DX2                !
 ! A31   A(6,7,8)              119.527          estimate D2E/DX2                !
 ! A32   A(6,7,33)             121.7616         estimate D2E/DX2                !
 ! A33   A(8,7,33)             118.7103         estimate D2E/DX2                !
 ! A34   A(7,8,9)              123.4751         estimate D2E/DX2                !
 ! A35   A(7,8,51)             114.7374         estimate D2E/DX2                !
 ! A36   A(9,8,51)             121.7861         estimate D2E/DX2                !
 ! A37   A(8,9,10)             119.2889         estimate D2E/DX2                !
 ! A38   A(9,10,11)            109.9144         estimate D2E/DX2                !
 ! A39   A(9,10,15)            109.829          estimate D2E/DX2                !
 ! A40   A(9,10,52)            111.8525         estimate D2E/DX2                !
 ! A41   A(11,10,15)           108.5936         estimate D2E/DX2                !
 ! A42   A(11,10,52)           107.8594         estimate D2E/DX2                !
 ! A43   A(15,10,52)           108.7124         estimate D2E/DX2                !
 ! A44   A(10,11,12)           110.5401         estimate D2E/DX2                !
 ! A45   A(10,11,53)           107.8311         estimate D2E/DX2                !
 ! A46   A(10,11,54)           109.0386         estimate D2E/DX2                !
 ! A47   A(12,11,53)           109.9073         estimate D2E/DX2                !
 ! A48   A(12,11,54)           110.185          estimate D2E/DX2                !
 ! A49   A(53,11,54)           109.292          estimate D2E/DX2                !
 ! A50   A(11,12,13)           109.8612         estimate D2E/DX2                !
 ! A51   A(11,12,55)           108.5107         estimate D2E/DX2                !
 ! A52   A(11,12,56)           110.1288         estimate D2E/DX2                !
 ! A53   A(13,12,55)           109.4617         estimate D2E/DX2                !
 ! A54   A(13,12,56)           110.3129         estimate D2E/DX2                !
 ! A55   A(55,12,56)           108.5274         estimate D2E/DX2                !
 ! A56   A(12,13,14)           109.8538         estimate D2E/DX2                !
 ! A57   A(12,13,57)           109.4845         estimate D2E/DX2                !
 ! A58   A(12,13,58)           110.3056         estimate D2E/DX2                !
 ! A59   A(14,13,57)           108.5454         estimate D2E/DX2                !
 ! A60   A(14,13,58)           110.1162         estimate D2E/DX2                !
 ! A61   A(57,13,58)           108.4981         estimate D2E/DX2                !
 ! A62   A(13,14,15)           110.5538         estimate D2E/DX2                !
 ! A63   A(13,14,59)           110.17           estimate D2E/DX2                !
 ! A64   A(13,14,60)           109.9035         estimate D2E/DX2                !
 ! A65   A(15,14,59)           109.0241         estimate D2E/DX2                !
 ! A66   A(15,14,60)           107.8301         estimate D2E/DX2                !
 ! A67   A(59,14,60)           109.313          estimate D2E/DX2                !
 ! A68   A(10,15,14)           108.615          estimate D2E/DX2                !
 ! A69   A(10,15,16)           109.8076         estimate D2E/DX2                !
 ! A70   A(10,15,61)           108.7263         estimate D2E/DX2                !
 ! A71   A(14,15,16)           109.9441         estimate D2E/DX2                !
 ! A72   A(14,15,61)           107.8441         estimate D2E/DX2                !
 ! A73   A(16,15,61)           111.8256         estimate D2E/DX2                !
 ! A74   A(15,16,17)           119.2778         estimate D2E/DX2                !
 ! A75   A(16,17,18)           123.4014         estimate D2E/DX2                !
 ! A76   A(16,17,62)           121.8381         estimate D2E/DX2                !
 ! A77   A(18,17,62)           114.7586         estimate D2E/DX2                !
 ! A78   A(17,18,19)           119.7126         estimate D2E/DX2                !
 ! A79   A(17,18,31)           118.8494         estimate D2E/DX2                !
 ! A80   A(19,18,31)           121.4366         estimate D2E/DX2                !
 ! A81   A(18,19,20)           122.5227         estimate D2E/DX2                !
 ! A82   A(18,19,63)           115.8889         estimate D2E/DX2                !
 ! A83   A(20,19,63)           121.5874         estimate D2E/DX2                !
 ! A84   A(19,20,21)           119.8053         estimate D2E/DX2                !
 ! A85   A(19,20,25)           116.8997         estimate D2E/DX2                !
 ! A86   A(21,20,25)           123.2943         estimate D2E/DX2                !
 ! A87   A(20,21,22)           113.3            estimate D2E/DX2                !
 ! A88   A(20,21,23)           109.1748         estimate D2E/DX2                !
 ! A89   A(20,21,24)           109.3028         estimate D2E/DX2                !
 ! A90   A(22,21,23)           107.9124         estimate D2E/DX2                !
 ! A91   A(22,21,24)           107.8611         estimate D2E/DX2                !
 ! A92   A(23,21,24)           109.2139         estimate D2E/DX2                !
 ! A93   A(21,22,64)           109.803          estimate D2E/DX2                !
 ! A94   A(21,22,65)           110.9298         estimate D2E/DX2                !
 ! A95   A(21,22,66)           110.9253         estimate D2E/DX2                !
 ! A96   A(64,22,65)           108.0982         estimate D2E/DX2                !
 ! A97   A(64,22,66)           108.1351         estimate D2E/DX2                !
 ! A98   A(65,22,66)           108.8605         estimate D2E/DX2                !
 ! A99   A(21,23,67)           110.9431         estimate D2E/DX2                !
 ! A100  A(21,23,68)           110.5124         estimate D2E/DX2                !
 ! A101  A(21,23,69)           109.9947         estimate D2E/DX2                !
 ! A102  A(67,23,68)           108.6509         estimate D2E/DX2                !
 ! A103  A(67,23,69)           108.6399         estimate D2E/DX2                !
 ! A104  A(68,23,69)           108.0241         estimate D2E/DX2                !
 ! A105  A(21,24,70)           110.904          estimate D2E/DX2                !
 ! A106  A(21,24,71)           110.0155         estimate D2E/DX2                !
 ! A107  A(21,24,72)           110.5262         estimate D2E/DX2                !
 ! A108  A(70,24,71)           108.6437         estimate D2E/DX2                !
 ! A109  A(70,24,72)           108.6055         estimate D2E/DX2                !
 ! A110  A(71,24,72)           108.0716         estimate D2E/DX2                !
 ! A111  A(20,25,26)           123.5016         estimate D2E/DX2                !
 ! A112  A(20,25,73)           118.0454         estimate D2E/DX2                !
 ! A113  A(26,25,73)           118.4531         estimate D2E/DX2                !
 ! A114  A(25,26,27)           121.521          estimate D2E/DX2                !
 ! A115  A(25,26,31)           120.5556         estimate D2E/DX2                !
 ! A116  A(27,26,31)           117.9233         estimate D2E/DX2                !
 ! A117  A(26,27,28)           108.5844         estimate D2E/DX2                !
 ! A118  A(26,27,29)           114.1978         estimate D2E/DX2                !
 ! A119  A(26,27,30)           108.6603         estimate D2E/DX2                !
 ! A120  A(28,27,29)           108.1255         estimate D2E/DX2                !
 ! A121  A(28,27,30)           109.044          estimate D2E/DX2                !
 ! A122  A(29,27,30)           108.1345         estimate D2E/DX2                !
 ! A123  A(27,28,74)           108.3507         estimate D2E/DX2                !
 ! A124  A(27,28,75)           111.0645         estimate D2E/DX2                !
 ! A125  A(27,28,76)           110.3215         estimate D2E/DX2                !
 ! A126  A(74,28,75)           109.3538         estimate D2E/DX2                !
 ! A127  A(74,28,76)           108.8853         estimate D2E/DX2                !
 ! A128  A(75,28,76)           108.831          estimate D2E/DX2                !
 ! A129  A(27,29,77)           109.3186         estimate D2E/DX2                !
 ! A130  A(27,29,78)           111.2145         estimate D2E/DX2                !
 ! A131  A(27,29,79)           111.2301         estimate D2E/DX2                !
 ! A132  A(77,29,78)           108.0122         estimate D2E/DX2                !
 ! A133  A(77,29,79)           108.0093         estimate D2E/DX2                !
 ! A134  A(78,29,79)           108.9483         estimate D2E/DX2                !
 ! A135  A(27,30,80)           110.3156         estimate D2E/DX2                !
 ! A136  A(27,30,81)           111.0539         estimate D2E/DX2                !
 ! A137  A(27,30,82)           108.3813         estimate D2E/DX2                !
 ! A138  A(80,30,81)           108.8384         estimate D2E/DX2                !
 ! A139  A(80,30,82)           108.8682         estimate D2E/DX2                !
 ! A140  A(81,30,82)           109.3493         estimate D2E/DX2                !
 ! A141  A(18,31,26)           115.0831         estimate D2E/DX2                !
 ! A142  A(18,31,32)           122.0101         estimate D2E/DX2                !
 ! A143  A(26,31,32)           122.9055         estimate D2E/DX2                !
 ! A144  A(7,33,34)            122.1204         estimate D2E/DX2                !
 ! A145  A(7,33,35)            115.1001         estimate D2E/DX2                !
 ! A146  A(34,33,35)           122.7784         estimate D2E/DX2                !
 ! A147  A(33,35,36)           118.0232         estimate D2E/DX2                !
 ! A148  A(33,35,40)           120.222          estimate D2E/DX2                !
 ! A149  A(36,35,40)           121.7548         estimate D2E/DX2                !
 ! A150  A(35,36,37)           108.6506         estimate D2E/DX2                !
 ! A151  A(35,36,38)           108.5745         estimate D2E/DX2                !
 ! A152  A(35,36,39)           114.1158         estimate D2E/DX2                !
 ! A153  A(37,36,38)           109.0743         estimate D2E/DX2                !
 ! A154  A(37,36,39)           108.1742         estimate D2E/DX2                !
 ! A155  A(38,36,39)           108.1616         estimate D2E/DX2                !
 ! A156  A(36,37,83)           110.3141         estimate D2E/DX2                !
 ! A157  A(36,37,84)           108.3782         estimate D2E/DX2                !
 ! A158  A(36,37,85)           111.0472         estimate D2E/DX2                !
 ! A159  A(83,37,84)           108.8649         estimate D2E/DX2                !
 ! A160  A(83,37,85)           108.8456         estimate D2E/DX2                !
 ! A161  A(84,37,85)           109.3566         estimate D2E/DX2                !
 ! A162  A(36,38,86)           110.3205         estimate D2E/DX2                !
 ! A163  A(36,38,87)           108.3467         estimate D2E/DX2                !
 ! A164  A(36,38,88)           111.0573         estimate D2E/DX2                !
 ! A165  A(86,38,87)           108.8837         estimate D2E/DX2                !
 ! A166  A(86,38,88)           108.8375         estimate D2E/DX2                !
 ! A167  A(87,38,88)           109.3612         estimate D2E/DX2                !
 ! A168  A(36,39,89)           111.2056         estimate D2E/DX2                !
 ! A169  A(36,39,90)           111.1919         estimate D2E/DX2                !
 ! A170  A(36,39,91)           109.352          estimate D2E/DX2                !
 ! A171  A(89,39,90)           108.9674         estimate D2E/DX2                !
 ! A172  A(89,39,91)           108.0073         estimate D2E/DX2                !
 ! A173  A(90,39,91)           108.0096         estimate D2E/DX2                !
 ! A174  A(5,40,35)            123.835          estimate D2E/DX2                !
 ! A175  A(5,40,92)            117.3531         estimate D2E/DX2                !
 ! A176  A(35,40,92)           118.8118         estimate D2E/DX2                !
 ! D1    D(41,1,2,3)           177.4156         estimate D2E/DX2                !
 ! D2    D(41,1,2,4)            60.3281         estimate D2E/DX2                !
 ! D3    D(41,1,2,5)           -59.9858         estimate D2E/DX2                !
 ! D4    D(42,1,2,3)            56.904          estimate D2E/DX2                !
 ! D5    D(42,1,2,4)           -60.1836         estimate D2E/DX2                !
 ! D6    D(42,1,2,5)           179.5025         estimate D2E/DX2                !
 ! D7    D(43,1,2,3)           -63.1566         estimate D2E/DX2                !
 ! D8    D(43,1,2,4)           179.7559         estimate D2E/DX2                !
 ! D9    D(43,1,2,5)            59.442          estimate D2E/DX2                !
 ! D10   D(1,2,3,44)          -178.8458         estimate D2E/DX2                !
 ! D11   D(1,2,3,45)           -59.0655         estimate D2E/DX2                !
 ! D12   D(1,2,3,46)            60.699          estimate D2E/DX2                !
 ! D13   D(4,2,3,44)           -60.862          estimate D2E/DX2                !
 ! D14   D(4,2,3,45)            58.9184         estimate D2E/DX2                !
 ! D15   D(4,2,3,46)           178.6828         estimate D2E/DX2                !
 ! D16   D(5,2,3,44)            60.2213         estimate D2E/DX2                !
 ! D17   D(5,2,3,45)          -179.9984         estimate D2E/DX2                !
 ! D18   D(5,2,3,46)           -60.2339         estimate D2E/DX2                !
 ! D19   D(1,2,4,47)            60.2021         estimate D2E/DX2                !
 ! D20   D(1,2,4,48)          -179.7389         estimate D2E/DX2                !
 ! D21   D(1,2,4,49)           -60.2702         estimate D2E/DX2                !
 ! D22   D(3,2,4,47)           -56.8872         estimate D2E/DX2                !
 ! D23   D(3,2,4,48)            63.1718         estimate D2E/DX2                !
 ! D24   D(3,2,4,49)          -177.3595         estimate D2E/DX2                !
 ! D25   D(5,2,4,47)          -179.5587         estimate D2E/DX2                !
 ! D26   D(5,2,4,48)           -59.4997         estimate D2E/DX2                !
 ! D27   D(5,2,4,49)            59.969          estimate D2E/DX2                !
 ! D28   D(1,2,5,6)           -119.543          estimate D2E/DX2                !
 ! D29   D(1,2,5,40)            60.19           estimate D2E/DX2                !
 ! D30   D(3,2,5,6)              0.398          estimate D2E/DX2                !
 ! D31   D(3,2,5,40)          -179.869          estimate D2E/DX2                !
 ! D32   D(4,2,5,6)            120.4184         estimate D2E/DX2                !
 ! D33   D(4,2,5,40)           -59.8486         estimate D2E/DX2                !
 ! D34   D(2,5,6,7)            179.4181         estimate D2E/DX2                !
 ! D35   D(2,5,6,50)            -0.218          estimate D2E/DX2                !
 ! D36   D(40,5,6,7)            -0.3207         estimate D2E/DX2                !
 ! D37   D(40,5,6,50)         -179.9568         estimate D2E/DX2                !
 ! D38   D(2,5,40,35)         -179.7368         estimate D2E/DX2                !
 ! D39   D(2,5,40,92)            0.258          estimate D2E/DX2                !
 ! D40   D(6,5,40,35)            0.0142         estimate D2E/DX2                !
 ! D41   D(6,5,40,92)         -179.991          estimate D2E/DX2                !
 ! D42   D(5,6,7,8)           -179.9701         estimate D2E/DX2                !
 ! D43   D(5,6,7,33)             0.397          estimate D2E/DX2                !
 ! D44   D(50,6,7,8)            -0.3108         estimate D2E/DX2                !
 ! D45   D(50,6,7,33)         -179.9437         estimate D2E/DX2                !
 ! D46   D(6,7,8,9)             -3.7386         estimate D2E/DX2                !
 ! D47   D(6,7,8,51)           176.6901         estimate D2E/DX2                !
 ! D48   D(33,7,8,9)           175.9055         estimate D2E/DX2                !
 ! D49   D(33,7,8,51)           -3.6658         estimate D2E/DX2                !
 ! D50   D(6,7,33,34)          179.4559         estimate D2E/DX2                !
 ! D51   D(6,7,33,35)           -0.1522         estimate D2E/DX2                !
 ! D52   D(8,7,33,34)           -0.1799         estimate D2E/DX2                !
 ! D53   D(8,7,33,35)         -179.788          estimate D2E/DX2                !
 ! D54   D(7,8,9,10)          -177.1504         estimate D2E/DX2                !
 ! D55   D(51,8,9,10)            2.3915         estimate D2E/DX2                !
 ! D56   D(8,9,10,11)           96.6792         estimate D2E/DX2                !
 ! D57   D(8,9,10,15)         -143.9051         estimate D2E/DX2                !
 ! D58   D(8,9,10,52)          -23.1045         estimate D2E/DX2                !
 ! D59   D(9,10,11,12)          59.8502         estimate D2E/DX2                !
 ! D60   D(9,10,11,53)        -179.9852         estimate D2E/DX2                !
 ! D61   D(9,10,11,54)         -61.4214         estimate D2E/DX2                !
 ! D62   D(15,10,11,12)        -60.3175         estimate D2E/DX2                !
 ! D63   D(15,10,11,53)         59.8471         estimate D2E/DX2                !
 ! D64   D(15,10,11,54)        178.4109         estimate D2E/DX2                !
 ! D65   D(52,10,11,12)       -177.9642         estimate D2E/DX2                !
 ! D66   D(52,10,11,53)        -57.7996         estimate D2E/DX2                !
 ! D67   D(52,10,11,54)         60.7642         estimate D2E/DX2                !
 ! D68   D(9,10,15,14)         -60.2748         estimate D2E/DX2                !
 ! D69   D(9,10,15,16)         179.4679         estimate D2E/DX2                !
 ! D70   D(9,10,15,61)          56.8288         estimate D2E/DX2                !
 ! D71   D(11,10,15,14)         59.9459         estimate D2E/DX2                !
 ! D72   D(11,10,15,16)        -60.3114         estimate D2E/DX2                !
 ! D73   D(11,10,15,61)        177.0495         estimate D2E/DX2                !
 ! D74   D(52,10,15,14)        177.0483         estimate D2E/DX2                !
 ! D75   D(52,10,15,16)         56.7909         estimate D2E/DX2                !
 ! D76   D(52,10,15,61)        -65.8482         estimate D2E/DX2                !
 ! D77   D(10,11,12,13)         59.2612         estimate D2E/DX2                !
 ! D78   D(10,11,12,55)        -60.3767         estimate D2E/DX2                !
 ! D79   D(10,11,12,56)       -179.0363         estimate D2E/DX2                !
 ! D80   D(53,11,12,13)        -59.6511         estimate D2E/DX2                !
 ! D81   D(53,11,12,55)       -179.2889         estimate D2E/DX2                !
 ! D82   D(53,11,12,56)         62.0515         estimate D2E/DX2                !
 ! D83   D(54,11,12,13)        179.8511         estimate D2E/DX2                !
 ! D84   D(54,11,12,55)         60.2132         estimate D2E/DX2                !
 ! D85   D(54,11,12,56)        -58.4464         estimate D2E/DX2                !
 ! D86   D(11,12,13,14)        -57.9739         estimate D2E/DX2                !
 ! D87   D(11,12,13,57)         61.1337         estimate D2E/DX2                !
 ! D88   D(11,12,13,58)       -179.541          estimate D2E/DX2                !
 ! D89   D(55,12,13,14)         61.082          estimate D2E/DX2                !
 ! D90   D(55,12,13,57)       -179.8104         estimate D2E/DX2                !
 ! D91   D(55,12,13,58)        -60.4851         estimate D2E/DX2                !
 ! D92   D(56,12,13,14)       -179.5664         estimate D2E/DX2                !
 ! D93   D(56,12,13,57)        -60.4587         estimate D2E/DX2                !
 ! D94   D(56,12,13,58)         58.8665         estimate D2E/DX2                !
 ! D95   D(12,13,14,15)         59.2128         estimate D2E/DX2                !
 ! D96   D(12,13,14,59)        179.7837         estimate D2E/DX2                !
 ! D97   D(12,13,14,60)        -59.7043         estimate D2E/DX2                !
 ! D98   D(57,13,14,15)        -60.4693         estimate D2E/DX2                !
 ! D99   D(57,13,14,59)         60.1016         estimate D2E/DX2                !
 ! D100  D(57,13,14,60)       -179.3865         estimate D2E/DX2                !
 ! D101  D(58,13,14,15)       -179.1068         estimate D2E/DX2                !
 ! D102  D(58,13,14,59)        -58.5359         estimate D2E/DX2                !
 ! D103  D(58,13,14,60)         61.9761         estimate D2E/DX2                !
 ! D104  D(13,14,15,10)        -60.2866         estimate D2E/DX2                !
 ! D105  D(13,14,15,16)         59.886          estimate D2E/DX2                !
 ! D106  D(13,14,15,61)       -177.9529         estimate D2E/DX2                !
 ! D107  D(59,14,15,10)        178.4611         estimate D2E/DX2                !
 ! D108  D(59,14,15,16)        -61.3663         estimate D2E/DX2                !
 ! D109  D(59,14,15,61)         60.7948         estimate D2E/DX2                !
 ! D110  D(60,14,15,10)         59.8808         estimate D2E/DX2                !
 ! D111  D(60,14,15,16)       -179.9466         estimate D2E/DX2                !
 ! D112  D(60,14,15,61)        -57.7855         estimate D2E/DX2                !
 ! D113  D(10,15,16,17)       -144.9154         estimate D2E/DX2                !
 ! D114  D(14,15,16,17)         95.6373         estimate D2E/DX2                !
 ! D115  D(61,15,16,17)        -24.1296         estimate D2E/DX2                !
 ! D116  D(15,16,17,18)       -177.0466         estimate D2E/DX2                !
 ! D117  D(15,16,17,62)          2.4215         estimate D2E/DX2                !
 ! D118  D(16,17,18,19)         -4.0187         estimate D2E/DX2                !
 ! D119  D(16,17,18,31)        175.5587         estimate D2E/DX2                !
 ! D120  D(62,17,18,19)        176.479          estimate D2E/DX2                !
 ! D121  D(62,17,18,31)         -3.9437         estimate D2E/DX2                !
 ! D122  D(17,18,19,20)        179.8422         estimate D2E/DX2                !
 ! D123  D(17,18,19,63)         -0.5152         estimate D2E/DX2                !
 ! D124  D(31,18,19,20)          0.2761         estimate D2E/DX2                !
 ! D125  D(31,18,19,63)        179.9187         estimate D2E/DX2                !
 ! D126  D(17,18,31,26)       -179.6379         estimate D2E/DX2                !
 ! D127  D(17,18,31,32)         -0.0394         estimate D2E/DX2                !
 ! D128  D(19,18,31,26)         -0.0682         estimate D2E/DX2                !
 ! D129  D(19,18,31,32)        179.5303         estimate D2E/DX2                !
 ! D130  D(18,19,20,21)        179.4456         estimate D2E/DX2                !
 ! D131  D(18,19,20,25)         -0.2531         estimate D2E/DX2                !
 ! D132  D(63,19,20,21)         -0.177          estimate D2E/DX2                !
 ! D133  D(63,19,20,25)       -179.8756         estimate D2E/DX2                !
 ! D134  D(19,20,21,22)        179.3771         estimate D2E/DX2                !
 ! D135  D(19,20,21,23)        -60.3376         estimate D2E/DX2                !
 ! D136  D(19,20,21,24)         59.0672         estimate D2E/DX2                !
 ! D137  D(25,20,21,22)         -0.9444         estimate D2E/DX2                !
 ! D138  D(25,20,21,23)        119.3409         estimate D2E/DX2                !
 ! D139  D(25,20,21,24)       -121.2543         estimate D2E/DX2                !
 ! D140  D(19,20,25,26)          0.0299         estimate D2E/DX2                !
 ! D141  D(19,20,25,73)       -179.9756         estimate D2E/DX2                !
 ! D142  D(21,20,25,26)       -179.6573         estimate D2E/DX2                !
 ! D143  D(21,20,25,73)          0.3372         estimate D2E/DX2                !
 ! D144  D(20,21,22,64)       -179.7471         estimate D2E/DX2                !
 ! D145  D(20,21,22,65)         60.8327         estimate D2E/DX2                !
 ! D146  D(20,21,22,66)        -60.2839         estimate D2E/DX2                !
 ! D147  D(23,21,22,64)         59.2528         estimate D2E/DX2                !
 ! D148  D(23,21,22,65)        -60.1675         estimate D2E/DX2                !
 ! D149  D(23,21,22,66)        178.716          estimate D2E/DX2                !
 ! D150  D(24,21,22,64)        -58.6214         estimate D2E/DX2                !
 ! D151  D(24,21,22,65)       -178.0417         estimate D2E/DX2                !
 ! D152  D(24,21,22,66)         60.8418         estimate D2E/DX2                !
 ! D153  D(20,21,23,67)        178.6844         estimate D2E/DX2                !
 ! D154  D(20,21,23,68)         58.101          estimate D2E/DX2                !
 ! D155  D(20,21,23,69)        -61.0877         estimate D2E/DX2                !
 ! D156  D(22,21,23,67)        -57.7759         estimate D2E/DX2                !
 ! D157  D(22,21,23,68)       -178.3593         estimate D2E/DX2                !
 ! D158  D(22,21,23,69)         62.452          estimate D2E/DX2                !
 ! D159  D(24,21,23,67)         59.2246         estimate D2E/DX2                !
 ! D160  D(24,21,23,68)        -61.3588         estimate D2E/DX2                !
 ! D161  D(24,21,23,69)        179.4525         estimate D2E/DX2                !
 ! D162  D(20,21,24,70)       -178.9123         estimate D2E/DX2                !
 ! D163  D(20,21,24,71)         60.8667         estimate D2E/DX2                !
 ! D164  D(20,21,24,72)        -58.4026         estimate D2E/DX2                !
 ! D165  D(22,21,24,70)         57.5013         estimate D2E/DX2                !
 ! D166  D(22,21,24,71)        -62.7197         estimate D2E/DX2                !
 ! D167  D(22,21,24,72)        178.011          estimate D2E/DX2                !
 ! D168  D(23,21,24,70)        -59.5317         estimate D2E/DX2                !
 ! D169  D(23,21,24,71)       -179.7527         estimate D2E/DX2                !
 ! D170  D(23,21,24,72)         60.978          estimate D2E/DX2                !
 ! D171  D(20,25,26,27)       -179.8477         estimate D2E/DX2                !
 ! D172  D(20,25,26,31)          0.1694         estimate D2E/DX2                !
 ! D173  D(73,25,26,27)          0.1578         estimate D2E/DX2                !
 ! D174  D(73,25,26,31)       -179.8251         estimate D2E/DX2                !
 ! D175  D(25,26,27,28)        120.6157         estimate D2E/DX2                !
 ! D176  D(25,26,27,29)         -0.1096         estimate D2E/DX2                !
 ! D177  D(25,26,27,30)       -120.9015         estimate D2E/DX2                !
 ! D178  D(31,26,27,28)        -59.401          estimate D2E/DX2                !
 ! D179  D(31,26,27,29)        179.8737         estimate D2E/DX2                !
 ! D180  D(31,26,27,30)         59.0818         estimate D2E/DX2                !
 ! D181  D(25,26,31,18)         -0.1449         estimate D2E/DX2                !
 ! D182  D(25,26,31,32)       -179.7394         estimate D2E/DX2                !
 ! D183  D(27,26,31,18)        179.8716         estimate D2E/DX2                !
 ! D184  D(27,26,31,32)          0.2771         estimate D2E/DX2                !
 ! D185  D(26,27,28,74)         56.4372         estimate D2E/DX2                !
 ! D186  D(26,27,28,75)        176.564          estimate D2E/DX2                !
 ! D187  D(26,27,28,76)        -62.673          estimate D2E/DX2                !
 ! D188  D(29,27,28,74)       -179.155          estimate D2E/DX2                !
 ! D189  D(29,27,28,75)        -59.0281         estimate D2E/DX2                !
 ! D190  D(29,27,28,76)         61.7348         estimate D2E/DX2                !
 ! D191  D(30,27,28,74)        -61.8029         estimate D2E/DX2                !
 ! D192  D(30,27,28,75)         58.324          estimate D2E/DX2                !
 ! D193  D(30,27,28,76)        179.0869         estimate D2E/DX2                !
 ! D194  D(26,27,29,77)        179.9899         estimate D2E/DX2                !
 ! D195  D(26,27,29,78)        -60.8296         estimate D2E/DX2                !
 ! D196  D(26,27,29,79)         60.8032         estimate D2E/DX2                !
 ! D197  D(28,27,29,77)         59.0096         estimate D2E/DX2                !
 ! D198  D(28,27,29,78)        178.1902         estimate D2E/DX2                !
 ! D199  D(28,27,29,79)        -60.177          estimate D2E/DX2                !
 ! D200  D(30,27,29,77)        -58.9265         estimate D2E/DX2                !
 ! D201  D(30,27,29,78)         60.254          estimate D2E/DX2                !
 ! D202  D(30,27,29,79)       -178.1131         estimate D2E/DX2                !
 ! D203  D(26,27,30,80)         62.7466         estimate D2E/DX2                !
 ! D204  D(26,27,30,81)       -176.4921         estimate D2E/DX2                !
 ! D205  D(26,27,30,82)        -56.3579         estimate D2E/DX2                !
 ! D206  D(28,27,30,80)       -179.061          estimate D2E/DX2                !
 ! D207  D(28,27,30,81)        -58.2997         estimate D2E/DX2                !
 ! D208  D(28,27,30,82)         61.8345         estimate D2E/DX2                !
 ! D209  D(29,27,30,80)        -61.7146         estimate D2E/DX2                !
 ! D210  D(29,27,30,81)         59.0467         estimate D2E/DX2                !
 ! D211  D(29,27,30,82)        179.1809         estimate D2E/DX2                !
 ! D212  D(7,33,35,36)         179.8808         estimate D2E/DX2                !
 ! D213  D(7,33,35,40)          -0.1421         estimate D2E/DX2                !
 ! D214  D(34,33,35,36)          0.2755         estimate D2E/DX2                !
 ! D215  D(34,33,35,40)       -179.7473         estimate D2E/DX2                !
 ! D216  D(33,35,36,37)         59.1004         estimate D2E/DX2                !
 ! D217  D(33,35,36,38)        -59.4076         estimate D2E/DX2                !
 ! D218  D(33,35,36,39)        179.8819         estimate D2E/DX2                !
 ! D219  D(40,35,36,37)       -120.8764         estimate D2E/DX2                !
 ! D220  D(40,35,36,38)        120.6156         estimate D2E/DX2                !
 ! D221  D(40,35,36,39)         -0.0949         estimate D2E/DX2                !
 ! D222  D(33,35,40,5)           0.2169         estimate D2E/DX2                !
 ! D223  D(33,35,40,92)       -179.7778         estimate D2E/DX2                !
 ! D224  D(36,35,40,5)        -179.8067         estimate D2E/DX2                !
 ! D225  D(36,35,40,92)          0.1985         estimate D2E/DX2                !
 ! D226  D(35,36,37,83)         62.6859         estimate D2E/DX2                !
 ! D227  D(35,36,37,84)        -56.4119         estimate D2E/DX2                !
 ! D228  D(35,36,37,85)       -176.5492         estimate D2E/DX2                !
 ! D229  D(38,36,37,83)       -179.1219         estimate D2E/DX2                !
 ! D230  D(38,36,37,84)         61.7803         estimate D2E/DX2                !
 ! D231  D(38,36,37,85)        -58.357          estimate D2E/DX2                !
 ! D232  D(39,36,37,83)        -61.6937         estimate D2E/DX2                !
 ! D233  D(39,36,37,84)        179.2085         estimate D2E/DX2                !
 ! D234  D(39,36,37,85)         59.0712         estimate D2E/DX2                !
 ! D235  D(35,36,38,86)        -62.6125         estimate D2E/DX2                !
 ! D236  D(35,36,38,87)         56.4928         estimate D2E/DX2                !
 ! D237  D(35,36,38,88)        176.6218         estimate D2E/DX2                !
 ! D238  D(37,36,38,86)        179.1475         estimate D2E/DX2                !
 ! D239  D(37,36,38,87)        -61.7472         estimate D2E/DX2                !
 ! D240  D(37,36,38,88)         58.3818         estimate D2E/DX2                !
 ! D241  D(39,36,38,86)         61.7114         estimate D2E/DX2                !
 ! D242  D(39,36,38,87)       -179.1833         estimate D2E/DX2                !
 ! D243  D(39,36,38,88)        -59.0543         estimate D2E/DX2                !
 ! D244  D(35,36,39,89)         60.7909         estimate D2E/DX2                !
 ! D245  D(35,36,39,90)        -60.8337         estimate D2E/DX2                !
 ! D246  D(35,36,39,91)        179.9814         estimate D2E/DX2                !
 ! D247  D(37,36,39,89)       -178.1628         estimate D2E/DX2                !
 ! D248  D(37,36,39,90)         60.2127         estimate D2E/DX2                !
 ! D249  D(37,36,39,91)        -58.9722         estimate D2E/DX2                !
 ! D250  D(38,36,39,89)        -60.1494         estimate D2E/DX2                !
 ! D251  D(38,36,39,90)        178.226          estimate D2E/DX2                !
 ! D252  D(38,36,39,91)         59.0411         estimate D2E/DX2                !
 --------------------------------------------------------------------------------
 Trust Radius=3.00D-01 FncErr=1.00D-07 GrdErr=1.00D-06 EigMax=2.50D+02 EigMin=1.00D-04
 Number of steps in this run=    532 maximum allowed number of steps=    552.
 GradGradGradGradGradGradGradGradGradGradGradGradGradGradGradGradGradGrad

 Leave Link  103 at Mon Feb 26 05:45:28 2024, MaxMem=  7516192768 cpu:               0.5 elap:               0.0
 (Enter /public/apps/g16-C01//g16/l202.exe)
 Symmetry turned off by external request.
 Stoichiometry    C36H52N2O2(2-)
 Framework group  C1[X(C36H52N2O2)]
 Deg. of freedom   270
 Full point group                 C1      NOp   1
                          Input orientation:                          
 ---------------------------------------------------------------------
 Center     Atomic      Atomic             Coordinates (Angstroms)
 Number     Number       Type             X           Y           Z
 ---------------------------------------------------------------------
      1          6           0        6.985776   -0.113805   -3.344978
      2          6           0        6.342080    0.962962   -2.457348
      3          6           0        5.213352    1.619226   -3.257021
      4          6           0        7.384451    2.045559   -2.135649
      5          6           0        5.842779    0.329412   -1.165417
      6          6           0        4.524248    0.339302   -0.768042
      7          6           0        4.102865   -0.261351    0.415580
      8          6           0        2.712957   -0.218066    0.775633
      9          7           0        1.830585    0.406792    0.099937
     10          6           0        0.475856    0.442127    0.575834
     11          6           0        0.226385    1.746648    1.348355
     12          6           0        0.463403    2.953791    0.449619
     13          6           0       -0.469392    2.894187   -0.754190
     14          6           0       -0.241570    1.597917   -1.521626
     15          6           0       -0.499155    0.383027   -0.616940
     16          7           0       -1.854044    0.405860   -0.139780
     17          6           0       -2.744281   -0.264888   -0.758434
     18          6           0       -4.134655   -0.256991   -0.396156
     19          6           0       -4.549102    0.444466    0.729413
     20          6           0       -5.869563    0.493783    1.128623
     21          6           0       -6.253609    1.271949    2.381357
     22          6           0       -7.757113    1.240326    2.677593
     23          6           0       -5.521014    0.673448    3.591421
     24          6           0       -5.837177    2.740939    2.214181
     25          6           0       -6.796863   -0.198701    0.338857
     26          6           0       -6.454585   -0.906822   -0.786891
     27          6           0       -7.503252   -1.642373   -1.616278
     28          6           0       -7.479235   -1.080962   -3.044499
     29          6           0       -8.934021   -1.514891   -1.077319
     30          6           0       -7.139538   -3.132633   -1.657877
     31          6           0       -5.073429   -0.976056   -1.222573
     32          8           0       -4.711053   -1.607872   -2.249419
     33          6           0        5.027322   -0.923742    1.301292
     34          8           0        4.655397   -1.460096    2.377605
     35          6           0        6.411386   -0.916829    0.863959
     36          6           0        7.447397   -1.597337    1.753150
     37          6           0        7.058052   -3.072150    1.919934
     38          6           0        7.434025   -0.916484    3.128452
     39          6           0        8.879025   -1.539440    1.204809
     40          6           0        6.758957   -0.312598   -0.315791
     41          1           0        7.826849   -0.583067   -2.840541
     42          1           0        7.343525    0.317337   -4.281933
     43          1           0        6.255275   -0.886855   -3.574018
     44          1           0        4.737948    2.405557   -2.676349
     45          1           0        5.611961    2.060041   -4.172741
     46          1           0        4.459140    0.885742   -3.529543
     47          1           0        7.749186    2.517510   -3.049979
     48          1           0        6.938475    2.810493   -1.503179
     49          1           0        8.234709    1.623109   -1.605936
     50          1           0        3.748350    0.806832   -1.353971
     51          1           0        2.458208   -0.765677    1.696339
     52          1           0        0.255720   -0.404037    1.257410
     53          1           0       -0.808700    1.737888    1.693415
     54          1           0        0.895493    1.782767    2.213329
     55          1           0        1.500483    2.933247    0.107733
     56          1           0        0.300275    3.880661    1.011972
     57          1           0       -1.506666    2.918115   -0.412871
     58          1           0       -0.299188    3.755731   -1.410385
     59          1           0       -0.911608    1.547990   -2.385172
     60          1           0        0.793055    1.545986   -1.864184
     61          1           0       -0.285228   -0.530893   -1.206478
     62          1           0       -2.497773   -0.894446   -1.627441
     63          1           0       -3.770495    0.949740    1.284031
     64          1           0       -7.968368    1.816533    3.580267
     65          1           0       -8.099973    0.220499    2.839624
     66          1           0       -8.324103    1.675915    1.857275
     67          1           0       -5.758006    1.225198    4.503094
     68          1           0       -4.446473    0.701736    3.437822
     69          1           0       -5.814574   -0.365977    3.727532
     70          1           0       -6.083395    3.319575    3.106550
     71          1           0       -6.352829    3.179735    1.361591
     72          1           0       -4.768643    2.815900    2.036609
     73          1           0       -7.834948   -0.172161    0.633968
     74          1           0       -6.470739   -1.183248   -3.435300
     75          1           0       -8.174111   -1.621453   -3.690349
     76          1           0       -7.750763   -0.025630   -3.040911
     77          1           0       -9.615243   -2.067586   -1.727014
     78          1           0       -9.015397   -1.929314   -0.073747
     79          1           0       -9.256819   -0.475115   -1.057738
     80          1           0       -7.166562   -3.556767   -0.654615
     81          1           0       -7.831803   -3.687730   -2.294076
     82          1           0       -6.132045   -3.228478   -2.052802
     83          1           0        7.076202   -3.579513    0.955885
     84          1           0        6.049598   -3.116880    2.321489
     85          1           0        7.741600   -3.583597    2.600562
     86          1           0        7.722764    0.130143    3.035392
     87          1           0        6.424338   -0.968669    3.526060
     88          1           0        8.120624   -1.411631    3.818003
     89          1           0        9.218380   -0.510244    1.097393
     90          1           0        8.951379   -2.038524    0.239709
     91          1           0        9.552723   -2.046269    1.898202
     92          1           0        7.797246   -0.324133   -0.621755
 ---------------------------------------------------------------------
 Rotational constants (GHZ):           0.1645803           0.0271951           0.0263407
 Leave Link  202 at Mon Feb 26 05:45:28 2024, MaxMem=  7516192768 cpu:               0.3 elap:               0.0
 (Enter /public/apps/g16-C01//g16/l301.exe)
 Standard basis: def2SVPP (5D, 7F)
 Ernie: Thresh=  0.10000D-02 Tol=  0.10000D-05 Strict=F.
   664 basis functions,  1208 primitive gaussians,   704 cartesian basis functions
   150 alpha electrons      150 beta electrons
       nuclear repulsion energy      4435.4716442796 Hartrees.
 IExCor=  402 DFT=T Ex+Corr=B3LYP ExCW=0 ScaHFX=  0.200000
 ScaDFX=  0.800000  0.720000  1.000000  0.810000 ScalE2=  1.000000  1.000000
 IRadAn=      5 IRanWt=     -1 IRanGd=            0 ICorTp=0 IEmpDi=141
 NAtoms=   92 NActive=   92 NUniq=   92 SFac= 1.00D+00 NAtFMM=   60 NAOKFM=T Big=T
 Integral buffers will be    131072 words long.
 Raffenetti 2 integral format.
 Two-electron integral symmetry is turned off.
 R6Disp:  Grimme-D3(BJ) Dispersion energy=       -0.2020320738 Hartrees.
 Nuclear repulsion after empirical dispersion term =     4435.2696122058 Hartrees.
 Leave Link  301 at Mon Feb 26 05:45:28 2024, MaxMem=  7516192768 cpu:               1.2 elap:               0.0
 (Enter /public/apps/g16-C01//g16/l302.exe)
 NPDir=0 NMtPBC=     1 NCelOv=     1 NCel=       1 NClECP=     1 NCelD=      1
         NCelK=      1 NCelE2=     1 NClLst=     1 CellRange=     0.0.
 One-electron integrals computed using PRISM.
   1 Symmetry operations used in ECPInt.
 ECPInt:  NShTT=   59340 NPrTT=  237692 LenC2=   40706 LenP2D=  100630.
 LDataN:  DoStor=T MaxTD1= 4 Len=   56
 NBasis=   664 RedAO= T EigKep=  1.90D-04  NBF=   664
 NBsUse=   664 1.00D-06 EigRej= -1.00D+00 NBFU=   664
 Precomputing XC quadrature grid using
 IXCGrd= 4 IRadAn=           5 IRanWt=          -1 IRanGd=           0 AccXCQ= 0.00D+00.
 Generated NRdTot=       0 NPtTot=           0 NUsed=           0 NTot=          32
 NSgBfM=   672   671   672   672   672 MxSgAt=    92 MxSgA2=    92.
 Leave Link  302 at Mon Feb 26 05:45:29 2024, MaxMem=  7516192768 cpu:              39.7 elap:               1.0
 (Enter /public/apps/g16-C01//g16/l303.exe)
 DipDrv:  MaxL=1.
 Leave Link  303 at Mon Feb 26 05:45:29 2024, MaxMem=  7516192768 cpu:               3.5 elap:               0.1
 (Enter /public/apps/g16-C01//g16/l401.exe)
 ExpMin= 1.22D-01 ExpMax= 2.27D+03 ExpMxC= 3.41D+02 IAcc=3 IRadAn=         5 AccDes= 0.00D+00
 Harris functional with IExCor=  402 and IRadAn=       5 diagonalized for initial guess.
 HarFok:  IExCor=  402 AccDes= 0.00D+00 IRadAn=         5 IDoV= 1 UseB2=F ITyADJ=14
 ICtDFT=  3500011 ScaDFX=  1.000000  1.000000  1.000000  1.000000
 FoFCou: FMM=F IPFlag=           0 FMFlag=      100000 FMFlg1=        2001
         NFxFlg=           0 DoJE=T BraDBF=F KetDBF=T FulRan=T
         wScrn=  0.000000 ICntrl=       500 IOpCl=  0 I1Cent=   200000004 NGrid=           0
         NMat0=    1 NMatS0=      1 NMatT0=    0 NMatD0=    1 NMtDS0=    0 NMtDT0=    0
 Symmetry not used in FoFCou.
 Harris En= -1662.52132524143    
 JPrj=0 DoOrth=F DoCkMO=F.
 Leave Link  401 at Mon Feb 26 05:45:31 2024, MaxMem=  7516192768 cpu:              68.0 elap:               1.7
 (Enter /public/apps/g16-C01//g16/l502.exe)
 Two-electron integral symmetry not used.
 Closed shell SCF:
 Using DIIS extrapolation, IDIIS=  1040.
 NGot=  7516192768 LenX=  7515164722 LenY=  7514668402
 Requested convergence on RMS density matrix=1.00D-08 within 128 cycles.
 Requested convergence on MAX density matrix=1.00D-06.
 Requested convergence on             energy=1.00D-06.
 No special actions if energy rises.
 Fock matrices will be formed incrementally for  20 cycles.
 Integral accuracy reduced to 1.0D-05 until final iterations.

 Cycle   1  Pass 0  IDiag  1:
 FoFJK:  IHMeth= 1 ICntrl=       0 DoSepK=F KAlg= 0 I1Cent=           0 FoldK=F
 IRaf= 810000000 NMat=       1 IRICut=       1 DoRegI=T DoRafI=F ISym2E= 0 IDoP0=0 IntGTp=1.
 FoFCou: FMM=T IPFlag=           0 FMFlag=      100000 FMFlg1=        2001
         NFxFlg=           0 DoJE=F BraDBF=F KetDBF=F FulRan=T
         wScrn=  0.000000 ICntrl=         0 IOpCl=  0 I1Cent=           0 NGrid=           0
         NMat0=    1 NMatS0=      1 NMatT0=    0 NMatD0=    1 NMtDS0=    0 NMtDT0=    0
 Symmetry not used in FoFCou.
 FMM levels:  10  Number of levels for PrismC:   9
 E= -1660.64534764323    
 DIIS: error= 4.63D-02 at cycle   1 NSaved=   1.
 NSaved= 1 IEnMin= 1 EnMin= -1660.64534764323     IErMin= 1 ErrMin= 4.63D-02
 ErrMax= 4.63D-02  0.00D+00 EMaxC= 1.00D-01 BMatC= 1.23D+00 BMatP= 1.23D+00
 IDIUse=3 WtCom= 5.37D-01 WtEn= 4.63D-01
 Coeff-Com:  0.100D+01
 Coeff-En:   0.100D+01
 Coeff:      0.100D+01
 Gap=     0.110 Goal=   None    Shift=    0.000
 GapD=    0.110 DampG=1.000 DampE=0.500 DampFc=0.5000 IDamp=-1.
 Damping current iteration by 5.00D-01
 RMSDP=7.19D-03 MaxDP=3.02D-01              OVMax= 2.78D-01

 Cycle   2  Pass 0  IDiag  1:
 RMSU=  3.57D-03    CP:  9.71D-01
 E= -1661.20197124307     Delta-E=       -0.556623599842 Rises=F Damp=T
 DIIS: error= 1.02D-02 at cycle   2 NSaved=   2.
 NSaved= 2 IEnMin= 2 EnMin= -1661.20197124307     IErMin= 2 ErrMin= 1.02D-02
 ErrMax= 1.02D-02  0.00D+00 EMaxC= 1.00D-01 BMatC= 7.56D-02 BMatP= 1.23D+00
 IDIUse=3 WtCom= 8.98D-01 WtEn= 1.02D-01
 Coeff-Com:  0.119D+00 0.881D+00
 Coeff-En:   0.189D+00 0.811D+00
 Coeff:      0.126D+00 0.874D+00
 Gap=     0.228 Goal=   None    Shift=    0.000
 RMSDP=2.43D-03 MaxDP=1.37D-01 DE=-5.57D-01 OVMax= 2.00D-01

 Cycle   3  Pass 0  IDiag  1:
 RMSU=  1.82D-03    CP:  9.39D-01  5.68D-01
 E= -1661.94778344694     Delta-E=       -0.745812203862 Rises=F Damp=F
 DIIS: error= 1.77D-02 at cycle   3 NSaved=   3.
 NSaved= 3 IEnMin= 3 EnMin= -1661.94778344694     IErMin= 2 ErrMin= 1.02D-02
 ErrMax= 1.77D-02  0.00D+00 EMaxC= 1.00D-01 BMatC= 9.77D-02 BMatP= 7.56D-02
 IDIUse=2 WtCom= 0.00D+00 WtEn= 1.00D+00
 Coeff-En:   0.000D+00 0.000D+00 0.100D+01
 Coeff:      0.000D+00 0.000D+00 0.100D+01
 Gap=     0.111 Goal=   None    Shift=    0.000
 RMSDP=2.62D-03 MaxDP=2.15D-01 DE=-7.46D-01 OVMax= 3.22D-01

 Cycle   4  Pass 0  IDiag  1:
 RMSU=  2.14D-03    CP:  9.55D-01  8.59D-01  4.14D-01
 E= -1661.52233626450     Delta-E=        0.425447182437 Rises=F Damp=F
 DIIS: error= 4.34D-02 at cycle   4 NSaved=   4.
 NSaved= 4 IEnMin= 3 EnMin= -1661.94778344694     IErMin= 2 ErrMin= 1.02D-02
 ErrMax= 4.34D-02  0.00D+00 EMaxC= 1.00D-01 BMatC= 5.88D-01 BMatP= 7.56D-02
 IDIUse=2 WtCom= 0.00D+00 WtEn= 1.00D+00
 Coeff-En:   0.000D+00 0.000D+00 0.805D+00 0.195D+00
 Coeff:      0.000D+00 0.000D+00 0.805D+00 0.195D+00
 Gap=     0.135 Goal=   None    Shift=    0.000
 RMSDP=1.54D-03 MaxDP=1.29D-01 DE= 4.25D-01 OVMax= 1.66D-01

 Cycle   5  Pass 0  IDiag  1:
 RMSU=  2.77D-04    CP:  9.46D-01  6.74D-01  7.40D-01  4.32D-01
 E= -1661.99309208368     Delta-E=       -0.470755819179 Rises=F Damp=F
 DIIS: error= 1.19D-02 at cycle   5 NSaved=   5.
 NSaved= 5 IEnMin= 5 EnMin= -1661.99309208368     IErMin= 2 ErrMin= 1.02D-02
 ErrMax= 1.19D-02  0.00D+00 EMaxC= 1.00D-01 BMatC= 4.54D-02 BMatP= 7.56D-02
 IDIUse=3 WtCom= 8.81D-01 WtEn= 1.19D-01
 Coeff-Com:  0.303D-02 0.165D-01 0.369D+00-0.331D-01 0.645D+00
 Coeff-En:   0.000D+00 0.000D+00 0.358D+00 0.000D+00 0.642D+00
 Coeff:      0.267D-02 0.146D-01 0.367D+00-0.291D-01 0.645D+00
 Gap=     0.133 Goal=   None    Shift=    0.000
 RMSDP=4.85D-04 MaxDP=4.11D-02 DE=-4.71D-01 OVMax= 4.73D-02

 Cycle   6  Pass 0  IDiag  1:
 RMSU=  1.01D-04    CP:  9.43D-01  6.26D-01  8.54D-01  2.55D-01  7.12D-01
 E= -1662.03112332338     Delta-E=       -0.038031239697 Rises=F Damp=F
 DIIS: error= 9.44D-04 at cycle   6 NSaved=   6.
 NSaved= 6 IEnMin= 6 EnMin= -1662.03112332338     IErMin= 6 ErrMin= 9.44D-04
 ErrMax= 9.44D-04  0.00D+00 EMaxC= 1.00D-01 BMatC= 8.45D-04 BMatP= 4.54D-02
 IDIUse=3 WtCom= 9.91D-01 WtEn= 9.44D-03
 Coeff-Com: -0.359D-03 0.423D-02 0.178D+00-0.500D-01 0.444D+00 0.424D+00
 Coeff-En:   0.000D+00 0.000D+00 0.000D+00 0.000D+00 0.000D+00 0.100D+01
 Coeff:     -0.356D-03 0.419D-02 0.176D+00-0.495D-01 0.440D+00 0.429D+00
 Gap=     0.133 Goal=   None    Shift=    0.000
 RMSDP=6.42D-05 MaxDP=4.66D-03 DE=-3.80D-02 OVMax= 6.68D-03

 Cycle   7  Pass 0  IDiag  1:
 RMSU=  3.24D-05    CP:  9.43D-01  6.27D-01  8.53D-01  2.59D-01  7.80D-01
                    CP:  4.93D-01
 E= -1662.03188444539     Delta-E=       -0.000761122018 Rises=F Damp=F
 DIIS: error= 2.42D-04 at cycle   7 NSaved=   7.
 NSaved= 7 IEnMin= 7 EnMin= -1662.03188444539     IErMin= 7 ErrMin= 2.42D-04
 ErrMax= 2.42D-04  0.00D+00 EMaxC= 1.00D-01 BMatC= 5.92D-05 BMatP= 8.45D-04
 IDIUse=3 WtCom= 9.98D-01 WtEn= 2.42D-03
 Coeff-Com: -0.276D-03 0.108D-02 0.733D-01-0.292D-01 0.210D+00 0.255D+00
 Coeff-Com:  0.490D+00
 Coeff-En:   0.000D+00 0.000D+00 0.000D+00 0.000D+00 0.000D+00 0.000D+00
 Coeff-En:   0.100D+01
 Coeff:     -0.275D-03 0.107D-02 0.732D-01-0.291D-01 0.209D+00 0.255D+00
 Coeff:      0.491D+00
 Gap=     0.133 Goal=   None    Shift=    0.000
 RMSDP=1.85D-05 MaxDP=1.15D-03 DE=-7.61D-04 OVMax= 2.03D-03

 Cycle   8  Pass 0  IDiag  1:
[...]
 00000127,-0.00000216,0.00003990,0.00001471,-0.00006332,-0.00001793,0.0
 0000979,0.00002296,-0.00006979,0.00004864,-0.00001140,0.00038013,0.000
 15127,-0.00008646,-0.00006280,-0.00016447,0.00018958,0.00031732,0.0000
 9212,-0.00023762,-0.00033481,0.00002910,0.00005229,0.00024201,-0.00012
 157,0.00005225,-0.00010617,-0.00000479,0.00003644,0.00002788,0.0000135
 0,-0.00000058,-0.00001383,0.00000506,-0.00000094,-0.00000319,0.0000049
 2,-0.00000491,-0.00000271,0.00000141,0.00000165,-0.00003202,-0.0000029
 1,-0.00002912,0.00007978,0.00003428,0.00003953,-0.00007770,-0.00003045
 ,-0.00000228,0.00004756,-0.00000961,-0.00002639,-0.00002575,0.00001738
 ,0.00002241,0.00003757,0.00001494,0.00000194,-0.00000153,0.00000527,0.
 00000569,-0.00000078,-0.00000117,-0.00000076,-0.00000146,-0.00000144,0
 .00000070,-0.00000174,0.00000010,-0.00000099,0.00000365,-0.00002272,-0
 .00002174,-0.00001675,0.00000491,0.00000941,-0.00000511,-0.00000440,-0
 .00000218,0.00000199,0.00000135,-0.00000075,-0.00000003,0.00000139,0.0
 0000140,0.00000232,0.00000005,0.00000085,0.00001275,-0.00001728,-0.000
 01876,0.00000250,0.00001870,0.00001573,-0.00042035,-0.00026030,0.00083
 665,0.00010396,0.00033479,-0.00053412,-0.00000690,0.00073791,-0.000239
 47,0.00025354,-0.00195632,0.00035335,-0.00144579,0.00053900,-0.0002648
 9,-0.00033096,-0.00025254,0.00066853,0.08968199,-0.16192592,0.08797301
 ,-0.00023874,0.00020377,0.00023405,0.00001349,-0.00002003,-0.00003283,
 -0.00001430,-0.00001415,0.00003353,0.00001540,-0.00000104,0.00000579,0
 .00000094,0.00000723,-0.00000622,-0.00000725,-0.00002162,0.00002306,0.
 00000989,0.00000168,-0.00000299,-0.00000101,-0.00004292,0.00004091,0.0
 0001082,0.00000193,-0.00000192,0.00005743,0.00002851,-0.00002259,0.000
 02602,-0.00002078,-0.00001827,0.00001357,0.00001527,-0.00001977,0.0000
 1870,0.00001259,-0.00001602,0.00001378,-0.00001916,-0.00001201,-0.0000
 0483,0.00000253,0.00000611,0.00000606,0.00001286,-0.00000233,0.0000061
 1,-0.00001350,-0.00000269,0.00000738,-0.00000315,-0.00000191,-0.000001
 02,-0.00000535,0.00000559,0.00000937,-0.00000444,0.00000832,0.00000355
 ,0.00000981,-0.00001663,0.00000126,-0.00000596,-0.00000462,-0.00000260
 ,-0.00000289,-0.00000159,-0.00000530,0.00000155,0.00000303,0.00000133,
 -0.00000254,-0.00000257,-0.00000027,0.00000123,0.00000059,-0.00000028,
 0.00000063,0.00000093,0.00000104,-0.00000293,-0.00000361,0.00000116,0.
 00000096,0.00000117,0.00000027,0.00000116,0.00000072,0.00000117,-0.000
 00348,-0.00000265,0.00000009,0.00000089,0.00000059,0.00000112,0.000001
 51,0.00000048,0.00000357,-0.00000045,-0.00000140,-0.00000365,-0.000001
 05,-0.00000364,0.00000294,0.00000321,0.00000326,-0.00000005,-0.0000007
 1,-0.00000064,0.00000257,0.00000283,0.00000186,-0.00000044,-0.00000079
 ,-0.00000081,-0.00000051,-0.00000068,-0.00000058,0.,-0.00000068,-0.000
 00113,0.00000266,0.00000445,0.00000206,-0.00000262,-0.00000480,0.00000
 046,0.00001490,-0.00002716,-0.00007935,0.00002644,0.00010754,-0.000256
 27,-0.00029146,0.00045832,0.00009245,0.00007086,-0.00009025,0.00005707
 ,-0.00006841,0.00018880,-0.00022048,-0.00003793,0.00043326,-0.00062310
 ,0.01493993,-0.01649637,0.01463304,-0.00535746,0.00640117,-0.00389495,
 -0.09795172,0.17171426,0.00007314,-0.00004376,0.00003155,-0.00002101,-
 0.00003933,0.00001564,0.00001708,0.00001114,0.00000775,0.00001063,-0.0
 0001339,0.00000656,-0.00030062,-0.00004779,0.00035142,0.00000726,0.000
 14914,-0.00015830,-0.00006307,-0.00003997,0.00003652,0.00022091,-0.000
 08331,-0.00002170,-0.00014561,0.00007255,-0.00004243,0.00007726,0.0000
 0799,-0.00001556,-0.00001934,-0.00000901,0.00000192,0.00000950,-0.0000
 0370,0.00000028,0.00000231,-0.00000321,0.00000345,0.00000237,-0.000000
 66,-0.00000112,0.00002486,0.00000184,0.00001729,-0.00005621,-0.0000254
 1,-0.00002707,0.00005629,0.00002201,0.00000179,-0.00003449,0.00000662,
 0.00001846,0.00001853,-0.00001233,-0.00001599,-0.00002730,-0.00001102,
 -0.00000172,0.00000108,-0.00000353,-0.00000358,0.00000054,0.00000084,0
 .00000045,0.00000107,0.00000105,-0.00000061,0.00000124,-0.00000009,0.0
 0000062,-0.00000246,0.00001690,0.00001608,0.00001292,-0.00000379,-0.00
 000713,0.00000378,0.00000339,0.00000155,-0.00000144,-0.00000096,0.0000
 0057,0.00000005,-0.00000103,-0.00000093,-0.00000168,-0.00000011,-0.000
 00050,-0.00001001,0.00001379,0.00001491,-0.00000111,-0.00001531,-0.000
 01268,0.00050778,0.00002392,0.00018731,-0.00016673,-0.00027822,0.00021
 616,0.00185141,0.00034505,-0.00049385,0.00556688,-0.00705404,0.0039076
 3,0.00004788,-0.00004267,-0.00006103,0.00106038,-0.00088717,0.00073864
 ,-0.07074069,0.08857543,-0.11616617,0.00051919,0.00044327,-0.00029682,
 -0.00004860,-0.00000146,0.00004430,-0.00000642,0.00003781,-0.00003581,
 -0.00000827,0.00000103,0.00000248,-0.00000921,0.00000543,0.00000379,0.
 00000415,0.00001389,-0.00001773,-0.00000178,-0.00000410,0.00000298,0.0
 0000993,0.00002165,-0.00001823,-0.00001004,0.00001299,0.00000361,-0.00
 002969,-0.00002428,-0.00001149,-0.00004305,-0.00001152,-0.00000403,-0.
 00000886,-0.00000931,0.00001308,-0.00001236,-0.00000840,0.00001094,-0.
 00000924,0.00001323,0.00000846,0.00000236,-0.00000200,-0.00000481,-0.0
 0000436,-0.00000854,0.00000152,-0.00000400,0.00000877,0.00000182,-0.00
 000532,0.00000239,0.00000146,0.00000073,0.00000338,-0.00000393,-0.0000
 0643,0.00000287,-0.00000585,-0.00000283,-0.00000692,0.00001141,-0.0000
 0112,0.00000417,0.00000303,0.00000197,0.00000202,0.00000107,0.00000363
 ,-0.00000125,-0.00000220,-0.00000086,0.00000170,0.00000175,0.00000018,
 -0.00000092,-0.00000032,0.00000006,-0.00000039,-0.00000078,-0.00000059
 ,0.00000189,0.00000229,-0.00000096,-0.00000068,-0.00000062,-0.00000013
 ,-0.00000079,-0.00000045,-0.00000069,0.00000226,0.00000177,-0.00000013
 ,-0.00000057,-0.00000054,-0.00000087,-0.00000101,-0.00000024,-0.000002
 54,0.00000042,0.00000109,0.00000275,0.00000087,0.00000272,-0.00000233,
 -0.00000247,-0.00000251,0.00000010,0.00000041,0.00000051,-0.00000198,-
 0.00000215,-0.00000144,0.00000034,0.00000064,0.00000053,0.00000047,0.0
 0000040,0.00000046,-0.00000003,0.00000053,0.00000082,-0.00000215,-0.00
 000346,-0.00000162,0.00000203,0.00000375,-0.00000039,-0.00007749,0.000
 11420,-0.00008683,-0.00002034,-0.00027950,0.00004913,-0.00003141,-0.00
 025412,0.00030809,-0.00005545,-0.00004503,-0.00004972,-0.00007275,-0.0
 0008456,0.00019389,0.00033923,0.00011305,0.00000351,0.00346292,-0.0031
 5220,0.00226291,-0.01517586,0.02084103,-0.01332924,0.07414937,-0.09813
 647,0.12228605,-0.00059836,0.00043078,0.00045914,-0.00125926,-0.001216
 03,0.00088967,0.00027329,0.00001615,-0.00020096,-0.00069827,-0.0004633
 8,-0.00004470,-0.01620497,0.00068017,0.00622090,-0.00031179,0.00419151
 ,-0.00274083,0.00049361,-0.00025863,-0.00010806,0.00042678,-0.00022760
 ,-0.00011847,-0.00043168,0.00022823,-0.00007974,0.00021537,-0.00002072
 ,-0.00002302,-0.00004607,-0.00002288,-0.00000072,0.00002449,-0.0000079
 0,0.00000390,0.00000542,-0.00001304,0.00001186,0.00000448,-0.00000346,
 -0.00000740,0.00005724,0.00000921,0.00005221,-0.00012618,-0.00005013,-
 0.00007479,0.00012075,0.00005113,0.00000839,-0.00007518,0.00001285,0.0
 0003736,0.00003942,-0.00002582,-0.00003474,-0.00005863,-0.00002286,-0.
 00000539,0.00000240,-0.00000875,-0.00000643,0.00000110,0.00000186,0.00
 000086,0.00000242,0.00000201,-0.00000139,0.00000258,-0.00000010,0.0000
 0119,-0.00000564,0.00003711,0.00003461,0.00002901,-0.00000755,-0.00001
 737,0.00000810,0.00000621,0.00000438,-0.00000320,-0.00000223,0.0000008
 0,0.00000002,-0.00000228,-0.00000210,-0.00000365,-0.00000010,-0.000000
 82,-0.00002408,0.00003266,0.00003737,0.00000063,-0.00003273,-0.0000354
 2,0.00371695,0.00000893,0.00177019,-0.00167536,-0.00080917,0.00094103,
 -0.01091053,0.00147592,0.00442500,-0.00211079,0.00014532,-0.00125208,0
 .00039171,-0.00009693,0.00035122,0.00007874,-0.00002947,-0.00018993,-0
 .00157545,0.00280923,-0.00206839,-0.30283048,0.02448421,0.06713848,0.0
 0103662,-0.00063250,-0.00005130,0.00037337,-0.00037238,0.00001210,0.00
 015162,-0.00001401,0.00016473,0.00001931,-0.00017625,-0.00000099,0.000
 08231,0.00012467,-0.00014719,0.00005710,0.00000950,0.00014578,0.000355
 47,-0.00002500,0.00013011,0.00010681,-0.00025184,0.00001256,0.00091883
 ,-0.00064582,0.00047202,-0.00085387,0.00005832,0.00031511,0.00001754,-
 0.00005073,0.00005434,-0.00004104,-0.00001674,0.00002874,-0.00002270,0
 .00003490,0.00002117,0.00000521,-0.00000619,-0.00001330,-0.00000690,-0
 .00002858,0.00000174,-0.00001490,0.00002690,0.00000567,-0.00001086,0.0
 0000513,0.00000244,0.00000048,0.00001682,-0.00001482,-0.00002332,0.000
 00950,-0.00001603,0.00000126,-0.00001947,0.00003517,-0.00000136,0.0000
 0843,0.00000574,0.00000510,0.00000274,0.00000303,0.00000813,-0.0000033
 6,-0.00000408,-0.00000185,0.00000343,0.00000382,0.00000076,-0.00000117
 ,-0.00000090,-0.00000024,-0.00000087,-0.00000196,-0.00000160,0.0000039
 6,0.00000488,-0.00000196,-0.00000211,-0.00000116,0.00000025,-0.0000006
 0,-0.00000138,-0.00000170,0.00000509,0.00000401,-0.00000103,-0.0000010
 8,-0.00000171,-0.00000114,-0.00000249,-0.00000025,-0.00000508,0.000000
 54,0.00000247,0.00000635,0.00000145,0.00000643,-0.00000499,-0.00000513
 ,-0.00000534,-0.00000061,0.00000175,0.00000084,-0.00000403,-0.00000445
 ,-0.00000270,0.00000097,0.00000132,0.00000018,0.00000060,0.00000135,0.
 00000094,0.00000042,0.00000129,0.00000017,-0.00000442,-0.00000698,-0.0
 0000316,0.00000391,0.00000719,0.00000012,-0.00001094,-0.00003837,-0.00
 006128,-0.00003728,0.00016827,0.00001328,0.00006795,-0.00023858,0.0000
 4282,-0.00000012,0.00004955,0.00001254,-0.00011302,-0.00000292,-0.0001
 6140,0.00012425,-0.00010083,0.00006293,-0.00043804,0.00157119,-0.00073
 487,-0.00042976,0.00044499,-0.00128048,0.00054833,0.00045919,-0.000824
 66,0.33119489,-0.00003929,-0.00001192,0.00030673,-0.00011054,-0.000782
 04,-0.00161097,-0.00006523,-0.00005074,-0.00020204,0.00023171,-0.00097
 682,0.00042436,0.01955100,0.00268814,-0.00581814,0.00259063,-0.0007205
 0,0.00448043,-0.00071315,-0.00050719,0.00008681,0.00017689,-0.00033608
 ,-0.00032117,-0.00001362,0.00012989,-0.00008924,0.00002543,0.00006903,
 0.00000440,-0.00002586,-0.00000746,0.00000309,-0.00000110,-0.00000366,
 0.00000337,0.00000281,0.00000215,-0.00000061,-0.00001063,0.00000214,0.
 00000442,0.00000913,-0.00000040,0.00000852,-0.00001279,-0.00000939,-0.
 00000865,0.00001523,0.00000846,0.00000167,-0.00000949,-0.00000037,0.00
 000386,0.00000471,-0.00000263,-0.00000336,-0.00000688,-0.00000373,-0.0
 0000058,-0.00000012,0.00000005,-0.00000065,0.00000013,0.00000013,0.000
 00007,0.00000046,0.00000029,-0.00000017,0.00000045,-0.00000005,0.00000
 011,-0.00000034,0.00000508,0.00000497,0.00000524,-0.00000171,-0.000002
 47,0.00000089,0.00000131,0.00000022,-0.00000042,-0.00000021,0.00000011
 ,-0.00000002,-0.00000032,-0.00000026,-0.00000047,-0.00000027,-0.000000
 18,-0.00000491,0.00000726,0.00000740,0.00000296,-0.00000855,-0.0000061
 4,0.00198807,0.00216504,0.00632605,-0.00148787,-0.00072476,-0.00022733
 ,-0.01693925,0.00675168,0.00518011,-0.00136476,-0.00214970,-0.00275910
 ,0.00050566,-0.00043748,0.00045525,-0.00011871,0.00070003,-0.00028417,
 0.00119983,-0.00152842,0.00219846,0.02543742,-0.04867842,0.00401393,0.
 00010964,0.00025433,0.00026262,0.00002447,-0.00009307,0.00003503,-0.00
 009314,0.00007078,-0.00016749,0.00000371,0.00006335,0.00001568,-0.0000
 5050,0.00003813,0.00001324,-0.00007385,0.00004011,-0.00010159,-0.00025
 217,0.00030134,-0.00023013,0.00000181,0.00006255,0.00004910,-0.0008554
 7,-0.00134826,0.00041544,0.00096405,0.00011140,-0.00019902,0.00006160,
 -0.00000431,0.00000831,0.00000415,-0.00000487,-0.00000833,-0.00000648,
 0.00001142,0.00000865,0.00000039,-0.00000207,-0.00000251,-0.00000201,0
 .00000143,0.00000251,0.00000219,0.00000061,-0.00000299,-0.00000092,-0.
 00000047,0.00000029,-0.00000048,-0.00000164,-0.00000012,0.00000159,0.0
 0000002,-0.00000246,-0.00000143,-0.00000083,-0.00000084,0.00000056,-0.
 00000208,-0.00000176,0.00000069,0.00000012,-0.00000065,0.00000057,-0.0
 0000028,-0.00000071,-0.00000007,0.00000022,0.00000012,-0.00000013,-0.0
 0000048,0.00000011,0.00000002,0.00000002,-0.00000009,0.00000005,0.0000
 0020,0.00000011,-0.00000024,0.00000014,-0.00000007,-0.00000027,-0.0000
 0056,0.00000011,0.00000009,0.00000002,0.00000003,0.00000008,-0.0000001
 0,0.00000003,-0.00000043,0.,0.,-0.00000049,0.00000029,0.00000023,0.000
 00059,0.00000046,0.00000063,-0.00000073,-0.00000064,-0.00000070,0.0000
 0030,-0.00000035,0.00000023,-0.00000057,-0.00000050,-0.00000040,0.0000
 0005,0.00000023,0.00000017,0.00000038,-0.00000027,0.00000018,-0.000000
 20,0.00000009,0.00000050,-0.00000070,-0.00000109,-0.00000042,0.0000006
 6,0.00000139,-0.00000029,-0.00001656,-0.00003697,-0.00002933,0.0000264
 8,0.00010602,-0.00001469,-0.00010213,-0.00020546,-0.00002041,-0.000064
 33,-0.00000951,-0.00001757,-0.00006410,-0.00000844,-0.00015368,-0.0000
 2231,-0.00005745,-0.00021461,0.00036669,-0.00031928,0.00031450,0.00116
 043,-0.00167854,0.00055406,-0.00027401,-0.00011451,-0.00024384,-0.0316
 7076,0.04723951,-0.00021779,0.00037537,-0.00109461,-0.00025919,-0.0012
 3995,-0.00097487,-0.00011930,-0.00023007,0.00001762,0.00038601,0.00044
 544,-0.00003596,-0.01360067,0.00077145,0.00753831,-0.00102808,0.003926
 07,0.00066781,0.00031649,-0.00005878,-0.00070725,-0.00053374,-0.000178
 80,-0.00020998,0.00019324,-0.00014457,0.00016822,-0.00007540,-0.000012
 17,0.00008584,0.00002517,0.00001420,-0.00000452,0.00000187,0.00000410,
 -0.00000600,-0.00000351,0.00000241,-0.00000175,0.00000350,0.00000396,-
 0.00000073,-0.00000988,-0.00000198,-0.00003956,0.00006382,0.00002056,0
 .00003846,-0.00005393,-0.00002170,-0.00000196,0.00003461,-0.00000639,-
 0.00002071,-0.00001891,0.00001328,0.00001707,0.00002791,0.00001075,0.0
 0000133,-0.00000119,0.00000437,0.00000453,-0.00000057,-0.00000098,-0.0
 0000063,-0.00000096,-0.00000109,0.00000045,-0.00000110,0.00000003,-0.0
 0000077,0.00000302,-0.00001665,-0.00001605,-0.00001206,0.00000343,0.00
 000702,-0.00000364,-0.00000319,-0.00000161,0.00000140,0.00000104,-0.00
 000056,-0.00000003,0.00000108,0.00000103,0.00000168,0.00000007,0.00000
 065,0.00000943,-0.00001192,-0.00001328,0.00000214,0.00001293,0.0000105
 8,-0.00032449,0.00699355,0.00166055,0.00163564,-0.00048880,-0.00151737
 ,0.02371000,-0.00114935,-0.00095882,0.00031090,-0.00329925,-0.00191751
 ,0.00013226,-0.00030341,0.00057211,-0.00050670,0.00065812,-0.00025527,
 -0.00035750,0.00163672,-0.00061860,0.06620280,0.00428553,-0.06397576,0
 .00012649,0.00036212,-0.00165653,0.00013657,-0.00019401,0.00023650,-0.
 00001927,0.00005117,-0.00000029,0.00004355,-0.00006610,0.00002525,0.00
 003581,-0.00004763,0.00007133,0.00000222,0.00001266,0.00001076,-0.0001
 7031,0.00005801,-0.00013776,0.00001962,-0.00011377,0.00005218,-0.00023
 900,0.00051799,0.00009624,-0.00063181,0.00010822,0.00033809,-0.0000607
 7,0.00004629,-0.00000733,-0.00000257,0.00000362,-0.00000838,0.00000989
 ,-0.00001801,-0.00000728,-0.00000504,0.00000175,0.00000302,0.00000131,
 0.00001009,-0.00000062,0.00000349,-0.00001228,-0.00000185,0.00000377,-
 0.00000132,-0.00000161,-0.00000019,-0.00000571,0.00000448,0.00000541,-
 0.00000524,0.00000715,0.00000369,0.00000774,-0.00001091,-0.00000034,-0
 .00000554,-0.00000543,-0.00000190,-0.00000267,-0.00000099,-0.00000412,
 0.00000110,0.00000210,0.00000108,-0.00000193,-0.00000199,-0.00000029,0
 .00000077,0.00000055,-0.00000031,0.00000053,0.00000061,0.00000093,-0.0
 0000228,-0.00000294,0.00000072,0.00000085,0.00000101,0.00000014,0.0000
 0071,0.00000061,0.00000104,-0.00000282,-0.00000211,0.00000002,0.000000
 69,0.00000037,0.00000064,0.00000125,0.00000045,0.00000263,-0.00000025,
 -0.00000100,-0.00000261,-0.00000074,-0.00000259,0.00000205,0.00000223,
 0.00000230,0.,-0.00000054,-0.00000046,0.00000183,0.00000198,0.00000131
 ,-0.00000030,-0.00000055,-0.00000064,-0.00000034,-0.00000052,-0.000000
 39,0.00000002,-0.00000048,-0.00000086,0.00000187,0.00000314,0.00000146
 ,-0.00000187,-0.00000346,0.00000037,0.00005398,-0.00002437,-0.00000822
 ,0.00001879,-0.00023197,-0.00001727,-0.00009608,-0.00013966,-0.0000564
 6,-0.00000911,-0.00004836,-0.00004905,0.00004530,-0.00000545,0.0001710
 1,-0.00002750,-0.00002043,-0.00026279,-0.00131034,0.00041005,-0.001046
 33,-0.00020128,0.00028465,0.00022115,-0.00005795,-0.00050059,0.0001039
 6,-0.07361275,-0.01244633,0.06352240\\-0.00000078,0.00000233,0.0000004
 3,0.00000126,-0.00000124,0.00000132,0.00000125,-0.00000168,0.00000213,
 -0.00000050,0.00000118,0.00000083,-0.00000135,0.00000130,-0.00000124,0
 .00000139,-0.00000024,0.00000035,-0.00000096,-0.00000055,-0.00000058,0
 .00000315,-0.00000087,0.00000361,-0.00000297,0.00000154,0.00000083,0.0
 0000576,-0.00000083,-0.00000187,0.00000136,0.00000013,-0.00000055,-0.0
 0000393,0.00000009,0.00000167,0.00000424,0.00000050,0.00000123,-0.0000
 0115,0.00000111,0.00000198,-0.00000714,0.00000051,0.00000244,0.0000038
 4,-0.00000030,0.00000070,-0.00000256,0.00000270,-0.00000549,0.00000174
 ,-0.00000239,0.00000204,-0.00000099,-0.00000124,0.00000129,0.00000028,
 0.00000024,0.00000089,0.00000134,-0.00000079,0.00000043,0.00000260,-0.
 00000084,0.00000030,-0.00000094,-0.00000090,-0.00000013,-0.00000065,-0
 .00000073,0.00000148,0.00000051,0.00000061,-0.00000050,-0.00000123,0.0
 0000019,0.00000205,0.00000193,0.00000006,-0.00000162,-0.00000005,0.000
 00146,-0.00000057,0.00000123,0.00000045,-0.00000195,-0.00000058,0.0000
 0094,-0.00000209,-0.00000046,0.00000703,-0.00000472,0.00000165,-0.0000
 0046,0.00000102,-0.00000116,-0.00000160,-0.00000243,0.00000079,-0.0000
 0075,-0.00000045,0.00000039,0.00000042,-0.00000044,-0.00000174,-0.0000
 0126,-0.00000032,-0.00000040,0.00000005,-0.00000127,-0.00000064,-0.000
 00207,-0.00000178,-0.00000082,-0.00000108,0.00000010,-0.00000038,-0.00
 000072,-0.00000011,-0.00000028,0.00000075,-0.00000094,0.00000008,0.000
 00091,0.00000041,0.00000021,0.00000074,-0.00000060,-0.00000031,0.00000
 076,0.00000109,0.00000013,0.00000118,0.00000132,-0.00000073,0.00000097
 ,0.00000116,0.00000042,0.00000047,0.00000114,0.00000053,-0.00000016,0.
 00000111,-0.00000036,0.00000021,0.00000042,-0.00000017,0.00000098,-0.0
 0000060,0.00000071,-0.00000067,-0.00000142,-0.00000163,0.00000015,0.00
 000003,-0.00000060,-0.00000145,0.00000185,-0.00000019,-0.00000086,0.00
 000050,0.00000168,-0.00000007,0.00000115,0.00000150,-0.00000123,0.0000
 0129,-0.00000134,0.00000057,0.00000146,-0.00000102,-0.00000024,0.00000
 199,0.00000049,0.00000096,0.00000099,0.00000107,-0.00000020,-0.0000003
 0,0.00000146,0.00000114,-0.00000047,-0.00000040,-0.00000010,0.00000134
 ,0.00000041,-0.00000035,0.00000005,0.00000018,-0.00000078,0.00000045,-
 0.00000021,-0.00000110,-0.00000018,-0.00000030,-0.00000040,0.00000058,
 0.00000046,-0.00000149,0.00000063,-0.00000029,-0.00000109,0.00000119,0
 .00000039,-0.00000111,0.00000042,0.00000014,-0.00000023,0.00000132,0.0
 0000046,0.00000063,0.00000108,-0.00000008,-0.00000025,0.00000115,-0.00
 000022,0.00000069,0.00000049,-0.00000066,0.00000121,-0.00000037,-0.000
 00032,0.00000226,-0.00000107,-0.00000085,0.00000166,-0.00000072,-0.000
 00049,0.00000102,-0.00000096,-0.00000049,0.00000060,-0.00000081,-0.000
 00031,0.00000068,-0.00000021,-0.00000076,-0.00000022,-0.00000132,-0.00
 000060,0.00000102,-0.00000112,-0.00000108,0.00000096,-0.00000133,0.000
 00005,-0.00000092,-0.00000162,0.00000035,-0.00000056,-0.00000171,0.000
 00002,-0.00000124,-0.00000224,0.00000039,-0.00000174,0.00000009,0.0000
 0035,-0.00000178,-0.00000111,0.00000003,-0.00000146,-0.00000142,0.,-0.
 00000129,-0.00000074,0.00000028,-0.00000050,-0.00000083,0.00000006,-0.
 00000123,-0.00000143,-0.00000145,-0.00000008,-0.00000018\\\@
 The archive entry for this job was punched.


 WE TEND TO MEET ANY NEW SITUATION BY REORGANIZING. IT CAN BE A
 WONDERFUL METHOD FOR CREATING THE ILLUSION OF PROGRESS WHILE PRODUCING
 CONFUSION, INEFFICIENCY, AND DEMORALIZATION.
     -- PETRONIUS ARBITER, 210 B.C.
 Job cpu time:       0 days  9 hours 11 minutes 40.5 seconds.
 Elapsed time:       0 days  0 hours 13 minutes 52.0 seconds.
 File lengths (MBytes):  RWF=   4474 Int=      0 D2E=      0 Chk=     42 Scr=      1
 Normal termination of Gaussian 16 at Mon Feb 26 06:10:33 2024.
