 Entering Gaussian System, Link 0=g16
 Initial command:
 /public/software/apps/Gaussian/g16/l1.exe "/tmp/Gau-130200.inp" -scrdir="/tmp/"
 Entering Link 1 = /public/software/apps/Gaussian/g16/l1.exe PID=    130201.
  
 Copyright (c) 1988-2019, Gaussian, Inc.  All Rights Reserved.
  
 This is part of the Gaussian(R) 16 program.  It is based on
 the Gaussian(R) 09 system (copyright 2009, Gaussian, Inc.),
 the Gaussian(R) 03 system (copyright 2003, Gaussian, Inc.),
 the Gaussian(R) 98 system (copyright 1998, Gaussian, Inc.),
 the Gaussian(R) 94 system (copyright 1995, Gaussian, Inc.),
 the Gaussian 92(TM) system (copyright 1992, Gaussian, Inc.),
 the Gaussian 90(TM) system (copyright 1990, Gaussian, Inc.),
 the Gaussian 88(TM) system (copyright 1988, Gaussian, Inc.),
 the Gaussian 86(TM) system (copyright 1986, Carnegie Mellon
 University), and the Gaussian 82(TM) system (copyright 1983,
 Carnegie Mellon University). Gaussian is a federally registered
 trademark of Gaussian, Inc.
  
 This software contains proprietary and confidential information,
 including trade secrets, belonging to Gaussian, Inc.
  
 This software is provided under written license and may be
 used, copied, transmitted, or stored only in accord with that
 written license.
  
 The following legend is applicable only to US Government
 contracts under FAR:
  
                    RESTRICTED RIGHTS LEGEND
  
 Use, reproduction and disclosure by the US Government is
 subject to restrictions as set forth in subparagraphs (a)
 and (c) of the Commercial Computer Software - Restricted
 Rights clause in FAR 52.227-19.
  
 Gaussian, Inc.
 340 Quinnipiac St., Bldg. 40, Wallingford CT 06492
  
  
 ---------------------------------------------------------------
 Warning -- This program may not be used in any manner that
 competes with the business of Gaussian, Inc. or will provide
 assistance to any competitor of Gaussian, Inc.  The licensee
 of this program is prohibited from giving any competitor of
 Gaussian, Inc. access to this program.  By using this program,
 the user acknowledges that Gaussian, Inc. is engaged in the
 business of creating and licensing software in the field of
 computational chemistry and represents and warrants to the
 licensee that it is not a competitor of Gaussian, Inc. and that
 it will not use this program in any manner prohibited above.
 ---------------------------------------------------------------
  

 Cite this work as:
 Gaussian 16, Revision C.01,
 M. J. Frisch, G. W. Trucks, H. B. Schlegel, G. E. Scuseria, 
 M. A. Robb, J. R. Cheeseman, G. Scalmani, V. Barone, 
 G. A. Petersson, H. Nakatsuji, X. Li, M. Caricato, A. V. Marenich, 
 J. Bloino, B. G. Janesko, R. Gomperts, B. Mennucci, H. P. Hratchian, 
 J. V. Ortiz, A. F. Izmaylov, J. L. Sonnenberg, D. Williams-Young, 
 F. Ding, F. Lipparini, F. Egidi, J. Goings, B. Peng, A. Petrone, 
 T. Henderson, D. Ranasinghe, V. G. Zakrzewski, J. Gao, N. Rega, 
 G. Zheng, W. Liang, M. Hada, M. Ehara, K. Toyota, R. Fukuda, 
 J. Hasegawa, M. Ishida, T. Nakajima, Y. Honda, O. Kitao, H. Nakai, 
 T. Vreven, K. Throssell, J. A. Montgomery, Jr., J. E. Peralta, 
 F. Ogliaro, M. J. Bearpark, J. J. Heyd, E. N. Brothers, K. N. Kudin, 
 V. N. Staroverov, T. A. Keith, R. Kobayashi, J. Normand, 
 K. Raghavachari, A. P. Rendell, J. C. Burant, S. S. Iyengar, 
 J. Tomasi, M. Cossi, J. M. Millam, M. Klene, C. Adamo, R. Cammi, 
 J. W. Ochterski, R. L. Martin, K. Morokuma, O. Farkas, 
 J. B. Foresman, and D. J. Fox, Gaussian, Inc., Wallingford CT, 2019.
 
 ******************************************
 Gaussian 16:  ES64L-G16RevC.01  3-Jul-2019
                31-Jul-2024 
 ******************************************
 %nprocshared=32
 Will use up to   32 processors via shared memory.
 %mem=100GB
 ------------------------------------------
 #p opt freq b3lyp/def2svpp em=gd3bj nosymm
 ------------------------------------------
 1/18=20,19=15,26=3,38=1/1,3;
 2/9=110,12=2,15=1,17=6,18=5,40=1/2;
 3/5=43,7=202,11=2,25=1,30=1,71=1,74=-5,124=41/1,2,3;
 4//1;
 5/5=2,38=5/2;
 6/7=2,8=2,9=2,10=2,28=1/1;
 7/30=1/1,2,3,16;
 1/18=20,19=15,26=3/3(2);
 2/9=110,15=1/2;
 99//99;
 2/9=110,15=1/2;
 3/5=43,7=202,11=2,25=1,30=1,71=1,74=-5,124=41/1,2,3;
 4/5=5,16=3,69=1/1;
 5/5=2,38=5/2;
 7/30=1/1,2,3,16;
 1/18=20,19=15,26=3/3(-5);
 2/9=110,15=1/2;
 6/7=2,8=2,9=2,10=2,19=2,28=1/1;
 99/9=1/99;
 Leave Link    1 at Wed Jul 31 21:37:32 2024, MaxMem= 13421772800 cpu:               0.8 elap:               0.0
 (Enter /public/software/apps/Gaussian/g16/l101.exe)
 -----------------------
 $$$$Singlemol####-2????
 -----------------------
 Symbolic Z-matrix:
 Charge = -2 Multiplicity = 1
 O                     5.39547   0.91095   0.28806 
 C                     5.02314  -0.27338   0.10613 
 C                     5.95625  -1.36727   0.14914 
 C                     5.58666  -2.66531  -0.06126 
 C                     4.2564   -2.99977  -0.33315 
 C                     3.31852  -1.99421  -0.38255 
 C                     3.65359  -0.6573   -0.17129 
 C                     2.64959   0.35939  -0.21405 
 N                     1.42827   0.15478  -0.52861 
 C                     0.52737   1.25901  -0.49927 
 C                    -0.2995    1.30473  -1.75051 
 C                    -0.60575   2.50729  -2.37123 
 C                    -1.42145   2.53399  -3.48892 
 C                    -1.94711   1.3571   -3.99205 
 C                    -1.645     0.15314  -3.37708 
 C                    -0.82411   0.12552  -2.2664 
 C                    -0.47671   1.17505   0.72602 
 N                    -1.42737   0.12488   0.568 
 C                    -2.63447   0.43616   0.28733 
 C                    -3.68277  -0.51082   0.06871 
 C                    -3.41179  -1.87854   0.05332 
 C                    -4.39315  -2.81592  -0.17355 
 C                    -5.70225  -2.37808  -0.39697 
 C                    -6.00966  -1.04724  -0.38681 
 C                    -5.0293   -0.02171  -0.14949 
 O                    -5.34531   1.19238  -0.12897 
 C                     0.34948   0.96524   1.96089 
 C                     0.81139  -0.30988   2.26522 
 C                     1.63294  -0.51318   3.35693 
 C                     1.99902   0.55216   4.16322 
 C                     1.53643   1.82294   3.87073 
 C                     0.71949   2.02796   2.77255 
 H                     6.99263  -1.1212    0.35941 
 H                     6.33586  -3.45494  -0.01737 
 H                     3.97687  -4.03473  -0.49718 
 H                     2.27933  -2.21538  -0.58597 
 H                     3.01282   1.36961   0.04023 
 H                     1.06616   2.22498  -0.36657 
 H                    -0.2064    3.4325   -1.97387 
 H                    -1.65591   3.47919  -3.96411 
 H                    -2.59701   1.38049  -4.85799 
 H                    -2.06504  -0.76725  -3.75963 
 H                    -0.58048  -0.79896  -1.77024 
 H                    -0.96998   2.17305   0.76539 
 H                    -2.94849   1.49052   0.20458 
 H                    -2.38715  -2.17998   0.22501 
 H                    -4.16331  -3.87579  -0.18467 
 H                    -6.48512  -3.11271  -0.58177 
 H                    -7.03015  -0.72043  -0.56179 
 H                     0.51938  -1.1229    1.62189 
 H                     2.00392  -1.50557   3.57493 
 H                     2.64995   0.39491   5.01429 
 H                     1.82147   2.66097   4.4957 
 H                     0.36985   3.02662   2.54052 
 
 ITRead=  0  0  0  0  0  0  0  0  0  0  0  0  0  0  0  0  0  0  0  0
 ITRead=  0  0  0  0  0  0  0  0  0  0  0  0  0  0  0  0  0  0  0  0
 ITRead=  0  0  0  0  0  0  0  0  0  0  0  0  0  0
 MicOpt= -1 -1 -1 -1 -1 -1 -1 -1 -1 -1 -1 -1 -1 -1 -1 -1 -1 -1 -1 -1
 MicOpt= -1 -1 -1 -1 -1 -1 -1 -1 -1 -1 -1 -1 -1 -1 -1 -1 -1 -1 -1 -1
 MicOpt= -1 -1 -1 -1 -1 -1 -1 -1 -1 -1 -1 -1 -1 -1
 NAtoms=     54 NQM=       54 NQMF=       0 NMMI=      0 NMMIF=      0
                NMic=       0 NMicF=      0.
                    Isotopes and Nuclear Properties:
 (Nuclear quadrupole moments (NQMom) in fm**2, nuclear magnetic moments (NMagM)
  in nuclear magnetons)

  Atom         1           2           3           4           5           6           7           8           9          10
 IAtWgt=          16          12          12          12          12          12          12          12          14          12
 AtmWgt=  15.9949146  12.0000000  12.0000000  12.0000000  12.0000000  12.0000000  12.0000000  12.0000000  14.0030740  12.0000000
 NucSpn=           0           0           0           0           0           0           0           0           2           0
 AtZEff=  -0.0000000  -0.0000000  -0.0000000  -0.0000000  -0.0000000  -0.0000000  -0.0000000  -0.0000000  -0.0000000  -0.0000000
 NQMom=    0.0000000   0.0000000   0.0000000   0.0000000   0.0000000   0.0000000   0.0000000   0.0000000   2.0440000   0.0000000
 NMagM=    0.0000000   0.0000000   0.0000000   0.0000000   0.0000000   0.0000000   0.0000000   0.0000000   0.4037610   0.0000000
 AtZNuc=   8.0000000   6.0000000   6.0000000   6.0000000   6.0000000   6.0000000   6.0000000   6.0000000   7.0000000   6.0000000

  Atom        11          12          13          14          15          16          17          18          19          20
 IAtWgt=          12          12          12          12          12          12          12          14          12          12
 AtmWgt=  12.0000000  12.0000000  12.0000000  12.0000000  12.0000000  12.0000000  12.0000000  14.0030740  12.0000000  12.0000000
 NucSpn=           0           0           0           0           0           0           0           2           0           0
 AtZEff=  -0.0000000  -0.0000000  -0.0000000  -0.0000000  -0.0000000  -0.0000000  -0.0000000  -0.0000000  -0.0000000  -0.0000000
 NQMom=    0.0000000   0.0000000   0.0000000   0.0000000   0.0000000   0.0000000   0.0000000   2.0440000   0.0000000   0.0000000
 NMagM=    0.0000000   0.0000000   0.0000000   0.0000000   0.0000000   0.0000000   0.0000000   0.4037610   0.0000000   0.0000000
 AtZNuc=   6.0000000   6.0000000   6.0000000   6.0000000   6.0000000   6.0000000   6.0000000   7.0000000   6.0000000   6.0000000

  Atom        21          22          23          24          25          26          27          28          29          30
 IAtWgt=          12          12          12          12          12          16          12          12          12          12
 AtmWgt=  12.0000000  12.0000000  12.0000000  12.0000000  12.0000000  15.9949146  12.0000000  12.0000000  12.0000000  12.0000000
 NucSpn=           0           0           0           0           0           0           0           0           0           0
 AtZEff=  -0.0000000  -0.0000000  -0.0000000  -0.0000000  -0.0000000  -0.0000000  -0.0000000  -0.0000000  -0.0000000  -0.0000000
 NQMom=    0.0000000   0.0000000   0.0000000   0.0000000   0.0000000   0.0000000   0.0000000   0.0000000   0.0000000   0.0000000
 NMagM=    0.0000000   0.0000000   0.0000000   0.0000000   0.0000000   0.0000000   0.0000000   0.0000000   0.0000000   0.0000000
 AtZNuc=   6.0000000   6.0000000   6.0000000   6.0000000   6.0000000   8.0000000   6.0000000   6.0000000   6.0000000   6.0000000

  Atom        31          32          33          34          35          36          37          38          39          40
 IAtWgt=          12          12           1           1           1           1           1           1           1           1
 AtmWgt=  12.0000000  12.0000000   1.0078250   1.0078250   1.0078250   1.0078250   1.0078250   1.0078250   1.0078250   1.0078250
 NucSpn=           0           0           1           1           1           1           1           1           1           1
 AtZEff=  -0.0000000  -0.0000000  -0.0000000  -0.0000000  -0.0000000  -0.0000000  -0.0000000  -0.0000000  -0.0000000  -0.0000000
 NQMom=    0.0000000   0.0000000   0.0000000   0.0000000   0.0000000   0.0000000   0.0000000   0.0000000   0.0000000   0.0000000
 NMagM=    0.0000000   0.0000000   2.7928460   2.7928460   2.7928460   2.7928460   2.7928460   2.7928460   2.7928460   2.7928460
 AtZNuc=   6.0000000   6.0000000   1.0000000   1.0000000   1.0000000   1.0000000   1.0000000   1.0000000   1.0000000   1.0000000

  Atom        41          42          43          44          45          46          47          48          49          50
 IAtWgt=           1           1           1           1           1           1           1           1           1           1
 AtmWgt=   1.0078250   1.0078250   1.0078250   1.0078250   1.0078250   1.0078250   1.0078250   1.0078250   1.0078250   1.0078250
 NucSpn=           1           1           1           1           1           1           1           1           1           1
 AtZEff=  -0.0000000  -0.0000000  -0.0000000  -0.0000000  -0.0000000  -0.0000000  -0.0000000  -0.0000000  -0.0000000  -0.0000000
 NQMom=    0.0000000   0.0000000   0.0000000   0.0000000   0.0000000   0.0000000   0.0000000   0.0000000   0.0000000   0.0000000
 NMagM=    2.7928460   2.7928460   2.7928460   2.7928460   2.7928460   2.7928460   2.7928460   2.7928460   2.7928460   2.7928460
 AtZNuc=   1.0000000   1.0000000   1.0000000   1.0000000   1.0000000   1.0000000   1.0000000   1.0000000   1.0000000   1.0000000

  Atom        51          52          53          54
 IAtWgt=           1           1           1           1
 AtmWgt=   1.0078250   1.0078250   1.0078250   1.0078250
 NucSpn=           1           1           1           1
 AtZEff=  -0.0000000  -0.0000000  -0.0000000  -0.0000000
 NQMom=    0.0000000   0.0000000   0.0000000   0.0000000
 NMagM=    2.7928460   2.7928460   2.7928460   2.7928460
 AtZNuc=   1.0000000   1.0000000   1.0000000   1.0000000
 Leave Link  101 at Wed Jul 31 21:37:32 2024, MaxMem= 13421772800 cpu:               6.4 elap:               0.2
 (Enter /public/software/apps/Gaussian/g16/l103.exe)

 GradGradGradGradGradGradGradGradGradGradGradGradGradGradGradGradGradGrad
 Berny optimization.
 Initialization pass.
                           ----------------------------
                           !    Initial Parameters    !
                           ! (Angstroms and Degrees)  !
 --------------------------                            --------------------------
 ! Name  Definition              Value          Derivative Info.                !
 --------------------------------------------------------------------------------
 ! R1    R(1,2)                  1.2547         estimate D2E/DX2                !
 ! R2    R(2,3)                  1.4384         estimate D2E/DX2                !
 ! R3    R(2,7)                  1.4492         estimate D2E/DX2                !
 ! R4    R(3,4)                  1.3659         estimate D2E/DX2                !
 ! R5    R(3,33)                 1.0857         estimate D2E/DX2                !
 ! R6    R(4,5)                  1.3983         estimate D2E/DX2                !
 ! R7    R(4,34)                 1.0894         estimate D2E/DX2                !
 ! R8    R(5,6)                  1.3759         estimate D2E/DX2                !
 ! R9    R(5,35)                 1.0845         estimate D2E/DX2                !
 ! R10   R(6,7)                  1.3944         estimate D2E/DX2                !
 ! R11   R(6,36)                 1.0818         estimate D2E/DX2                !
 ! R12   R(7,8)                  1.4295         estimate D2E/DX2                !
 ! R13   R(8,9)                  1.2777         estimate D2E/DX2                !
 ! R14   R(8,37)                 1.1032         estimate D2E/DX2                !
 ! R15   R(9,10)                 1.4254         estimate D2E/DX2                !
 ! R16   R(10,11)                1.5005         estimate D2E/DX2                !
 ! R17   R(10,17)                1.5864         estimate D2E/DX2                !
 ! R18   R(10,38)                1.114          estimate D2E/DX2                !
 ! R19   R(11,12)                1.3875         estimate D2E/DX2                !
 ! R20   R(11,16)                1.3899         estimate D2E/DX2                !
 ! R21   R(12,13)                1.3839         estimate D2E/DX2                !
 ! R22   R(12,39)                1.0832         estimate D2E/DX2                !
 ! R23   R(13,14)                1.3837         estimate D2E/DX2                !
 ! R24   R(13,40)                1.0836         estimate D2E/DX2                !
 ! R25   R(14,15)                1.3853         estimate D2E/DX2                !
 ! R26   R(14,41)                1.0829         estimate D2E/DX2                !
 ! R27   R(15,16)                1.3814         estimate D2E/DX2                !
 ! R28   R(15,42)                1.0816         estimate D2E/DX2                !
 ! R29   R(16,43)                1.0771         estimate D2E/DX2                !
 ! R30   R(17,18)                1.4253         estimate D2E/DX2                !
 ! R31   R(17,27)                1.5005         estimate D2E/DX2                !
 ! R32   R(17,44)                1.1139         estimate D2E/DX2                !
 ! R33   R(18,19)                1.2778         estimate D2E/DX2                !
 ! R34   R(19,20)                1.4295         estimate D2E/DX2                !
 ! R35   R(19,45)                1.1032         estimate D2E/DX2                !
 ! R36   R(20,21)                1.3944         estimate D2E/DX2                !
 ! R37   R(20,25)                1.4491         estimate D2E/DX2                !
 ! R38   R(21,22)                1.3759         estimate D2E/DX2                !
 ! R39   R(21,46)                1.0818         estimate D2E/DX2                !
 ! R40   R(22,23)                1.3983         estimate D2E/DX2                !
 ! R41   R(22,47)                1.0846         estimate D2E/DX2                !
 ! R42   R(23,24)                1.3659         estimate D2E/DX2                !
 ! R43   R(23,48)                1.0894         estimate D2E/DX2                !
 ! R44   R(24,25)                1.4385         estimate D2E/DX2                !
 ! R45   R(24,49)                1.0857         estimate D2E/DX2                !
 ! R46   R(25,26)                1.2547         estimate D2E/DX2                !
 ! R47   R(27,28)                1.3899         estimate D2E/DX2                !
 ! R48   R(27,32)                1.3875         estimate D2E/DX2                !
 ! R49   R(28,29)                1.3813         estimate D2E/DX2                !
 ! R50   R(28,50)                1.0771         estimate D2E/DX2                !
 ! R51   R(29,30)                1.3853         estimate D2E/DX2                !
 ! R52   R(29,51)                1.0817         estimate D2E/DX2                !
 ! R53   R(30,31)                1.3836         estimate D2E/DX2                !
 ! R54   R(30,52)                1.0829         estimate D2E/DX2                !
 ! R55   R(31,32)                1.384          estimate D2E/DX2                !
 ! R56   R(31,53)                1.0836         estimate D2E/DX2                !
 ! R57   R(32,54)                1.0832         estimate D2E/DX2                !
 ! A1    A(1,2,3)              121.3972         estimate D2E/DX2                !
 ! A2    A(1,2,7)              123.9352         estimate D2E/DX2                !
 ! A3    A(3,2,7)              114.6655         estimate D2E/DX2                !
 ! A4    A(2,3,4)              122.857          estimate D2E/DX2                !
 ! A5    A(2,3,33)             116.9134         estimate D2E/DX2                !
 ! A6    A(4,3,33)             120.2296         estimate D2E/DX2                !
 ! A7    A(3,4,5)              120.9736         estimate D2E/DX2                !
 ! A8    A(3,4,34)             119.7707         estimate D2E/DX2                !
 ! A9    A(5,4,34)             119.2557         estimate D2E/DX2                !
 ! A10   A(4,5,6)              118.7258         estimate D2E/DX2                !
 ! A11   A(4,5,35)             120.1893         estimate D2E/DX2                !
 ! A12   A(6,5,35)             121.0846         estimate D2E/DX2                !
 ! A13   A(5,6,7)              122.1052         estimate D2E/DX2                !
 ! A14   A(5,6,36)             120.8057         estimate D2E/DX2                !
 ! A15   A(7,6,36)             117.0887         estimate D2E/DX2                !
 ! A16   A(2,7,6)              120.6715         estimate D2E/DX2                !
 ! A17   A(2,7,8)              118.7553         estimate D2E/DX2                !
 ! A18   A(6,7,8)              120.5713         estimate D2E/DX2                !
 ! A19   A(7,8,9)              124.3904         estimate D2E/DX2                !
 ! A20   A(7,8,37)             114.4006         estimate D2E/DX2                !
 ! A21   A(9,8,37)             121.2056         estimate D2E/DX2                !
 ! A22   A(8,9,10)             118.3608         estimate D2E/DX2                !
 ! A23   A(9,10,11)            110.7768         estimate D2E/DX2                !
 ! A24   A(9,10,17)            112.0206         estimate D2E/DX2                !
 ! A25   A(9,10,38)            111.623          estimate D2E/DX2                !
 ! A26   A(11,10,17)           107.2719         estimate D2E/DX2                !
 ! A27   A(11,10,38)           109.843          estimate D2E/DX2                !
 ! A28   A(17,10,38)           105.0709         estimate D2E/DX2                !
 ! A29   A(10,11,12)           121.4057         estimate D2E/DX2                !
 ! A30   A(10,11,16)           119.4498         estimate D2E/DX2                !
 ! A31   A(12,11,16)           119.0744         estimate D2E/DX2                !
 ! A32   A(11,12,13)           120.5376         estimate D2E/DX2                !
 ! A33   A(11,12,39)           119.6555         estimate D2E/DX2                !
 ! A34   A(13,12,39)           119.8062         estimate D2E/DX2                !
 ! A35   A(12,13,14)           120.0773         estimate D2E/DX2                !
 ! A36   A(12,13,40)           119.902          estimate D2E/DX2                !
 ! A37   A(14,13,40)           120.018          estimate D2E/DX2                !
 ! A38   A(13,14,15)           119.6672         estimate D2E/DX2                !
 ! A39   A(13,14,41)           120.0245         estimate D2E/DX2                !
 ! A40   A(15,14,41)           120.3069         estimate D2E/DX2                !
 ! A41   A(14,15,16)           120.2592         estimate D2E/DX2                !
 ! A42   A(14,15,42)           119.8583         estimate D2E/DX2                !
 ! A43   A(16,15,42)           119.8766         estimate D2E/DX2                !
 ! A44   A(11,16,15)           120.3817         estimate D2E/DX2                !
 ! A45   A(11,16,43)           118.1526         estimate D2E/DX2                !
 ! A46   A(15,16,43)           121.4625         estimate D2E/DX2                !
 ! A47   A(10,17,18)           112.0563         estimate D2E/DX2                !
 ! A48   A(10,17,27)           107.1302         estimate D2E/DX2                !
 ! A49   A(10,17,44)           105.0795         estimate D2E/DX2                !
 ! A50   A(18,17,27)           110.8215         estimate D2E/DX2                !
 ! A51   A(18,17,44)           111.6338         estimate D2E/DX2                !
 ! A52   A(27,17,44)           109.8774         estimate D2E/DX2                !
 ! A53   A(17,18,19)           118.3553         estimate D2E/DX2                !
 ! A54   A(18,19,20)           124.4003         estimate D2E/DX2                !
 ! A55   A(18,19,45)           121.21           estimate D2E/DX2                !
 ! A56   A(20,19,45)           114.3871         estimate D2E/DX2                !
 ! A57   A(19,20,21)           120.594          estimate D2E/DX2                !
 ! A58   A(19,20,25)           118.7407         estimate D2E/DX2                !
 ! A59   A(21,20,25)           120.6625         estimate D2E/DX2                !
 ! A60   A(20,21,22)           122.1032         estimate D2E/DX2                !
 ! A61   A(20,21,46)           117.1067         estimate D2E/DX2                !
 ! A62   A(22,21,46)           120.7897         estimate D2E/DX2                !
 ! A63   A(21,22,23)           118.7338         estimate D2E/DX2                !
 ! A64   A(21,22,47)           121.0845         estimate D2E/DX2                !
 ! A65   A(23,22,47)           120.1813         estimate D2E/DX2                !
 ! A66   A(22,23,24)           120.9691         estimate D2E/DX2                !
 ! A67   A(22,23,48)           119.2573         estimate D2E/DX2                !
 ! A68   A(24,23,48)           119.7736         estimate D2E/DX2                !
 ! A69   A(23,24,25)           122.8522         estimate D2E/DX2                !
 ! A70   A(23,24,49)           120.2389         estimate D2E/DX2                !
 ! A71   A(25,24,49)           116.909          estimate D2E/DX2                !
 ! A72   A(20,25,24)           114.6766         estimate D2E/DX2                !
 ! A73   A(20,25,26)           123.9283         estimate D2E/DX2                !
 ! A74   A(24,25,26)           121.3932         estimate D2E/DX2                !
 ! A75   A(17,27,28)           119.4364         estimate D2E/DX2                !
 ! A76   A(17,27,32)           121.4104         estimate D2E/DX2                !
 ! A77   A(28,27,32)           119.0753         estimate D2E/DX2                !
 ! A78   A(27,28,29)           120.3792         estimate D2E/DX2                !
 ! A79   A(27,28,50)           118.1382         estimate D2E/DX2                !
 ! A80   A(29,28,50)           121.4792         estimate D2E/DX2                !
 ! A81   A(28,29,30)           120.2631         estimate D2E/DX2                !
 ! A82   A(28,29,51)           119.8876         estimate D2E/DX2                !
 ! A83   A(30,29,51)           119.8431         estimate D2E/DX2                !
 ! A84   A(29,30,31)           119.6648         estimate D2E/DX2                !
 ! A85   A(29,30,52)           120.3035         estimate D2E/DX2                !
 ! A86   A(31,30,52)           120.0301         estimate D2E/DX2                !
 ! A87   A(30,31,32)           120.0754         estimate D2E/DX2                !
 ! A88   A(30,31,53)           120.0291         estimate D2E/DX2                !
 ! A89   A(32,31,53)           119.8927         estimate D2E/DX2                !
 ! A90   A(27,32,31)           120.54           estimate D2E/DX2                !
 ! A91   A(27,32,54)           119.6535         estimate D2E/DX2                !
 ! A92   A(31,32,54)           119.8056         estimate D2E/DX2                !
 ! D1    D(1,2,3,4)           -179.1486         estimate D2E/DX2                !
 ! D2    D(1,2,3,33)             0.8116         estimate D2E/DX2                !
 ! D3    D(7,2,3,4)              0.3368         estimate D2E/DX2                !
 ! D4    D(7,2,3,33)          -179.7029         estimate D2E/DX2                !
 ! D5    D(1,2,7,6)            179.0259         estimate D2E/DX2                !
 ! D6    D(1,2,7,8)             -1.4607         estimate D2E/DX2                !
 ! D7    D(3,2,7,6)             -0.4447         estimate D2E/DX2                !
 ! D8    D(3,2,7,8)            179.0687         estimate D2E/DX2                !
 ! D9    D(2,3,4,5)             -0.045          estimate D2E/DX2                !
 ! D10   D(2,3,4,34)           179.9678         estimate D2E/DX2                !
 ! D11   D(33,3,4,5)           179.996          estimate D2E/DX2                !
 ! D12   D(33,3,4,34)            0.0088         estimate D2E/DX2                !
 ! D13   D(3,4,5,6)             -0.1567         estimate D2E/DX2                !
 ! D14   D(3,4,5,35)          -179.9364         estimate D2E/DX2                !
 ! D15   D(34,4,5,6)           179.8306         estimate D2E/DX2                !
 ! D16   D(34,4,5,35)            0.0509         estimate D2E/DX2                !
 ! D17   D(4,5,6,7)              0.0387         estimate D2E/DX2                !
 ! D18   D(4,5,6,36)          -179.7357         estimate D2E/DX2                !
 ! D19   D(35,5,6,7)           179.8164         estimate D2E/DX2                !
 ! D20   D(35,5,6,36)            0.042          estimate D2E/DX2                !
 ! D21   D(5,6,7,2)              0.2765         estimate D2E/DX2                !
 ! D22   D(5,6,7,8)           -179.2281         estimate D2E/DX2                !
 ! D23   D(36,6,7,2)          -179.9412         estimate D2E/DX2                !
 ! D24   D(36,6,7,8)             0.5543         estimate D2E/DX2                !
 ! D25   D(2,7,8,9)            175.5155         estimate D2E/DX2                !
 ! D26   D(2,7,8,37)            -3.8164         estimate D2E/DX2                !
 ! D27   D(6,7,8,9)             -4.9706         estimate D2E/DX2                !
 ! D28   D(6,7,8,37)           175.6976         estimate D2E/DX2                !
 ! D29   D(7,8,9,10)           178.5633         estimate D2E/DX2                !
 ! D30   D(37,8,9,10)           -2.1482         estimate D2E/DX2                !
 ! D31   D(8,9,10,11)          132.7699         estimate D2E/DX2                !
 ! D32   D(8,9,10,17)         -107.4948         estimate D2E/DX2                !
 ! D33   D(8,9,10,38)           10.023          estimate D2E/DX2                !
 ! D34   D(9,10,11,12)        -140.6232         estimate D2E/DX2                !
 ! D35   D(9,10,11,16)          42.4515         estimate D2E/DX2                !
 ! D36   D(17,10,11,12)         96.8345         estimate D2E/DX2                !
 ! D37   D(17,10,11,16)        -80.0908         estimate D2E/DX2                !
 ! D38   D(38,10,11,12)        -16.849          estimate D2E/DX2                !
 ! D39   D(38,10,11,16)        166.2257         estimate D2E/DX2                !
 ! D40   D(9,10,17,18)         -70.1107         estimate D2E/DX2                !
 ! D41   D(9,10,17,27)          51.6391         estimate D2E/DX2                !
 ! D42   D(9,10,17,44)         168.4807         estimate D2E/DX2                !
 ! D43   D(11,10,17,18)         51.6562         estimate D2E/DX2                !
 ! D44   D(11,10,17,27)        173.406          estimate D2E/DX2                !
 ! D45   D(11,10,17,44)        -69.7523         estimate D2E/DX2                !
 ! D46   D(38,10,17,18)        168.5194         estimate D2E/DX2                !
 ! D47   D(38,10,17,27)        -69.7308         estimate D2E/DX2                !
 ! D48   D(38,10,17,44)         47.1108         estimate D2E/DX2                !
 ! D49   D(10,11,12,13)       -176.9697         estimate D2E/DX2                !
 ! D50   D(10,11,12,39)          2.7301         estimate D2E/DX2                !
 ! D51   D(16,11,12,13)         -0.0331         estimate D2E/DX2                !
 ! D52   D(16,11,12,39)        179.6667         estimate D2E/DX2                !
 ! D53   D(10,11,16,15)        176.628          estimate D2E/DX2                !
 ! D54   D(10,11,16,43)         -2.7257         estimate D2E/DX2                !
 ! D55   D(12,11,16,15)         -0.3695         estimate D2E/DX2                !
 ! D56   D(12,11,16,43)       -179.7232         estimate D2E/DX2                !
 ! D57   D(11,12,13,14)          0.4441         estimate D2E/DX2                !
 ! D58   D(11,12,13,40)        179.8505         estimate D2E/DX2                !
 ! D59   D(39,12,13,14)       -179.2553         estimate D2E/DX2                !
 ! D60   D(39,12,13,40)          0.1512         estimate D2E/DX2                !
 ! D61   D(12,13,14,15)         -0.4512         estimate D2E/DX2                !
 ! D62   D(12,13,14,41)        179.1038         estimate D2E/DX2                !
 ! D63   D(40,13,14,15)       -179.857          estimate D2E/DX2                !
 ! D64   D(40,13,14,41)         -0.302          estimate D2E/DX2                !
 ! D65   D(13,14,15,16)          0.05           estimate D2E/DX2                !
 ! D66   D(13,14,15,42)        179.1674         estimate D2E/DX2                !
 ! D67   D(41,14,15,16)       -179.5038         estimate D2E/DX2                !
 ! D68   D(41,14,15,42)         -0.3863         estimate D2E/DX2                !
 ! D69   D(14,15,16,11)          0.3628         estimate D2E/DX2                !
 ! D70   D(14,15,16,43)        179.6947         estimate D2E/DX2                !
 ! D71   D(42,15,16,11)       -178.7545         estimate D2E/DX2                !
 ! D72   D(42,15,16,43)          0.5775         estimate D2E/DX2                !
 ! D73   D(10,17,18,19)       -106.8946         estimate D2E/DX2                !
 ! D74   D(27,17,18,19)        133.4955         estimate D2E/DX2                !
 ! D75   D(44,17,18,19)         10.6648         estimate D2E/DX2                !
 ! D76   D(10,17,27,28)        -80.4954         estimate D2E/DX2                !
 ! D77   D(10,17,27,32)         96.2652         estimate D2E/DX2                !
 ! D78   D(18,17,27,28)         42.0263         estimate D2E/DX2                !
 ! D79   D(18,17,27,32)       -141.2131         estimate D2E/DX2                !
 ! D80   D(44,17,27,28)        165.869          estimate D2E/DX2                !
 ! D81   D(44,17,27,32)        -17.3704         estimate D2E/DX2                !
 ! D82   D(17,18,19,20)        178.3841         estimate D2E/DX2                !
 ! D83   D(17,18,19,45)         -2.2296         estimate D2E/DX2                !
 ! D84   D(18,19,20,21)         -4.9011         estimate D2E/DX2                !
 ! D85   D(18,19,20,25)        175.6952         estimate D2E/DX2                !
 ! D86   D(45,19,20,21)        175.6752         estimate D2E/DX2                !
 ! D87   D(45,19,20,25)         -3.7285         estimate D2E/DX2                !
 ! D88   D(19,20,21,22)       -179.0342         estimate D2E/DX2                !
 ! D89   D(19,20,21,46)          0.7451         estimate D2E/DX2                !
 ! D90   D(25,20,21,22)          0.3579         estimate D2E/DX2                !
 ! D91   D(25,20,21,46)       -179.8628         estimate D2E/DX2                !
 ! D92   D(19,20,25,24)        178.8033         estimate D2E/DX2                !
 ! D93   D(19,20,25,26)         -1.6993         estimate D2E/DX2                !
 ! D94   D(21,20,25,24)         -0.5999         estimate D2E/DX2                !
 ! D95   D(21,20,25,26)        178.8974         estimate D2E/DX2                !
 ! D96   D(20,21,22,23)          0.0817         estimate D2E/DX2                !
 ! D97   D(20,21,22,47)        179.8252         estimate D2E/DX2                !
 ! D98   D(46,21,22,23)       -179.6896         estimate D2E/DX2                !
 ! D99   D(46,21,22,47)          0.0539         estimate D2E/DX2                !
 ! D100  D(21,22,23,24)         -0.2408         estimate D2E/DX2                !
 ! D101  D(21,22,23,48)        179.7376         estimate D2E/DX2                !
 ! D102  D(47,22,23,24)       -179.9867         estimate D2E/DX2                !
 ! D103  D(47,22,23,48)         -0.0083         estimate D2E/DX2                !
 ! D104  D(22,23,24,25)         -0.0456         estimate D2E/DX2                !
 ! D105  D(22,23,24,49)        179.9961         estimate D2E/DX2                !
 ! D106  D(48,23,24,25)        179.9761         estimate D2E/DX2                !
 ! D107  D(48,23,24,49)          0.0178         estimate D2E/DX2                !
 ! D108  D(23,24,25,20)          0.4541         estimate D2E/DX2                !
 ! D109  D(23,24,25,26)       -179.0573         estimate D2E/DX2                !
 ! D110  D(49,24,25,20)       -179.5862         estimate D2E/DX2                !
 ! D111  D(49,24,25,26)          0.9024         estimate D2E/DX2                !
 ! D112  D(17,27,28,29)        176.5038         estimate D2E/DX2                !
 ! D113  D(17,27,28,50)         -2.8272         estimate D2E/DX2                !
 ! D114  D(32,27,28,29)         -0.333          estimate D2E/DX2                !
 ! D115  D(32,27,28,50)       -179.664          estimate D2E/DX2                !
 ! D116  D(17,27,32,31)       -176.808          estimate D2E/DX2                !
 ! D117  D(17,27,32,54)          2.8523         estimate D2E/DX2                !
 ! D118  D(28,27,32,31)         -0.0359         estimate D2E/DX2                !
 ! D119  D(28,27,32,54)        179.6243         estimate D2E/DX2                !
 ! D120  D(27,28,29,30)          0.3206         estimate D2E/DX2                !
 ! D121  D(27,28,29,51)       -178.773          estimate D2E/DX2                !
 ! D122  D(50,28,29,30)        179.6289         estimate D2E/DX2                !
 ! D123  D(50,28,29,51)          0.5352         estimate D2E/DX2                !
 ! D124  D(28,29,30,31)          0.0636         estimate D2E/DX2                !
 ! D125  D(28,29,30,52)       -179.4728         estimate D2E/DX2                !
 ! D126  D(51,29,30,31)        179.1577         estimate D2E/DX2                !
 ! D127  D(51,29,30,52)         -0.3787         estimate D2E/DX2                !
 ! D128  D(29,30,31,32)         -0.4312         estimate D2E/DX2                !
 ! D129  D(29,30,31,53)       -179.8176         estimate D2E/DX2                !
 ! D130  D(52,30,31,32)        179.1065         estimate D2E/DX2                !
 ! D131  D(52,30,31,53)         -0.2799         estimate D2E/DX2                !
 ! D132  D(30,31,32,27)          0.4186         estimate D2E/DX2                !
 ! D133  D(30,31,32,54)       -179.2411         estimate D2E/DX2                !
 ! D134  D(53,31,32,27)        179.8059         estimate D2E/DX2                !
 ! D135  D(53,31,32,54)          0.1462         estimate D2E/DX2                !
 --------------------------------------------------------------------------------
 Trust Radius=3.00D-01 FncErr=1.00D-07 GrdErr=1.00D-06 EigMax=2.50D+02 EigMin=1.00D-04
 Number of steps in this run=    294 maximum allowed number of steps=    324.
 GradGradGradGradGradGradGradGradGradGradGradGradGradGradGradGradGradGrad

 Leave Link  103 at Wed Jul 31 21:37:32 2024, MaxMem= 13421772800 cpu:               0.2 elap:               0.0
 (Enter /public/software/apps/Gaussian/g16/l202.exe)
 Symmetry turned off by external request.
 Stoichiometry    C28H22N2O2(2-)
 Framework group  C1[X(C28H22N2O2)]
 Deg. of freedom   156
 Full point group                 C1      NOp   1
                          Input orientation:                          
 ---------------------------------------------------------------------
 Center     Atomic      Atomic             Coordinates (Angstroms)
 Number     Number       Type             X           Y           Z
 ---------------------------------------------------------------------
      1          8           0        5.395467    0.910946    0.288057
      2          6           0        5.023143   -0.273379    0.106129
      3          6           0        5.956248   -1.367266    0.149141
      4          6           0        5.586664   -2.665309   -0.061262
      5          6           0        4.256405   -2.999771   -0.333149
      6          6           0        3.318523   -1.994205   -0.382546
      7          6           0        3.653586   -0.657295   -0.171291
      8          6           0        2.649588    0.359393   -0.214052
      9          7           0        1.428270    0.154779   -0.528614
     10          6           0        0.527369    1.259011   -0.499266
     11          6           0       -0.299499    1.304731   -1.750506
     12          6           0       -0.605751    2.507291   -2.371233
     13          6           0       -1.421453    2.533990   -3.488920
     14          6           0       -1.947111    1.357097   -3.992047
     15          6           0       -1.644999    0.153143   -3.377083
     16          6           0       -0.824111    0.125523   -2.266399
     17          6           0       -0.476712    1.175051    0.726022
     18          7           0       -1.427373    0.124880    0.567996
     19          6           0       -2.634467    0.436159    0.287325
     20          6           0       -3.682769   -0.510820    0.068705
     21          6           0       -3.411786   -1.878537    0.053322
     22          6           0       -4.393148   -2.815921   -0.173547
     23          6           0       -5.702252   -2.378081   -0.396974
     24          6           0       -6.009662   -1.047241   -0.386813
     25          6           0       -5.029302   -0.021710   -0.149492
     26          8           0       -5.345310    1.192382   -0.128973
     27          6           0        0.349478    0.965235    1.960885
     28          6           0        0.811390   -0.309876    2.265216
     29          6           0        1.632939   -0.513184    3.356931
     30          6           0        1.999023    0.552163    4.163216
     31          6           0        1.536426    1.822944    3.870732
     32          6           0        0.719485    2.027959    2.772552
     33          1           0        6.992629   -1.121203    0.359406
     34          1           0        6.335863   -3.454939   -0.017368
     35          1           0        3.976872   -4.034730   -0.497176
     36          1           0        2.279329   -2.215383   -0.585967
     37          1           0        3.012819    1.369607    0.040225
     38          1           0        1.066164    2.224977   -0.366565
     39          1           0       -0.206401    3.432504   -1.973873
     40          1           0       -1.655913    3.479194   -3.964109
     41          1           0       -2.597014    1.380491   -4.857990
     42          1           0       -2.065044   -0.767245   -3.759630
     43          1           0       -0.580479   -0.798955   -1.770237
     44          1           0       -0.969984    2.173052    0.765392
     45          1           0       -2.948488    1.490522    0.204582
     46          1           0       -2.387152   -2.179977    0.225007
     47          1           0       -4.163312   -3.875785   -0.184674
     48          1           0       -6.485116   -3.112712   -0.581770
     49          1           0       -7.030148   -0.720433   -0.561786
     50          1           0        0.519379   -1.122896    1.621891
     51          1           0        2.003920   -1.505569    3.574929
     52          1           0        2.649953    0.394911    5.014292
     53          1           0        1.821472    2.660965    4.495702
     54          1           0        0.369854    3.026615    2.540518
 ---------------------------------------------------------------------
 Rotational constants (GHZ):           0.2111295           0.0834330           0.0780614
 Leave Link  202 at Wed Jul 31 21:37:32 2024, MaxMem= 13421772800 cpu:               1.0 elap:               0.0
 (Enter /public/software/apps/Gaussian/g16/l301.exe)
 Standard basis: def2SVPP (5D, 7F)
 Ernie: Thresh=  0.10000D-02 Tol=  0.10000D-05 Strict=F.
   492 basis functions,   888 primitive gaussians,   524 cartesian basis functions
   111 alpha electrons      111 beta electrons
       nuclear repulsion energy      2965.9280088918 Hartrees.
 IExCor=  402 DFT=T Ex+Corr=B3LYP ExCW=0 ScaHFX=  0.200000
 ScaDFX=  0.800000  0.720000  1.000000  0.810000 ScalE2=  1.000000  1.000000
 IRadAn=      5 IRanWt=     -1 IRanGd=            0 ICorTp=0 IEmpDi=141
 NAtoms=   54 NActive=   54 NUniq=   54 SFac= 1.00D+00 NAtFMM=   60 NAOKFM=F Big=F
 Integral buffers will be    131072 words long.
 Raffenetti 2 integral format.
 Two-electron integral symmetry is turned off.
 R6Disp:  Grimme-D3(BJ) Dispersion energy=       -0.1345594289 Hartrees.
 Nuclear repulsion after empirical dispersion term =     2965.7934494629 Hartrees.
 Leave Link  301 at Wed Jul 31 21:37:32 2024, MaxMem= 13421772800 cpu:               0.5 elap:               0.0
 (Enter /public/software/apps/Gaussian/g16/l302.exe)
 NPDir=0 NMtPBC=     1 NCelOv=     1 NCel=       1 NClECP=     1 NCelD=      1
         NCelK=      1 NCelE2=     1 NClLst=     1 CellRange=     0.0.
 One-electron integrals computed using PRISM.
   1 Symmetry operations used in ECPInt.
 ECPInt:  NShTT=   27966 NPrTT=  112110 LenC2=   24104 LenP2D=   61830.
 LDataN:  DoStor=T MaxTD1= 4 Len=   56
 NBasis=   492 RedAO= T EigKep=  2.50D-04  NBF=   492
 NBsUse=   492 1.00D-06 EigRej= -1.00D+00 NBFU=   492
 Precomputing XC quadrature grid using
 IXCGrd= 4 IRadAn=           5 IRanWt=          -1 IRanGd=           0 AccXCQ= 0.00D+00.
 Generated NRdTot=       0 NPtTot=           0 NUsed=           0 NTot=          32
 NSgBfM=   516   514   514   516   516 MxSgAt=    54 MxSgA2=    54.
 Leave Link  302 at Wed Jul 31 21:37:32 2024, MaxMem= 13421772800 cpu:              11.9 elap:               0.4
 (Enter /public/software/apps/Gaussian/g16/l303.exe)
 DipDrv:  MaxL=1.
 Leave Link  303 at Wed Jul 31 21:37:32 2024, MaxMem= 13421772800 cpu:               1.3 elap:               0.1
 (Enter /public/software/apps/Gaussian/g16/l401.exe)
 ExpMin= 1.22D-01 ExpMax= 2.27D+03 ExpMxC= 3.41D+02 IAcc=3 IRadAn=         5 AccDes= 0.00D+00
 Harris functional with IExCor=  402 and IRadAn=       5 diagonalized for initial guess.
 HarFok:  IExCor=  402 AccDes= 0.00D+00 IRadAn=         5 IDoV= 1 UseB2=F ITyADJ=14
 ICtDFT=  3500011 ScaDFX=  1.000000  1.000000  1.000000  1.000000
 FoFCou: FMM=F IPFlag=           0 FMFlag=      100000 FMFlg1=           0
         NFxFlg=           0 DoJE=T BraDBF=F KetDBF=T FulRan=T
         wScrn=  0.000000 ICntrl=       500 IOpCl=  0 I1Cent=   200000004 NGrid=           0
         NMat0=    1 NMatS0=      1 NMatT0=    0 NMatD0=    1 NMtDS0=    0 NMtDT0=    0
 Symmetry not used in FoFCou.
 Harris En= -1339.68736551209    
 JPrj=0 DoOrth=F DoCkMO=F.
 Leave Link  401 at Wed Jul 31 21:37:33 2024, MaxMem= 13421772800 cpu:              31.3 elap:               1.0
 (Enter /public/software/apps/Gaussian/g16/l502.exe)
 Two-electron integral symmetry not used.
 Closed shell SCF:
 Using DIIS extrapolation, IDIIS=  1040.
 NGot= 13421772800 LenX= 13421201178 LenY= 13420926078
 Requested convergence on RMS density matrix=1.00D-08 within 128 cycles.
 Requested convergence on MAX density matrix=1.00D-06.
 Requested convergence on             energy=1.00D-06.
 No special actions if energy rises.
 Fock matrices will be formed incrementally for  20 cycles.
 Integral accuracy reduced to 1.0D-05 until final iterations.

 Cycle   1  Pass 0  IDiag  1:
 FoFJK:  IHMeth= 1 ICntrl=       0 DoSepK=F KAlg= 0 I1Cent=           0 FoldK=F
 IRaf= 780000000 NMat=       1 IRICut=       1 DoRegI=T DoRafI=F ISym2E= 0 IDoP0=0 IntGTp=1.
 FoFCou: FMM=F IPFlag=           0 FMFlag=      100000 FMFlg1=           0
         NFxFlg=           0 DoJE=F BraDBF=F KetDBF=F FulRan=T
         wScrn=  0.000000 ICntrl=         0 IOpCl=  0 I1Cent=           0 NGrid=           0
         NMat0=    1 NMatS0=      1 NMatT0=    0 NMatD0=    1 NMtDS0=    0 NMtDT0=    0
 Symmetry not used in FoFCou.
 E= -1338.45689752665    
 DIIS: error= 3.62D-02 at cycle   1 NSaved=   1.
 NSaved= 1 IEnMin= 1 EnMin= -1338.45689752665     IErMin= 1 ErrMin= 3.62D-02
 ErrMax= 3.62D-02  0.00D+00 EMaxC= 1.00D-01 BMatC= 7.28D-01 BMatP= 7.28D-01
 IDIUse=3 WtCom= 6.38D-01 WtEn= 3.62D-01
 Coeff-Com:  0.100D+01
 Coeff-En:   0.100D+01
 Coeff:      0.100D+01
 Gap=     0.107 Goal=   None    Shift=    0.000
 GapD=    0.107 DampG=1.000 DampE=0.500 DampFc=0.5000 IDamp=-1.
 Damping current iteration by 5.00D-01
 RMSDP=8.32D-03 MaxDP=4.01D-01              OVMax= 2.92D-01

 Cycle   2  Pass 0  IDiag  1:
 RMSU=  4.08D-03    CP:  9.58D-01
 E= -1338.79824285276     Delta-E=       -0.341345326113 Rises=F Damp=T
 DIIS: error= 1.26D-02 at cycle   2 NSaved=   2.
 NSaved= 2 IEnMin= 2 EnMin= -1338.79824285276     IErMin= 2 ErrMin= 1.26D-02
 ErrMax= 1.26D-02  0.00D+00 EMaxC= 1.00D-01 BMatC= 5.52D-02 BMatP= 7.28D-01
 IDIUse=3 WtCom= 8.74D-01 WtEn= 1.26D-01
 Coeff-Com:  0.113D+00 0.887D+00
 Coeff-En:   0.153D+00 0.847D+00
 Coeff:      0.118D+00 0.882D+00
 Gap=     0.241 Goal=   None    Shift=    0.000
 RMSDP=2.68D-03 MaxDP=1.92D-01 DE=-3.41D-01 OVMax= 1.95D-01

 Cycle   3  Pass 0  IDiag  1:
 RMSU=  2.12D-03    CP:  9.18D-01  6.49D-01
 E= -1339.21769682973     Delta-E=       -0.419453976971 Rises=F Damp=F
 DIIS: error= 2.26D-02 at cycle   3 NSaved=   3.
 NSaved= 3 IEnMin= 3 EnMin= -1339.21769682973     IErMin= 2 ErrMin= 1.26D-02
 ErrMax= 2.26D-02  0.00D+00 EMaxC= 1.00D-01 BMatC= 8.16D-02 BMatP= 5.52D-02
 IDIUse=2 WtCom= 0.00D+00 WtEn= 1.00D+00
 Coeff-En:   0.000D+00 0.000D+00 0.100D+01
 Coeff:      0.000D+00 0.000D+00 0.100D+01
 Gap=     0.112 Goal=   None    Shift=    0.000
 RMSDP=3.31D-03 MaxDP=2.81D-01 DE=-4.19D-01 OVMax= 3.24D-01

 Cycle   4  Pass 0  IDiag  1:
 RMSU=  2.15D-03    CP:  9.37D-01  1.10D+00  1.98D-01
 E= -1338.85272639885     Delta-E=        0.364970430886 Rises=F Damp=F
 DIIS: error= 5.40D-02 at cycle   4 NSaved=   4.
 NSaved= 4 IEnMin= 3 EnMin= -1339.21769682973     IErMin= 2 ErrMin= 1.26D-02
 ErrMax= 5.40D-02  0.00D+00 EMaxC= 1.00D-01 BMatC= 5.03D-01 BMatP= 5.52D-02
 IDIUse=2 WtCom= 0.00D+00 WtEn= 1.00D+00
 Coeff-En:   0.000D+00 0.000D+00 0.806D+00 0.194D+00
 Coeff:      0.000D+00 0.000D+00 0.806D+00 0.194D+00
 Gap=     0.126 Goal=   None    Shift=    0.000
 RMSDP=1.99D-03 MaxDP=1.80D-01 DE= 3.65D-01 OVMax= 1.63D-01

 Cycle   5  Pass 0  IDiag  1:
 RMSU=  3.16D-04    CP:  9.25D-01  8.06D-01  6.80D-01  4.59D-01
 E= -1339.25589807517     Delta-E=       -0.403171676324 Rises=F Damp=F
 DIIS: error= 1.54D-02 at cycle   5 NSaved=   5.
 NSaved= 5 IEnMin= 5 EnMin= -1339.25589807517     IErMin= 2 ErrMin= 1.26D-02
 ErrMax= 1.54D-02  0.00D+00 EMaxC= 1.00D-01 BMatC= 3.87D-02 BMatP= 5.52D-02
 IDIUse=3 WtCom= 8.46D-01 WtEn= 1.54D-01
 Coeff-Com:  0.378D-02 0.274D-01 0.366D+00-0.365D-01 0.639D+00
 Coeff-En:   0.000D+00 0.000D+00 0.359D+00 0.000D+00 0.641D+00
 Coeff:      0.319D-02 0.232D-01 0.365D+00-0.308D-01 0.639D+00
 Gap=     0.124 Goal=   None    Shift=    0.000
 RMSDP=6.24D-04 MaxDP=4.93D-02 DE=-4.03D-01 OVMax= 4.99D-02

 Cycle   6  Pass 0  IDiag  1:
 RMSU=  1.44D-04    CP:  9.20D-01  7.30D-01  8.31D-01  2.79D-01  6.91D-01
 E= -1339.28823532259     Delta-E=       -0.032337247421 Rises=F Damp=F
 DIIS: error= 9.96D-04 at cycle   6 NSaved=   6.
 NSaved= 6 IEnMin= 6 EnMin= -1339.28823532259     IErMin= 6 ErrMin= 9.96D-04
 ErrMax= 9.96D-04  0.00D+00 EMaxC= 1.00D-01 BMatC= 8.81D-04 BMatP= 3.87D-02
 IDIUse=3 WtCom= 9.90D-01 WtEn= 9.96D-03
 Coeff-Com: -0.954D-03 0.924D-02 0.178D+00-0.566D-01 0.463D+00 0.407D+00
 Coeff-En:   0.000D+00 0.000D+00 0.000D+00 0.000D+00 0.000D+00 0.100D+01
 Coeff:     -0.945D-03 0.915D-02 0.176D+00-0.560D-01 0.459D+00 0.413D+00
 Gap=     0.124 Goal=   None    Shift=    0.000
 RMSDP=9.86D-05 MaxDP=4.74D-03 DE=-3.23D-02 OVMax= 8.92D-03

 Cycle   7  Pass 0  IDiag  1:
 RMSU=  4.33D-05    CP:  9.21D-01  7.35D-01  8.28D-01  2.79D-01  7.89D-01
                    CP:  4.48D-01
 E= -1339.28907649208     Delta-E=       -0.000841169483 Rises=F Damp=F
 DIIS: error= 3.10D-04 at cycle   7 NSaved=   7.
 NSaved= 7 IEnMin= 7 EnMin= -1339.28907649208     IErMin= 7 ErrMin= 3.10D-04
 ErrMax= 3.10D-04  0.00D+00 EMaxC= 1.00D-01 BMatC= 6.10D-05 BMatP= 8.81D-04
 IDIUse=3 WtCom= 9.97D-01 WtEn= 3.10D-03
 Coeff-Com: -0.686D-03 0.365D-02 0.806D-01-0.325D-01 0.230D+00 0.257D+00
 Coeff-Com:  0.462D+00
 Coeff-En:   0.000D+00 0.000D+00 0.000D+00 0.000D+00 0.000D+00 0.212D-01
 Coeff-En:   0.979D+00
 Coeff:     -0.684D-03 0.364D-02 0.803D-01-0.324D-01 0.229D+00 0.256D+00
 Coeff:      0.464D+00
 Gap=     0.123 Goal=   None    Shift=    0.000
 RMSDP=2.96D-05 MaxDP=1.13D-03 DE=-8.41D-04 OVMax= 2.68D-03

 Cycle   8  Pass 0  IDiag  1:
 RMSU=  1.58D-05    CP:  9.21D-01  7.34D-01  8.28D-01  2.80D-01  7.90D-01
                    CP:  5.25D-01  4.94D-01
 E= -1339.28913526254     Delta-E=       -0.000058770462 Rises=F Damp=F
 DIIS: error= 1.31D-04 at cycle   8 NSaved=   8.
 NSaved= 8 IEnMin= 8 EnMin= -1339.28913526254     IErMin= 8 ErrMin= 1.31D-04
 ErrMax= 1.31D-04  0.00D+00 EMaxC= 1.00D-01 BMatC= 8.56D-06 BMatP= 6.10D-05
 IDIUse=3 WtCom= 9.99D-01 WtEn= 1.31D-03
 Coeff-Com: -0.397D-04 0.189D-04 0.230D-01-0.102D-01 0.638D-01 0.840D-01
 Coeff-Com:  0.297D+00 0.543D+00
 Coeff-En:   0.000D+00 0.000D+00 0.000D+00 0.000D+00 0.000D+00 0.000D+00
 Coeff-En:   0.789D-01 0.921D+00
 Coeff:     -0.396D-04 0.189D-04 0.230D-01-0.101D-01 0.638D-01 0.838D-01
 Coeff:      0.297D+00 0.543D+00
 Gap=     0.124 Goal=   None    Shift=    0.000
 RMSDP=1.00D-05 MaxDP=2.62D-04 DE=-5.88D-05 OVMax= 9.32D-04

 Cycle   9  Pass 0  IDiag  1:
 RMSU=  4.98D-06    CP:  9.21D-01  7.33D-01  8.30D-01  2.79D-01  7.86D-01
                    CP:  5.15D-01  6.03D-01  6.70D-01
 E= -1339.28914728439     Delta-E=       -0.000012021850 Rises=F Damp=F
 DIIS: error= 4.12D-05 at cycle   9 NSaved=   9.
 NSaved= 9 IEnMin= 9 EnMin= -1339.28914728439     IErMin= 9 ErrMin= 4.12D-05
 ErrMax= 4.12D-05  0.00D+00 EMaxC= 1.00D-01 BMatC= 9.29D-07 BMatP= 8.56D-06
 IDIUse=1 WtCom= 1.00D+00 WtEn= 0.00D+00
 Coeff-Com:  0.112D-03-0.546D-03 0.441D-02-0.207D-02 0.965D-02 0.186D-01
 Coeff-Com:  0.137D+00 0.341D+00 0.492D+00
 Coeff:      0.112D-03-0.546D-03 0.441D-02-0.207D-02 0.965D-02 0.186D-01
 Coeff:      0.137D+00 0.341D+00 0.492D+00
 Gap=     0.124 Goal=   None    Shift=    0.000
 RMSDP=3.21D-06 MaxDP=1.72D-04 DE=-1.20D-05 OVMax= 2.49D-04

 Initial convergence to 1.0D-05 achieved.  Increase integral accuracy.
 Cycle  10  Pass 1  IDiag  1:
 E= -1339.28917275348     Delta-E=       -0.000025469095 Rises=F Damp=F
 DIIS: error= 1.99D-04 at cycle   1 NSaved=   1.
 NSaved= 1 IEnMin= 1 EnMin= -1339.28917275348     IErMin= 1 ErrMin= 1.99D-04
 ErrMax= 1.99D-04  0.00D+00 EMaxC= 1.00D-01 BMatC= 1.11D-05 BMatP= 1.11D-05
 IDIUse=3 WtCom= 9.98D-01 WtEn= 1.99D-03
 Coeff-Com:  0.100D+01
 Coeff-En:   0.100D+01
 Coeff:      0.100D+01
 Gap=     0.124 Goal=   None    Shift=    0.000
 RMSDP=3.21D-06 MaxDP=1.72D-04 DE=-2.55D-05 OVMax= 7.07D-04

 Cycle  11  Pass 1  IDiag  1:
 RMSU=  2.22D-04    CP:  1.00D+00
 E= -1339.28918616068     Delta-E=       -0.000013407192 Rises=F Damp=F
 DIIS: error= 9.59D-06 at cycle   2 NSaved=   2.
 NSaved= 2 IEnMin= 2 EnMin= -1339.28918616068     IErMin= 2 ErrMin= 9.59D-06
 ErrMax= 9.59D-06  0.00D+00 EMaxC= 1.00D-01 BMatC= 3.63D-08 BMatP= 1.11D-05
 IDIUse=1 WtCom= 1.00D+00 WtEn= 0.00D+00
 Coeff-Com: -0.581D-02 0.101D+01
 Coeff:     -0.581D-02 0.101D+01
 Gap=     0.124 Goal=   None    Shift=    0.000
 RMSDP=3.62D-06 MaxDP=8.49D-05 DE=-1.34D-05 OVMax= 1.42D-04

 Cycle  12  Pass 1  IDiag  1:
 RMSU=  1.94D-06    CP:  1.00D+00  1.01D+00
 E= -1339.28918604914     Delta-E=        0.000000111535 Rises=F Damp=F
 DIIS: error= 2.02D-05 at cycle   3 NSaved=   3.
 NSaved= 3 IEnMin= 2 EnMin= -1339.28918616068     IErMin= 2 ErrMin= 9.59D-06
 ErrMax= 2.02D-05  0.00D+00 EMaxC= 1.00D-01 BMatC= 1.36D-07 BMatP= 3.63D-08
 IDIUse=1 WtCom= 1.00D+00 WtEn= 0.00D+00
 Coeff-Com: -0.695D-02 0.670D+00 0.337D+00
 Coeff:     -0.695D-02 0.670D+00 0.337D+00
 Gap=     0.124 Goal=   None    Shift=    0.000
 RMSDP=1.13D-06 MaxDP=6.02D-05 DE= 1.12D-07 OVMax= 1.00D-04

 Cycle  13  Pass 1  IDiag  1:
 RMSU=  5.78D-07    CP:  1.00D+00  1.01D+00  5.00D-01
 E= -1339.28918620241     Delta-E=       -0.000000153274 Rises=F Damp=F
 DIIS: error= 1.82D-06 at cycle   4 NSaved=   4.
 NSaved= 4 IEnMin= 4 EnMin= -1339.28918620241     IErMin= 4 ErrMin= 1.82D-06
 ErrMax= 1.82D-06  0.00D+00 EMaxC= 1.00D-01 BMatC= 1.81D-09 BMatP= 3.63D-08
 IDIUse=1 WtCom= 1.00D+00 WtEn= 0.00D+00
 Coeff-Com: -0.382D-02 0.354D+00 0.192D+00 0.458D+00
 Coeff:     -0.382D-02 0.354D+00 0.192D+00 0.458D+00
 Gap=     0.124 Goal=   None    Shift=    0.000
 RMSDP=1.53D-07 MaxDP=9.09D-06 DE=-1.53D-07 OVMax= 9.48D-06

 Cycle  14  Pass 1  IDiag  1:
 RMSU=  1.38D-07    CP:  1.00D+00  1.01D+00  5.12D-01  9.03D-01
 E= -1339.28918620393     Delta-E=       -0.000000001513 Rises=F Damp=F
 DIIS: error= 4.84D-07 at cycle   5 NSaved=   5.
 NSaved= 5 IEnMin= 5 EnMin= -1339.28918620393     IErMin= 5 ErrMin= 4.84D-07
 ErrMax= 4.84D-07  0.00D+00 EMaxC= 1.00D-01 BMatC= 1.79D-10 BMatP= 1.81D-09
 IDIUse=1 WtCom= 1.00D+00 WtEn= 0.00D+00
 Coeff-Com: -0.136D-02 0.123D+00 0.698D-01 0.270D+00 0.539D+00
 Coeff:     -0.136D-02 0.123D+00 0.698D-01 0.270D+00 0.539D+00
 Gap=     0.124 Goal=   None    Shift=    0.000
 RMSDP=5.55D-08 MaxDP=2.48D-06 DE=-1.51D-09 OVMax= 5.17D-06

 Cycle  15  Pass 1  IDiag  1:
 RMSU=  4.15D-08    CP:  1.00D+00  1.01D+00  5.12D-01  9.29D-01  7.65D-01
 E= -1339.28918620405     Delta-E=       -0.000000000122 Rises=F Damp=F
 DIIS: error= 2.18D-07 at cycle   6 NSaved=   6.
 NSaved= 6 IEnMin= 6 EnMin= -1339.28918620405     IErMin= 6 ErrMin= 2.18D-07
 ErrMax= 2.18D-07  0.00D+00 EMaxC= 1.00D-01 BMatC= 4.69D-11 BMatP= 1.79D-10
 IDIUse=1 WtCom= 1.00D+00 WtEn= 0.00D+00
 Coeff-Com: -0.224D-03 0.189D-01 0.130D-01 0.105D+00 0.376D+00 0.488D+00
 Coeff:     -0.224D-03 0.189D-01 0.130D-01 0.105D+00 0.376D+00 0.488D+00
 Gap=     0.124 Goal=   None    Shift=    0.000
 RMSDP=2.36D-08 MaxDP=1.14D-06 DE=-1.22D-10 OVMax= 2.31D-06

 Cycle  16  Pass 1  IDiag  1:
 RMSU=  1.51D-08    CP:  1.00D+00  1.01D+00  5.11D-01  9.34D-01  8.47D-01
                    CP:  6.74D-01
 E= -1339.28918620410     Delta-E=       -0.000000000046 Rises=F Damp=F
 DIIS: error= 9.27D-08 at cycle   7 NSaved=   7.
 NSaved= 7 IEnMin= 7 EnMin= -1339.28918620410     IErMin= 7 ErrMin= 9.27D-08
 ErrMax= 9.27D-08  0.00D+00 EMaxC= 1.00D-01 BMatC= 5.21D-12 BMatP= 4.69D-11
 IDIUse=1 WtCom= 1.00D+00 WtEn= 0.00D+00
 Coeff-Com: -0.529D-05-0.500D-03 0.124D-02 0.373D-01 0.180D+00 0.319D+00
 Coeff-Com:  0.463D+00
 Coeff:     -0.529D-05-0.500D-03 0.124D-02 0.373D-01 0.180D+00 0.319D+00
 Coeff:      0.463D+00
 Gap=     0.124 Goal=   None    Shift=    0.000
 RMSDP=1.03D-08 MaxDP=3.93D-07 DE=-4.64D-11 OVMax= 7.91D-07

 Cycle  17  Pass 1  IDiag  1:
 RMSU=  5.89D-09    CP:  1.00D+00  1.01D+00  5.13D-01  9.35D-01  8.30D-01
                    CP:  6.76D-01  5.48D-01
 E= -1339.28918620412     Delta-E=       -0.000000000028 Rises=F Damp=F
 DIIS: error= 5.86D-08 at cycle   8 NSaved=   8.
 NSaved= 8 IEnMin= 8 EnMin= -1339.28918620412     IErMin= 8 ErrMin= 5.86D-08
 ErrMax= 5.86D-08  0.00D+00 EMaxC= 1.00D-01 BMatC= 6.72D-13 BMatP= 5.21D-12
 IDIUse=1 WtCom= 1.00D+00 WtEn= 0.00D+00
 Coeff-Com:  0.260D-04-0.284D-02-0.722D-03 0.136D-01 0.792D-01 0.163D+00
 Coeff-Com:  0.298D+00 0.450D+00
 Coeff:      0.260D-04-0.284D-02-0.722D-03 0.136D-01 0.792D-01 0.163D+00
 Coeff:      0.298D+00 0.450D+00
 Gap=     0.124 Goal=   None    Shift=    0.000
 RMSDP=3.02D-09 MaxDP=1.54D-07 DE=-2.82D-11 OVMax= 3.38D-07

 SCF Done:  E(RB3LYP) =  -1339.28918620     A.U. after   17 cycles
            NFock= 17  Conv=0.30D-08     -V/T= 2.0091
 KE= 1.327158359722D+03 PE=-9.090025434156D+03 EE= 3.457784438767D+03
 Leave Link  502 at Wed Jul 31 21:38:05 2024, MaxMem= 13421772800 cpu:            1018.9 elap:              32.0
 (Enter /public/software/apps/Gaussian/g16/l601.exe)
 Copying SCF densities to generalized density rwf, IOpCl= 0 IROHF=0.

 **********************************************************************

            Population analysis using the SCF Density.

 **********************************************************************

 Alpha  occ. eigenvalues --  -18.82770 -18.82763 -14.08268 -14.08263 -10.01107
 Alpha  occ. eigenvalues --  -10.01104 -10.00471 -10.00463 -10.00271 -10.00264
 Alpha  occ. eigenvalues --   -9.99890  -9.99885  -9.99791  -9.99784  -9.99743
 Alpha  occ. eigenvalues --   -9.99731  -9.99578  -9.99574  -9.99163  -9.99155
 Alpha  occ. eigenvalues --   -9.98543  -9.98538  -9.97104  -9.97096  -9.95804
 Alpha  occ. eigenvalues --   -9.95792  -9.95166  -9.95156  -9.94420  -9.94411
 Alpha  occ. eigenvalues --   -9.93711  -9.93702  -0.73331  -0.73303  -0.71660
 Alpha  occ. eigenvalues --   -0.68724  -0.66769  -0.66348  -0.61176  -0.60902
 Alpha  occ. eigenvalues --   -0.58301  -0.56932  -0.55626  -0.55618  -0.53046
 Alpha  occ. eigenvalues --   -0.52618  -0.49923  -0.48754  -0.48039  -0.44920
 Alpha  occ. eigenvalues --   -0.42548  -0.41937  -0.41153  -0.40682  -0.39266
 Alpha  occ. eigenvalues --   -0.37731  -0.35695  -0.35409  -0.33755  -0.33314
 Alpha  occ. eigenvalues --   -0.33167  -0.31497  -0.29637  -0.28448  -0.27869
 Alpha  occ. eigenvalues --   -0.27532  -0.27077  -0.26885  -0.26136  -0.25074
 Alpha  occ. eigenvalues --   -0.24428  -0.24072  -0.23589  -0.23239  -0.23155
 Alpha  occ. eigenvalues --   -0.22108  -0.21632  -0.20768  -0.20012  -0.19690
 Alpha  occ. eigenvalues --   -0.19607  -0.18820  -0.17598  -0.17397  -0.17045
 Alpha  occ. eigenvalues --   -0.16858  -0.16551  -0.16545  -0.16025  -0.15851
 Alpha  occ. eigenvalues --   -0.14996  -0.13378  -0.12744  -0.12640  -0.12562
 Alpha  occ. eigenvalues --   -0.11316  -0.09290  -0.09159  -0.09151  -0.07228
 Alpha  occ. eigenvalues --   -0.06956  -0.06774  -0.05184  -0.04016  -0.02792
 Alpha  occ. eigenvalues --   -0.02617  -0.01906   0.01413   0.01466   0.04104
 Alpha  occ. eigenvalues --    0.04490
 Alpha virt. eigenvalues --    0.16857   0.17327   0.18019   0.18242   0.18786
 Alpha virt. eigenvalues --    0.19274   0.22853   0.23172   0.24728   0.25323
 Alpha virt. eigenvalues --    0.25456   0.25726   0.25753   0.27094   0.27356
 Alpha virt. eigenvalues --    0.27624   0.28165   0.28558   0.29413   0.29999
 Alpha virt. eigenvalues --    0.30480   0.30670   0.31611   0.31782   0.32286
 Alpha virt. eigenvalues --    0.33015   0.33153   0.33456   0.34701   0.36367
 Alpha virt. eigenvalues --    0.37366   0.38094   0.39410   0.40922   0.41056
 Alpha virt. eigenvalues --    0.41980   0.42106   0.43530   0.43786   0.44883
 Alpha virt. eigenvalues --    0.46629   0.47237   0.47713   0.48191   0.48350
 Alpha virt. eigenvalues --    0.48643   0.48772   0.49308   0.49429   0.50130
 Alpha virt. eigenvalues --    0.50470   0.50737   0.50852   0.51266   0.52425
 Alpha virt. eigenvalues --    0.52717   0.52983   0.53677   0.54361   0.55416
 Alpha virt. eigenvalues --    0.55504   0.57081   0.57191   0.57741   0.57952
 Alpha virt. eigenvalues --    0.58553   0.59360   0.59838   0.60245   0.60509
 Alpha virt. eigenvalues --    0.61824   0.62014   0.63411   0.63755   0.64384
 Alpha virt. eigenvalues --    0.64719   0.64854   0.65082   0.65217   0.66092
 Alpha virt. eigenvalues --    0.66508   0.66683   0.67583   0.67656   0.67901
 Alpha virt. eigenvalues --    0.68276   0.68462   0.68897   0.69466   0.69819
 Alpha virt. eigenvalues --    0.69847   0.70070   0.71177   0.71207   0.71762
 Alpha virt. eigenvalues --    0.72426   0.72654   0.73936   0.74536   0.75203
 Alpha virt. eigenvalues --    0.75626   0.75947   0.76444   0.76669   0.77030
 Alpha virt. eigenvalues --    0.77301   0.77556   0.79069   0.79644   0.79695
 Alpha virt. eigenvalues --    0.81003   0.81258   0.81859   0.82100   0.82861
 Alpha virt. eigenvalues --    0.83338   0.83863   0.84509   0.84600   0.85334
 Alpha virt. eigenvalues --    0.86024   0.86046   0.86142   0.86487   0.86890
 Alpha virt. eigenvalues --    0.87025   0.87179   0.87747   0.88092   0.88636
 Alpha virt. eigenvalues --    0.89269   0.89603   0.89619   0.90409   0.90597
 Alpha virt. eigenvalues --    0.91246   0.91670   0.91780   0.92109   0.92762
 Alpha virt. eigenvalues --    0.93357   0.93373   0.93763   0.93986   0.94212
 Alpha virt. eigenvalues --    0.94344   0.95034   0.95096   0.95265   0.95997
 Alpha virt. eigenvalues --    0.96452   0.96939   0.97485   0.97677   0.98252
 Alpha virt. eigenvalues --    0.99014   1.00065   1.00192   1.00539   1.01640
 Alpha virt. eigenvalues --    1.01784   1.02089   1.02222   1.03258   1.03620
 Alpha virt. eigenvalues --    1.04513   1.04673   1.05739   1.06028   1.07540
 Alpha virt. eigenvalues --    1.07846   1.08686   1.10126   1.11849   1.12598
 Alpha virt. eigenvalues --    1.13108   1.14302   1.16288   1.17127   1.17380
 Alpha virt. eigenvalues --    1.18305   1.18601   1.22406   1.23481   1.25358
 Alpha virt. eigenvalues --    1.26004   1.26707   1.28134   1.30542   1.30683
 Alpha virt. eigenvalues --    1.31809   1.32056   1.33003   1.33057   1.35312
 Alpha virt. eigenvalues --    1.35950   1.38294   1.38481   1.39229   1.40811
 Alpha virt. eigenvalues --    1.42580   1.44066   1.44392   1.44573   1.45210
 Alpha virt. eigenvalues --    1.47009   1.47506   1.47990   1.48123   1.49711
 Alpha virt. eigenvalues --    1.50844   1.52046   1.52498   1.54308   1.55284
 Alpha virt. eigenvalues --    1.56135   1.60045   1.61587   1.61627   1.62817
 Alpha virt. eigenvalues --    1.63370   1.63983   1.64738   1.66281   1.66371
 Alpha virt. eigenvalues --    1.67274   1.67915   1.68092   1.68537   1.69570
 Alpha virt. eigenvalues --    1.69638   1.70701   1.70714   1.71170   1.71349
 Alpha virt. eigenvalues --    1.71752   1.72002   1.73774   1.74446   1.74821
 Alpha virt. eigenvalues --    1.75920   1.78983   1.84407   1.85270   1.86019
 Alpha virt. eigenvalues --    1.87878   1.88266   1.95243   1.96501   1.96785
 Alpha virt. eigenvalues --    1.96799   1.97160   1.98131   1.98588   1.98821
 Alpha virt. eigenvalues --    1.99385   2.00827   2.03037   2.03467   2.03569
 Alpha virt. eigenvalues --    2.04438   2.04527   2.06803   2.06956   2.07078
 Alpha virt. eigenvalues --    2.08918   2.09180   2.11290   2.11780   2.13002
 Alpha virt. eigenvalues --    2.13807   2.14310   2.15577   2.16252   2.17309
 Alpha virt. eigenvalues --    2.18383   2.19093   2.19920   2.20678   2.20933
 Alpha virt. eigenvalues --    2.25123   2.26044   2.26181   2.27880   2.28410
 Alpha virt. eigenvalues --    2.29095   2.29158   2.29707   2.30157   2.30513
 Alpha virt. eigenvalues --    2.31241   2.32017   2.32242   2.33705   2.33723
 Alpha virt. eigenvalues --    2.36305   2.37232   2.40374   2.41605   2.42906
 Alpha virt. eigenvalues --    2.43026   2.44943   2.46163   2.46272   2.47740
 Alpha virt. eigenvalues --    2.48071   2.49641   2.50051   2.51109   2.51509
 Alpha virt. eigenvalues --    2.52080   2.52589   2.54589   2.54758   2.55007
 Alpha virt. eigenvalues --    2.55264   2.55695   2.57623   2.58473   2.62158
 Alpha virt. eigenvalues --    2.64440   2.65213   2.65225   2.65787   2.67139
 Alpha virt. eigenvalues --    2.67501   2.67605   2.70248   2.70446   2.73014
 Alpha virt. eigenvalues --    2.75929   2.76957   2.77004   2.81404   2.81641
 Alpha virt. eigenvalues --    2.82338   2.82363   2.83462   2.86037   2.86322
 Alpha virt. eigenvalues --    2.87401   2.90199   2.90737   2.91423   2.91689
 Alpha virt. eigenvalues --    2.92048   2.92719   2.93944   2.94720   2.94787
 Alpha virt. eigenvalues --    2.95099   3.00017   3.00073   3.00506   3.00634
 Alpha virt. eigenvalues --    3.01685   3.04740   3.05240   3.05811   3.06181
 Alpha virt. eigenvalues --    3.08282   3.11621   3.13150   3.17645   3.17672
 Alpha virt. eigenvalues --    3.23679   3.25577   3.37578   3.38438   3.38450
 Alpha virt. eigenvalues --    3.39919   3.53023   3.53782   3.58770   3.58812
 Alpha virt. eigenvalues --    3.60208   3.61241   3.70846   3.70992   3.88458
 Alpha virt. eigenvalues --    3.88477
          Condensed to atoms (all electrons):
 Mulliken charges:
               1
     1  O   -0.378051
     2  C    0.188695
     3  C   -0.196730
     4  C   -0.021083
     5  C   -0.092193
     6  C   -0.107553
     7  C   -0.024281
     8  C   -0.105819
     9  N   -0.159839
    10  C    0.090950
    11  C    0.103213
    12  C   -0.127365
    13  C   -0.041962
    14  C   -0.043006
    15  C   -0.034421
    16  C   -0.051082
    17  C    0.091109
    18  N   -0.159903
    19  C   -0.106137
    20  C   -0.024227
    21  C   -0.107626
    22  C   -0.092251
    23  C   -0.021060
    24  C   -0.196739
    25  C    0.188708
    26  O   -0.377917
    27  C    0.103594
    28  C   -0.051631
    29  C   -0.034255
    30  C   -0.043110
    31  C   -0.041786
    32  C   -0.127687
    33  H   -0.045265
    34  H   -0.030778
    35  H   -0.032498
    36  H    0.017230
    37  H    0.011337
    38  H   -0.010049
    39  H    0.001713
    40  H   -0.000953
    41  H    0.003705
    42  H    0.022042
    43  H    0.064201
    44  H   -0.009990
    45  H    0.011603
    46  H    0.017216
    47  H   -0.032475
    48  H   -0.030730
    49  H   -0.045193
    50  H    0.063992
    51  H    0.021715
    52  H    0.003710
    53  H   -0.000869
    54  H    0.001777
 Sum of Mulliken charges =  -2.00000
 Mulliken charges with hydrogens summed into heavy atoms:
               1
     1  O   -0.378051
     2  C    0.188695
     3  C   -0.241995
     4  C   -0.051861
     5  C   -0.124690
     6  C   -0.090323
     7  C   -0.024281
     8  C   -0.094483
     9  N   -0.159839
    10  C    0.080901
    11  C    0.103213
    12  C   -0.125651
    13  C   -0.042914
    14  C   -0.039301
    15  C   -0.012379
    16  C    0.013119
    17  C    0.081119
    18  N   -0.159903
    19  C   -0.094534
    20  C   -0.024227
    21  C   -0.090410
    22  C   -0.124726
    23  C   -0.051790
    24  C   -0.241932
    25  C    0.188708
    26  O   -0.377917
    27  C    0.103594
    28  C    0.012361
    29  C   -0.012540
    30  C   -0.039400
    31  C   -0.042655
    32  C   -0.125909
 Electronic spatial extent (au):  <R**2>=          14877.2472
 Charge=             -2.0000 electrons
 Dipole moment (field-independent basis, Debye):
    X=              0.0137    Y=              1.0897    Z=              0.1328  Tot=              1.0978
 Quadrupole moment (field-independent basis, Debye-Ang):
   XX=           -402.0339   YY=           -213.4511   ZZ=           -213.2872
   XY=              4.7439   XZ=             -4.7826   YZ=              0.1229
 Traceless Quadrupole moment (field-independent basis, Debye-Ang):
   XX=           -125.7765   YY=             62.8063   ZZ=             62.9702
   XY=              4.7439   XZ=             -4.7826   YZ=              0.1229
 Octapole moment (field-independent basis, Debye-Ang**2):
  XXX=              0.6456  YYY=             58.9480  ZZZ=             -1.9285  XYY=              3.3029
  XXY=             16.0706  XXZ=              2.4926  XZZ=             -2.6842  YZZ=             -4.8565
  YYZ=              6.9919  XYZ=            -14.9878
 Hexadecapole moment (field-independent basis, Debye-Ang**3):
 XXXX=         -19806.4498 YYYY=          -3227.6455 ZZZZ=          -4782.0233 XXXY=            310.5208
 XXXZ=          -1087.8558 YYYX=            241.4453 YYYZ=             81.2902 ZZZX=           -890.7013
 ZZZY=             95.2899 XXYY=          -3423.1689 XXZZ=          -3139.5189 YYZZ=          -1305.3443
 XXYZ=            -12.2318 YYXZ=           -309.0893 ZZXY=             65.2302
 N-N= 2.965793449463D+03 E-N=-9.090025442375D+03  KE= 1.327158359722D+03
 No NMR shielding tensors so no spin-rotation constants.
 Leave Link  601 at Wed Jul 31 21:38:05 2024, MaxMem= 13421772800 cpu:               3.8 elap:               0.2
 (Enter /public/software/apps/Gaussian/g16/l701.exe)
 ... and contract with generalized density number  0.
 Compute integral first derivatives.
 R6Disp: Adding Grimme-D3(BJ) dispersion energy 1st derivatives to the gradient.
   1 Symmetry operations used in ECPInt.
 ECPInt:  NShTT=   27966 NPrTT=  112110 LenC2=   24104 LenP2D=   61830.
 LDataN:  DoStor=T MaxTD1= 5 Len=  102
 Leave Link  701 at Wed Jul 31 21:38:06 2024, MaxMem= 13421772800 cpu:              10.9 elap:               0.4
 (Enter /public/software/apps/Gaussian/g16/l702.exe)
 L702 exits ... SP integral derivatives will be done elsewhere.
 Leave Link  702 at Wed Jul 31 21:38:06 2024, MaxMem= 13421772800 cpu:               0.6 elap:               0.0
 (Enter /public/software/apps/Gaussian/g16/l703.exe)
 Integral derivatives from FoFJK, PRISM(SPDF).
 Compute integral first derivatives, UseDBF=F ICtDFT=           0.
 Calling FoFJK, ICntrl=      2127 FMM=F ISym2X=0 I1Cent= 0 IOpClX= 0 NMat=1 NMatS=1 NMatT=0.
 FoFJK:  IHMeth= 1 ICntrl=    2127 DoSepK=F KAlg= 0 I1Cent=           0 FoldK=F
 IRaf=         0 NMat=       1 IRICut=       1 DoRegI=T DoRafI=F ISym2E= 0 IDoP0=0 IntGTp=1.
 FoFCou: FMM=F IPFlag=           0 FMFlag=      100000 FMFlg1=         800
         NFxFlg=           0 DoJE=F BraDBF=F KetDBF=F FulRan=T
         wScrn=  0.000000 ICntrl=      2127 IOpCl=  0 I1Cent=           0 NGrid=           0
         NMat0=    1 NMatS0=      1 NMatT0=    0 NMatD0=    1 NMtDS0=    0 NMtDT0=    0
 Symmetry not used in FoFCou.
 Leave Link  703 at Wed Jul 31 21:38:14 2024, MaxMem= 13421772800 cpu:             257.3 elap:               8.1
 (Enter /public/software/apps/Gaussian/g16/l716.exe)
 Dipole        = 5.40369352D-03 4.28714181D-01 5.22371072D-02
 -------------------------------------------------------------------
 Center     Atomic                   Forces (Hartrees/Bohr)
 Number     Number              X              Y              Z
 -------------------------------------------------------------------
      1        8          -0.000037244    0.005318297    0.000797693
      2        6           0.005328421    0.013232932    0.001732250
      3        6           0.007375245   -0.000105428    0.001700148
      4        6           0.004074570   -0.005530430   -0.000034812
      5        6          -0.003303921   -0.010484641   -0.001863603
      6        6          -0.003563014   -0.000216894   -0.000529233
      7        6           0.002598970   -0.002360334    0.001629687
      8        6           0.002803040    0.006765963   -0.001832662
      9        7          -0.009411496   -0.004136857   -0.002497827
     10        6          -0.001398663    0.002416472    0.000504516
     11        6           0.007611830    0.003800680    0.002579687
     12        6           0.002214461    0.001568346    0.002837287
     13        6          -0.002855374    0.005204955   -0.003858896
     14        6          -0.003187925    0.001313859   -0.005332816
     15        6          -0.001513011   -0.004236932   -0.001714667
     16        6           0.001374930   -0.003274457   -0.000594203
     17        6           0.001550652    0.002380280   -0.000099488
     18        7           0.009058307   -0.004878270    0.001811180
     19        6          -0.002432050    0.006452679    0.002981356
     20        6          -0.002644522   -0.001956407   -0.002011426
     21        6           0.003539322   -0.000454239    0.000535825
     22        6           0.002804815   -0.010845232    0.000081928
     23        6          -0.004323871   -0.005228297   -0.000924306
     24        6          -0.007327259    0.000524097   -0.001757992
     25        6          -0.004731361    0.013617763    0.000513468
     26        8           0.000286117    0.005369288    0.000102969
     27        6          -0.007459792    0.004487330   -0.001799533
     28        6          -0.001533333   -0.003201862    0.000004985
     29        6           0.001340184   -0.004535506    0.001021213
     30        6           0.003251280    0.000183194    0.005444135
     31        6           0.003079644    0.004336163    0.004602164
     32        6          -0.002149430    0.002152983   -0.002476916
     33        1           0.006870070    0.004130335    0.001627665
     34        1           0.005476137   -0.005241781    0.000375401
     35        1          -0.002977125   -0.007863183   -0.001312584
     36        1          -0.009311835   -0.001940508   -0.001921356
     37        1           0.001703124    0.003519271    0.000681902
     38        1          -0.000817697    0.000355680   -0.000559360
     39        1           0.003823769    0.007082721    0.003818105
     40        1          -0.001937141    0.007842789   -0.003947041
     41        1          -0.005597457   -0.000012978   -0.007260572
     42        1          -0.003683858   -0.008282899   -0.002796134
     43        1           0.002013013   -0.007771530    0.003775400
     44        1           0.000816702    0.000240425    0.000606970
     45        1          -0.001534309    0.003645308   -0.000048145
     46        1           0.009189954   -0.002644549    0.001610115
     47        1           0.002602839   -0.008077368   -0.000019415
     48        1          -0.005704920   -0.004846124   -0.001294041
     49        1          -0.006660758    0.004657366   -0.000952691
     50        1          -0.002433820   -0.006919990   -0.005045956
     51        1           0.003232706   -0.008806338    0.001314509
     52        1           0.005593438   -0.001524131    0.007105545
     53        1           0.002357506    0.006951886    0.005222454
     54        1          -0.003439860    0.007826103   -0.002532883
 -------------------------------------------------------------------
 Cartesian Forces:  Max     0.013617763 RMS     0.004458670
 Leave Link  716 at Wed Jul 31 21:38:14 2024, MaxMem= 13421772800 cpu:               0.8 elap:               0.0
 (Enter /public/software/apps/Gaussian/g16/l103.exe)

 GradGradGradGradGradGradGradGradGradGradGradGradGradGradGradGradGradGrad
 Berny optimization.
 FormGI is forming the generalized inverse of G from B-inverse, IUseBI=4.
 GSVD:  received Info=                   1 from GESDD.
 Internal  Forces:  Max     0.018130108 RMS     0.005752080
 Search for a local minimum.
 Step number   1 out of a maximum of  294
 All quantities printed in internal units (Hartrees-Bohrs-Radians)
 RMS Force = .57521D-02 SwitMx=.10000D-02 MixMth= 1
 Mixed Optimization -- RFO/linear search
 Second derivative matrix not updated -- first step.
 ITU=  0
     Eigenvalues ---    0.00230   0.00759   0.00760   0.01356   0.01357
     Eigenvalues ---    0.01506   0.01506   0.01648   0.01648   0.01685
     Eigenvalues ---    0.01685   0.01698   0.01698   0.01782   0.01782
     Eigenvalues ---    0.02042   0.02042   0.02151   0.02151   0.02229
     Eigenvalues ---    0.02229   0.02245   0.02245   0.02275   0.02275
     Eigenvalues ---    0.02281   0.02281   0.02281   0.02282   0.02291
     Eigenvalues ---    0.02291   0.02292   0.02293   0.02295   0.02295
     Eigenvalues ---    0.02303   0.02303   0.02303   0.02303   0.02306
     Eigenvalues ---    0.02306   0.02314   0.02315   0.02379   0.02379
     Eigenvalues ---    0.03308   0.03310   0.05310   0.05318   0.05765
     Eigenvalues ---    0.05775   0.07223   0.07237   0.15998   0.15998
     Eigenvalues ---    0.15999   0.15999   0.15999   0.15999   0.16000
     Eigenvalues ---    0.16000   0.16000   0.16000   0.16000   0.16000
     Eigenvalues ---    0.16000   0.16000   0.16000   0.16000   0.16000
     Eigenvalues ---    0.16000   0.16000   0.16000   0.16999   0.17025
     Eigenvalues ---    0.20266   0.20269   0.22000   0.22000   0.22000
     Eigenvalues ---    0.22000   0.22000   0.22000   0.22000   0.22000
     Eigenvalues ---    0.22466   0.22466   0.23464   0.23465   0.24447
     Eigenvalues ---    0.24447   0.24777   0.24959   0.24963   0.24998
     Eigenvalues ---    0.24998   0.24999   0.24999   0.25000   0.25000
     Eigenvalues ---    0.32180   0.32186   0.32325   0.32328   0.33326
     Eigenvalues ---    0.33327   0.34885   0.34887   0.35309   0.35311
     Eigenvalues ---    0.35450   0.35454   0.35563   0.35567   0.35606
     Eigenvalues ---    0.35606   0.35640   0.35641   0.35781   0.35782
     Eigenvalues ---    0.35795   0.35800   0.36344   0.36347   0.37099
     Eigenvalues ---    0.37100   0.38532   0.38532   0.41060   0.41060
     Eigenvalues ---    0.41655   0.41667   0.43456   0.43457   0.43570
     Eigenvalues ---    0.43570   0.44045   0.44046   0.45311   0.45314
     Eigenvalues ---    0.47698   0.47700   0.47956   0.47957   0.48347
     Eigenvalues ---    0.48348   0.48615   0.48616   0.48678   0.48682
     Eigenvalues ---    0.50783   0.50785   0.73759   0.73797   0.81513
     Eigenvalues ---    0.81520
 RFO step:  Lambda=-2.38676337D-02 EMin= 2.30000000D-03
 Linear search not attempted -- first point.
 Iteration  1 RMS(Cart)=  0.13977776 RMS(Int)=  0.00144319
 Iteration  2 RMS(Cart)=  0.00873610 RMS(Int)=  0.00016922
 Iteration  3 RMS(Cart)=  0.00002432 RMS(Int)=  0.00016900
 Iteration  4 RMS(Cart)=  0.00000001 RMS(Int)=  0.00016900
[...]
 66,-0.07298659,0.00653920,-0.01686496,0.00842739,-0.00331444,-0.003107
 08,0.00015013,-0.00008564,-0.00057398,-0.00091755,-0.00001031,-0.00000
 601,-0.00000306,-0.00001016,0.00000619,-0.00000556,0.00000598,-0.00001
 071,-0.00002314,-0.00004245,0.00000955,-0.00005151,-0.00000910,-0.0000
 2157,0.00000805,0.00000256,-0.00003272,-0.00000095,-0.00000236,-0.0000
 0452,0.00000378,-0.00000232,0.00000264,-0.00000068,-0.00000211,-0.0000
 0049,-0.00000229,-0.00000430,-0.00000212,-0.00000331,-0.00000924,0.000
 00151,-0.00000123,-0.00014531,0.00007798,-0.00042658,0.00001906,-0.000
 01532,-0.00000396,0.00000527,0.00000604,-0.00000337,-0.00000299,-0.000
 01276,-0.00000322,-0.00000383,-0.00000496,-0.00000087,-0.00000429,0.00
 000039,0.00000018,0.00251886,-0.00003879,-0.00000301,0.04133953,-0.069
 70221,0.07054880,0.00002287,0.00000494,-0.00002333,-0.00001347,-0.0000
 0567,0.00000849,-0.00000485,0.00001361,-0.00000525,-0.00002699,-0.0000
 2616,-0.00000269,0.00005131,-0.00001679,-0.00000196,-0.00001231,0.0000
 6225,-0.00000188,0.00002221,-0.00006750,-0.00002540,-0.00008735,0.0000
 3149,0.00000100,0.00006557,0.00001583,-0.00010026,0.00009483,0.0000361
 4,0.00011889,-0.00000326,-0.00001984,0.00002583,0.00000310,0.00000264,
 -0.00000355,0.00000232,-0.00000652,-0.00000074,-0.00000165,0.00000164,
 -0.00000374,0.00000665,0.00000040,-0.00000059,-0.00000373,0.00000419,-
 0.00000834,-0.00064710,-0.00019844,0.00057751,-0.00010502,0.00000092,-
 0.00015036,0.00019851,0.00005808,0.00002738,-0.00007487,-0.00010282,0.
 00000700,0.00001302,0.00008043,0.00001373,-0.00007878,-0.00002362,-0.0
 0000399,0.00003741,-0.00005541,-0.00000256,0.00001412,0.00003715,0.000
 00813,0.00001497,-0.00006694,-0.00001222,-0.00003000,0.00005119,0.0000
 1779,-0.00051588,-0.00002569,0.00074217,0.00544226,-0.00064460,-0.0025
 7803,-0.00046003,0.00212715,-0.00427331,-0.11394635,0.01698291,-0.1298
 5260,-0.00278792,-0.00130540,-0.00890916,0.00504585,0.00313222,-0.0024
 8619,0.00000804,0.00000330,0.00000174,0.00000977,-0.00001016,0.0000005
 7,-0.00000098,-0.00001075,0.00000030,0.00000030,0.00000891,0.00000665,
 -0.00000430,-0.00001085,0.00001100,-0.00002640,-0.00001941,0.00000879,
 -0.00000167,-0.00000629,0.00000493,-0.00000162,0.00000512,-0.00000282,
 -0.00000434,0.00000055,-0.00000527,-0.00000293,-0.00000313,-0.00000266
 ,0.00000085,0.00000290,0.00000960,-0.00000466,0.00005887,-0.00001567,0
 .00000173,0.00000419,-0.00001658,0.00000553,0.00001172,0.00000080,-0.0
 0000054,-0.00000978,-0.00000410,-0.00000842,-0.00000848,-0.00000291,-0
 .00001006,0.00000364,-0.00000128,0.00004781,0.00018605,-0.00026344,-0.
 00259165,-0.00095603,0.00204943,0.11297085,-0.00000587,-0.00002378,-0.
 00001069,0.00000258,0.00002579,-0.00000170,0.00000699,-0.00000272,0.00
 000706,-0.00000062,-0.00000388,0.00000295,0.00001032,-0.00000579,0.000
 00740,-0.00001945,0.00001274,0.00000010,0.00000149,-0.00001192,-0.0000
 1247,-0.00002979,-0.00000583,0.00001135,0.00000060,0.00006050,-0.00006
 275,0.00005991,-0.00005789,0.00002311,-0.00001355,0.00000882,-0.000000
 30,0.00000120,-0.00000636,0.00000256,-0.00000169,0.00000255,-0.0000038
 5,0.00000066,0.00000200,0.00000197,0.00000210,0.00000244,0.00000075,0.
 00000210,-0.00000624,0.00000580,-0.00012259,-0.00004674,0.00016210,-0.
 00003927,0.00011071,-0.00004533,0.00003707,0.00000765,0.00000615,-0.00
 001035,-0.00000021,-0.00000276,0.00000959,-0.00000001,0.00000130,-0.00
 000595,0.00000236,0.00000036,0.00000214,-0.00000408,-0.00000017,0.0000
 0117,0.00000434,0.00000175,0.00000338,-0.00001249,-0.00000247,-0.00000
 095,0.00001331,0.00000368,-0.00007366,-0.00111821,-0.00016332,0.000419
 74,-0.00369425,-0.00281613,-0.01388416,0.00717006,-0.02196252,0.016679
 80,-0.06058970,0.01944549,0.01496776,0.00230681,0.02536469,0.00217714,
 -0.00448388,-0.00001828,-0.00000017,0.00000053,-0.00000107,0.00000358,
 -0.00000236,-0.00000169,-0.00000094,-0.00000315,-0.00000264,0.00000125
 ,0.00000539,0.00000491,0.00000618,0.00000415,0.00001051,0.00001402,0.0
 0002401,-0.00000762,0.00000171,0.00000350,-0.00000232,0.00000058,-0.00
 000078,0.00000017,0.00000061,0.00000060,0.00000083,0.00000084,0.000000
 69,0.00000112,0.00000132,0.00000072,0.00000408,-0.00007139,0.00009304,
 -0.00005162,-0.00001494,0.00000971,0.00000589,0.00000097,0.00000238,0.
 00000142,0.00000027,-0.00000027,-0.00000041,-0.00000063,0.00000008,-0.
 00000022,-0.00000012,0.00000010,-0.00000018,-0.00054164,0.00028362,-0.
 00088070,-0.00030591,0.00100542,0.00114224,-0.01885698,0.05787928,0.00
 007008,0.00015688,0.00006507,-0.00005632,-0.00018379,-0.00002958,-0.00
 002916,0.00010232,0.00002948,-0.00009592,-0.00012257,0.00000162,0.0001
 5687,-0.00004333,0.00001402,-0.00004158,0.00013976,0.00000483,0.000126
 33,-0.00018551,0.00000318,-0.00039660,0.00012365,-0.00000701,0.0003418
 1,0.00002061,-0.00014929,-0.00016296,0.00000017,-0.00002098,0.00008424
 ,-0.00001811,0.00001139,-0.00000784,-0.00000164,-0.00001829,-0.0000011
 7,-0.00000546,0.00000881,-0.00000332,0.00000049,-0.00001390,0.00000283
 ,0.00000517,0.00000669,-0.00001547,-0.00000784,-0.00001887,0.00047823,
 0.00014271,-0.00019317,-0.00034539,0.00001686,-0.00017200,0.00028152,0
 .00010439,0.00003413,-0.00009261,-0.00014223,-0.00003843,0.00002420,0.
 00010784,0.00001503,-0.00010756,-0.00002853,-0.00001350,0.00005430,-0.
 00007067,-0.00000682,0.00001951,0.00004582,0.00001120,0.00002188,-0.00
 007396,-0.00000687,-0.00003768,0.00006229,0.00000337,0.00091293,-0.000
 34913,0.00048395,-0.00262274,-0.00440382,0.00107448,-0.00940757,0.0053
 8216,-0.01157332,-0.12925975,0.01944370,-0.24602474,-0.00398907,-0.002
 03363,-0.00503416,-0.00283950,0.00171115,0.00296377,0.00002325,0.00000
 724,-0.00000795,0.00001321,-0.00001452,-0.00000441,0.00000096,-0.00000
 792,-0.00000323,0.00000506,0.00002239,0.00001122,-0.00001780,0.0000019
 8,0.00002594,-0.00000187,-0.00001222,0.00000869,0.00000138,-0.00000368
 ,0.00000590,-0.00000404,0.00000880,-0.00000500,-0.00000529,0.00000094,
 -0.00000798,-0.00000525,-0.00000452,-0.00000299,0.00000122,0.00000330,
 0.00000846,-0.00000200,-0.00004882,-0.00004013,-0.00000113,0.00000681,
 0.00002447,0.00000488,0.00001475,0.00000778,-0.00000042,-0.00001441,-0
 .00000147,-0.00001311,-0.00001265,-0.00000327,-0.00001326,0.00000546,-
 0.00000021,-0.00048705,0.00032466,-0.00043872,0.00219043,0.00019105,-0
 .00019972,0.14350310,-0.02106299,0.25978424,-0.00000041,-0.00004880,-0
 .00003019,0.00000950,0.00005004,0.00000660,0.00000395,-0.00001186,-0.0
 0000385,-0.00000185,-0.00000020,-0.00000138,0.00001154,-0.00001317,0.0
 0000013,0.00000315,0.00002537,0.00000053,-0.00000222,-0.00003848,-0.00
 000002,-0.00001880,0.00004310,0.00000485,-0.00001146,-0.00000882,-0.00
 002232,0.00001389,0.00004465,-0.00004548,0.00005501,0.00000394,0.00002
 905,-0.00001296,0.00000231,-0.00001453,-0.00000331,-0.00000409,0.00000
 664,-0.00000572,0.00000430,-0.00001219,0.00000477,0.00000040,0.0000095
 3,-0.00001613,-0.00000273,-0.00001549,0.00022584,-0.00072857,0.0000282
 1,-0.00014145,0.00009479,-0.00008193,0.00014887,-0.00006428,-0.0000049
 3,-0.00007387,-0.00004856,0.00000850,0.00000685,0.00004619,0.00000641,
 -0.00004798,-0.00001033,-0.00000167,0.00002453,-0.00003726,-0.00000171
 ,0.00001152,0.00003253,0.00000570,0.00001783,-0.00008182,-0.00001173,-
 0.00002097,0.00006593,0.00002760,0.00368851,0.00192137,-0.00542824,-0.
 00095276,0.00035767,-0.00002875,0.00457282,0.00269316,-0.00327853,0.00
 480205,0.00872449,0.00659763,-0.04945307,-0.03459579,-0.03690211,0.000
 65116,-0.01433479,-0.00818021,0.00000095,0.00000095,0.00000195,0.00000
 407,-0.00000466,0.00000065,-0.00000048,-0.00000669,-0.00000069,-0.0000
 0420,0.00000188,0.00000030,-0.00000291,-0.00001229,-0.00000410,-0.0000
 0543,-0.00001691,-0.00000182,0.00000510,-0.00000328,0.00000331,-0.0000
 0097,0.00000502,-0.00000464,-0.00000186,0.00000025,-0.00000445,-0.0000
 0165,-0.00000272,-0.00000296,0.00000334,0.00000136,0.00000289,-0.00003
 518,0.00005779,0.00002045,0.00000789,0.00001794,-0.00001308,0.00000198
 ,0.00000747,0.00000022,-0.00000065,-0.00000378,-0.00000237,-0.00000349
 ,-0.00000367,-0.00000113,-0.00000677,0.00000156,-0.00000115,-0.0007529
 9,-0.00019382,0.00045564,0.00043100,0.00049373,0.00007192,-0.00271784,
 -0.00115957,0.00214483,0.04221631,0.00005424,0.00013051,0.00001619,-0.
 00004821,-0.00013781,0.00000191,-0.00002350,0.00006102,-0.00000451,-0.
 00005927,-0.00006019,-0.00000602,0.00008428,-0.00000894,-0.00001228,-0
 .00001456,0.00007280,-0.00000552,0.00007116,-0.00007928,-0.00002096,-0
 .00017299,0.00002695,0.00000415,0.00014122,0.00003012,-0.00008794,-0.0
 0011637,-0.00001477,-0.00000868,0.00006948,-0.00000877,0.00001632,-0.0
 0000944,-0.00000776,-0.00001901,-0.00000216,-0.00000476,0.00000469,-0.
 00000374,0.00000408,-0.00001197,0.00000292,0.00000204,0.00000724,-0.00
 001352,0.00000007,-0.00001991,0.00027093,0.00003860,0.00030773,-0.0002
 4426,0.00004625,-0.00010837,0.00025743,0.00002175,0.00000669,-0.000101
 13,-0.00011236,-0.00001652,0.00002040,0.00009099,0.00001231,-0.0000939
 5,-0.00002247,-0.00001188,0.00005125,-0.00006541,-0.00000518,0.0000206
 1,0.00005025,0.00000926,0.00002759,-0.00010235,-0.00001132,-0.00003780
 ,0.00008878,0.00001970,0.00106958,0.00169658,0.00020780,0.00026903,0.0
 0030398,0.00082349,0.00363457,-0.00333562,0.00285190,-0.00719915,-0.01
 784807,-0.01896123,-0.03451039,-0.23324344,-0.12387940,0.00142922,0.00
 472079,0.00314802,0.00001560,0.00000502,0.00000062,0.00000906,-0.00001
 016,0.00000169,-0.00000044,-0.00000440,0.00000501,0.00000651,0.0000105
 3,0.00001372,-0.00001121,0.00000089,0.00001401,-0.00000945,-0.00000285
 ,0.00001558,0.00000316,-0.00000325,0.00000648,-0.00000370,0.00000902,-
 0.00000674,-0.00000448,0.00000082,-0.00000758,-0.00000390,-0.00000377,
 -0.00000307,0.00000403,0.00000254,0.00000724,-0.00001628,-0.00000366,-
 0.00003110,0.00000585,0.00000899,0.00000189,0.00000190,0.00001085,0.00
 000548,-0.00000021,-0.00000843,-0.00000090,-0.00000990,-0.00001002,-0.
 00000229,-0.00001285,0.00000488,-0.00000054,-0.00017302,-0.00003887,0.
 00003201,-0.00028011,-0.00102026,-0.00087968,-0.00053809,0.00112847,0.
 00082840,0.03713567,0.24681353,0.00004536,0.00017005,0.00003668,-0.000
 04855,-0.00017995,-0.00000933,-0.00002846,0.00007517,0.00000077,-0.000
 05635,-0.00007018,-0.00000434,0.00008919,-0.00001542,0.00000351,-0.000
 01731,0.00007541,0.00000067,0.00009788,-0.00008472,-0.00000001,-0.0002
 5798,-0.00000068,-0.00001630,0.00023154,0.00006079,-0.00006300,-0.0002
 6431,-0.00002116,-0.00007930,0.00012185,0.00000112,0.00001109,-0.00002
 012,-0.00002425,-0.00003177,-0.00000323,0.00000216,0.00001081,-0.00000
 361,-0.00000177,-0.00001388,0.00000055,0.00000701,0.00000503,-0.000016
 67,0.00000382,-0.00001164,0.00033804,-0.00111748,0.00025232,-0.0005781
 8,0.00006265,-0.00046181,0.00035702,0.00001628,-0.00000432,-0.00016721
 ,-0.00019747,-0.00000157,0.00001456,0.00016186,0.00001879,-0.00014834,
 -0.00004380,-0.00002021,0.00007762,-0.00010711,-0.00001055,0.00003998,
 0.00008183,0.00001005,0.00002977,-0.00016138,-0.00001326,-0.00004005,0
 .00013658,0.00002131,-0.00549670,0.00170521,-0.00219754,0.00012953,0.0
 0097985,-0.00031816,-0.00313502,0.00105210,0.00205290,0.00143654,0.008
 57392,0.00784945,-0.03671916,-0.12384901,-0.13751372,-0.00308179,-0.02
 421377,-0.01051706,0.00001210,0.00000271,-0.00000062,0.00000495,-0.000
 00557,0.00000025,0.00000064,-0.00000325,0.00000041,0.00000192,0.000011
 03,0.00000477,-0.00000839,0.00001326,0.00001423,0.00001828,0.00001195,
 0.00001636,0.00000548,0.00000229,0.00000684,-0.00000502,0.00001017,-0.
 00000908,-0.00000366,0.00000099,-0.00000638,-0.00000480,-0.00000224,-0
 .00000153,-0.00000022,0.00000369,0.00000592,-0.00002922,0.00004314,-0.
 00000365,0.00001165,0.00000857,-0.00000056,0.00000663,0.00000911,0.000
 00621,-0.00000148,-0.00001538,-0.00000154,-0.00001180,-0.00001357,-0.0
 0000219,-0.00001624,0.00000553,0.00000112,0.00046526,-0.00000264,-0.00
 023258,-0.00015782,0.00037345,0.00033111,0.00230185,-0.00023094,-0.000
 35322,0.04228714,0.13583550,0.14121220,-0.00000369,-0.00010919,-0.0000
 1354,0.00002145,0.00010825,-0.00000116,0.00001261,-0.00003392,0.000006
 10,0.00001495,0.00001332,0.00000209,-0.00001237,-0.00001275,0.00000537
 ,0.00001066,0.00000409,-0.00000135,-0.00004558,-0.00004275,-0.00000987
 ,0.00007925,0.00015257,-0.00001345,-0.00006172,-0.00026319,-0.00001614
 ,0.00054034,0.00052290,0.00037814,-0.00023731,-0.00013745,0.00005384,0
 .00003789,0.00005774,0.00005432,0.00000552,-0.00001326,-0.00001586,0.0
 0000378,-0.00000111,0.00001773,0.00000142,-0.00001938,-0.00001767,0.00
 001497,0.00000880,-0.00000928,-0.00223465,-0.00213821,0.00222583,-0.00
 019560,0.00017794,-0.00048028,0.00010269,-0.00015674,-0.00006875,-0.00
 008343,-0.00001909,0.00007582,0.00000316,0.00002628,0.00001030,-0.0000
 1924,-0.00000533,0.00000318,0.00001354,-0.00001715,0.00000407,0.000012
 20,0.00002366,-0.00000370,0.00000995,-0.00006821,-0.00001352,0.0000139
 2,0.00006018,0.00003610,0.00488274,-0.00449888,0.00009498,0.00498696,-
 0.00010680,-0.00307868,-0.00047956,-0.00043263,0.00003211,0.00373697,0
 .00014429,-0.00528181,-0.00192423,0.01518263,-0.00338788,-0.07231708,0
 .08444017,-0.03474645,-0.00000109,0.00000041,-0.00000106,0.00000212,-0
 .00000268,-0.00000092,0.00000043,-0.00000544,-0.00000166,-0.00000422,0
 .00000140,-0.00000243,-0.00001500,-0.00004455,-0.00000174,-0.00018085,
 -0.00017663,0.00011572,-0.00000532,-0.00001840,0.00000438,0.00000506,-
 0.00000440,0.00000466,-0.00000147,-0.00000173,0.00000124,0.00000116,0.
 00000051,-0.00000210,-0.00000294,-0.00000169,0.00000391,-0.00015356,0.
 00043650,0.00005777,-0.00001271,0.00002976,-0.00007929,0.00000102,-0.0
 0000478,-0.00000846,0.00000068,0.00000336,-0.00000461,0.00000272,0.000
 00221,0.00000017,0.00000124,-0.00000080,0.00000031,0.00006270,-0.00026
 612,-0.00000015,-0.00077836,-0.00011300,0.00047519,0.00009509,0.000743
 16,-0.00039964,-0.00262508,-0.00094157,0.00219638,0.06671787,0.0000087
 2,0.00005436,-0.00002150,-0.00002439,-0.00004185,0.00001245,-0.0000014
 5,0.00000991,-0.00000745,-0.00000663,0.00000555,-0.00000351,-0.0000026
 3,0.00002512,-0.00002056,-0.00002579,-0.00001776,-0.00000957,-0.000006
 09,0.00005897,-0.00005670,-0.00001288,-0.00010463,0.00006278,-0.000138
 13,0.00031603,-0.00011000,-0.00015504,-0.00032268,-0.00023715,0.000082
 02,0.00003483,-0.00004640,-0.00002186,-0.00004731,-0.00001873,-0.00002
 185,0.00002395,-0.00000993,0.00000299,0.00001151,0.00000206,-0.0000029
 8,0.00000761,0.00001651,-0.00000841,-0.00001515,0.00001024,0.00141644,
 -0.00042037,0.00287134,-0.00041348,0.00088674,-0.00024284,0.00013415,-
 0.00028645,-0.00005417,-0.00011243,0.00002025,0.00001084,0.00003530,0.
 00002159,-0.00000011,-0.00003537,0.00001155,-0.00001265,0.00002768,-0.
 00003294,-0.00000543,0.00002423,0.00005036,0.00000519,0.00002536,-0.00
 015273,-0.00001684,0.00000743,0.00014671,0.00003587,0.00954479,-0.0198
 3290,0.00880930,-0.00085423,-0.00240890,-0.00440434,-0.00060184,0.0003
 6977,-0.00075924,0.00090872,0.00209897,0.00013618,-0.00056908,0.000311
 84,-0.00149756,0.08392045,-0.27404281,0.06767210,0.00000186,0.00000146
 ,0.00000234,0.00000260,-0.00000086,0.00000232,-0.00000209,0.00000363,0
 .00000661,0.00001154,0.00000370,0.00002263,0.00000613,0.00001387,0.000
 03478,0.00011076,0.00016335,0.00000806,0.00001884,0.00002702,-0.000015
 24,0.00000234,-0.00000137,-0.00000399,0.00000556,0.00000238,0.00000301
 ,0.00000411,0.00000416,0.00000471,0.00001385,0.00000147,0.00000456,-0.
 00093947,0.00108093,-0.00076737,-0.00005431,0.00006042,0.00004372,-0.0
 0000525,-0.00001013,0.00000932,0.00000181,0.00000826,0.00000485,0.0000
 0188,0.00000207,0.00000239,-0.00000144,0.00000058,0.00000127,0.0005904
 5,-0.00103205,0.00072230,-0.00008052,-0.00010385,0.00018049,0.00006691
 ,-0.00009122,-0.00012980,-0.00039696,0.00077658,0.00086453,-0.09248231
 ,0.29235047,-0.00001983,-0.00002616,-0.00000005,0.00000755,0.00003102,
 0.00000213,0.00001090,-0.00002086,0.00000364,0.00002526,0.00003022,0.0
 0000249,-0.00004482,0.00002367,-0.00000416,-0.00000926,-0.00005784,-0.
 00000446,-0.00003830,0.00008203,-0.00001557,0.00010879,-0.00005160,0.0
 0004244,-0.00014809,0.00012442,0.00009941,-0.00025329,-0.00033846,-0.0
 0032542,0.00007147,0.00013351,-0.00007257,-0.00002430,-0.00003266,0.00
 000601,-0.00001321,0.00002090,-0.00000854,0.00000424,0.00000502,0.0000
 0415,-0.00000576,0.00001107,0.00000929,-0.00000428,-0.00002970,0.00003
 221,0.00224579,-0.00139973,-0.00079911,0.00052108,0.00044242,0.0002488
 5,-0.00037871,0.00000505,0.00002456,0.00014444,0.00016136,-0.00001072,
 -0.00000128,-0.00012200,-0.00002124,0.00011389,0.00003631,0.00001218,-
 0.00006061,0.00008489,0.00000722,-0.00003223,-0.00006657,-0.00001155,-
 0.00002491,0.00014242,0.00002138,0.00003630,-0.00011993,-0.00004410,0.
 00536918,-0.01478579,0.00885917,-0.00332089,-0.00310228,-0.00019893,0.
 00000992,-0.00053585,-0.00066148,-0.00496281,-0.00141148,-0.00234422,-
 0.00817859,0.02555973,-0.00353347,-0.03520372,0.06774264,-0.07484539,-
 0.00000572,-0.00000150,-0.00000111,-0.00000367,0.00000550,-0.00000035,
 -0.00000076,0.00000680,0.00000071,0.00000725,-0.00000367,0.00000537,0.
 00001238,0.00001499,0.00000928,0.00011307,0.00010716,-0.00004091,0.000
 00849,0.00002153,-0.00001085,0.00000346,-0.00000810,0.00000500,0.00000
 606,0.00000146,0.00000682,0.00000575,0.00000297,0.00000511,0.00000794,
 -0.00000094,-0.00000935,-0.00031987,0.00003471,-0.00001513,-0.00002495
 ,-0.00002201,0.00001165,-0.00000614,-0.00001003,-0.00000212,0.00000172
 ,0.00001053,0.00000348,0.00000715,0.00000908,0.00000178,0.00001232,-0.
 00000383,0.00000054,0.00027904,-0.00079189,0.00020042,0.00045563,0.000
 16022,-0.00021474,-0.00068577,0.00112541,-0.00021848,0.00238098,-0.000
 08243,0.00002631,0.04180170,-0.07311170,0.07376240\\-0.00000113,-0.000
 00318,0.00000533,-0.00000123,0.00000749,-0.00001230,0.00000149,-0.0000
 0719,0.00000465,0.00000119,0.00000376,0.00000032,-0.00000156,-0.000000
 07,-0.00000008,0.00000109,-0.00000150,0.00000044,0.00000151,-0.0000004
 2,0.00000486,0.00000799,-0.00000120,-0.00000431,-0.00000486,0.00000621
 ,0.00000736,0.00000521,-0.00000391,-0.00000659,-0.00000318,0.00000076,
 0.00000218,-0.00000248,0.00000122,-0.00000121,0.00000087,0.00000026,0.
 00000055,0.00000086,0.00000079,0.00000012,-0.00000052,0.00000045,-0.00
 000101,0.00000022,0.00000031,0.00000101,-0.00000441,-0.00000337,0.0000
 0526,0.00000408,0.00000583,-0.00000544,-0.00000769,-0.00000170,0.00000
 461,-0.00000223,-0.00000134,0.00000297,-0.00000106,-0.00000244,0.00000
 003,0.00000202,-0.00000051,-0.00000159,-0.00000075,0.00000282,0.000000
 89,-0.00000227,-0.00000880,0.00000311,0.00000360,0.00000897,-0.0000161
 2,0.00000012,-0.00000508,0.00000626,0.00000196,0.00000238,-0.00000252,
 0.00000038,-0.00000133,-0.00000046,0.00000012,-0.00000094,0.00000029,-
 0.00000095,0.00000107,0.00000044,-0.00000087,-0.00000080,0.00000084,0.
 00000097,-0.00000057,0.00000242,-0.00000038,0.00000207,0.00000029,0.00
 000045,0.00000041,-0.00000006,0.00000057,0.00000073,-0.00000038,0.0000
 0022,0.00000114,-0.00000042,-0.00000077,-0.00000167,0.00000182,-0.0000
 0186,-0.00000010,0.00000144,0.00000016,-0.00000036,0.00000063,-0.00000
 009,0.00000013,0.00000035,0.00000025,0.00000041,0.00000028,0.00000066,
 0.00000072,0.00000011,0.00000014,0.00000051,-0.00000058,0.00000211,-0.
 00000008,-0.00000116,0.00000075,-0.00000190,-0.00000238,0.00000009,0.0
 0000095,-0.00000057,0.00000003,0.00000011,-0.00000009,0.00000002,-0.00
 000031,-0.00000163,0.00000055,0.00000111,-0.00000067,0.00000045,0.0000
 0019,0.00000055,-0.00000048,-0.00000001,-0.00000030,-0.00000042,-0.000
 00066,0.00000009,-0.00000053,-0.00000063,0.00000038,-0.00000042,-0.000
 00076,0.\\\@
 The archive entry for this job was punched.


 YOU WILL NEVER "FIND" TIME FOR ANYTHING.
 IF YOU WANT TIME, YOU MUST MAKE IT.

                        -- CHARLES BIXTON
 Job cpu time:       0 days  3 hours 42 minutes 46.8 seconds.
 Elapsed time:       0 days  0 hours  6 minutes 59.8 seconds.
 File lengths (MBytes):  RWF=   1547 Int=      0 D2E=      0 Chk=     22 Scr=      1
 Normal termination of Gaussian 16 at Wed Jul 31 21:51:37 2024.
