 Entering Gaussian System, Link 0=g16
 Initial command:
 /public/apps/g16-C01//g16/l1.exe "/public/home/ljq/tmp/Gau-38215.inp" -scrdir="/public/home/ljq/tmp/"
 Entering Link 1 = /public/apps/g16-C01//g16/l1.exe PID=     38216.
  
 Copyright (c) 1988-2019, Gaussian, Inc.  All Rights Reserved.
  
 This is part of the Gaussian(R) 16 program.  It is based on
 the Gaussian(R) 09 system (copyright 2009, Gaussian, Inc.),
 the Gaussian(R) 03 system (copyright 2003, Gaussian, Inc.),
 the Gaussian(R) 98 system (copyright 1998, Gaussian, Inc.),
 the Gaussian(R) 94 system (copyright 1995, Gaussian, Inc.),
 the Gaussian 92(TM) system (copyright 1992, Gaussian, Inc.),
 the Gaussian 90(TM) system (copyright 1990, Gaussian, Inc.),
 the Gaussian 88(TM) system (copyright 1988, Gaussian, Inc.),
 the Gaussian 86(TM) system (copyright 1986, Carnegie Mellon
 University), and the Gaussian 82(TM) system (copyright 1983,
 Carnegie Mellon University). Gaussian is a federally registered
 trademark of Gaussian, Inc.
  
 This software contains proprietary and confidential information,
 including trade secrets, belonging to Gaussian, Inc.
  
 This software is provided under written license and may be
 used, copied, transmitted, or stored only in accord with that
 written license.
  
 The following legend is applicable only to US Government
 contracts under FAR:
  
                    RESTRICTED RIGHTS LEGEND
  
 Use, reproduction and disclosure by the US Government is
 subject to restrictions as set forth in subparagraphs (a)
 and (c) of the Commercial Computer Software - Restricted
 Rights clause in FAR 52.227-19.
  
 Gaussian, Inc.
 340 Quinnipiac St., Bldg. 40, Wallingford CT 06492
  
  
 ---------------------------------------------------------------
 Warning -- This program may not be used in any manner that
 competes with the business of Gaussian, Inc. or will provide
 assistance to any competitor of Gaussian, Inc.  The licensee
 of this program is prohibited from giving any competitor of
 Gaussian, Inc. access to this program.  By using this program,
 the user acknowledges that Gaussian, Inc. is engaged in the
 business of creating and licensing software in the field of
 computational chemistry and represents and warrants to the
 licensee that it is not a competitor of Gaussian, Inc. and that
 it will not use this program in any manner prohibited above.
 ---------------------------------------------------------------
  

 Cite this work as:
 Gaussian 16, Revision C.01,
 M. J. Frisch, G. W. Trucks, H. B. Schlegel, G. E. Scuseria, 
 M. A. Robb, J. R. Cheeseman, G. Scalmani, V. Barone, 
 G. A. Petersson, H. Nakatsuji, X. Li, M. Caricato, A. V. Marenich, 
 J. Bloino, B. G. Janesko, R. Gomperts, B. Mennucci, H. P. Hratchian, 
 J. V. Ortiz, A. F. Izmaylov, J. L. Sonnenberg, D. Williams-Young, 
 F. Ding, F. Lipparini, F. Egidi, J. Goings, B. Peng, A. Petrone, 
 T. Henderson, D. Ranasinghe, V. G. Zakrzewski, J. Gao, N. Rega, 
 G. Zheng, W. Liang, M. Hada, M. Ehara, K. Toyota, R. Fukuda, 
 J. Hasegawa, M. Ishida, T. Nakajima, Y. Honda, O. Kitao, H. Nakai, 
 T. Vreven, K. Throssell, J. A. Montgomery, Jr., J. E. Peralta, 
 F. Ogliaro, M. J. Bearpark, J. J. Heyd, E. N. Brothers, K. N. Kudin, 
 V. N. Staroverov, T. A. Keith, R. Kobayashi, J. Normand, 
 K. Raghavachari, A. P. Rendell, J. C. Burant, S. S. Iyengar, 
 J. Tomasi, M. Cossi, J. M. Millam, M. Klene, C. Adamo, R. Cammi, 
 J. W. Ochterski, R. L. Martin, K. Morokuma, O. Farkas, 
 J. B. Foresman, and D. J. Fox, Gaussian, Inc., Wallingford CT, 2019.
 
 ******************************************
 Gaussian 16:  ES64L-G16RevC.01  3-Jul-2019
                26-Feb-2024 
 ******************************************
 %nproc=40
 Will use up to   40 processors via shared memory.
 %mem=56GB
 ------------------------------------------
 #p opt freq b3lyp/def2svpp em=gd3bj nosymm
 ------------------------------------------
 1/18=20,19=15,26=3,38=1/1,3;
 2/9=110,12=2,15=1,17=6,18=5,40=1/2;
 3/5=43,7=202,11=2,25=1,30=1,71=1,74=-5,124=41/1,2,3;
 4//1;
 5/5=2,38=5/2;
 6/7=2,8=2,9=2,10=2,28=1/1;
 7/30=1/1,2,3,16;
 1/18=20,19=15,26=3/3(2);
 2/9=110,15=1/2;
 99//99;
 2/9=110,15=1/2;
 3/5=43,7=202,11=2,25=1,30=1,71=1,74=-5,124=41/1,2,3;
 4/5=5,16=3,69=1/1;
 5/5=2,38=5/2;
 7/30=1/1,2,3,16;
 1/18=20,19=15,26=3/3(-5);
 2/9=110,15=1/2;
 6/7=2,8=2,9=2,10=2,19=2,28=1/1;
 99/9=1/99;
 Leave Link    1 at Mon Feb 26 12:05:22 2024, MaxMem=  7516192768 cpu:               1.2 elap:               0.0
 (Enter /public/apps/g16-C01//g16/l101.exe)
 ----------------------
 $$$$Singlemol####0????
 ----------------------
 Symbolic Z-matrix:
 Charge =  0 Multiplicity = 1
 C                     5.98945   2.31233  -0.65385 
 C                     5.45005   0.88625  -0.72058 
 C                     6.5933   -0.12124  -0.63922 
 C                     4.44997   0.63175   0.41782 
 C                     3.13228   1.44763   0.29328 
 O                     2.10944   0.46454   0.25033 
 C                     2.72696  -0.73706   0.31447 
 C                     1.90903  -1.93894   0.27344 
 C                     2.50191  -3.19621   0.38043 
 C                     1.75216  -4.36306   0.34746 
 C                     0.37631  -4.32629   0.20607 
 C                    -0.24108  -3.08817   0.0959 
 C                     0.52293  -1.90244   0.12928 
 O                    -0.25791  -0.80454   0.00512 
 C                    -1.53277  -1.24273  -0.10983 
 C                    -2.68074  -0.46596  -0.25892 
 C                    -2.64469   0.98689  -0.31447 
 N                    -3.67426   1.72148  -0.42928 
 C                    -3.2462    3.10237  -0.44086 
 C                    -3.91792   3.90128   0.68674 
 C                    -5.43365   3.75056   0.59446 
 C                    -3.52242   5.37344   0.61298 
 C                    -1.70075   2.99848  -0.30583 
 O                    -1.44296   1.60395  -0.2483 
 C                    -3.89565  -1.14298  -0.35524 
 C                    -3.96655  -2.52769  -0.30686 
 C                    -2.82681  -3.29828  -0.16029 
 C                    -1.60307  -2.65106  -0.06104 
 N                     3.99289  -0.73984   0.4157 
 H                     6.68241   2.48679  -1.47363 
 H                     6.52038   2.47003   0.28276 
 H                     5.18874   3.04524  -0.72065 
 H                     4.9224    0.74216  -1.67061 
 H                     6.19614  -1.1318   -0.64958 
 H                     7.2705    0.00578  -1.48059 
 H                     7.15327   0.01903   0.28254 
 H                     4.95559   0.82251   1.37237 
 H                     3.08827   2.03188  -0.63089 
 H                     2.95268   2.1064    1.14652 
 H                     3.57347  -3.23092   0.49242 
 H                     2.25417  -5.3146    0.43454 
 H                    -0.20766  -5.23334   0.18115 
 H                    -3.53992   3.54396  -1.40101 
 H                    -3.58124   3.48274   1.64236 
 H                    -5.70138   2.69832   0.60799 
 H                    -5.91577   4.25325   1.42962 
 H                    -5.79915   4.18684  -0.33233 
 H                    -3.85109   5.80428  -0.3306 
 H                    -2.44527   5.50161   0.69065 
 H                    -3.99209   5.92585   1.42349 
 H                    -1.16566   3.42116  -1.1598 
 H                    -1.33001   3.4561    0.61638 
 H                    -4.78689  -0.54781  -0.47119 
 H                    -4.92939  -3.00908  -0.38576 
 H                    -2.88103  -4.37534  -0.12319 
 
 ITRead=  0  0  0  0  0  0  0  0  0  0  0  0  0  0  0  0  0  0  0  0
 ITRead=  0  0  0  0  0  0  0  0  0  0  0  0  0  0  0  0  0  0  0  0
 ITRead=  0  0  0  0  0  0  0  0  0  0  0  0  0  0  0
 MicOpt= -1 -1 -1 -1 -1 -1 -1 -1 -1 -1 -1 -1 -1 -1 -1 -1 -1 -1 -1 -1
 MicOpt= -1 -1 -1 -1 -1 -1 -1 -1 -1 -1 -1 -1 -1 -1 -1 -1 -1 -1 -1 -1
 MicOpt= -1 -1 -1 -1 -1 -1 -1 -1 -1 -1 -1 -1 -1 -1 -1
 NAtoms=     55 NQM=       55 NQMF=       0 NMMI=      0 NMMIF=      0
                NMic=       0 NMicF=      0.
                    Isotopes and Nuclear Properties:
 (Nuclear quadrupole moments (NQMom) in fm**2, nuclear magnetic moments (NMagM)
  in nuclear magnetons)

  Atom         1           2           3           4           5           6           7           8           9          10
 IAtWgt=          12          12          12          12          12          16          12          12          12          12
 AtmWgt=  12.0000000  12.0000000  12.0000000  12.0000000  12.0000000  15.9949146  12.0000000  12.0000000  12.0000000  12.0000000
 NucSpn=           0           0           0           0           0           0           0           0           0           0
 AtZEff=  -0.0000000  -0.0000000  -0.0000000  -0.0000000  -0.0000000  -0.0000000  -0.0000000  -0.0000000  -0.0000000  -0.0000000
 NQMom=    0.0000000   0.0000000   0.0000000   0.0000000   0.0000000   0.0000000   0.0000000   0.0000000   0.0000000   0.0000000
 NMagM=    0.0000000   0.0000000   0.0000000   0.0000000   0.0000000   0.0000000   0.0000000   0.0000000   0.0000000   0.0000000
 AtZNuc=   6.0000000   6.0000000   6.0000000   6.0000000   6.0000000   8.0000000   6.0000000   6.0000000   6.0000000   6.0000000

  Atom        11          12          13          14          15          16          17          18          19          20
 IAtWgt=          12          12          12          16          12          12          12          14          12          12
 AtmWgt=  12.0000000  12.0000000  12.0000000  15.9949146  12.0000000  12.0000000  12.0000000  14.0030740  12.0000000  12.0000000
 NucSpn=           0           0           0           0           0           0           0           2           0           0
 AtZEff=  -0.0000000  -0.0000000  -0.0000000  -0.0000000  -0.0000000  -0.0000000  -0.0000000  -0.0000000  -0.0000000  -0.0000000
 NQMom=    0.0000000   0.0000000   0.0000000   0.0000000   0.0000000   0.0000000   0.0000000   2.0440000   0.0000000   0.0000000
 NMagM=    0.0000000   0.0000000   0.0000000   0.0000000   0.0000000   0.0000000   0.0000000   0.4037610   0.0000000   0.0000000
 AtZNuc=   6.0000000   6.0000000   6.0000000   8.0000000   6.0000000   6.0000000   6.0000000   7.0000000   6.0000000   6.0000000

  Atom        21          22          23          24          25          26          27          28          29          30
 IAtWgt=          12          12          12          16          12          12          12          12          14           1
 AtmWgt=  12.0000000  12.0000000  12.0000000  15.9949146  12.0000000  12.0000000  12.0000000  12.0000000  14.0030740   1.0078250
 NucSpn=           0           0           0           0           0           0           0           0           2           1
 AtZEff=  -0.0000000  -0.0000000  -0.0000000  -0.0000000  -0.0000000  -0.0000000  -0.0000000  -0.0000000  -0.0000000  -0.0000000
 NQMom=    0.0000000   0.0000000   0.0000000   0.0000000   0.0000000   0.0000000   0.0000000   0.0000000   2.0440000   0.0000000
 NMagM=    0.0000000   0.0000000   0.0000000   0.0000000   0.0000000   0.0000000   0.0000000   0.0000000   0.4037610   2.7928460
 AtZNuc=   6.0000000   6.0000000   6.0000000   8.0000000   6.0000000   6.0000000   6.0000000   6.0000000   7.0000000   1.0000000

  Atom        31          32          33          34          35          36          37          38          39          40
 IAtWgt=           1           1           1           1           1           1           1           1           1           1
 AtmWgt=   1.0078250   1.0078250   1.0078250   1.0078250   1.0078250   1.0078250   1.0078250   1.0078250   1.0078250   1.0078250
 NucSpn=           1           1           1           1           1           1           1           1           1           1
 AtZEff=  -0.0000000  -0.0000000  -0.0000000  -0.0000000  -0.0000000  -0.0000000  -0.0000000  -0.0000000  -0.0000000  -0.0000000
 NQMom=    0.0000000   0.0000000   0.0000000   0.0000000   0.0000000   0.0000000   0.0000000   0.0000000   0.0000000   0.0000000
 NMagM=    2.7928460   2.7928460   2.7928460   2.7928460   2.7928460   2.7928460   2.7928460   2.7928460   2.7928460   2.7928460
 AtZNuc=   1.0000000   1.0000000   1.0000000   1.0000000   1.0000000   1.0000000   1.0000000   1.0000000   1.0000000   1.0000000

  Atom        41          42          43          44          45          46          47          48          49          50
 IAtWgt=           1           1           1           1           1           1           1           1           1           1
 AtmWgt=   1.0078250   1.0078250   1.0078250   1.0078250   1.0078250   1.0078250   1.0078250   1.0078250   1.0078250   1.0078250
 NucSpn=           1           1           1           1           1           1           1           1           1           1
 AtZEff=  -0.0000000  -0.0000000  -0.0000000  -0.0000000  -0.0000000  -0.0000000  -0.0000000  -0.0000000  -0.0000000  -0.0000000
 NQMom=    0.0000000   0.0000000   0.0000000   0.0000000   0.0000000   0.0000000   0.0000000   0.0000000   0.0000000   0.0000000
 NMagM=    2.7928460   2.7928460   2.7928460   2.7928460   2.7928460   2.7928460   2.7928460   2.7928460   2.7928460   2.7928460
 AtZNuc=   1.0000000   1.0000000   1.0000000   1.0000000   1.0000000   1.0000000   1.0000000   1.0000000   1.0000000   1.0000000

  Atom        51          52          53          54          55
 IAtWgt=           1           1           1           1           1
 AtmWgt=   1.0078250   1.0078250   1.0078250   1.0078250   1.0078250
 NucSpn=           1           1           1           1           1
 AtZEff=  -0.0000000  -0.0000000  -0.0000000  -0.0000000  -0.0000000
 NQMom=    0.0000000   0.0000000   0.0000000   0.0000000   0.0000000
 NMagM=    2.7928460   2.7928460   2.7928460   2.7928460   2.7928460
 AtZNuc=   1.0000000   1.0000000   1.0000000   1.0000000   1.0000000
 Leave Link  101 at Mon Feb 26 12:05:22 2024, MaxMem=  7516192768 cpu:               7.0 elap:               0.2
 (Enter /public/apps/g16-C01//g16/l103.exe)

 GradGradGradGradGradGradGradGradGradGradGradGradGradGradGradGradGradGrad
 Berny optimization.
 Initialization pass.
                           ----------------------------
                           !    Initial Parameters    !
                           ! (Angstroms and Degrees)  !
 --------------------------                            --------------------------
 ! Name  Definition              Value          Derivative Info.                !
 --------------------------------------------------------------------------------
 ! R1    R(1,2)                  1.5261         estimate D2E/DX2                !
 ! R2    R(1,30)                 1.0875         estimate D2E/DX2                !
 ! R3    R(1,31)                 1.0881         estimate D2E/DX2                !
 ! R4    R(1,32)                 1.0875         estimate D2E/DX2                !
 ! R5    R(2,3)                  1.526          estimate D2E/DX2                !
 ! R6    R(2,4)                  1.5365         estimate D2E/DX2                !
 ! R7    R(2,33)                 1.0962         estimate D2E/DX2                !
 ! R8    R(3,34)                 1.0859         estimate D2E/DX2                !
 ! R9    R(3,35)                 1.0875         estimate D2E/DX2                !
 ! R10   R(3,36)                 1.0876         estimate D2E/DX2                !
 ! R11   R(4,5)                  1.5548         estimate D2E/DX2                !
 ! R12   R(4,29)                 1.4457         estimate D2E/DX2                !
 ! R13   R(4,37)                 1.0969         estimate D2E/DX2                !
 ! R14   R(5,6)                  1.4193         estimate D2E/DX2                !
 ! R15   R(5,38)                 1.0942         estimate D2E/DX2                !
 ! R16   R(5,39)                 1.0928         estimate D2E/DX2                !
 ! R17   R(6,7)                  1.3525         estimate D2E/DX2                !
 ! R18   R(7,8)                  1.4544         estimate D2E/DX2                !
 ! R19   R(7,29)                 1.27           estimate D2E/DX2                !
 ! R20   R(8,9)                  1.3942         estimate D2E/DX2                !
 ! R21   R(8,13)                 1.3941         estimate D2E/DX2                !
 ! R22   R(9,10)                 1.3874         estimate D2E/DX2                !
 ! R23   R(9,40)                 1.078          estimate D2E/DX2                !
 ! R24   R(10,11)                1.3836         estimate D2E/DX2                !
 ! R25   R(10,41)                1.0794         estimate D2E/DX2                !
 ! R26   R(11,12)                1.3879         estimate D2E/DX2                !
 ! R27   R(11,42)                1.0791         estimate D2E/DX2                !
 ! R28   R(12,13)                1.4109         estimate D2E/DX2                !
 ! R29   R(12,28)                1.439          estimate D2E/DX2                !
 ! R30   R(13,14)                1.353          estimate D2E/DX2                !
 ! R31   R(14,15)                1.353          estimate D2E/DX2                !
 ! R32   R(15,16)                1.3941         estimate D2E/DX2                !
 ! R33   R(15,28)                1.4109         estimate D2E/DX2                !
 ! R34   R(16,17)                1.4544         estimate D2E/DX2                !
 ! R35   R(16,25)                1.3942         estimate D2E/DX2                !
 ! R36   R(17,18)                1.27           estimate D2E/DX2                !
 ! R37   R(17,24)                1.3525         estimate D2E/DX2                !
 ! R38   R(18,19)                1.4458         estimate D2E/DX2                !
 ! R39   R(19,20)                1.5365         estimate D2E/DX2                !
 ! R40   R(19,23)                1.5548         estimate D2E/DX2                !
 ! R41   R(19,43)                1.0969         estimate D2E/DX2                !
 ! R42   R(20,21)                1.526          estimate D2E/DX2                !
 ! R43   R(20,22)                1.5261         estimate D2E/DX2                !
 ! R44   R(20,44)                1.0962         estimate D2E/DX2                !
 ! R45   R(21,45)                1.0859         estimate D2E/DX2                !
 ! R46   R(21,46)                1.0875         estimate D2E/DX2                !
 ! R47   R(21,47)                1.0876         estimate D2E/DX2                !
 ! R48   R(22,48)                1.0881         estimate D2E/DX2                !
 ! R49   R(22,49)                1.0875         estimate D2E/DX2                !
 ! R50   R(22,50)                1.0875         estimate D2E/DX2                !
 ! R51   R(23,24)                1.4193         estimate D2E/DX2                !
 ! R52   R(23,51)                1.0928         estimate D2E/DX2                !
 ! R53   R(23,52)                1.0942         estimate D2E/DX2                !
 ! R54   R(25,26)                1.3874         estimate D2E/DX2                !
 ! R55   R(25,53)                1.078          estimate D2E/DX2                !
 ! R56   R(26,27)                1.3836         estimate D2E/DX2                !
 ! R57   R(26,54)                1.0794         estimate D2E/DX2                !
 ! R58   R(27,28)                1.3879         estimate D2E/DX2                !
 ! R59   R(27,55)                1.0791         estimate D2E/DX2                !
 ! A1    A(2,1,30)             110.0079         estimate D2E/DX2                !
 ! A2    A(2,1,31)             110.2135         estimate D2E/DX2                !
 ! A3    A(2,1,32)             111.5198         estimate D2E/DX2                !
 ! A4    A(30,1,31)            108.3418         estimate D2E/DX2                !
 ! A5    A(30,1,32)            108.3449         estimate D2E/DX2                !
 ! A6    A(31,1,32)            108.3277         estimate D2E/DX2                !
 ! A7    A(1,2,3)              110.4757         estimate D2E/DX2                !
 ! A8    A(1,2,4)              110.6353         estimate D2E/DX2                !
 ! A9    A(1,2,33)             109.3198         estimate D2E/DX2                !
 ! A10   A(3,2,4)              109.8015         estimate D2E/DX2                !
 ! A11   A(3,2,33)             108.6648         estimate D2E/DX2                !
 ! A12   A(4,2,33)             107.8801         estimate D2E/DX2                !
 ! A13   A(2,3,34)             109.8714         estimate D2E/DX2                !
 ! A14   A(2,3,35)             110.3751         estimate D2E/DX2                !
 ! A15   A(2,3,36)             110.2292         estimate D2E/DX2                !
 ! A16   A(34,3,35)            109.2125         estimate D2E/DX2                !
 ! A17   A(34,3,36)            108.4473         estimate D2E/DX2                !
 ! A18   A(35,3,36)            108.6642         estimate D2E/DX2                !
 ! A19   A(2,4,5)              113.9126         estimate D2E/DX2                !
 ! A20   A(2,4,29)             111.2124         estimate D2E/DX2                !
 ! A21   A(2,4,37)             108.4165         estimate D2E/DX2                !
 ! A22   A(5,4,29)             103.2835         estimate D2E/DX2                !
 ! A23   A(5,4,37)             111.6598         estimate D2E/DX2                !
 ! A24   A(29,4,37)            108.1797         estimate D2E/DX2                !
 ! A25   A(4,5,6)              104.4601         estimate D2E/DX2                !
 ! A26   A(4,5,38)             112.4521         estimate D2E/DX2                !
 ! A27   A(4,5,39)             113.1449         estimate D2E/DX2                !
 ! A28   A(6,5,38)             108.3777         estimate D2E/DX2                !
 ! A29   A(6,5,39)             108.828          estimate D2E/DX2                !
 ! A30   A(38,5,39)            109.3264         estimate D2E/DX2                !
 ! A31   A(5,6,7)              106.5524         estimate D2E/DX2                !
 ! A32   A(6,7,8)              118.429          estimate D2E/DX2                !
 ! A33   A(6,7,29)             117.4416         estimate D2E/DX2                !
 ! A34   A(8,7,29)             124.1279         estimate D2E/DX2                !
 ! A35   A(7,8,9)              120.2596         estimate D2E/DX2                !
 ! A36   A(7,8,13)             122.7153         estimate D2E/DX2                !
 ! A37   A(9,8,13)             117.0251         estimate D2E/DX2                !
 ! A38   A(8,9,10)             121.7916         estimate D2E/DX2                !
 ! A39   A(8,9,40)             117.371          estimate D2E/DX2                !
 ! A40   A(10,9,40)            120.8373         estimate D2E/DX2                !
 ! A41   A(9,10,11)            121.1632         estimate D2E/DX2                !
 ! A42   A(9,10,41)            119.2214         estimate D2E/DX2                !
 ! A43   A(11,10,41)           119.6154         estimate D2E/DX2                !
 ! A44   A(10,11,12)           118.3053         estimate D2E/DX2                !
 ! A45   A(10,11,42)           121.2101         estimate D2E/DX2                !
 ! A46   A(12,11,42)           120.4846         estimate D2E/DX2                !
 ! A47   A(11,12,13)           120.4603         estimate D2E/DX2                !
 ! A48   A(11,12,28)           134.4804         estimate D2E/DX2                !
 ! A49   A(13,12,28)           105.0594         estimate D2E/DX2                !
 ! A50   A(8,13,12)            121.2544         estimate D2E/DX2                !
 ! A51   A(8,13,14)            127.1979         estimate D2E/DX2                !
 ! A52   A(12,13,14)           111.5476         estimate D2E/DX2                !
 ! A53   A(13,14,15)           106.7856         estimate D2E/DX2                !
 ! A54   A(14,15,16)           127.1967         estimate D2E/DX2                !
 ! A55   A(14,15,28)           111.5487         estimate D2E/DX2                !
 ! A56   A(16,15,28)           121.2546         estimate D2E/DX2                !
 ! A57   A(15,16,17)           122.7035         estimate D2E/DX2                !
 ! A58   A(15,16,25)           117.0264         estimate D2E/DX2                !
 ! A59   A(17,16,25)           120.2701         estimate D2E/DX2                !
 ! A60   A(16,17,18)           124.1383         estimate D2E/DX2                !
 ! A61   A(16,17,24)           118.4194         estimate D2E/DX2                !
 ! A62   A(18,17,24)           117.4412         estimate D2E/DX2                !
 ! A63   A(17,18,19)           108.2508         estimate D2E/DX2                !
 ! A64   A(18,19,20)           111.1801         estimate D2E/DX2                !
 ! A65   A(18,19,23)           103.2838         estimate D2E/DX2                !
 ! A66   A(18,19,43)           108.1951         estimate D2E/DX2                !
 ! A67   A(20,19,23)           113.9246         estimate D2E/DX2                !
 ! A68   A(20,19,43)           108.4208         estimate D2E/DX2                !
 ! A69   A(23,19,43)           111.6595         estimate D2E/DX2                !
 ! A70   A(19,20,21)           109.7846         estimate D2E/DX2                !
 ! A71   A(19,20,22)           110.6582         estimate D2E/DX2                !
 ! A72   A(19,20,44)           107.8753         estimate D2E/DX2                !
 ! A73   A(21,20,22)           110.4726         estimate D2E/DX2                !
 ! A74   A(21,20,44)           108.6664         estimate D2E/DX2                !
 ! A75   A(22,20,44)           109.3199         estimate D2E/DX2                !
 ! A76   A(20,21,45)           109.8688         estimate D2E/DX2                !
 ! A77   A(20,21,46)           110.3806         estimate D2E/DX2                !
 ! A78   A(20,21,47)           110.2253         estimate D2E/DX2                !
 ! A79   A(45,21,46)           109.2121         estimate D2E/DX2                !
 ! A80   A(45,21,47)           108.4498         estimate D2E/DX2                !
 ! A81   A(46,21,47)           108.6631         estimate D2E/DX2                !
 ! A82   A(20,22,48)           110.2173         estimate D2E/DX2                !
 ! A83   A(20,22,49)           111.5254         estimate D2E/DX2                !
 ! A84   A(20,22,50)           110.0016         estimate D2E/DX2                !
 ! A85   A(48,22,49)           108.3274         estimate D2E/DX2                !
 ! A86   A(48,22,50)           108.3434         estimate D2E/DX2                !
 ! A87   A(49,22,50)           108.3405         estimate D2E/DX2                !
 ! A88   A(19,23,24)           104.4601         estimate D2E/DX2                !
 ! A89   A(19,23,51)           113.1399         estimate D2E/DX2                !
 ! A90   A(19,23,52)           112.459          estimate D2E/DX2                !
 ! A91   A(24,23,51)           108.8303         estimate D2E/DX2                !
 ! A92   A(24,23,52)           108.3738         estimate D2E/DX2                !
 ! A93   A(51,23,52)           109.3259         estimate D2E/DX2                !
 ! A94   A(17,24,23)           106.5534         estimate D2E/DX2                !
 ! A95   A(16,25,26)           121.7902         estimate D2E/DX2                !
 ! A96   A(16,25,53)           117.374          estimate D2E/DX2                !
 ! A97   A(26,25,53)           120.8357         estimate D2E/DX2                !
 ! A98   A(25,26,27)           121.1636         estimate D2E/DX2                !
 ! A99   A(25,26,54)           119.2211         estimate D2E/DX2                !
 ! A100  A(27,26,54)           119.6154         estimate D2E/DX2                !
 ! A101  A(26,27,28)           118.3058         estimate D2E/DX2                !
 ! A102  A(26,27,55)           121.2098         estimate D2E/DX2                !
 ! A103  A(28,27,55)           120.4844         estimate D2E/DX2                !
 ! A104  A(12,28,15)           105.0587         estimate D2E/DX2                !
 ! A105  A(12,28,27)           134.482          estimate D2E/DX2                !
 ! A106  A(15,28,27)           120.4593         estimate D2E/DX2                !
 ! A107  A(4,29,7)             108.2516         estimate D2E/DX2                !
 ! D1    D(30,1,2,3)            59.183          estimate D2E/DX2                !
 ! D2    D(30,1,2,4)          -179.013          estimate D2E/DX2                !
 ! D3    D(30,1,2,33)          -60.3488         estimate D2E/DX2                !
 ! D4    D(31,1,2,3)           -60.2198         estimate D2E/DX2                !
 ! D5    D(31,1,2,4)            61.5841         estimate D2E/DX2                !
 ! D6    D(31,1,2,33)         -179.7517         estimate D2E/DX2                !
 ! D7    D(32,1,2,3)           179.4235         estimate D2E/DX2                !
 ! D8    D(32,1,2,4)           -58.7726         estimate D2E/DX2                !
 ! D9    D(32,1,2,33)           59.8916         estimate D2E/DX2                !
 ! D10   D(1,2,3,34)           177.8651         estimate D2E/DX2                !
 ! D11   D(1,2,3,35)           -61.6376         estimate D2E/DX2                !
 ! D12   D(1,2,3,36)            58.4078         estimate D2E/DX2                !
 ! D13   D(4,2,3,34)            55.5707         estimate D2E/DX2                !
 ! D14   D(4,2,3,35)           176.0679         estimate D2E/DX2                !
 ! D15   D(4,2,3,36)           -63.8866         estimate D2E/DX2                !
 ! D16   D(33,2,3,34)          -62.2082         estimate D2E/DX2                !
 ! D17   D(33,2,3,35)           58.289          estimate D2E/DX2                !
 ! D18   D(33,2,3,36)          178.3345         estimate D2E/DX2                !
 ! D19   D(1,2,4,5)             67.2998         estimate D2E/DX2                !
 ! D20   D(1,2,4,29)          -176.4875         estimate D2E/DX2                !
 ! D21   D(1,2,4,37)           -57.6729         estimate D2E/DX2                !
 ! D22   D(3,2,4,5)           -170.5007         estimate D2E/DX2                !
 ! D23   D(3,2,4,29)           -54.288          estimate D2E/DX2                !
 ! D24   D(3,2,4,37)            64.5266         estimate D2E/DX2                !
 ! D25   D(33,2,4,5)           -52.235          estimate D2E/DX2                !
 ! D26   D(33,2,4,29)           63.9777         estimate D2E/DX2                !
 ! D27   D(33,2,4,37)         -177.2077         estimate D2E/DX2                !
 ! D28   D(2,4,5,6)            121.3195         estimate D2E/DX2                !
 ! D29   D(2,4,5,38)             4.0058         estimate D2E/DX2                !
 ! D30   D(2,4,5,39)          -120.4714         estimate D2E/DX2                !
 ! D31   D(29,4,5,6)             0.5649         estimate D2E/DX2                !
 ! D32   D(29,4,5,38)         -116.7487         estimate D2E/DX2                !
 ! D33   D(29,4,5,39)          118.774          estimate D2E/DX2                !
 ! D34   D(37,4,5,6)          -115.4553         estimate D2E/DX2                !
 ! D35   D(37,4,5,38)          127.231          estimate D2E/DX2                !
 ! D36   D(37,4,5,39)            2.7538         estimate D2E/DX2                !
 ! D37   D(2,4,29,7)          -122.5281         estimate D2E/DX2                !
 ! D38   D(5,4,29,7)             0.0457         estimate D2E/DX2                !
 ! D39   D(37,4,29,7)          118.5154         estimate D2E/DX2                !
 ! D40   D(4,5,6,7)             -0.945          estimate D2E/DX2                !
 ! D41   D(38,5,6,7)           119.1393         estimate D2E/DX2                !
 ! D42   D(39,5,6,7)          -122.0624         estimate D2E/DX2                !
 ! D43   D(5,6,7,8)           -179.3055         estimate D2E/DX2                !
 ! D44   D(5,6,7,29)             1.1216         estimate D2E/DX2                !
 ! D45   D(6,7,8,9)           -177.9228         estimate D2E/DX2                !
 ! D46   D(6,7,8,13)             2.0479         estimate D2E/DX2                !
 ! D47   D(29,7,8,9)             1.6193         estimate D2E/DX2                !
 ! D48   D(29,7,8,13)         -178.41           estimate D2E/DX2                !
 ! D49   D(6,7,29,4)            -0.7296         estimate D2E/DX2                !
 ! D50   D(8,7,29,4)           179.7242         estimate D2E/DX2                !
 ! D51   D(7,8,9,10)           179.8901         estimate D2E/DX2                !
 ! D52   D(7,8,9,40)            -0.0096         estimate D2E/DX2                !
 ! D53   D(13,8,9,10)           -0.0822         estimate D2E/DX2                !
 ! D54   D(13,8,9,40)         -179.9819         estimate D2E/DX2                !
 ! D55   D(7,8,13,12)         -179.8735         estimate D2E/DX2                !
 ! D56   D(7,8,13,14)            0.2194         estimate D2E/DX2                !
 ! D57   D(9,8,13,12)            0.0981         estimate D2E/DX2                !
 ! D58   D(9,8,13,14)         -179.809          estimate D2E/DX2                !
 ! D59   D(8,9,10,11)            0.0021         estimate D2E/DX2                !
 ! D60   D(8,9,10,41)         -179.9584         estimate D2E/DX2                !
 ! D61   D(40,9,10,11)         179.8983         estimate D2E/DX2                !
 ! D62   D(40,9,10,41)          -0.0621         estimate D2E/DX2                !
 ! D63   D(9,10,11,12)           0.0635         estimate D2E/DX2                !
 ! D64   D(9,10,11,42)        -179.9489         estimate D2E/DX2                !
 ! D65   D(41,10,11,12)       -179.9763         estimate D2E/DX2                !
 ! D66   D(41,10,11,42)          0.0114         estimate D2E/DX2                !
 ! D67   D(10,11,12,13)         -0.0468         estimate D2E/DX2                !
 ! D68   D(10,11,12,28)        179.9083         estimate D2E/DX2                !
 ! D69   D(42,11,12,13)        179.9654         estimate D2E/DX2                !
 ! D70   D(42,11,12,28)         -0.0794         estimate D2E/DX2                !
 ! D71   D(11,12,13,8)          -0.0354         estimate D2E/DX2                !
 ! D72   D(11,12,13,14)        179.885          estimate D2E/DX2                !
 ! D73   D(28,12,13,8)         179.9977         estimate D2E/DX2                !
 ! D74   D(28,12,13,14)         -0.0819         estimate D2E/DX2                !
 ! D75   D(11,12,28,15)       -179.8667         estimate D2E/DX2                !
 ! D76   D(11,12,28,27)          0.1573         estimate D2E/DX2                !
 ! D77   D(13,12,28,15)          0.0932         estimate D2E/DX2                !
 ! D78   D(13,12,28,27)       -179.8828         estimate D2E/DX2                !
 ! D79   D(8,13,14,15)         179.9491         estimate D2E/DX2                !
 ! D80   D(12,13,14,15)          0.0345         estimate D2E/DX2                !
 ! D81   D(13,14,15,16)        179.9746         estimate D2E/DX2                !
 ! D82   D(13,14,15,28)          0.0296         estimate D2E/DX2                !
 ! D83   D(14,15,16,17)          0.1279         estimate D2E/DX2                !
 ! D84   D(14,15,16,25)       -179.856          estimate D2E/DX2                !
 ! D85   D(28,15,16,17)       -179.9319         estimate D2E/DX2                !
 ! D86   D(28,15,16,25)          0.0842         estimate D2E/DX2                !
 ! D87   D(14,15,28,12)         -0.0788         estimate D2E/DX2                !
 ! D88   D(14,15,28,27)        179.9013         estimate D2E/DX2                !
 ! D89   D(16,15,28,12)        179.9724         estimate D2E/DX2                !
 ! D90   D(16,15,28,27)         -0.0475         estimate D2E/DX2                !
 ! D91   D(15,16,17,18)       -178.8915         estimate D2E/DX2                !
 ! D92   D(15,16,17,24)          1.5123         estimate D2E/DX2                !
 ! D93   D(25,16,17,18)          1.0919         estimate D2E/DX2                !
 ! D94   D(25,16,17,24)       -178.5043         estimate D2E/DX2                !
 ! D95   D(15,16,25,26)         -0.0565         estimate D2E/DX2                !
 ! D96   D(15,16,25,53)       -179.9687         estimate D2E/DX2                !
 ! D97   D(17,16,25,26)        179.9592         estimate D2E/DX2                !
 ! D98   D(17,16,25,53)          0.047          estimate D2E/DX2                !
 ! D99   D(16,17,18,19)        179.6417         estimate D2E/DX2                !
 ! D100  D(24,17,18,19)         -0.7584         estimate D2E/DX2                !
 ! D101  D(16,17,24,23)       -179.2484         estimate D2E/DX2                !
 ! D102  D(18,17,24,23)          1.1282         estimate D2E/DX2                !
 ! D103  D(17,18,19,20)       -122.4899         estimate D2E/DX2                !
 ! D104  D(17,18,19,23)          0.0814         estimate D2E/DX2                !
 ! D105  D(17,18,19,43)        118.5579         estimate D2E/DX2                !
 ! D106  D(18,19,20,21)        -54.4423         estimate D2E/DX2                !
 ! D107  D(18,19,20,22)       -176.6418         estimate D2E/DX2                !
 ! D108  D(18,19,20,44)         63.813          estimate D2E/DX2                !
 ! D109  D(23,19,20,21)       -170.6411         estimate D2E/DX2                !
 ! D110  D(23,19,20,22)         67.1594         estimate D2E/DX2                !
 ! D111  D(23,19,20,44)        -52.3858         estimate D2E/DX2                !
 ! D112  D(43,19,20,21)         64.3746         estimate D2E/DX2                !
 ! D113  D(43,19,20,22)        -57.8249         estimate D2E/DX2                !
 ! D114  D(43,19,20,44)       -177.3701         estimate D2E/DX2                !
 ! D115  D(18,19,23,24)          0.5336         estimate D2E/DX2                !
 ! D116  D(18,19,23,51)        118.743          estimate D2E/DX2                !
 ! D117  D(18,19,23,52)       -116.7789         estimate D2E/DX2                !
 ! D118  D(20,19,23,24)        121.2555         estimate D2E/DX2                !
 ! D119  D(20,19,23,51)       -120.5352         estimate D2E/DX2                !
 ! D120  D(20,19,23,52)          3.9429         estimate D2E/DX2                !
 ! D121  D(43,19,23,24)       -115.5047         estimate D2E/DX2                !
 ! D122  D(43,19,23,51)          2.7047         estimate D2E/DX2                !
 ! D123  D(43,19,23,52)        127.1828         estimate D2E/DX2                !
 ! D124  D(19,20,21,45)         55.4438         estimate D2E/DX2                !
 ! D125  D(19,20,21,46)        175.9424         estimate D2E/DX2                !
 ! D126  D(19,20,21,47)        -64.0126         estimate D2E/DX2                !
 ! D127  D(22,20,21,45)        177.7537         estimate D2E/DX2                !
 ! D128  D(22,20,21,46)        -61.7477         estimate D2E/DX2                !
 ! D129  D(22,20,21,47)         58.2973         estimate D2E/DX2                !
 ! D130  D(44,20,21,45)        -62.3205         estimate D2E/DX2                !
 ! D131  D(44,20,21,46)         58.1781         estimate D2E/DX2                !
 ! D132  D(44,20,21,47)        178.2232         estimate D2E/DX2                !
 ! D133  D(19,20,22,48)         61.3955         estimate D2E/DX2                !
 ! D134  D(19,20,22,49)        -58.967          estimate D2E/DX2                !
 ! D135  D(19,20,22,50)       -179.2013         estimate D2E/DX2                !
 ! D136  D(21,20,22,48)        -60.4005         estimate D2E/DX2                !
 ! D137  D(21,20,22,49)        179.2371         estimate D2E/DX2                !
 ! D138  D(21,20,22,50)         59.0027         estimate D2E/DX2                !
 ! D139  D(44,20,22,48)       -179.9324         estimate D2E/DX2                !
 ! D140  D(44,20,22,49)         59.7051         estimate D2E/DX2                !
 ! D141  D(44,20,22,50)        -60.5292         estimate D2E/DX2                !
 ! D142  D(19,23,24,17)         -0.9283         estimate D2E/DX2                !
 ! D143  D(51,23,24,17)       -122.041          estimate D2E/DX2                !
 ! D144  D(52,23,24,17)        119.1621         estimate D2E/DX2                !
 ! D145  D(16,25,26,27)         -0.0097         estimate D2E/DX2                !
 ! D146  D(16,25,26,54)       -179.9789         estimate D2E/DX2                !
 ! D147  D(53,25,26,27)        179.8995         estimate D2E/DX2                !
 ! D148  D(53,25,26,54)         -0.0697         estimate D2E/DX2                !
 ! D149  D(25,26,27,28)          0.0487         estimate D2E/DX2                !
 ! D150  D(25,26,27,55)       -179.9615         estimate D2E/DX2                !
 ! D151  D(54,26,27,28)       -179.9823         estimate D2E/DX2                !
 ! D152  D(54,26,27,55)          0.0076         estimate D2E/DX2                !
 ! D153  D(26,27,28,12)        179.9526         estimate D2E/DX2                !
 ! D154  D(26,27,28,15)         -0.0205         estimate D2E/DX2                !
 ! D155  D(55,27,28,12)         -0.0373         estimate D2E/DX2                !
 ! D156  D(55,27,28,15)        179.9895         estimate D2E/DX2                !
 --------------------------------------------------------------------------------
 Trust Radius=3.00D-01 FncErr=1.00D-07 GrdErr=1.00D-06 EigMax=2.50D+02 EigMin=1.00D-04
 Number of steps in this run=    330 maximum allowed number of steps=    330.
 GradGradGradGradGradGradGradGradGradGradGradGradGradGradGradGradGradGrad

 Leave Link  103 at Mon Feb 26 12:05:22 2024, MaxMem=  7516192768 cpu:               0.3 elap:               0.0
 (Enter /public/apps/g16-C01//g16/l202.exe)
 Symmetry turned off by external request.
 Stoichiometry    C24H26N2O3
 Framework group  C1[X(C24H26N2O3)]
 Deg. of freedom   159
 Full point group                 C1      NOp   1
                          Input orientation:                          
 ---------------------------------------------------------------------
 Center     Atomic      Atomic             Coordinates (Angstroms)
 Number     Number       Type             X           Y           Z
 ---------------------------------------------------------------------
      1          6           0        5.989446    2.312333   -0.653848
      2          6           0        5.450052    0.886249   -0.720582
      3          6           0        6.593298   -0.121235   -0.639216
      4          6           0        4.449974    0.631749    0.417824
      5          6           0        3.132277    1.447631    0.293278
      6          8           0        2.109438    0.464543    0.250329
      7          6           0        2.726961   -0.737058    0.314474
      8          6           0        1.909031   -1.938940    0.273444
      9          6           0        2.501914   -3.196211    0.380429
     10          6           0        1.752155   -4.363059    0.347458
     11          6           0        0.376308   -4.326289    0.206072
     12          6           0       -0.241078   -3.088166    0.095900
     13          6           0        0.522925   -1.902442    0.129275
     14          8           0       -0.257909   -0.804537    0.005124
     15          6           0       -1.532774   -1.242731   -0.109831
     16          6           0       -2.680737   -0.465960   -0.258923
     17          6           0       -2.644685    0.986886   -0.314472
     18          7           0       -3.674256    1.721484   -0.429276
     19          6           0       -3.246202    3.102370   -0.440862
     20          6           0       -3.917915    3.901284    0.686742
     21          6           0       -5.433647    3.750560    0.594462
     22          6           0       -3.522416    5.373441    0.612979
     23          6           0       -1.700747    2.998475   -0.305825
     24          8           0       -1.442963    1.603954   -0.248295
     25          6           0       -3.895653   -1.142984   -0.355237
     26          6           0       -3.966551   -2.527689   -0.306864
     27          6           0       -2.826812   -3.298278   -0.160289
     28          6           0       -1.603074   -2.651063   -0.061042
     29          7           0        3.992894   -0.739836    0.415701
     30          1           0        6.682410    2.486789   -1.473627
     31          1           0        6.520384    2.470029    0.282758
     32          1           0        5.188743    3.045236   -0.720645
     33          1           0        4.922400    0.742155   -1.670610
     34          1           0        6.196141   -1.131796   -0.649583
     35          1           0        7.270499    0.005780   -1.480591
     36          1           0        7.153273    0.019028    0.282537
     37          1           0        4.955586    0.822512    1.372369
     38          1           0        3.088267    2.031877   -0.630889
     39          1           0        2.952680    2.106400    1.146520
     40          1           0        3.573474   -3.230922    0.492423
     41          1           0        2.254169   -5.314597    0.434539
     42          1           0       -0.207663   -5.233338    0.181154
     43          1           0       -3.539923    3.543960   -1.401008
     44          1           0       -3.581240    3.482737    1.642355
     45          1           0       -5.701383    2.698315    0.607985
     46          1           0       -5.915770    4.253254    1.429623
     47          1           0       -5.799153    4.186844   -0.332334
     48          1           0       -3.851090    5.804282   -0.330597
     49          1           0       -2.445270    5.501614    0.690652
     50          1           0       -3.992090    5.925850    1.423488
     51          1           0       -1.165657    3.421157   -1.159805
     52          1           0       -1.330012    3.456101    0.616379
     53          1           0       -4.786893   -0.547806   -0.471190
     54          1           0       -4.929393   -3.009083   -0.385757
     55          1           0       -2.881028   -4.375342   -0.123193
 ---------------------------------------------------------------------
 Rotational constants (GHZ):           0.2083295           0.1041600           0.0709810
 Leave Link  202 at Mon Feb 26 12:05:22 2024, MaxMem=  7516192768 cpu:               0.2 elap:               0.0
 (Enter /public/apps/g16-C01//g16/l301.exe)
 Standard basis: def2SVPP (5D, 7F)
 Ernie: Thresh=  0.10000D-02 Tol=  0.10000D-05 Strict=F.
   458 basis functions,   829 primitive gaussians,   487 cartesian basis functions
   104 alpha electrons      104 beta electrons
       nuclear repulsion energy      2697.2589982393 Hartrees.
 IExCor=  402 DFT=T Ex+Corr=B3LYP ExCW=0 ScaHFX=  0.200000
 ScaDFX=  0.800000  0.720000  1.000000  0.810000 ScalE2=  1.000000  1.000000
 IRadAn=      5 IRanWt=     -1 IRanGd=            0 ICorTp=0 IEmpDi=141
 NAtoms=   55 NActive=   55 NUniq=   55 SFac= 1.00D+00 NAtFMM=   60 NAOKFM=F Big=F
 Integral buffers will be    131072 words long.
 Raffenetti 2 integral format.
 Two-electron integral symmetry is turned off.
 R6Disp:  Grimme-D3(BJ) Dispersion energy=       -0.1154032960 Hartrees.
 Nuclear repulsion after empirical dispersion term =     2697.1435949433 Hartrees.
 Leave Link  301 at Mon Feb 26 12:05:22 2024, MaxMem=  7516192768 cpu:               1.1 elap:               0.0
 (Enter /public/apps/g16-C01//g16/l302.exe)
 NPDir=0 NMtPBC=     1 NCelOv=     1 NCel=       1 NClECP=     1 NCelD=      1
         NCelK=      1 NCelE2=     1 NClLst=     1 CellRange=     0.0.
 One-electron integrals computed using PRISM.
   1 Symmetry operations used in ECPInt.
 ECPInt:  NShTT=   25651 NPrTT=  102833 LenC2=   21651 LenP2D=   55032.
 LDataN:  DoStor=T MaxTD1= 4 Len=   56
 NBasis=   458 RedAO= T EigKep=  1.86D-04  NBF=   458
 NBsUse=   458 1.00D-06 EigRej= -1.00D+00 NBFU=   458
 Precomputing XC quadrature grid using
 IXCGrd= 4 IRadAn=           5 IRanWt=          -1 IRanGd=           0 AccXCQ= 0.00D+00.
 Generated NRdTot=       0 NPtTot=           0 NUsed=           0 NTot=          32
 NSgBfM=   480   480   480   480   480 MxSgAt=    55 MxSgA2=    55.
 Leave Link  302 at Mon Feb 26 12:05:23 2024, MaxMem=  7516192768 cpu:              17.8 elap:               0.5
 (Enter /public/apps/g16-C01//g16/l303.exe)
 DipDrv:  MaxL=1.
 Leave Link  303 at Mon Feb 26 12:05:23 2024, MaxMem=  7516192768 cpu:               1.9 elap:               0.1
 (Enter /public/apps/g16-C01//g16/l401.exe)
 ExpMin= 1.22D-01 ExpMax= 2.27D+03 ExpMxC= 3.41D+02 IAcc=3 IRadAn=         5 AccDes= 0.00D+00
 Harris functional with IExCor=  402 and IRadAn=       5 diagonalized for initial guess.
 HarFok:  IExCor=  402 AccDes= 0.00D+00 IRadAn=         5 IDoV= 1 UseB2=F ITyADJ=14
 ICtDFT=  3500011 ScaDFX=  1.000000  1.000000  1.000000  1.000000
 FoFCou: FMM=F IPFlag=           0 FMFlag=      100000 FMFlg1=           0
         NFxFlg=           0 DoJE=T BraDBF=F KetDBF=T FulRan=T
         wScrn=  0.000000 ICntrl=       500 IOpCl=  0 I1Cent=   200000004 NGrid=           0
         NMat0=    1 NMatS0=      1 NMatT0=    0 NMatD0=    1 NMtDS0=    0 NMtDT0=    0
 Symmetry not used in FoFCou.
 Harris En= -1264.49362637386    
 JPrj=0 DoOrth=F DoCkMO=F.
 Leave Link  401 at Mon Feb 26 12:05:23 2024, MaxMem=  7516192768 cpu:              33.5 elap:               0.9
 (Enter /public/apps/g16-C01//g16/l502.exe)
 Two-electron integral symmetry not used.
 Closed shell SCF:
 Using DIIS extrapolation, IDIIS=  1040.
 NGot=  7516192768 LenX=  7515693379 LenY=  7515455723
 Requested convergence on RMS density matrix=1.00D-08 within 128 cycles.
 Requested convergence on MAX density matrix=1.00D-06.
 Requested convergence on             energy=1.00D-06.
 No special actions if energy rises.
 Fock matrices will be formed incrementally for  20 cycles.
 Integral accuracy reduced to 1.0D-05 until final iterations.

 Cycle   1  Pass 0  IDiag  1:
 FoFJK:  IHMeth= 1 ICntrl=       0 DoSepK=F KAlg= 0 I1Cent=           0 FoldK=F
 IRaf= 740000000 NMat=       1 IRICut=       1 DoRegI=T DoRafI=F ISym2E= 0 IDoP0=0 IntGTp=1.
 FoFCou: FMM=F IPFlag=           0 FMFlag=      100000 FMFlg1=           0
         NFxFlg=           0 DoJE=F BraDBF=F KetDBF=F FulRan=T
         wScrn=  0.000000 ICntrl=         0 IOpCl=  0 I1Cent=           0 NGrid=           0
         NMat0=    1 NMatS0=      1 NMatT0=    0 NMatD0=    1 NMtDS0=    0 NMtDT0=    0
 Symmetry not used in FoFCou.
 E= -1263.88001920719    
 DIIS: error= 3.86D-02 at cycle   1 NSaved=   1.
 NSaved= 1 IEnMin= 1 EnMin= -1263.88001920719     IErMin= 1 ErrMin= 3.86D-02
 ErrMax= 3.86D-02  0.00D+00 EMaxC= 1.00D-01 BMatC= 5.95D-01 BMatP= 5.95D-01
 IDIUse=3 WtCom= 6.14D-01 WtEn= 3.86D-01
 Coeff-Com:  0.100D+01
 Coeff-En:   0.100D+01
 Coeff:      0.100D+01
 Gap=     0.176 Goal=   None    Shift=    0.000
 GapD=    0.176 DampG=1.000 DampE=0.500 DampFc=0.5000 IDamp=-1.
 Damping current iteration by 5.00D-01
 RMSDP=5.40D-03 MaxDP=1.77D-01              OVMax= 2.81D-01

 Cycle   2  Pass 0  IDiag  1:
 RMSU=  2.58D-03    CP:  9.57D-01
 E= -1264.11499195241     Delta-E=       -0.234972745226 Rises=F Damp=T
 DIIS: error= 8.51D-03 at cycle   2 NSaved=   2.
 NSaved= 2 IEnMin= 2 EnMin= -1264.11499195241     IErMin= 2 ErrMin= 8.51D-03
 ErrMax= 8.51D-03  0.00D+00 EMaxC= 1.00D-01 BMatC= 6.66D-02 BMatP= 5.95D-01
 IDIUse=3 WtCom= 9.15D-01 WtEn= 8.51D-02
 Coeff-Com:  0.148D+00 0.852D+00
 Coeff-En:   0.240D+00 0.760D+00
 Coeff:      0.156D+00 0.844D+00
 Gap=     0.165 Goal=   None    Shift=    0.000
 RMSDP=2.14D-03 MaxDP=8.12D-02 DE=-2.35D-01 OVMax= 2.79D-01

 Cycle   3  Pass 0  IDiag  1:
 RMSU=  2.05D-03    CP:  9.25D-01  9.41D-01
 E= -1264.41524498797     Delta-E=       -0.300253035559 Rises=F Damp=F
 DIIS: error= 1.55D-02 at cycle   3 NSaved=   3.
 NSaved= 3 IEnMin= 3 EnMin= -1264.41524498797     IErMin= 2 ErrMin= 8.51D-03
 ErrMax= 1.55D-02  0.00D+00 EMaxC= 1.00D-01 BMatC= 1.12D-01 BMatP= 6.66D-02
 IDIUse=2 WtCom= 0.00D+00 WtEn= 1.00D+00
 Coeff-En:   0.000D+00 0.000D+00 0.100D+01
 Coeff:      0.000D+00 0.000D+00 0.100D+01
 Gap=     0.200 Goal=   None    Shift=    0.000
 RMSDP=3.08D-03 MaxDP=1.35D-01 DE=-3.00D-01 OVMax= 3.24D-01

 Cycle   4  Pass 0  IDiag  1:
 RMSU=  1.69D-03    CP:  9.41D-01  1.34D+00 -1.41D-01
 E= -1263.85265862378     Delta-E=        0.562586364188 Rises=F Damp=F
 DIIS: error= 4.14D-02 at cycle   4 NSaved=   4.
 NSaved= 4 IEnMin= 3 EnMin= -1264.41524498797     IErMin= 2 ErrMin= 8.51D-03
 ErrMax= 4.14D-02  0.00D+00 EMaxC= 1.00D-01 BMatC= 6.89D-01 BMatP= 6.66D-02
 IDIUse=2 WtCom= 0.00D+00 WtEn= 1.00D+00
 Coeff-En:   0.000D+00 0.000D+00 0.798D+00 0.202D+00
 Coeff:      0.000D+00 0.000D+00 0.798D+00 0.202D+00
 Gap=     0.198 Goal=   None    Shift=    0.000
 RMSDP=1.61D-03 MaxDP=7.02D-02 DE= 5.63D-01 OVMax= 1.89D-01

 Cycle   5  Pass 0  IDiag  1:
 RMSU=  3.04D-04    CP:  9.34D-01  1.09D+00  4.29D-01  5.07D-01
 E= -1264.47347094307     Delta-E=       -0.620812319283 Rises=F Damp=F
 DIIS: error= 1.18D-02 at cycle   5 NSaved=   5.
 NSaved= 5 IEnMin= 5 EnMin= -1264.47347094307     IErMin= 2 ErrMin= 8.51D-03
 ErrMax= 1.18D-02  0.00D+00 EMaxC= 1.00D-01 BMatC= 5.54D-02 BMatP= 6.66D-02
 IDIUse=3 WtCom= 8.82D-01 WtEn= 1.18D-01
 Coeff-Com: -0.230D-02 0.367D-01 0.306D+00-0.105D+00 0.765D+00
 Coeff-En:   0.000D+00 0.000D+00 0.371D+00 0.000D+00 0.629D+00
 Coeff:     -0.203D-02 0.324D-01 0.313D+00-0.926D-01 0.749D+00
 Gap=     0.166 Goal=   None    Shift=    0.000
 RMSDP=6.53D-04 MaxDP=2.50D-02 DE=-6.21D-01 OVMax= 7.15D-02

 Cycle   6  Pass 0  IDiag  1:
 RMSU=  9.43D-05    CP:  9.30D-01  1.02D+00  6.69D-01  2.89D-01  8.05D-01
 E= -1264.52814768239     Delta-E=       -0.054676739326 Rises=F Damp=F
 DIIS: error= 1.32D-03 at cycle   6 NSaved=   6.
 NSaved= 6 IEnMin= 6 EnMin= -1264.52814768239     IErMin= 6 ErrMin= 1.32D-03
 ErrMax= 1.32D-03  0.00D+00 EMaxC= 1.00D-01 BMatC= 2.73D-04 BMatP= 5.54D-02
 IDIUse=3 WtCom= 9.87D-01 WtEn= 1.32D-02
 Coeff-Com: -0.321D-02 0.171D-01 0.158D+00-0.719D-01 0.465D+00 0.435D+00
 Coeff-En:   0.000D+00 0.000D+00 0.000D+00 0.000D+00 0.000D+00 0.100D+01
 Coeff:     -0.317D-02 0.168D-01 0.156D+00-0.709D-01 0.459D+00 0.442D+00
 Gap=     0.167 Goal=   None    Shift=    0.000
 RMSDP=5.35D-05 MaxDP=3.26D-03 DE=-5.47D-02 OVMax= 6.21D-03

 Cycle   7  Pass 0  IDiag  1:
 RMSU=  2.81D-05    CP:  9.29D-01  1.02D+00  6.62D-01  2.94D-01  8.67D-01
                    CP:  6.03D-01
 E= -1264.52840057190     Delta-E=       -0.000252889505 Rises=F Damp=F
 DIIS: error= 3.50D-04 at cycle   7 NSaved=   7.
 NSaved= 7 IEnMin= 7 EnMin= -1264.52840057190     IErMin= 7 ErrMin= 3.50D-04
 ErrMax= 3.50D-04  0.00D+00 EMaxC= 1.00D-01 BMatC= 1.96D-05 BMatP= 2.73D-04
 IDIUse=3 WtCom= 9.97D-01 WtEn= 3.50D-03
 Coeff-Com: -0.911D-03 0.283D-02 0.428D-01-0.218D-01 0.132D+00 0.224D+00
 Coeff-Com:  0.621D+00
 Coeff-En:   0.000D+00 0.000D+00 0.000D+00 0.000D+00 0.000D+00 0.278D-01
 Coeff-En:   0.972D+00
 Coeff:     -0.907D-03 0.282D-02 0.427D-01-0.217D-01 0.132D+00 0.223D+00
 Coeff:      0.623D+00
 Gap=     0.166 Goal=   None    Shift=    0.000
 RMSDP=1.39D-05 MaxDP=6.37D-04 DE=-2.53D-04 OVMax= 1.55D-03

 Cycle   8  Pass 0  IDiag  1:
 RMSU=  8.33D-06    CP:  9.29D-01  1.02D+00  6.64D-01  2.94D-01  8.56D-01
                    CP:  6.47D-01  6.71D-01
 E= -1264.52842130366     Delta-E=       -0.000020731760 Rises=F Damp=F
 DIIS: error= 6.48D-05 at cycle   8 NSaved=   8.
 NSaved= 8 IEnMin= 8 EnMin= -1264.52842130366     IErMin= 8 ErrMin= 6.48D-05
 ErrMax= 6.48D-05  0.00D+00 EMaxC= 1.00D-01 BMatC= 2.74D-06 BMatP= 1.96D-05
 IDIUse=1 WtCom= 1.00D+00 WtEn= 0.00D+00
 Coeff-Com: -0.175D-04-0.662D-03 0.760D-02-0.377D-02 0.214D-01 0.776D-01
 Coeff-Com:  0.357D+00 0.541D+00
 Coeff:     -0.175D-04-0.662D-03 0.760D-02-0.377D-02 0.214D-01 0.776D-01
 Coeff:      0.357D+00 0.541D+00
 Gap=     0.166 Goal=   None    Shift=    0.000
 RMSDP=5.15D-06 MaxDP=1.96D-04 DE=-2.07D-05 OVMax= 4.70D-04

 Initial convergence to 1.0D-05 achieved.  Increase integral accuracy.
 Cycle   9  Pass 1  IDiag  1:
 E= -1264.52838721790     Delta-E=        0.000034085757 Rises=F Damp=F
 DIIS: error= 2.26D-04 at cycle   1 NSaved=   1.
 NSaved= 1 IEnMin= 1 EnMin= -1264.52838721790     IErMin= 1 ErrMin= 2.26D-04
 ErrMax= 2.26D-04  0.00D+00 EMaxC= 1.00D-01 BMatC= 9.24D-06 BMatP= 9.24D-06
 IDIUse=3 WtCom= 9.98D-01 WtEn= 2.26D-03
 Coeff-Com:  0.100D+01
 Coeff-En:   0.100D+01
 Coeff:      0.100D+01
 Gap=     0.166 Goal=   None    Shift=    0.000
 RMSDP=5.15D-06 MaxDP=1.96D-04 DE= 3.41D-05 OVMax= 5.47D-04

 Cycle  10  Pass 1  IDiag  1:
 RMSU=  2.13D-04    CP:  1.00D+00
 E= -1264.52839712934     Delta-E=       -0.000009911435 Rises=F Damp=F
 DIIS: error= 6.18D-05 at cycle   2 NSaved=   2.
 NSaved= 2 IEnMin= 2 EnMin= -1264.52839712934     IErMin= 2 ErrMin= 6.18D-05
 ErrMax= 6.18D-05  0.00D+00 EMaxC= 1.00D-01 BMatC= 6.49D-07 BMatP= 9.24D-06
 IDIUse=1 WtCom= 1.00D+00 WtEn= 0.00D+00
 Coeff-Com:  0.845D-01 0.915D+00
 Coeff:      0.845D-01 0.915D+00
 Gap=     0.166 Goal=   None    Shift=    0.000
 RMSDP=7.14D-06 MaxDP=2.54D-04 DE=-9.91D-06 OVMax= 7.18D-04

 Cycle  11  Pass 1  IDiag  1:
 RMSU=  6.77D-06    CP:  1.00D+00  1.01D+00
 E= -1264.52839534056     Delta-E=        0.000001788781 Rises=F Damp=F
 DIIS: error= 1.18D-04 at cycle   3 NSaved=   3.
 NSaved= 3 IEnMin= 2 EnMin= -1264.52839712934     IErMin= 2 ErrMin= 6.18D-05
 ErrMax= 1.18D-04  0.00D+00 EMaxC= 1.00D-01 BMatC= 2.22D-06 BMatP= 6.49D-07
 IDIUse=3 WtCom= 4.79D-01 WtEn= 5.21D-01
 Coeff-Com: -0.534D-02 0.652D+00 0.353D+00
 Coeff-En:   0.000D+00 0.722D+00 0.278D+00
 Coeff:     -0.256D-02 0.689D+00 0.314D+00
 Gap=     0.166 Goal=   None    Shift=    0.000
 RMSDP=3.88D-06 MaxDP=1.55D-04 DE= 1.79D-06 OVMax= 4.25D-04

 Cycle  12  Pass 1  IDiag  1:
 RMSU=  7.63D-07    CP:  1.00D+00  1.01D+00  4.42D-01
 E= -1264.52839781588     Delta-E=       -0.000002475325 Rises=F Damp=F
 DIIS: error= 1.17D-05 at cycle   4 NSaved=   4.
 NSaved= 4 IEnMin= 4 EnMin= -1264.52839781588     IErMin= 4 ErrMin= 1.17D-05
 ErrMax= 1.17D-05  0.00D+00 EMaxC= 1.00D-01 BMatC= 3.83D-08 BMatP= 6.49D-07
 IDIUse=1 WtCom= 1.00D+00 WtEn= 0.00D+00
 Coeff-Com: -0.418D-02 0.392D+00 0.161D+00 0.451D+00
 Coeff:     -0.418D-02 0.392D+00 0.161D+00 0.451D+00
 Gap=     0.166 Goal=   None    Shift=    0.000
 RMSDP=5.57D-07 MaxDP=2.04D-05 DE=-2.48D-06 OVMax= 4.80D-05

 Cycle  13  Pass 1  IDiag  1:
 RMSU=  2.47D-07    CP:  1.00D+00  1.01D+00  3.72D-01  8.47D-01
 E= -1264.52839785329     Delta-E=       -0.000000037410 Rises=F Damp=F
 DIIS: error= 1.33D-06 at cycle   5 NSaved=   5.
 NSaved= 5 IEnMin= 5 EnMin= -1264.52839785329     IErMin= 5 ErrMin= 1.33D-06
 ErrMax= 1.33D-06  0.00D+00 EMaxC= 1.00D-01 BMatC= 4.35D-10 BMatP= 3.83D-08
 IDIUse=1 WtCom= 1.00D+00 WtEn= 0.00D+00
 Coeff-Com: -0.214D-02 0.194D+00 0.754D-01 0.260D+00 0.473D+00
 Coeff:     -0.214D-02 0.194D+00 0.754D-01 0.260D+00 0.473D+00
 Gap=     0.166 Goal=   None    Shift=    0.000
 RMSDP=7.86D-08 MaxDP=3.01D-06 DE=-3.74D-08 OVMax= 8.01D-06

 Cycle  14  Pass 1  IDiag  1:
 RMSU=  7.39D-08    CP:  1.00D+00  1.01D+00  3.69D-01  8.38D-01  9.27D-01
 E= -1264.52839785357     Delta-E=       -0.000000000282 Rises=F Damp=F
 DIIS: error= 3.35D-07 at cycle   6 NSaved=   6.
 NSaved= 6 IEnMin= 6 EnMin= -1264.52839785357     IErMin= 6 ErrMin= 3.35D-07
 ErrMax= 3.35D-07  0.00D+00 EMaxC= 1.00D-01 BMatC= 7.19D-11 BMatP= 4.35D-10
 IDIUse=1 WtCom= 1.00D+00 WtEn= 0.00D+00
 Coeff-Com: -0.818D-03 0.724D-01 0.268D-01 0.108D+00 0.312D+00 0.482D+00
 Coeff:     -0.818D-03 0.724D-01 0.268D-01 0.108D+00 0.312D+00 0.482D+00
 Gap=     0.166 Goal=   None    Shift=    0.000
 RMSDP=3.19D-08 MaxDP=1.59D-06 DE=-2.82D-10 OVMax= 3.52D-06

 Cycle  15  Pass 1  IDiag  1:
 RMSU=  2.29D-08    CP:  1.00D+00  1.01D+00  3.68D-01  8.47D-01  9.48D-01
                    CP:  7.43D-01
 E= -1264.52839785365     Delta-E=       -0.000000000074 Rises=F Damp=F
 DIIS: error= 7.50D-08 at cycle   7 NSaved=   7.
 NSaved= 7 IEnMin= 7 EnMin= -1264.52839785365     IErMin= 7 ErrMin= 7.50D-08
 ErrMax= 7.50D-08  0.00D+00 EMaxC= 1.00D-01 BMatC= 6.71D-12 BMatP= 7.19D-11
 IDIUse=1 WtCom= 1.00D+00 WtEn= 0.00D+00
 Coeff-Com: -0.107D-03 0.881D-02 0.262D-02 0.185D-01 0.989D-01 0.277D+00
 Coeff-Com:  0.594D+00
 Coeff:     -0.107D-03 0.881D-02 0.262D-02 0.185D-01 0.989D-01 0.277D+00
 Coeff:      0.594D+00
 Gap=     0.166 Goal=   None    Shift=    0.000
 RMSDP=8.48D-09 MaxDP=4.52D-07 DE=-7.41D-11 OVMax= 7.22D-07

 SCF Done:  E(RB3LYP) =  -1264.52839785     A.U. after   15 cycles
            NFock= 15  Conv=0.85D-08     -V/T= 2.0091
 KE= 1.253089100274D+03 PE=-8.331644614226D+03 EE= 3.116883521155D+03
 Leave Link  502 at Mon Feb 26 12:05:47 2024, MaxMem=  7516192768 cpu:             947.0 elap:              23.8
 (Enter /public/apps/g16-C01//g16/l601.exe)
 Copying SCF densities to generalized density rwf, IOpCl= 0 IROHF=0.

 **********************************************************************

            Population analysis using the SCF Density.

 **********************************************************************

 Alpha  occ. eigenvalues --  -19.20210 -19.16277 -19.16276 -14.29680 -14.29679
 Alpha  occ. eigenvalues --  -10.27288 -10.27286 -10.25607 -10.25602 -10.23257
 Alpha  occ. eigenvalues --  -10.23256 -10.21044 -10.21044 -10.20782 -10.20776
 Alpha  occ. eigenvalues --  -10.20072 -10.20064 -10.19954 -10.19944 -10.19346
 Alpha  occ. eigenvalues --  -10.19344 -10.19020 -10.19019 -10.18418 -10.18418
 Alpha  occ. eigenvalues --  -10.16969 -10.16969 -10.15663 -10.15663  -1.11927
 Alpha  occ. eigenvalues --   -1.08554  -1.08488  -0.90091  -0.90076  -0.87025
 Alpha  occ. eigenvalues --   -0.86712  -0.81664  -0.80710  -0.79000  -0.77860
 Alpha  occ. eigenvalues --   -0.75737  -0.74031  -0.72582  -0.72394  -0.67940
 Alpha  occ. eigenvalues --   -0.67939  -0.66206  -0.64627  -0.63909  -0.63246
 Alpha  occ. eigenvalues --   -0.61743  -0.60787  -0.58126  -0.56818  -0.56628
 Alpha  occ. eigenvalues --   -0.54592  -0.54062  -0.52733  -0.50932  -0.50655
 Alpha  occ. eigenvalues --   -0.49836  -0.49358  -0.48924  -0.47883  -0.47128
 Alpha  occ. eigenvalues --   -0.46910  -0.46496  -0.45133  -0.44640  -0.43753
 Alpha  occ. eigenvalues --   -0.43416  -0.43309  -0.43093  -0.42106  -0.41744
 Alpha  occ. eigenvalues --   -0.41244  -0.40278  -0.39407  -0.38852  -0.38640
 Alpha  occ. eigenvalues --   -0.38554  -0.38335  -0.38182  -0.38017  -0.37100
 Alpha  occ. eigenvalues --   -0.37048  -0.36530  -0.36249  -0.35651  -0.34455
 Alpha  occ. eigenvalues --   -0.33944  -0.33841  -0.33642  -0.33582  -0.32369
 Alpha  occ. eigenvalues --   -0.32319  -0.29966  -0.27698  -0.26981  -0.26897
 Alpha  occ. eigenvalues --   -0.25592  -0.24739  -0.22800  -0.22722
 Alpha virt. eigenvalues --   -0.06096  -0.04076  -0.00442   0.00999   0.04629
 Alpha virt. eigenvalues --    0.05512   0.06022   0.06523   0.07547   0.07635
 Alpha virt. eigenvalues --    0.07812   0.08128   0.08764   0.09236   0.09532
 Alpha virt. eigenvalues --    0.09981   0.10585   0.11764   0.12176   0.12423
 Alpha virt. eigenvalues --    0.12855   0.13703   0.13717   0.13862   0.14304
 Alpha virt. eigenvalues --    0.14420   0.15759   0.15844   0.16174   0.16440
 Alpha virt. eigenvalues --    0.16640   0.17052   0.17764   0.17782   0.18553
 Alpha virt. eigenvalues --    0.18838   0.19357   0.20343   0.20376   0.21723
 Alpha virt. eigenvalues --    0.21847   0.22701   0.23249   0.23439   0.23734
 Alpha virt. eigenvalues --    0.24251   0.24345   0.25214   0.26064   0.26443
 Alpha virt. eigenvalues --    0.26673   0.28227   0.28555   0.28950   0.29652
 Alpha virt. eigenvalues --    0.30519   0.32680   0.32767   0.33059   0.35096
 Alpha virt. eigenvalues --    0.35792   0.37109   0.37670   0.37839   0.39329
 Alpha virt. eigenvalues --    0.39495   0.39734   0.40631   0.41234   0.41402
 Alpha virt. eigenvalues --    0.42710   0.42764   0.43304   0.43616   0.44356
 Alpha virt. eigenvalues --    0.44627   0.44985   0.45490   0.45765   0.45974
 Alpha virt. eigenvalues --    0.47033   0.47697   0.48107   0.49872   0.50043
 Alpha virt. eigenvalues --    0.51205   0.51474   0.51828   0.52232   0.52524
 Alpha virt. eigenvalues --    0.52547   0.53438   0.53623   0.54639   0.55273
 Alpha virt. eigenvalues --    0.56195   0.56346   0.56827   0.57410   0.58707
 Alpha virt. eigenvalues --    0.59270   0.60097   0.60175   0.60481   0.62268
 Alpha virt. eigenvalues --    0.63050   0.63449   0.63677   0.63924   0.64962
 Alpha virt. eigenvalues --    0.65168   0.65437   0.65697   0.66359   0.66510
 Alpha virt. eigenvalues --    0.66949   0.67475   0.67617   0.67716   0.68017
 Alpha virt. eigenvalues --    0.68247   0.68276   0.68968   0.69132   0.69189
 Alpha virt. eigenvalues --    0.70154   0.70199   0.70267   0.70742   0.70995
 Alpha virt. eigenvalues --    0.71263   0.71537   0.71714   0.71948   0.72115
 Alpha virt. eigenvalues --    0.72687   0.73208   0.73224   0.73539   0.73805
 Alpha virt. eigenvalues --    0.73932   0.74668   0.74831   0.74841   0.75563
 Alpha virt. eigenvalues --    0.75800   0.76079   0.76312   0.76843   0.78171
 Alpha virt. eigenvalues --    0.78725   0.79087   0.79299   0.79649   0.80440
 Alpha virt. eigenvalues --    0.81158   0.81338   0.83746   0.84001   0.84583
 Alpha virt. eigenvalues --    0.85121   0.86318   0.86598   0.87362   0.90465
 Alpha virt. eigenvalues --    0.92343   0.92653   0.94888   0.95849   0.96317
 Alpha virt. eigenvalues --    0.96927   0.98387   0.99904   1.01037   1.01372
 Alpha virt. eigenvalues --    1.04631   1.05150   1.05757   1.05936   1.07097
 Alpha virt. eigenvalues --    1.10215   1.11827   1.12260   1.12799   1.13946
 Alpha virt. eigenvalues --    1.14602   1.15076   1.16957   1.17917   1.18954
 Alpha virt. eigenvalues --    1.19211   1.19376   1.21383   1.23678   1.25739
 Alpha virt. eigenvalues --    1.27062   1.27158   1.30630   1.31400   1.34431
 Alpha virt. eigenvalues --    1.34644   1.35292   1.36197   1.38336   1.39417
 Alpha virt. eigenvalues --    1.42545   1.42794   1.43649   1.44970   1.45731
 Alpha virt. eigenvalues --    1.45913   1.46292   1.47717   1.47937   1.49236
 Alpha virt. eigenvalues --    1.52722   1.53486   1.55418   1.58511   1.58911
 Alpha virt. eigenvalues --    1.58949   1.60580   1.63276   1.64279   1.64910
 Alpha virt. eigenvalues --    1.67265   1.68672   1.69319   1.69814   1.70761
 Alpha virt. eigenvalues --    1.73061   1.75867   1.76154   1.76838   1.77016
 Alpha virt. eigenvalues --    1.78293   1.79387   1.81021   1.81417   1.82043
 Alpha virt. eigenvalues --    1.82822   1.83608   1.83841   1.84271   1.85172
 Alpha virt. eigenvalues --    1.86810   1.88338   1.88817   1.89745   1.90133
 Alpha virt. eigenvalues --    1.92081   1.93809   1.93894   1.95120   1.95365
 Alpha virt. eigenvalues --    1.96178   1.96356   1.96660   1.98756   1.99881
 Alpha virt. eigenvalues --    2.00048   2.00738   2.02618   2.03416   2.04828
 Alpha virt. eigenvalues --    2.05134   2.05997   2.06622   2.06648   2.07863
 Alpha virt. eigenvalues --    2.09042   2.09406   2.11173   2.12203   2.12938
 Alpha virt. eigenvalues --    2.13871   2.14248   2.15000   2.15374   2.16236
 Alpha virt. eigenvalues --    2.16939   2.17010   2.18193   2.19521   2.19528
 Alpha virt. eigenvalues --    2.22696   2.23517   2.23675   2.24371   2.25259
 Alpha virt. eigenvalues --    2.26386   2.28173   2.28817   2.29330   2.30733
 Alpha virt. eigenvalues --    2.32933   2.32975   2.34421   2.35652   2.41917
 Alpha virt. eigenvalues --    2.42381   2.45068   2.45467   2.45858   2.46091
 Alpha virt. eigenvalues --    2.50118   2.51444   2.53219   2.53448   2.54942
 Alpha virt. eigenvalues --    2.56016   2.57679   2.58014   2.59037   2.65439
 Alpha virt. eigenvalues --    2.66854   2.67042   2.67353   2.69061   2.69461
 Alpha virt. eigenvalues --    2.71325   2.72543   2.73085   2.73957   2.74154
 Alpha virt. eigenvalues --    2.75773   2.76809   2.81056   2.85872   2.87317
 Alpha virt. eigenvalues --    2.87577   2.89535   2.92809   2.92891   2.93300
 Alpha virt. eigenvalues --    2.96778   2.99375   2.99824   3.01340   3.02797
 Alpha virt. eigenvalues --    3.13445   3.15440   3.18493   3.25818   3.25934
 Alpha virt. eigenvalues --    3.26803   3.27280   3.36562   3.40968   3.41702
 Alpha virt. eigenvalues --    3.46729   3.63102   3.64078   3.78184
          Condensed to atoms (all electrons):
 Mulliken charges:
               1
     1  C   -0.211749
     2  C   -0.108919
     3  C   -0.198594
     4  C   -0.071040
     5  C    0.113424
     6  O   -0.290615
     7  C    0.051678
     8  C    0.030041
     9  C   -0.115435
    10  C   -0.020780
    11  C   -0.155887
    12  C    0.115527
    13  C    0.166742
    14  O   -0.182037
    15  C    0.166632
    16  C    0.030189
    17  C    0.051579
    18  N   -0.153937
    19  C   -0.071066
    20  C   -0.108810
    21  C   -0.198790
    22  C   -0.211733
    23  C    0.113582
    24  O   -0.290629
    25  C   -0.115533
    26  C   -0.020787
    27  C   -0.155898
    28  C    0.115615
    29  N   -0.153915
    30  H    0.091471
    31  H    0.081235
    32  H    0.083512
    33  H    0.046013
    34  H    0.106264
    35  H    0.080703
    36  H    0.072303
    37  H    0.059548
    38  H    0.083744
    39  H    0.085189
    40  H    0.062526
    41  H    0.049386
    42  H    0.038644
    43  H    0.059534
    44  H    0.046012
    45  H    0.106313
    46  H    0.080741
    47  H    0.072271
    48  H    0.081206
    49  H    0.083559
    50  H    0.091464
    51  H    0.085173
    52  H    0.083740
    53  H    0.062562
    54  H    0.049385
    55  H    0.038646
 Sum of Mulliken charges =  -0.00000
 Mulliken charges with hydrogens summed into heavy atoms:
               1
     1  C    0.044469
     2  C   -0.062906
     3  C    0.060676
     4  C   -0.011492
     5  C    0.282357
     6  O   -0.290615
     7  C    0.051678
     8  C    0.030041
     9  C   -0.052909
    10  C    0.028607
    11  C   -0.117243
    12  C    0.115527
    13  C    0.166742
    14  O   -0.182037
    15  C    0.166632
    16  C    0.030189
    17  C    0.051579
    18  N   -0.153937
    19  C   -0.011531
    20  C   -0.062798
    21  C    0.060535
    22  C    0.044496
    23  C    0.282496
    24  O   -0.290629
    25  C   -0.052972
    26  C    0.028597
    27  C   -0.117252
    28  C    0.115615
    29  N   -0.153915
 Electronic spatial extent (au):  <R**2>=          14825.5640
 Charge=             -0.0000 electrons
 Dipole moment (field-independent basis, Debye):
    X=              0.2400    Y=              0.7489    Z=              0.0072  Tot=              0.7864
 Quadrupole moment (field-independent basis, Debye-Ang):
   XX=           -173.2375   YY=           -150.1041   ZZ=           -172.2528
   XY=              8.3014   XZ=             -0.8117   YZ=              0.1176
 Traceless Quadrupole moment (field-independent basis, Debye-Ang):
   XX=             -8.0394   YY=             15.0941   ZZ=             -7.0547
   XY=              8.3014   XZ=             -0.8117   YZ=              0.1176
 Octapole moment (field-independent basis, Debye-Ang**2):
  XXX=              1.4876  YYY=            -65.7501  ZZZ=             -0.0872  XYY=            -23.9001
  XXY=             -3.7962  XXZ=             -0.3352  XZZ=              4.0162  YZZ=             12.1301
  YYZ=              1.4092  XYZ=             -1.1038
 Hexadecapole moment (field-independent basis, Debye-Ang**3):
 XXXX=         -13052.4996 YYYY=          -6948.1912 ZZZZ=           -425.1571 XXXY=           1260.1635
 XXXZ=            106.0798 YYYX=            931.3174 YYYZ=            -49.1456 ZZZX=            116.3673
 ZZZY=            -17.9427 XXYY=          -3258.9350 XXZZ=          -2205.8190 YYZZ=          -1324.8415
 XXYZ=             17.0327 YYXZ=             60.1355 ZZXY=            315.8419
 N-N= 2.697143594943D+03 E-N=-8.331644644344D+03  KE= 1.253089100274D+03
 No NMR shielding tensors so no spin-rotation constants.
 Leave Link  601 at Mon Feb 26 12:05:48 2024, MaxMem=  7516192768 cpu:               6.7 elap:               0.2
 (Enter /public/apps/g16-C01//g16/l701.exe)
 ... and contract with generalized density number  0.
 Compute integral first derivatives.
 R6Disp: Adding Grimme-D3(BJ) dispersion energy 1st derivatives to the gradient.
   1 Symmetry operations used in ECPInt.
 ECPInt:  NShTT=   25651 NPrTT=  102833 LenC2=   21651 LenP2D=   55032.
 LDataN:  DoStor=T MaxTD1= 5 Len=  102
 Leave Link  701 at Mon Feb 26 12:05:48 2024, MaxMem=  7516192768 cpu:              11.4 elap:               0.3
 (Enter /public/apps/g16-C01//g16/l702.exe)
 L702 exits ... SP integral derivatives will be done elsewhere.
 Leave Link  702 at Mon Feb 26 12:05:48 2024, MaxMem=  7516192768 cpu:               0.5 elap:               0.0
 (Enter /public/apps/g16-C01//g16/l703.exe)
 Integral derivatives from FoFJK, PRISM(SPDF).
 Compute integral first derivatives, UseDBF=F ICtDFT=           0.
 Calling FoFJK, ICntrl=      2127 FMM=F ISym2X=0 I1Cent= 0 IOpClX= 0 NMat=1 NMatS=1 NMatT=0.
 FoFJK:  IHMeth= 1 ICntrl=    2127 DoSepK=F KAlg= 0 I1Cent=           0 FoldK=F
 IRaf=         0 NMat=       1 IRICut=       1 DoRegI=T DoRafI=F ISym2E= 0 IDoP0=0 IntGTp=1.
 FoFCou: FMM=F IPFlag=           0 FMFlag=      100000 FMFlg1=         800
         NFxFlg=           0 DoJE=F BraDBF=F KetDBF=F FulRan=T
         wScrn=  0.000000 ICntrl=      2127 IOpCl=  0 I1Cent=           0 NGrid=           0
         NMat0=    1 NMatS0=      1 NMatT0=    0 NMatD0=    1 NMtDS0=    0 NMtDT0=    0
 Symmetry not used in FoFCou.
 Leave Link  703 at Mon Feb 26 12:05:53 2024, MaxMem=  7516192768 cpu:             216.0 elap:               5.5
 (Enter /public/apps/g16-C01//g16/l716.exe)
 Dipole        = 9.44187002D-02 2.94635587D-01 2.85112841D-03
 -------------------------------------------------------------------
 Center     Atomic                   Forces (Hartrees/Bohr)
 Number     Number              X              Y              Z
 -------------------------------------------------------------------
      1        6          -0.005546964   -0.009291228   -0.002901592
      2        6           0.006701317    0.000738606    0.010225369
      3        6          -0.008955631    0.004340219   -0.004519793
      4        6          -0.003647015    0.002691098   -0.008286708
      5        6           0.007111560    0.002512238    0.001700973
      6        8          -0.009653869   -0.003568939   -0.000068093
      7        6           0.004332582    0.002377516    0.000522362
      8        6          -0.007585382    0.009769490   -0.001110056
      9        6           0.000982906    0.000297130    0.000076631
     10        6           0.003270814   -0.003714904    0.000467797
     11        6          -0.003321664    0.001718035   -0.000425774
     12        6          -0.000768903    0.003793239   -0.000164478
     13        6           0.006135451   -0.011586080    0.001016827
     14        8           0.002077716    0.006454468   -0.000038143
     15        6          -0.011741370   -0.005848605   -0.000929104
     16        6           0.011855255    0.003531671    0.001132844
     17        6          -0.002120898    0.004456044   -0.000582699
     18        7          -0.011676700   -0.004651339   -0.002535861
     19        6           0.004484290    0.000140542    0.008350616
     20        6          -0.004933124    0.004460029   -0.010274971
     21        6           0.009760949   -0.001673945    0.004583533
     22        6          -0.000943522   -0.010765719    0.002962266
     23        6          -0.004309640    0.006163971   -0.001792446
     24        8           0.005769650   -0.008513242    0.000180702
     25        6          -0.000623872    0.000810904   -0.000108416
     26        6          -0.004827853   -0.001111939   -0.000446376
     27        6           0.003707809   -0.000538832    0.000415148
     28        6           0.002833588    0.002638244    0.000135262
     29        7           0.006816287   -0.010562119    0.002482777
     30        1           0.007283393    0.003767775   -0.007893147
     31        1           0.005971324    0.002604758    0.009747165
     32        1          -0.007365882    0.009423173   -0.000996553
     33        1          -0.004464835   -0.000855561   -0.005114706
     34        1          -0.001878799   -0.010218821    0.000054606
     35        1           0.008486378    0.000873740   -0.008155931
     36        1           0.007014349    0.000757069    0.009963101
     37        1           0.003715600    0.002963965    0.005020235
     38        1          -0.000910335    0.004085626   -0.004842766
     39        1          -0.001931089    0.004518915    0.004163232
     40        1           0.009794375   -0.000086235    0.001043038
     41        1           0.004977864   -0.008933313    0.000855853
     42        1          -0.005211109   -0.008846603   -0.000205838
     43        1          -0.001263621    0.004525782   -0.005073312
     44        1           0.003084387   -0.003262846    0.005161693
     45        1          -0.004440444   -0.009390330   -0.000031439
     46        1          -0.006445135    0.005707778    0.008075653
     47        1          -0.005168272    0.004657836   -0.010025282
     48        1          -0.003239324    0.005533986   -0.009825564
     49        1           0.011469287    0.003355124    0.001082943
     50        1          -0.003795652    0.007370883    0.007798727
     51        1           0.004225497    0.002505843   -0.004163182
     52        1           0.003093327    0.002832013    0.004834483
     53        1          -0.008011902    0.005627879   -0.001075124
     54        1          -0.009253325   -0.004365539   -0.000780839
     55        1          -0.000919823   -0.010219450    0.000314351
 -------------------------------------------------------------------
 Cartesian Forces:  Max     0.011855255 RMS     0.005544534
 Leave Link  716 at Mon Feb 26 12:05:53 2024, MaxMem=  7516192768 cpu:               0.5 elap:               0.0
 (Enter /public/apps/g16-C01//g16/l103.exe)

 GradGradGradGradGradGradGradGradGradGradGradGradGradGradGradGradGradGrad
 Berny optimization.
 FormGI is forming the generalized inverse of G from B-inverse, IUseBI=4.
 Internal  Forces:  Max     0.014366615 RMS     0.004456766
 Search for a local minimum.
 Step number   1 out of a maximum of  330
 All quantities printed in internal units (Hartrees-Bohrs-Radians)
 RMS Force = .44568D-02 SwitMx=.10000D-02 MixMth= 1
 Mixed Optimization -- RFO/linear search
 Second derivative matrix not updated -- first step.
 ITU=  0
     Eigenvalues ---    0.00283   0.00283   0.00420   0.00420   0.00422
     Eigenvalues ---    0.00422   0.00611   0.00611   0.01369   0.01370
     Eigenvalues ---    0.01823   0.01898   0.01898   0.01906   0.01927
     Eigenvalues ---    0.01999   0.01999   0.02130   0.02136   0.02178
     Eigenvalues ---    0.02189   0.02196   0.02213   0.02213   0.02268
     Eigenvalues ---    0.02269   0.02271   0.02271   0.02285   0.02285
     Eigenvalues ---    0.02520   0.02521   0.03764   0.03765   0.04069
     Eigenvalues ---    0.04070   0.04698   0.04699   0.04747   0.04747
     Eigenvalues ---    0.04847   0.04848   0.05057   0.05058   0.05555
     Eigenvalues ---    0.05555   0.05658   0.05658   0.05684   0.05684
     Eigenvalues ---    0.05715   0.05715   0.05745   0.05745   0.07737
     Eigenvalues ---    0.07739   0.10812   0.10813   0.11252   0.11252
     Eigenvalues ---    0.15424   0.15425   0.16000   0.16000   0.16000
     Eigenvalues ---    0.16000   0.16000   0.16000   0.16000   0.16000
     Eigenvalues ---    0.16000   0.16000   0.16000   0.16000   0.16000
     Eigenvalues ---    0.16000   0.16000   0.16000   0.16000   0.16000
     Eigenvalues ---    0.16397   0.16399   0.16565   0.16568   0.20202
     Eigenvalues ---    0.20206   0.22095   0.22098   0.23493   0.23561
     Eigenvalues ---    0.24648   0.24648   0.24916   0.24920   0.25000
     Eigenvalues ---    0.25000   0.25000   0.25000   0.25000   0.25000
     Eigenvalues ---    0.26699   0.26700   0.28828   0.28829   0.29782
     Eigenvalues ---    0.29783   0.29796   0.29797   0.34027   0.34029
     Eigenvalues ---    0.34102   0.34102   0.34327   0.34329   0.34488
     Eigenvalues ---    0.34489   0.35031   0.35032   0.35091   0.35091
[...]
 00351,0.00001382,-0.00000349,-0.00002464,0.00003902,0.00001730,0.00006
 813,0.00000044,-0.00001214,-0.00000102,0.00000487,-0.00000064,-0.00000
 087,-0.00000176,0.,-0.00000193,-0.00054047,-0.00049836,0.00082719,-0.0
 0039119,0.00039327,0.00074838,0.00007747,0.00001773,-0.00005647,-0.000
 11041,0.00001021,0.00002874,0.00017610,-0.00003577,-0.00013702,0.00021
 261,-0.00004000,0.00005621,0.00049938,0.00043294,0.00006777,0.00025713
 ,0.00011124,0.00002408,-0.00895812,-0.00647097,-0.01882778,0.08479243,
 0.07743247,0.26573020,-0.00000460,0.00000250,0.00000302,0.00000296,-0.
 00000286,-0.00000624,-0.00000003,-0.00000029,0.00000197,-0.00000312,0.
 00001661,0.00000059,0.00001309,0.00003490,-0.00000553,-0.00002255,-0.0
 0007258,-0.00000070,0.00005379,0.00009272,0.00000370,-0.00006406,0.000
 13702,0.00001625,-0.00003900,-0.00007033,-0.00000189,0.00003273,0.0000
 5470,0.00000865,-0.00004777,0.00001947,-0.00001104,0.00016889,0.000110
 76,0.00002755,-0.00002832,-0.00060518,0.00003023,-0.00118738,0.0012944
 5,-0.00023784,-0.00241600,-0.00392319,-0.00059542,-0.01943243,0.015603
 12,-0.00259283,-0.00184888,0.00204291,0.00022237,0.00055712,0.00122143
 ,-0.00000226,0.00060442,-0.00049412,0.00016905,0.00003701,-0.00003850,
 -0.00004158,-0.00001172,0.00000757,0.00002118,-0.00003860,0.00000479,0
 .00002856,0.00014627,0.00017106,-0.00004520,0.00073755,0.00013187,-0.0
 0003919,-0.25423307,0.12962034,-0.02403970,0.00667806,-0.00411579,0.00
 038358,0.00107929,-0.00110327,-0.00041269,0.00008246,-0.00057041,0.000
 10307,-0.00003222,-0.00004282,0.00000456,-0.00000173,-0.00000199,0.000
 00024,0.,-0.00000026,-0.00000021,0.00000189,-0.00000114,-0.00000031,0.
 00000028,0.00000111,0.00000078,0.00000255,-0.00000182,-0.00000148,-0.0
 0000170,-0.00000051,0.00000093,0.00000040,0.,-0.00000043,-0.00000156,-
 0.00000800,-0.00000191,-0.00000579,-0.00000509,0.00000748,-0.00000420,
 -0.00000599,-0.00000549,-0.00000462,0.00001531,-0.00000908,-0.00000389
 ,0.00000261,-0.00000058,-0.00000475,0.00001404,-0.00000372,-0.00001611
 ,-0.00000829,-0.00003884,-0.00001246,0.00000062,0.00000335,0.00006191,
 -0.00001973,-0.00000803,-0.00001912,0.00001706,0.00001011,0.00000165,0
 .00000667,-0.00001090,0.00000348,-0.00000026,-0.00000725,-0.00000058,-
 0.00001116,-0.00000373,-0.00000168,0.00002641,0.00001005,0.00006878,-0
 .00000135,-0.00000251,0.00004036,0.00001354,0.00002522,0.26822588,-0.0
 0000545,0.00000315,0.00000240,0.00000288,-0.00000325,-0.00000413,0.000
 00006,0.00000042,0.00000106,-0.00000462,0.00001961,0.00000105,0.000011
 86,0.00003264,-0.00000466,-0.00000719,-0.00009927,-0.00000164,0.000032
 37,0.00013322,0.00000470,0.00001003,0.00010274,-0.00001594,-0.00006281
 ,0.00000589,-0.00000365,-0.00002386,-0.00000743,-0.00000559,-0.0000244
 2,-0.00003849,0.00000133,0.00017358,0.00011492,0.00000461,-0.00018113,
 -0.00028176,-0.00001806,-0.00098633,0.00083251,-0.00011182,-0.00201757
 ,-0.00155231,0.00007040,-0.01292649,0.01172243,-0.00138502,-0.00137933
 ,-0.00006845,-0.00017968,-0.00116973,-0.00090765,0.00005851,0.00048464
 ,-0.00056550,0.00019081,-0.00001867,0.00000728,-0.00007479,-0.00007039
 ,-0.00005837,0.00008325,-0.00001504,0.,0.00004487,0.00013884,-0.000092
 47,-0.00005435,0.00136168,0.00069746,-0.00015696,0.13273575,-0.1443939
 5,0.01613363,0.02533762,-0.01093209,0.00277715,-0.00148332,-0.00485802
 ,0.00024726,-0.00114877,-0.00034909,-0.00010169,-0.00001924,-0.0000580
 5,0.00000249,-0.00000111,-0.00000187,-0.00000012,-0.00000022,-0.000000
 36,-0.00000011,0.00000254,-0.00000242,0.00000012,0.00000007,0.00000137
 ,0.00000066,0.00000231,-0.00000228,-0.00000122,-0.00000070,-0.00000054
 ,0.00000067,0.00000051,0.,-0.00000034,-0.00000015,-0.00000805,-0.00000
 165,-0.00000813,-0.00000529,0.00000966,-0.00000592,-0.00000698,-0.0000
 0828,-0.00000092,0.00001564,0.00000213,-0.00000318,0.00000292,-0.00000
 042,-0.00001510,0.00002934,-0.00000080,-0.00003841,-0.00000076,-0.0000
 3990,0.00000126,-0.00000165,0.00000734,0.00014416,-0.00008111,-0.00013
 612,-0.00000781,0.00005913,0.00002033,0.00000475,0.00000003,-0.0000100
 9,-0.00000061,-0.00000247,-0.00000964,0.00000885,-0.00000398,-0.000006
 65,-0.00000790,0.00003130,0.00001253,0.00004305,0.00001354,-0.00000869
 ,0.00002485,0.00002966,0.00003299,-0.13976667,0.14976066,-0.00000012,0
 .00000035,0.00000011,0.00000118,-0.00000067,0.00000206,0.00000040,0.00
 000012,-0.00000014,-0.00000047,0.00000242,0.00000343,0.00000073,0.0000
 0174,0.00000672,0.00000064,-0.00001013,-0.00000936,0.00000322,0.000016
 02,0.00000670,0.00003164,-0.00001099,-0.00035768,-0.00000433,0.0000065
 5,0.00001254,0.00000209,-0.00000342,-0.00008811,-0.00000475,-0.0000007
 5,0.00007022,0.00002104,0.00000154,-0.00020050,0.00000393,-0.00003428,
 -0.00009269,-0.00017774,0.00010393,0.00101336,-0.00058235,-0.00013772,
 0.00566323,-0.00165713,0.00147064,0.00435575,0.00045729,-0.00041245,-0
 .00394153,-0.00021267,0.00013031,0.00008624,0.00012149,-0.00004111,-0.
 00024483,-0.00004301,-0.00001904,0.00002534,-0.00002109,-0.00007119,0.
 00001253,0.00001427,-0.00001104,-0.00000469,0.00005289,-0.00001078,0.0
 0016275,0.00012606,0.00017307,0.00004597,-0.02406905,0.01576061,-0.042
 66013,-0.00082554,0.00014765,0.00465955,-0.00049766,0.00034599,0.00627
 491,0.00016552,0.00000667,-0.00083791,-0.00000143,-0.00000662,-0.00000
 776,0.00000062,-0.00000012,-0.00000014,-0.00000082,-0.00000007,-0.0000
 0091,0.00000013,-0.00000008,0.00000085,-0.00000072,-0.00000012,-0.0000
 0159,0.00000013,-0.00000031,0.00000058,0.00000060,0.00000021,-0.000000
 11,-0.00000060,-0.00000026,-0.00000085,-0.00000143,-0.00000078,-0.0000
 0142,0.00000013,0.00000089,-0.00000115,-0.00000112,-0.00000200,-0.0000
 0192,-0.00000829,0.00000434,0.00009478,-0.00000072,0.00000023,0.000000
 19,-0.00000221,0.00000051,0.00003308,0.00002359,0.00002861,-0.00001290
 ,-0.00001720,-0.00000322,-0.00002620,0.00006318,-0.00004243,0.00001082
 ,0.00000045,0.00000298,-0.00000679,-0.00000157,0.00004010,-0.00002025,
 -0.00000225,0.00001077,-0.00000760,0.00000587,0.00000752,-0.00000032,-
 0.00000062,-0.00000139,-0.00000104,0.00001095,-0.00001374,-0.00000740,
 0.00000342,0.00003082,-0.00001998,0.02661111,-0.01729642,0.03024340,-0
 .00000527,0.00000241,0.00000747,0.00000831,-0.00000549,-0.00001330,0.0
 0000095,-0.00000063,0.00000540,0.00001079,0.00002887,0.00000162,0.0000
 2311,0.00003301,-0.00000360,-0.00004120,-0.00006474,-0.00000107,0.0000
 5585,0.00013466,0.00000277,0.00002603,-0.00015567,0.00001352,-0.000041
 03,0.00004928,-0.00000854,-0.00004817,0.00000625,0.00000030,-0.0000119
 3,-0.00011690,0.00000140,-0.00012427,-0.00091952,-0.00004002,-0.000379
 75,0.00029234,-0.00000501,0.00009495,-0.00010883,0.00004467,0.00039468
 ,0.00077042,0.00003896,0.00147738,0.00023134,-0.00043402,0.00000895,0.
 00027691,-0.00004882,0.00003642,-0.00015212,-0.00001707,0.00001392,0.0
 0004305,-0.00000110,-0.00001798,-0.00000135,0.00002031,-0.00000236,-0.
 00000070,-0.00000864,0.00000920,-0.00000232,-0.00001113,0.00000058,0.0
 0005827,0.00001038,0.00002512,-0.00007244,0.00000795,0.00220664,0.0015
 5968,-0.00011001,-0.28307876,-0.11073510,-0.01784028,-0.01823444,-0.01
 358357,-0.00138355,-0.00248848,0.00387284,-0.00097540,-0.00008133,-0.0
 0006789,0.00000738,-0.00000495,-0.00000418,0.00000239,0.00000008,-0.00
 000018,-0.00000216,0.00000149,0.00000187,-0.00000123,-0.00000024,0.000
 00107,-0.00000023,0.00000648,-0.00000240,-0.00000368,-0.00000593,-0.00
 000167,0.00000353,-0.00000006,-0.00000019,-0.00000254,-0.00000637,-0.0
 0001416,-0.00000560,-0.00000207,-0.00000653,0.00000439,-0.00000103,-0.
 00000686,-0.00000177,-0.00000131,0.00000621,-0.00000077,-0.00002652,0.
 00000898,-0.00000385,0.00001819,0.00002463,-0.00000339,-0.00000648,-0.
 00002715,0.00000877,0.00000075,0.00000140,0.00000005,-0.00000968,0.000
 00472,0.00000624,0.00000553,-0.00000658,-0.00000354,0.00000040,-0.0000
 0070,0.00000315,-0.00000042,-0.00000012,0.00000254,0.00000091,0.000003
 30,0.00000132,0.00000107,-0.00000858,-0.00000243,-0.00000414,-0.000008
 74,0.00000076,-0.00000395,-0.00000576,-0.00000414,0.00065279,-0.000203
 59,0.00043841,0.29839768,0.00000125,-0.00000064,0.00000011,0.00000041,
 0.00000178,-0.00000014,-0.00000003,-0.00000045,0.00000056,0.00000522,-
 0.00000290,0.00000029,0.00000285,0.00000071,0.00000120,-0.00001543,0.0
 0002571,-0.00000067,0.00003604,-0.00005476,0.00000051,0.00003405,0.000
 09072,-0.00000276,-0.00000390,0.00004782,-0.00000014,-0.00005096,-0.00
 004077,-0.00000572,0.00002926,0.00000270,0.00000335,0.00032873,0.00074
 804,0.00003051,0.00020196,-0.00019730,0.00000865,-0.00020452,0.0001852
 9,-0.00003988,0.00113578,-0.00083603,0.00012627,0.00099208,-0.00509895
 ,0.00049174,-0.00146805,0.00067970,-0.00010728,0.00024015,-0.00020307,
 0.00001140,0.00000546,0.00004444,-0.00001172,-0.00003203,-0.00000104,0
 .00003754,-0.00000450,-0.00001562,-0.00001652,0.00001976,-0.00000746,-
 0.00002031,-0.00009270,0.00007875,0.00003808,-0.00001029,-0.00073565,-
 0.00000326,-0.02946619,-0.00971588,-0.00217569,-0.11078789,-0.11256055
 ,-0.00701198,0.01735231,0.01133426,0.00122138,0.00321011,-0.00161316,0
 .00059324,-0.00000376,0.00002220,0.00000036,-0.00000056,0.00000013,0.0
 0000050,-0.00000007,0.00000008,-0.00000050,-0.00000035,0.00000118,-0.0
 0000021,-0.00000019,-0.00000043,-0.00000060,0.00000019,0.00000022,-0.0
 0000006,-0.00000073,0.00000010,0.00000045,-0.00000022,0.00000003,-0.00
 000042,-0.00000114,0.00000137,-0.00000047,0.00000270,0.00000108,-0.000
 00234,0.00000186,0.00000137,0.00000202,0.00000043,0.00000035,0.0000002
 3,0.00000910,-0.00000121,0.00000121,-0.00000523,-0.00001848,0.00000200
 ,-0.00000635,-0.00004171,0.00001594,0.00000202,0.00000169,0.00000004,-
 0.00001481,0.00000342,0.00000318,0.00001188,-0.00000883,-0.00000409,0.
 00000094,-0.00000264,0.00000521,-0.00000143,0.00000031,0.00000363,0.00
 000662,0.00000953,0.00000297,0.00000213,-0.00001473,-0.00000413,0.0000
 0301,-0.00005140,0.00000050,0.00000048,-0.00003820,-0.00001153,0.00048
 341,0.00132186,-0.00016399,0.11878456,0.11575643,-0.00000058,0.0000004
 4,0.00000090,0.00000098,-0.00000216,0.00000062,0.00000055,0.00000009,0
 .00000034,0.00000047,0.00000354,0.00001084,0.00000173,0.00000324,0.000
 00530,-0.00000189,-0.00001062,-0.00000551,0.00000677,0.00001672,-0.000
 03738,0.00000633,-0.00001643,-0.00008335,-0.00000824,0.00000145,0.0000
 4020,0.00000493,0.00000161,-0.00006152,-0.00000453,-0.00000868,0.00000
 025,-0.00008253,-0.00007582,0.00075716,0.00001557,-0.00000267,-0.00047
 708,0.00001922,-0.00002930,-0.00034186,0.00006280,0.00008013,-0.000436
 01,-0.00052545,0.00051770,0.00647082,0.00002791,-0.00002144,0.00052255
 ,-0.00001403,-0.00002955,-0.00001780,-0.00000162,0.00000100,0.00002168
 ,-0.00000134,0.00000393,0.00001031,0.00000065,-0.00000597,-0.00000116,
 0.00000124,-0.00000223,-0.00000170,-0.00000252,-0.00001028,-0.00006307
 ,0.00002367,0.00000395,-0.00016044,0.00105060,0.00062387,0.00277811,-0
 .01786199,-0.00700123,-0.03742443,-0.00246947,-0.00151599,0.00267954,-
 0.00096061,0.00061890,0.00676146,-0.00000575,-0.00000693,-0.00000174,0
 .00000012,-0.00000043,0.00000002,-0.00000068,-0.00000016,-0.00000098,0
 .00000016,0.00000007,0.00000052,-0.00000067,0.00000006,-0.00000154,0.0
 0000049,-0.00000042,0.00000048,0.00000018,0.00000020,0.00000010,-0.000
 00063,-0.00000038,-0.00000104,-0.00000115,-0.00000021,-0.00000161,-0.0
 0000024,0.00000018,-0.00000086,-0.00000041,-0.00000184,-0.00000121,-0.
 00000023,0.00000065,0.00000018,-0.00000379,0.00000138,0.00001304,-0.00
 000276,0.00000452,0.00005277,-0.00000319,0.00000689,-0.00000427,-0.000
 00423,-0.00000035,-0.00000632,-0.00000098,0.00000282,0.00000826,0.0000
 0128,-0.00000394,-0.00000153,0.00000020,0.00000632,-0.00000440,-0.0000
 0049,0.00000222,-0.00000198,0.00000174,0.00000134,0.00000071,0.0000005
 7,-0.00000196,-0.00000049,-0.00000307,0.00001963,-0.00000051,0.0000018
 0,-0.00001672,-0.00000107,0.00040354,-0.00020740,-0.00416578,0.0198266
 9,0.00723407,0.02733021,0.00000313,-0.00000146,-0.00000328,-0.00000489
 ,0.00000491,0.00000441,-0.00000149,-0.00000114,-0.00000125,-0.00000815
 ,-0.00002441,0.00000305,-0.00000464,0.00001113,-0.00000324,-0.00003727
 ,0.00004847,-0.00000110,0.00002734,-0.00015592,-0.00000176,0.00007897,
 0.00012907,-0.00000982,0.00006440,0.00003118,0.00000972,-0.00013745,0.
 00030149,-0.00002490,-0.00003584,-0.00056119,0.00002737,0.00115206,0.0
 0103277,0.00038764,0.00055735,-0.00074802,0.00009519,-0.00128308,-0.00
 152738,-0.00004356,-0.00372284,-0.00036985,-0.00097349,-0.00109005,-0.
 00019078,-0.00002050,-0.00007520,0.00010400,0.00011271,0.00007785,0.00
 005528,-0.00000599,0.00003342,-0.00004716,0.00000599,-0.00000009,-0.00
 000159,-0.00000357,-0.00000234,-0.00000418,0.00000313,-0.00000044,-0.0
 0000054,0.00000193,0.00001614,0.00002418,-0.00000957,0.00007012,0.0000
 3473,-0.00000650,-0.00399005,0.00224726,-0.00105423,0.00694494,0.02634
 945,-0.00073630,-0.06033056,-0.01772521,-0.00131527,0.00426038,-0.0284
 6096,0.00106501,0.00001799,0.00005817,-0.00000570,0.00000195,0.0000020
 1,-0.00000088,0.00000008,0.00000018,0.00000093,-0.00000117,0.00000061,
 0.00000030,0.00000019,-0.00000108,0.,-0.00000298,0.00000167,0.00000161
 ,0.00000181,0.00000108,-0.00000159,-0.00000016,0.00000019,0.00000125,0
 .00000130,0.00000984,0.00000248,0.00000176,0.00000262,-0.00000147,-0.0
 0000011,0.00000279,0.00000118,0.00000731,0.00003087,-0.00000236,-0.000
 00339,-0.00000561,-0.00000464,-0.00031337,0.00049289,-0.00006450,-0.00
 000110,0.00000115,-0.00000201,-0.00000013,-0.00000013,0.00000053,0.000
 00429,-0.00000227,-0.00000461,0.00000002,0.00000436,0.00000177,0.00000
 064,-0.00000030,-0.00000075,0.00000012,-0.00000022,-0.00000060,0.00000
 058,0.00000013,-0.00000041,-0.00000037,0.00000175,0.00000090,0.0000048
 8,0.00000103,0.00000125,0.00000329,-0.00000061,0.00000134,0.00023437,0
 .00108311,-0.00002606,0.00114988,-0.00073340,0.00050289,0.05633059,-0.
 00000149,0.00000059,0.00000378,0.00000358,-0.00000085,-0.00000741,-0.0
 0000007,-0.00000134,0.00000365,0.00000601,0.00000699,0.00000383,0.0000
 1655,0.00003137,-0.00000305,-0.00006222,-0.00000761,-0.00000277,0.0000
 8116,-0.00001463,0.00000071,0.00005030,0.00002772,0.00000865,-0.000011
 23,0.00001023,-0.00000345,-0.00006021,0.00022508,-0.00001265,-0.000511
 79,-0.00019128,-0.00005056,0.00108651,0.00026620,-0.00002380,0.0001428
 6,-0.00054672,0.00002573,-0.00077954,-0.00051618,-0.00005741,-0.001658
 27,0.00150911,0.00006586,-0.00011145,0.00057110,-0.00007267,0.00004299
 ,0.00015067,-0.00004632,0.00001786,-0.00018415,0.00000474,-0.00001724,
 0.00006146,-0.00001818,-0.00000712,-0.00000061,0.00001892,0.00000069,0
 .00000250,-0.00000908,0.00000625,-0.00000096,-0.00001020,-0.00001122,0
 .00005188,0.00001084,-0.00004102,-0.00013368,0.00000698,0.00341813,0.0
 0028978,0.00055071,-0.00414387,-0.01218856,0.00024162,-0.01632428,-0.3
 3648729,0.00955464,0.00073600,-0.00976171,0.00055714,-0.00005346,-0.00
 000785,0.00000240,-0.00000265,-0.00000193,0.00000147,0.00000003,0.,-0.
 00000138,0.00000004,0.00000244,-0.00000075,-0.00000021,-0.00000004,-0.
 00000069,0.00000325,-0.00000061,-0.00000177,-0.00000369,-0.00000060,0.
 00000183,-0.00000039,-0.00000012,-0.00000147,-0.00000488,-0.00000453,-
 0.00000319,0.00000068,-0.00000282,0.00000102,0.,-0.00000314,0.00000037
 ,0.00000171,0.00001731,0.00000106,-0.00003541,0.00000312,-0.00000140,-
 0.00006834,0.00026297,-0.00000684,0.00000124,-0.00001452,0.00000828,0.
 00000048,0.00000086,0.,-0.00001001,0.00000340,0.00000744,0.00000446,-0
 .00000845,-0.00000485,-0.00000041,0.00000017,0.00000298,-0.00000004,0.
 00000015,0.00000269,-0.00000048,0.00000286,0.00000169,0.00000218,-0.00
 000825,-0.00000310,-0.00000616,-0.00001219,0.00000265,-0.00000404,-0.0
 0001165,-0.00000767,-0.00027539,-0.00055377,0.00000054,0.00008858,0.00
 090060,-0.00018377,0.01849505,0.35626747,0.00000081,0.00000002,-0.0000
 0075,-0.00000026,0.00000043,0.00000386,0.00000046,0.00000035,-0.000000
 57,-0.00000070,-0.00000379,0.00000350,-0.00000345,-0.00000151,0.000007
 85,0.00000258,0.00000284,-0.00000420,-0.00000402,-0.00001024,0.0000089
 5,-0.00000624,0.00001146,0.00015612,0.00001372,0.00000659,-0.00005775,
 -0.00001930,0.00001556,0.00002285,0.00004022,-0.00004999,-0.00015222,0
 .00038407,-0.00003786,-0.00346063,0.00005463,-0.00004891,-0.00016403,-
 0.00006072,-0.00012040,-0.00020205,-0.00091647,0.00014854,0.00719247,-
 0.00006480,-0.00000333,-0.00074478,0.00012721,-0.00014145,-0.00123169,
 -0.00005005,0.00000519,0.00021804,0.00000942,-0.00000394,-0.00001416,-
 0.00000210,0.00000066,0.00000207,0.00000050,-0.00000271,0.00000047,0.0
 0000018,-0.00000001,0.00000105,0.00001086,-0.00000062,0.00004822,0.000
 01316,0.00004145,0.00002416,-0.00106341,0.00046376,0.00693969,0.000364
 95,0.00292311,0.00425989,-0.00139432,0.00941638,-0.03870398,-0.0000063
 5,-0.00199328,0.00426900,0.00000620,0.00000700,-0.00000991,0.00000100,
 0.00000052,-0.00000033,-0.00000072,-0.00000024,-0.00000068,-0.00000015
 ,-0.00000019,0.00000067,-0.00000085,0.00000008,-0.00000182,-0.00000058
 ,-0.00000008,0.00000155,0.00000131,0.00000066,-0.00000056,-0.00000081,
 -0.00000063,-0.00000086,-0.00000121,0.00000087,-0.00000076,0.00000013,
 0.00000151,-0.00000195,0.00000045,-0.00000054,-0.00000067,-0.00000249,
 0.00000286,0.00003306,-0.00000333,0.00000088,0.00005275,-0.00003392,0.
 00004052,0.00019321,0.00000071,-0.00000709,-0.00000450,-0.00000166,-0.
 00000014,-0.00000339,0.00000281,0.00000030,0.00000197,0.00000032,-0.00
 000092,-0.00000057,-0.00000070,0.00000318,-0.00000239,-0.00000072,0.00
 000169,-0.00000178,0.00000011,0.00000034,0.00000053,0.00000035,0.00000
 025,-0.00000053,-0.00000155,-0.00000376,-0.00000158,0.00000149,0.00000
 930,-0.00000457,0.00002943,0.00013588,-0.00006340,0.00047648,-0.000252
 72,-0.00415972,0.00209734,-0.01055782,0.02555484\\0.00000018,0.0000011
 3,-0.00000065,0.00000329,-0.00000204,-0.00000229,0.00000020,0.00000060
 ,-0.00000169,-0.00000028,0.00000901,0.00000320,0.00000251,-0.00000344,
 -0.00000166,-0.00000863,0.00000318,0.00000181,0.00000758,0.00000049,-0
 .00000731,-0.00000153,0.00000283,0.00000174,0.00000118,-0.00000368,0.0
 0000120,0.00000427,0.00000324,0.00000011,-0.00000257,0.00000091,-0.000
 00006,0.00000242,0.00000118,0.00000013,0.00001015,-0.00000784,0.000001
 15,0.00000052,0.00000087,0.00000003,-0.00001249,-0.00000067,-0.0000011
 6,0.00000327,0.00000142,-0.00000083,-0.00000666,0.00000408,0.00000573,
 -0.00000197,-0.00000631,-0.00000142,0.00000603,0.00000817,-0.00000150,
 -0.00000382,-0.00000021,0.00000129,-0.00000002,0.00000014,0.00000130,-
 0.00000004,0.00000095,0.00000016,-0.00000549,-0.00000179,0.00000028,0.
 00001024,-0.00000231,-0.00000297,-0.00000315,-0.00000304,-0.00000014,-
 0.00000134,0.00000471,0.00000012,0.00000304,-0.00000110,0.00000044,-0.
 00000118,0.00000218,0.00000014,-0.00000261,-0.00000508,0.00000270,-0.0
 0000111,-0.00000013,0.00000038,-0.00000047,-0.00000011,-0.00000153,0.0
 0000048,-0.00000087,0.,0.,0.00000004,-0.00000006,0.00000068,0.00000186
 ,0.00000029,-0.00000056,0.00000075,0.00000087,-0.00000117,-0.00000024,
 -0.00000083,-0.00000055,-0.00000148,-0.00000116,-0.00000126,-0.0000008
 9,0.00000161,0.00000055,-0.00000132,0.00000006,-0.00000015,0.00000049,
 -0.00000018,-0.00000036,0.00000103,-0.00000003,0.00000099,0.00000137,0
 .00000036,-0.00000067,-0.00000274,0.00000021,-0.00000017,-0.00000038,-
 0.00000028,0.00000052,0.00000111,-0.00000028,0.00000051,-0.00000042,-0
 .00000106,0.00000036,-0.00000152,0.00000070,-0.00000025,-0.00000075,0.
 00000106,-0.00000152,-0.00000058,-0.00000025,0.00000023,-0.00000114,-0
 .00000080,-0.00000101,-0.00000112,0.00000065,-0.00000056,-0.00000166,-
 0.00000075,0.00000060,-0.00000024,0.00000035,0.00000127,0.00000004,0.0
 0000053,0.00000051,0.00000131,0.00000026\\\@
 The archive entry for this job was punched.


 ANYONE WHO IS NOT SHOCKED BY QUANTUM THEORY HAS
 NOT UNDERSTOOD IT. -- NIELS BOHR(1885-1962)
 Job cpu time:       0 days  3 hours 13 minutes 42.5 seconds.
 Elapsed time:       0 days  0 hours  4 minutes 52.0 seconds.
 File lengths (MBytes):  RWF=   1368 Int=      0 D2E=      0 Chk=     20 Scr=      1
 Normal termination of Gaussian 16 at Mon Feb 26 12:16:22 2024.
