 
       ==============================================
       |                                            |
       |                 C R E S T                  |
       |                                            |
       |  Conformer-Rotamer Ensemble Sampling Tool  |
       |          based on the GFN methods          |
       |             P.Pracht, S.Grimme             |
       |          Universitaet Bonn, MCTC           |
       ==============================================
       Version 2.11.2, Fr 17. Dec 12:10:44 CEST 2021
  Using the xTB program. Compatible with xTB version 6.4.0
 
   Cite work conducted with this code as

   P. Pracht, F. Bohle, S. Grimme, PCCP, 2020, 22, 7169-7192.

   and  S. Grimme, JCTC, 2019, 15, 2847-2862.
 
   with help from:
   C.Bannwarth, F.Bohle, S.Ehlert, S.Grimme,
   C. Plett, P.Pracht, S. Spicher
 
   This program is distributed in the hope that it will be useful,
   but WITHOUT ANY WARRANTY; without even the implied warranty of
   MERCHANTABILITY or FITNESS FOR A PARTICULAR PURPOSE.

 Command line input:
 > crest 00212_r_0.xyz -T 28 -gfn2 -chrg 0 -uhf 0 -rthr 0.25 -shake 1 --mdlen 0.5

  -T 28 (CPUs/Threads selected)
  -gfn2 : Use of GFN2-xTB requested.
  -chrg 0
  -uhf 0
  -rthr 0.25
  --mdlen 0.5 (MD length in ps)
 
 -------------------------
 xTB Geometry Optimization
 -------------------------
 Geometry successfully optimized.
 
------------------------------------------------
Generating MTD length from a flexibility measure
------------------------------------------------
      -----------------------------------------------------------      
     |                   =====================                   |     
     |                           x T B                           |     
     |                   =====================                   |     
     |                         S. Grimme                         |     
     |          Mulliken Center for Theoretical Chemistry        |     
     |                    University of Bonn                     |     
      -----------------------------------------------------------      

   * xtb version 6.4.1 (afa7bdf) compiled by 'ehlert@majestix' on 2021-06-10

   xtb is free software: you can redistribute it and/or modify it under
   the terms of the GNU Lesser General Public License as published by
   the Free Software Foundation, either version 3 of the License, or
   (at your option) any later version.
   
   xtb is distributed in the hope that it will be useful,
   but WITHOUT ANY WARRANTY; without even the implied warranty of
   MERCHANTABILITY or FITNESS FOR A PARTICULAR PURPOSE.  See the
   GNU Lesser General Public License for more details.
   
   Cite this work as:
   * C. Bannwarth, E. Caldeweyher, S. Ehlert, A. Hansen, P. Pracht,
     J. Seibert, S. Spicher, S. Grimme, WIREs Comput. Mol. Sci., 2020, 11,
     e01493. DOI: 10.1002/wcms.1493
   
   for GFN2-xTB:
   * C. Bannwarth, S. Ehlert and S. Grimme., J. Chem. Theory Comput., 2019,
     15, 1652-1671. DOI: 10.1021/acs.jctc.8b01176
   for GFN1-xTB:
   * S. Grimme, C. Bannwarth, P. Shushkov, J. Chem. Theory Comput., 2017,
     13, 1989-2009. DOI: 10.1021/acs.jctc.7b00118
   for GFN0-xTB:
   * P. Pracht, E. Caldeweyher, S. Ehlert, S. Grimme, ChemRxiv, 2019, preprint.
     DOI: 10.26434/chemrxiv.8326202.v1
   for GFN-FF:
   * S. Spicher and S. Grimme, Angew. Chem. Int. Ed., 2020, 59, 15665-15673.
     DOI: 10.1002/anie.202004239
   
   for DFT-D4:
   * E. Caldeweyher, C. Bannwarth and S. Grimme, J. Chem. Phys., 2017,
     147, 034112. DOI: 10.1063/1.4993215
   * E. Caldeweyher, S. Ehlert, A. Hansen, H. Neugebauer, S. Spicher,
     C. Bannwarth and S. Grimme, J. Chem. Phys., 2019, 150, 154122.
     DOI: 10.1063/1.5090222
   * E. Caldeweyher, J.-M. Mewes, S. Ehlert and S. Grimme, Phys. Chem. Chem. Phys.
     2020, 22, 8499-8512. DOI: 10.1039/D0CP00502A
   
   for sTDA-xTB:
   * S. Grimme and C. Bannwarth, J. Chem. Phys., 2016, 145, 054103.
     DOI: 10.1063/1.4959605
   
   in the mass-spec context:
   * V. Asgeirsson, C. Bauer and S. Grimme, Chem. Sci., 2017, 8, 4879.
     DOI: 10.1039/c7sc00601b
   * J. Koopman and S. Grimme, ACS Omega 2019, 4, 12, 15120-15133.
     DOI: 10.1021/acsomega.9b02011
   
   for metadynamics refer to:
   * S. Grimme, J. Chem. Theory Comput., 2019, 155, 2847-2862
     DOI: 10.1021/acs.jctc.9b00143
   
   for SPH calculations refer to:
   * S. Spicher and S. Grimme, J. Chem. Theory Comput., 2021, 17, 1701-1714
     DOI: 10.1021/acs.jctc.0c01306
   
   with help from (in alphabetical order)
   P. Atkinson, C. Bannwarth, F. Bohle, G. Brandenburg, E. Caldeweyher
   M. Checinski, S. Dohm, S. Ehlert, S. Ehrlich, I. Gerasimov, J. Koopman
   C. Lavigne, S. Lehtola, F. März, M. Müller, F. Musil, H. Neugebauer
   J. Pisarek, C. Plett, P. Pracht, J. Seibert, P. Shushkov, S. Spicher
   M. Stahn, M. Steiner, T. Strunk, J. Stückrath, T. Rose, and J. Unsleber
   
 * started run on 2025/01/21 at 11:32:26.043     

           -------------------------------------------------
          |                Calculation Setup                |
           -------------------------------------------------

          program call               : xtb tmpcoord --gfn0 --sp
          hostname                   : node86
          coordinate file            : tmpcoord
          omp threads                :                    28
          number of atoms            :                    70
          number of electrons        :                   198
          charge                     :                     0
          spin                       :                   0.0
          first test random number   :      0.69499242868012

   ID    Z sym.   atoms
    1    6 c      1, 2, 4-18, 20-24, 26-37, 39, 40
    2    8 o      3, 19, 25, 38
    3    1 h      41-70
########################################################################
[WARNING] Please study the warnings concerning your input carefully
-1- prog_main_parseArguments: The use of '--gfn0' is discouraged, please use '--gfn 0' next time
########################################################################

           -------------------------------------------------
          |                 G F N 0 - x T B                 |
           -------------------------------------------------

        Reference                      10.26434/chemrxiv.8326202.v1
      * Hamiltonian:
        H0-scaling (s, p, d)           2.000000    2.486800    2.270000
        zeta-weighting                 1.000000
      * Dispersion:
        s8                             2.850000
        a1                             0.800000
        a2                             4.600000
        s9                             0.000000
      * Repulsion:
        kExp                           1.500000
        rExp                           1.000000
      * Coulomb:
        alpha                          0.000000
        third order                    atomic
        anisotropic                    false
      * Polar bond correction:
        rad-shift                      0.053700
        strength                      -0.012900
        en-exp                         3.484700
        en-scale                       0.509700


          ...................................................
          :                      SETUP                      :
          :.................................................:
          :  # basis functions                 220          :
          :  # atomic orbitals                 220          :
          :  # shells                          140          :
          :  # electrons                       198          :
          :  electronic temp.          300.0000000     K    :
          :  accuracy                    1.0000000          :
          :  -> integral cutoff          0.2500000E+02      :
          :  -> integral neglect         0.1000000E-07      :
          ...................................................
  Checking positiv definite overlap ...  done.
 

         #    Occupation            Energy/Eh            Energy/eV
      -------------------------------------------------------------
         1        2.0000           -0.6945098             -18.8986
       ...           ...                  ...                  ...
        93        2.0000           -0.4368485             -11.8873
        94        2.0000           -0.4185091             -11.3882
        95        2.0000           -0.4182540             -11.3813
        96        2.0000           -0.3950652             -10.7503
        97        2.0000           -0.3940104             -10.7216
        98        2.0000           -0.3897129             -10.6046
        99        2.0000           -0.3890774             -10.5873 (HOMO)
       100                         -0.3007890              -8.1849 (LUMO)
       101                         -0.3001427              -8.1673
       102                         -0.2704344              -7.3589
       103                         -0.2698627              -7.3433
       104                         -0.2665563              -7.2534
       ...                                ...                  ...
       220                          0.6550221              17.8241
      -------------------------------------------------------------
                  HL-Gap            0.0882884 Eh            2.4025 eV
             Fermi-level            0.0000000 Eh            0.0000 eV

 EHT (total)                   0 d,  0 h,  0 min,  0.045 sec
 EHT setup                      ...        0 min,  0.001 sec (  2.422%)
 Coordination number            ...        0 min,  0.001 sec (  2.199%)
 EEQ model density              ...        0 min,  0.001 sec (  1.684%)
 D4 Dispersion                  ...        0 min,  0.003 sec (  5.742%)
 Integral evaluation            ...        0 min,  0.001 sec (  2.583%)
 Cholesky factorization         ...        0 min,  0.008 sec ( 17.350%)
 Zeroth order Hamiltonian       ...        0 min,  0.027 sec ( 59.610%)
 Gradient calculation           ...        0 min,  0.003 sec (  6.733%)

         :::::::::::::::::::::::::::::::::::::::::::::::::::::
         ::                     SUMMARY                     ::
         :::::::::::::::::::::::::::::::::::::::::::::::::::::
         :: total energy            -105.504553049776 Eh    ::
         :: gradient norm              0.056978625413 Eh/a0 ::
         :: HOMO-LUMO gap              2.402450331563 eV    ::
         ::.................................................::
         :: H0 energy               -107.019243716407 Eh    ::
         :: repulsion energy           1.786887407547 Eh    ::
         :: electrostat energy        -0.149977057319 Eh    ::
         :: -> Gsolv                   0.000000000000 Eh    ::
         ::    -> Gsasa                0.000000000000 Eh    ::
         ::    -> Gshift               0.000000000000 Eh    ::
         :: dispersion energy         -0.046582543195 Eh    ::
         :: short-range corr.         -0.075637140402 Eh    ::
         :: add. restraining           0.000000000000 Eh    ::
         :: total charge              -0.000000000000 e     ::
         :::::::::::::::::::::::::::::::::::::::::::::::::::::

           -------------------------------------------------
          |                Property Printout                |
           -------------------------------------------------

    * Orbital Energies and Occupations

         #    Occupation            Energy/Eh            Energy/eV
      -------------------------------------------------------------
         1        2.0000           -0.6945098             -18.8986
       ...           ...                  ...                  ...
        87        2.0000           -0.4458422             -12.1320
        88        2.0000           -0.4450327             -12.1100
        89        2.0000           -0.4430131             -12.0550
        90        2.0000           -0.4421779             -12.0323
        91        2.0000           -0.4390000             -11.9458
        92        2.0000           -0.4369293             -11.8895
        93        2.0000           -0.4368485             -11.8873
        94        2.0000           -0.4185091             -11.3882
        95        2.0000           -0.4182540             -11.3813
        96        2.0000           -0.3950652             -10.7503
        97        2.0000           -0.3940104             -10.7216
        98        2.0000           -0.3897129             -10.6046
        99        2.0000           -0.3890774             -10.5873 (HOMO)
       100                         -0.3007890              -8.1849 (LUMO)
       101                         -0.3001427              -8.1673
       102                         -0.2704344              -7.3589
       103                         -0.2698627              -7.3433
       104                         -0.2665563              -7.2534
       105                         -0.2663967              -7.2490
       106                         -0.2477841              -6.7425
       107                         -0.2472903              -6.7291
       108                         -0.2306922              -6.2775
       109                         -0.2297688              -6.2523
       110                         -0.1829951              -4.9795
       ...                                ...                  ...
       220                          0.6550221              17.8241
      -------------------------------------------------------------
                  HL-Gap            0.0882884 Eh            2.4025 eV
             Fermi-level            0.0000000 Eh            0.0000 eV

     #   Z          covCN         q      C6AA      α(0)
     1   6 c        3.751    -0.406    32.922     8.281
     2   6 c        3.691     0.143    20.619     6.573
     3   8 o        1.706    -0.395    20.568     6.136
     4   6 c        2.863     0.267    23.748     7.963
     5   6 c        2.916    -0.178    34.384     9.585
     6   6 c        2.927    -0.125    32.861     9.371
     7   6 c        2.976     0.086    27.474     8.571
     8   6 c        2.969    -0.013    29.842     8.933
     9   6 c        2.925    -0.200    35.049     9.678
    10   6 c        2.983     0.068    27.894     8.636
    11   6 c        2.919    -0.132    33.053     9.398
    12   6 c        2.916    -0.087    31.803     9.218
    13   6 c        2.917    -0.091    31.900     9.233
    14   6 c        2.917    -0.120    32.711     9.349
    15   6 c        2.988     0.034    28.692     8.759
    16   6 c        2.973    -0.093    31.957     9.244
    17   6 c        2.973    -0.093    31.944     9.242
    18   6 c        2.849     0.221    24.647     8.111
    19   8 o        1.659    -0.557    23.978     6.624
    20   6 c        2.969    -0.013    29.842     8.933
    21   6 c        2.976     0.086    27.471     8.571
    22   6 c        2.927    -0.126    32.894     9.376
    23   6 c        2.916    -0.180    34.468     9.597
    24   6 c        2.860     0.277    23.558     7.930
    25   8 o        1.705    -0.400    20.658     6.149
    26   6 c        3.689     0.141    20.654     6.579
    27   6 c        3.750    -0.428    33.586     8.364
    28   6 c        2.920    -0.158    33.796     9.503
    29   6 c        2.924    -0.104    32.279     9.288
    30   6 c        2.925    -0.200    35.055     9.679
    31   6 c        2.983     0.068    27.889     8.636
    32   6 c        2.919    -0.132    33.051     9.398
    33   6 c        2.916    -0.087    31.800     9.218
    34   6 c        2.917    -0.090    31.876     9.229
    35   6 c        2.917    -0.119    32.680     9.345
    36   6 c        2.988     0.032    28.724     8.764
    37   6 c        2.850     0.220    24.669     8.114
    38   8 o        1.659    -0.557    23.961     6.622
    39   6 c        2.924    -0.104    32.266     9.286
    40   6 c        2.920    -0.154    33.687     9.488
    41   1 h        0.925     0.120     1.617     1.988
    42   1 h        0.925     0.153     1.370     1.831
    43   1 h        0.925     0.152     1.378     1.835
    44   1 h        0.923     0.045     2.387     2.416
    45   1 h        0.923     0.043     2.413     2.429
    46   1 h        0.926     0.103     1.755     2.072
    47   1 h        0.926     0.106     1.730     2.057
    48   1 h        0.926     0.119     1.620     1.991
    49   1 h        0.926     0.100     1.782     2.087
    50   1 h        0.926     0.094     1.841     2.122
    51   1 h        0.926     0.096     1.825     2.113
    52   1 h        0.926     0.118     1.628     1.996
    53   1 h        0.805     0.312     0.686     1.301
    54   1 h        0.926     0.107     1.721     2.052
    55   1 h        0.926     0.107     1.722     2.052
    56   1 h        0.924     0.042     2.424     2.435
    57   1 h        0.924     0.064     2.150     2.293
    58   1 h        0.925     0.125     1.577     1.964
    59   1 h        0.925     0.145     1.427     1.868
    60   1 h        0.925     0.154     1.363     1.826
    61   1 h        0.926     0.132     1.519     1.927
    62   1 h        0.926     0.140     1.461     1.890
    63   1 h        0.926     0.118     1.629     1.996
    64   1 h        0.926     0.100     1.785     2.089
    65   1 h        0.926     0.094     1.840     2.121
    66   1 h        0.926     0.096     1.818     2.109
    67   1 h        0.926     0.121     1.609     1.983
    68   1 h        0.805     0.314     0.680     1.295
    69   1 h        0.926     0.144     1.435     1.873
    70   1 h        0.926     0.132     1.519     1.928

 Mol. C6AA /au·bohr⁶  :      64844.654844
 Mol. C8AA /au·bohr⁸  :    1638839.310448
 Mol. α(0) /au        :        404.912593


Wiberg/Mayer (AO) data.
largest (>0.10) Wiberg bond orders for each atom

 ---------------------------------------------------------------------------
     #   Z sym  total        # sym  WBO       # sym  WBO       # sym  WBO
 ---------------------------------------------------------------------------
     1   6 c    3.980 --     2 c    1.023    41 h    0.981    43 h    0.981
                            42 h    0.981
     2   6 c    3.956 --     1 c    1.023    45 h    0.973    44 h    0.973
                             3 o    0.972
     3   8 o    2.335 --     4 c    1.126     2 c    0.972
     4   6 c    3.939 --     5 c    1.348    40 c    1.327     3 o    1.126
     5   6 c    3.981 --     6 c    1.455     4 c    1.348    46 h    0.969
     6   6 c    3.983 --     5 c    1.455     7 c    1.386    47 h    0.969
                            40 c    0.100
     7   6 c    3.974 --     6 c    1.386    39 c    1.363     8 c    1.041
     8   6 c    3.975 --     9 c    1.517    37 c    1.209     7 c    1.041
     9   6 c    3.980 --     8 c    1.517    10 c    1.271    48 h    0.965
    10   6 c    3.978 --    11 c    1.282     9 c    1.271    15 c    1.242
    11   6 c    3.978 --    12 c    1.549    10 c    1.282    49 h    0.969
                            14 c    0.115
    12   6 c    3.975 --    11 c    1.549    13 c    1.321    50 h    0.973
    13   6 c    3.981 --    14 c    1.553    12 c    1.321    51 h    0.973
    14   6 c    3.987 --    13 c    1.553    15 c    1.276    52 h    0.966
                            11 c    0.115
    15   6 c    3.976 --    14 c    1.276    16 c    1.249    10 c    1.242
    16   6 c    3.964 --    37 c    1.414    15 c    1.249    17 c    0.992
    17   6 c    3.964 --    18 c    1.414    36 c    1.249    16 c    0.992
    18   6 c    3.940 --    17 c    1.414    20 c    1.209    19 o    1.135
    19   8 o    2.318 --    18 c    1.135    53 h    0.967
    20   6 c    3.975 --    30 c    1.516    18 c    1.209    21 c    1.042
    21   6 c    3.972 --    22 c    1.385    29 c    1.364    20 c    1.042
    22   6 c    3.983 --    23 c    1.456    21 c    1.385    54 h    0.969
    23   6 c    3.981 --    22 c    1.456    24 c    1.349    55 h    0.967
    24   6 c    3.940 --    23 c    1.349    28 c    1.329    25 o    1.123
    25   8 o    2.344 --    24 c    1.123    26 c    0.976
    26   6 c    3.954 --    27 c    1.015    25 o    0.976    57 h    0.975
                            56 h    0.970
    27   6 c    3.977 --    26 c    1.015    60 h    0.981    58 h    0.980
                            59 h    0.980
    28   6 c    3.982 --    29 c    1.483    24 c    1.329    61 h    0.968
    29   6 c    3.983 --    28 c    1.483    21 c    1.364    62 h    0.968
    30   6 c    3.980 --    20 c    1.516    31 c    1.271    63 h    0.965
    31   6 c    3.978 --    32 c    1.281    30 c    1.271    36 c    1.241
    32   6 c    3.978 --    33 c    1.549    31 c    1.281    64 h    0.969
                            35 c    0.115
    33   6 c    3.975 --    32 c    1.549    34 c    1.321    65 h    0.973
    34   6 c    3.981 --    35 c    1.553    33 c    1.321    66 h    0.973
    35   6 c    3.987 --    34 c    1.553    36 c    1.275    67 h    0.966
                            32 c    0.115
    36   6 c    3.976 --    35 c    1.275    17 c    1.249    31 c    1.241
    37   6 c    3.940 --    16 c    1.414     8 c    1.209    38 o    1.135
    38   8 o    2.316 --    37 c    1.135    68 h    0.967
    39   6 c    3.983 --    40 c    1.484     7 c    1.363    69 h    0.968
    40   6 c    3.981 --    39 c    1.484     4 c    1.327    70 h    0.968
                             6 c    0.100
    41   1 h    0.981 --     1 c    0.981
    42   1 h    0.986 --     1 c    0.981
    43   1 h    0.986 --     1 c    0.981
    44   1 h    0.987 --     2 c    0.973
    45   1 h    0.987 --     2 c    0.973
    46   1 h    0.976 --     5 c    0.969
    47   1 h    0.979 --     6 c    0.969
    48   1 h    0.973 --     9 c    0.965
    49   1 h    0.978 --    11 c    0.969
    50   1 h    0.983 --    12 c    0.973
    51   1 h    0.983 --    13 c    0.973
    52   1 h    0.981 --    14 c    0.966
    53   1 h    0.989 --    19 o    0.967
    54   1 h    0.979 --    22 c    0.969
    55   1 h    0.975 --    23 c    0.967
    56   1 h    0.982 --    26 c    0.970
    57   1 h    1.004 --    26 c    0.975
    58   1 h    0.981 --    27 c    0.980
    59   1 h    0.981 --    27 c    0.980
    60   1 h    0.988 --    27 c    0.981
    61   1 h    0.986 --    28 c    0.968
    62   1 h    0.992 --    29 c    0.968
    63   1 h    0.973 --    30 c    0.965
    64   1 h    0.978 --    32 c    0.969
    65   1 h    0.983 --    33 c    0.973
    66   1 h    0.983 --    34 c    0.973
    67   1 h    0.981 --    35 c    0.966
    68   1 h    0.988 --    38 o    0.967
    69   1 h    0.991 --    39 c    0.968
    70   1 h    0.986 --    40 c    0.968
 ---------------------------------------------------------------------------

Topologies differ in total number of bonds
Writing topology from bond orders to xtbtopo.mol

 dipole moment from electron density (au)
     X       Y       Z   
  -0.4578   0.7818  -1.5366  total (Debye):    4.534


           -------------------------------------------------
          | TOTAL ENERGY             -105.504553049776 Eh   |
          | GRADIENT NORM               0.056978625413 Eh/α |
          | HOMO-LUMO GAP               2.402450331563 eV   |
           -------------------------------------------------

------------------------------------------------------------------------
 * finished run on 2025/01/21 at 11:32:26.164     
------------------------------------------------------------------------
 total:
 * wall-time:     0 d,  0 h,  0 min,  0.121 sec
 *  cpu-time:     0 d,  0 h,  0 min,  2.751 sec
 * ratio c/w:    22.708 speedup
 SCF:
 * wall-time:     0 d,  0 h,  0 min,  0.046 sec
 *  cpu-time:     0 d,  0 h,  0 min,  1.148 sec
 * ratio c/w:    24.944 speedup

 Calculating WBOs... done.
      -----------------------------------------------------------      
     |                   =====================                   |     
     |                           x T B                           |     
     |                   =====================                   |     
     |                         S. Grimme                         |     
     |          Mulliken Center for Theoretical Chemistry        |     
     |                    University of Bonn                     |     
      -----------------------------------------------------------      

   * xtb version 6.4.1 (afa7bdf) compiled by 'ehlert@majestix' on 2021-06-10

   xtb is free software: you can redistribute it and/or modify it under
   the terms of the GNU Lesser General Public License as published by
   the Free Software Foundation, either version 3 of the License, or
   (at your option) any later version.
   
   xtb is distributed in the hope that it will be useful,
   but WITHOUT ANY WARRANTY; without even the implied warranty of
   MERCHANTABILITY or FITNESS FOR A PARTICULAR PURPOSE.  See the
   GNU Lesser General Public License for more details.
   
   Cite this work as:
   * C. Bannwarth, E. Caldeweyher, S. Ehlert, A. Hansen, P. Pracht,
     J. Seibert, S. Spicher, S. Grimme, WIREs Comput. Mol. Sci., 2020, 11,
     e01493. DOI: 10.1002/wcms.1493
   
   for GFN2-xTB:
   * C. Bannwarth, S. Ehlert and S. Grimme., J. Chem. Theory Comput., 2019,
     15, 1652-1671. DOI: 10.1021/acs.jctc.8b01176
   for GFN1-xTB:
   * S. Grimme, C. Bannwarth, P. Shushkov, J. Chem. Theory Comput., 2017,
     13, 1989-2009. DOI: 10.1021/acs.jctc.7b00118
   for GFN0-xTB:
   * P. Pracht, E. Caldeweyher, S. Ehlert, S. Grimme, ChemRxiv, 2019, preprint.
     DOI: 10.26434/chemrxiv.8326202.v1
   for GFN-FF:
   * S. Spicher and S. Grimme, Angew. Chem. Int. Ed., 2020, 59, 15665-15673.
     DOI: 10.1002/anie.202004239
   
   for DFT-D4:
   * E. Caldeweyher, C. Bannwarth and S. Grimme, J. Chem. Phys., 2017,
     147, 034112. DOI: 10.1063/1.4993215
   * E. Caldeweyher, S. Ehlert, A. Hansen, H. Neugebauer, S. Spicher,
     C. Bannwarth and S. Grimme, J. Chem. Phys., 2019, 150, 154122.
     DOI: 10.1063/1.5090222
   * E. Caldeweyher, J.-M. Mewes, S. Ehlert and S. Grimme, Phys. Chem. Chem. Phys.
     2020, 22, 8499-8512. DOI: 10.1039/D0CP00502A
   
   for sTDA-xTB:
   * S. Grimme and C. Bannwarth, J. Chem. Phys., 2016, 145, 054103.
     DOI: 10.1063/1.4959605
   
   in the mass-spec context:
   * V. Asgeirsson, C. Bauer and S. Grimme, Chem. Sci., 2017, 8, 4879.
     DOI: 10.1039/c7sc00601b
   * J. Koopman and S. Grimme, ACS Omega 2019, 4, 12, 15120-15133.
     DOI: 10.1021/acsomega.9b02011
   
   for metadynamics refer to:
   * S. Grimme, J. Chem. Theory Comput., 2019, 155, 2847-2862
     DOI: 10.1021/acs.jctc.9b00143
   
   for SPH calculations refer to:
   * S. Spicher and S. Grimme, J. Chem. Theory Comput., 2021, 17, 1701-1714
     DOI: 10.1021/acs.jctc.0c01306
   
   with help from (in alphabetical order)
   P. Atkinson, C. Bannwarth, F. Bohle, G. Brandenburg, E. Caldeweyher
   M. Checinski, S. Dohm, S. Ehlert, S. Ehrlich, I. Gerasimov, J. Koopman
   C. Lavigne, S. Lehtola, F. März, M. Müller, F. Musil, H. Neugebauer
   J. Pisarek, C. Plett, P. Pracht, J. Seibert, P. Shushkov, S. Spicher
   M. Stahn, M. Steiner, T. Strunk, J. Stückrath, T. Rose, and J. Unsleber
   
 * started run on 2025/01/21 at 11:32:26.206     

           -------------------------------------------------
          |                Calculation Setup                |
           -------------------------------------------------

          program call               : xtb tmpcoord --gfnff --sp
          hostname                   : node86
          coordinate file            : tmpcoord
          omp threads                :                    28
          number of atoms            :                    70
          number of electrons        :                   198
          charge                     :                     0
          spin                       :                   0.0
          first test random number   :      0.23581939844631

   ID    Z sym.   atoms
    1    6 c      1, 2, 4-18, 20-24, 26-37, 39, 40
    2    8 o      3, 19, 25, 38
    3    1 h      41-70
 
          ==================== Thresholds ====================
          CN  :   150.00000
          rep :   500.00000
          disp:  2500.00000
          HB1 :   250.00000
          HB2 :   450.00000
 
          Pauling EN used:
          Z : 1  EN :  2.20
          Z : 6  EN :  2.55
          Z : 8  EN :  3.44
          electric field strengths (au): 0.000
 
           ------------------------------------------------- 
          |           Force Field Initialization            |
           ------------------------------------------------- 
 
          distances ...
          ----------------------------------------
          generating topology and atomic info file ...
          pair mat ...
          computing topology distances matrix with Floyd-Warshall algo ...
          making topology EEQ charges ...
          #fragments for EEQ constrain: 1
          ----------------------------------------
          generating topology and atomic info file ...
          pair mat ...
          computing topology distances matrix with Floyd-Warshall algo ...
          making topology EEQ charges ...
          #fragments for EEQ constrain: 1
          rings ...
          # BATM   736
          # H in HB   20
          doing iterative Hueckel for 1 subsystem(s) ...
 
  atom   neighbors  erfCN metchar sp-hybrid imet pi  qest     coordinates
    1  c       4    3.49   0.00         3    0    0  -0.069  -17.855058    0.450891   -5.919845
    2  c       4    3.49   0.00         3    0    0   0.089  -16.066179   -0.256123   -3.784514
    3  o       2    1.92   0.00         3    0    1  -0.355  -13.678794    0.799495   -4.344190
    4  c       3    2.83   0.00         2    0    1   0.072  -11.741260    0.453058   -2.692303
    5  c       3    2.81   0.00         2    0    1  -0.002  -11.893939   -0.884491   -0.435223
    6  c       3    2.82   0.00         2    0    1  -0.034   -9.788765   -1.094944    1.100318
    7  c       3    2.82   0.00         2    0    1  -0.001   -7.492990   -0.008486    0.432032
    8  c       3    2.81   0.00         2    0    1  -0.012   -5.296315   -0.233411    2.118605
    9  c       3    2.82   0.00         2    0    1  -0.016   -5.536732    0.165939    4.670572
   10  c       3    2.83   0.00         2    0    1  -0.012   -3.475406   -0.039787    6.340426
   11  c       3    2.81   0.00         2    0    1  -0.010   -3.728154    0.369456    8.960822
   12  c       3    2.81   0.00         2    0    1  -0.048   -1.692741    0.147142   10.535742
   13  c       3    2.81   0.00         2    0    1  -0.025    0.686661   -0.495551    9.558820
   14  c       3    2.81   0.00         2    0    1  -0.047    0.997710   -0.900062    7.026134
   15  c       3    2.83   0.00         2    0    1  -0.007   -1.066518   -0.681220    5.355537
   16  c       3    2.82   0.00         2    0    1   0.011   -0.818988   -1.102668    2.722339
   17  c       3    2.82   0.00         2    0    1   0.011    1.677796   -1.797714    1.618970
   18  c       3    2.82   0.00         2    0    1   0.088    3.303373    0.096694    0.861218
   19  o       2    1.92   0.00         3    0    1  -0.442    2.659068    2.571689    1.105560
   20  c       3    2.81   0.00         2    0    1  -0.012    5.671272   -0.496298   -0.257747
   21  c       3    2.82   0.00         2    0    1  -0.001    7.391819    1.516035   -1.099677
   22  c       3    2.82   0.00         2    0    1  -0.034    8.579327    1.340046   -3.436363
   23  c       3    2.81   0.00         2    0    1  -0.002   10.238868    3.180242   -4.266530
   24  c       3    2.83   0.00         2    0    1   0.072   10.757979    5.262459   -2.748864
   25  o       2    1.92   0.00         3    0    1  -0.355   12.320103    7.216404   -3.353825
   26  c       4    3.49   0.00         3    0    0   0.089   13.757255    7.127505   -5.600295
   27  c       4    3.49   0.00         3    0    0  -0.069   16.047328    5.387069   -5.385267
   28  c       3    2.82   0.00         2    0    1  -0.002    9.571286    5.446835   -0.398946
   29  c       3    2.82   0.00         2    0    1  -0.034    7.914698    3.611224    0.408316
   30  c       3    2.82   0.00         2    0    1  -0.016    6.309535   -2.992568   -0.563755
   31  c       3    2.83   0.00         2    0    1  -0.012    4.712303   -4.973713    0.211730
   32  c       3    2.81   0.00         2    0    1  -0.010    5.385568   -7.534639   -0.080993
   33  c       3    2.81   0.00         2    0    1  -0.048    3.796131   -9.416157    0.697436
   34  c       3    2.81   0.00         2    0    1  -0.025    1.462897   -8.818836    1.805570
   35  c       3    2.81   0.00         2    0    1  -0.047    0.751229   -6.354632    2.114610
   36  c       3    2.83   0.00         2    0    1  -0.007    2.350616   -4.373950    1.327744
   37  c       3    2.82   0.00         2    0    1   0.088   -2.883970   -0.892442    1.141582
   38  o       2    1.92   0.00         3    0    1  -0.442   -2.677908   -1.350403   -1.378286
   39  c       3    2.82   0.00         2    0    1  -0.034   -7.352561    1.319190   -1.838756
   40  c       3    2.81   0.00         2    0    1  -0.002   -9.440922    1.553102   -3.370867
   41  h       1    0.97   0.00         0    0    0   0.041  -19.717359   -0.335228   -5.562540
   42  h       1    0.97   0.00         0    0    0   0.041  -17.141909   -0.280536   -7.700835
   43  h       1    0.97   0.00         0    0    0   0.041  -17.999295    2.494015   -6.064032
   44  h       1    0.97   0.01         0    0    0   0.022  -15.915328   -2.322318   -3.630666
   45  h       1    0.97   0.01         0    0    0   0.022  -16.774416    0.493059   -1.981001
   46  h       1    0.97   0.00         0    0    0   0.036  -13.634684   -1.773879    0.145306
   47  h       1    0.97   0.00         0    0    0   0.064   -9.929762   -2.159962    2.837066
   48  h       1    0.97   0.00         0    0    0   0.051   -7.360090    0.682019    5.430439
   49  h       1    0.97   0.00         0    0    0   0.032   -5.568011    0.859852    9.699333
   50  h       1    0.97   0.00         0    0    0   0.059   -1.901595    0.460444   12.541784
   51  h       1    0.97   0.00         0    0    0   0.051    2.276502   -0.671863   10.826541
   52  h       1    0.97   0.00         0    0    0   0.054    2.827607   -1.404707    6.273193
   53  h       1    0.97   0.01         0    0    0   0.239    1.005638    2.685466    1.882158
   54  h       1    0.97   0.00         0    0    0   0.064    8.175864   -0.249735   -4.653332
   55  h       1    0.97   0.00         0    0    0   0.036   11.096467    2.966610   -6.104094
   56  h       1    0.97   0.00         0    0    0   0.022   12.570069    6.588175   -7.212002
   57  h       1    0.97   0.00         0    0    0   0.022   14.384822    9.076290   -5.884403
   58  h       1    0.97   0.00         0    0    0   0.041   17.137494    5.456009   -7.124000
   59  h       1    0.97   0.00         0    0    0   0.041   15.464104    3.448077   -5.036722
   60  h       1    0.97   0.00         0    0    0   0.041   17.237207    5.995206   -3.825169
   61  h       1    0.97   0.00         0    0    0   0.036    9.986269    7.068654    0.764200
   62  h       1    0.97   0.00         0    0    0   0.064    7.031801    3.787556    2.236411
   63  h       1    0.97   0.00         0    0    0   0.051    8.115215   -3.464713   -1.391137
   64  h       1    0.97   0.00         0    0    0   0.032    7.188079   -7.979000   -0.932059
   65  h       1    0.97   0.00         0    0    0   0.059    4.325549  -11.374019    0.469040
   66  h       1    0.97   0.00         0    0    0   0.051    0.228569  -10.324696    2.417405
   67  h       1    0.97   0.00         0    0    0   0.054   -1.042262   -5.893303    2.974783
   68  h       1    0.97   0.01         0    0    0   0.239   -0.978888   -1.923281   -1.745047
   69  h       1    0.97   0.00         0    0    0   0.064   -5.596556    2.191744   -2.394369
   70  h       1    0.97   0.00         0    0    0   0.036   -9.346160    2.587873   -5.124538
 
          #atoms :   70
          #bonds :   75
          #angl  :   124
          #tors  :   212
          #nmol  :   1
          #optfrag :   1
           ------------------------------------------------- 
          |                   G F N - F F                   |
          |          A general generic force-field          |
          |                  Version 1.0.3                  | 
           ------------------------------------------------- 
          nhb123   5655 517 0

 E+G (total)                   0 d,  0 h,  0 min,  0.004 sec
 distance/D3 list               ...        0 min,  0.000 sec (  0.660%)
 non bonded repulsion           ...        0 min,  0.000 sec (  7.461%)
 dCN                            ...        0 min,  0.000 sec (  5.513%)
 EEQ energy and q               ...        0 min,  0.000 sec ( 11.151%)
 D3                             ...        0 min,  0.000 sec ( 12.339%)
 EEQ gradient                   ...        0 min,  0.000 sec (  8.542%)
 bonds                          ...        0 min,  0.000 sec (  9.121%)
 bend and torsion               ...        0 min,  0.000 sec ( 11.654%)
 bonded ATM                     ...        0 min,  0.000 sec (  1.188%)
 HB/XB (incl list setup)        ...        0 min,  0.001 sec ( 26.972%)

         :::::::::::::::::::::::::::::::::::::::::::::::::::::
         ::                     SUMMARY                     ::
         :::::::::::::::::::::::::::::::::::::::::::::::::::::
         :: total energy             -14.056090801717 Eh    ::
         :: gradient norm              0.075531438159 Eh/a0 ::
         ::.................................................::
         :: bond energy              -14.787680490886 Eh    ::
         :: angle energy               0.018530755023 Eh    ::
         :: torsion energy             0.018786652752 Eh    ::
         :: repulsion energy           1.002919043564 Eh    ::
         :: electrostat energy        -0.228083828159 Eh    ::
         :: dispersion energy         -0.067987590990 Eh    ::
         :: HB energy                 -0.001413631113 Eh    ::
         :: XB energy                  0.000000000000 Eh    ::
         :: bonded atm energy         -0.011161711907 Eh    ::
         :: external energy            0.000000000000 Eh    ::
         :: add. restraining           0.000000000000 Eh    ::
         :: total charge              -0.000000000000 e     ::
         :::::::::::::::::::::::::::::::::::::::::::::::::::::

           -------------------------------------------------
          |                Property Printout                |
           -------------------------------------------------

           -------------------------------------------------
          | TOTAL ENERGY              -14.056090801717 Eh   |
          | GRADIENT NORM               0.075531438159 Eh/α |
           -------------------------------------------------

------------------------------------------------------------------------
 * finished run on 2025/01/21 at 11:32:26.262     
------------------------------------------------------------------------
 total:
 * wall-time:     0 d,  0 h,  0 min,  0.056 sec
 *  cpu-time:     0 d,  0 h,  0 min,  0.998 sec
 * ratio c/w:    17.717 speedup
 SCF:
 * wall-time:     0 d,  0 h,  0 min,  0.006 sec
 *  cpu-time:     0 d,  0 h,  0 min,  0.143 sec
 * ratio c/w:    23.312 speedup

 Calculating NCI flexibility... done.
     covalent flexibility measure :   0.221
 non-covalent flexibility measure :   1.000
 flexibility measure :   0.346
 t(MTD) / ps set by command line  :     0.5
 t(MTD) / ps    :     0.5
 Σ(t(MTD)) / ps :     7.0 (14 MTDs)
 
-------------------------------------
Starting a trial MTD to test settings
-------------------------------------
 Estimated runtime for one MTD (0.5 ps) on a single thread: 2 min 34 sec
 Estimated runtime for a batch of 14 MTDs on 28 threads: 1 min 17 sec
 
 list of Vbias parameters applied:
$metadyn    0.00300   1.300
$metadyn    0.00150   1.300
$metadyn    0.00075   1.300
$metadyn    0.00300   0.780
$metadyn    0.00150   0.780
$metadyn    0.00075   0.780
$metadyn    0.00300   0.468
$metadyn    0.00150   0.468
$metadyn    0.00075   0.468
$metadyn    0.00300   0.281
$metadyn    0.00150   0.281
$metadyn    0.00075   0.281
$metadyn    0.00100   0.100
$metadyn    0.00500   0.800
 
*******************************************************************************************
**                        N E W    I T E R A T I O N    C Y C L E                        **
*******************************************************************************************
 
========================================
            MTD Iteration  1
========================================
 
     ========================================
     |         Meta-MD (MTD) Sampling       |
     ========================================
 
Starting Meta-MD   9 with the settings:
     MD time /ps        :     0.5
     dt /fs             :     1.5
     dumpstep(trj) /fs  :     100
     dumpstep(Vbias)/ps :     1.0
     Vbias factor k /Eh :  0.0525
     Vbias exp α /bohr⁻²:    0.47
Starting Meta-MD   4 with the settings:
     MD time /ps        :     0.5
     dt /fs             :     1.5
     dumpstep(trj) /fs  :     100
     dumpstep(Vbias)/ps :     1.0
     Vbias factor k /Eh :  0.2100
     Vbias exp α /bohr⁻²:    0.78
Starting Meta-MD  10 with the settings:
     MD time /ps        :     0.5
     dt /fs             :     1.5
     dumpstep(trj) /fs  :     100
     dumpstep(Vbias)/ps :     1.0
     Vbias factor k /Eh :  0.2100
     Vbias exp α /bohr⁻²:    0.28
Starting Meta-MD   5 with the settings:
     MD time /ps        :     0.5
     dt /fs             :     1.5
     dumpstep(trj) /fs  :     100
     dumpstep(Vbias)/ps :     1.0
     Vbias factor k /Eh :  0.1050
     Vbias exp α /bohr⁻²:    0.78
Starting Meta-MD  11 with the settings:
     MD time /ps        :     0.5
     dt /fs             :     1.5
     dumpstep(trj) /fs  :     100
     dumpstep(Vbias)/ps :     1.0
     Vbias factor k /Eh :  0.1050
     Vbias exp α /bohr⁻²:    0.28
Starting Meta-MD   3 with the settings:
     MD time /ps        :     0.5
     dt /fs             :     1.5
     dumpstep(trj) /fs  :     100
     dumpstep(Vbias)/ps :     1.0
     Vbias factor k /Eh :  0.0525
     Vbias exp α /bohr⁻²:    1.30
Starting Meta-MD  12 with the settings:
     MD time /ps        :     0.5
     dt /fs             :     1.5
     dumpstep(trj) /fs  :     100
     dumpstep(Vbias)/ps :     1.0
     Vbias factor k /Eh :  0.0525
     Vbias exp α /bohr⁻²:    0.28
Starting Meta-MD   7 with the settings:
     MD time /ps        :     0.5
     dt /fs             :     1.5
     dumpstep(trj) /fs  :     100
     dumpstep(Vbias)/ps :     1.0
     Vbias factor k /Eh :  0.2100
     Vbias exp α /bohr⁻²:    0.47
Starting Meta-MD  13 with the settings:
     MD time /ps        :     0.5
     dt /fs             :     1.5
     dumpstep(trj) /fs  :     100
     dumpstep(Vbias)/ps :     1.0
     Vbias factor k /Eh :  0.0700
     Vbias exp α /bohr⁻²:    0.10
Starting Meta-MD  14 with the settings:
     MD time /ps        :     0.5
     dt /fs             :     1.5
     dumpstep(trj) /fs  :     100
     dumpstep(Vbias)/ps :     1.0
     Vbias factor k /Eh :  0.3500
     Vbias exp α /bohr⁻²:    0.80
Starting Meta-MD   1 with the settings:
     MD time /ps        :     0.5
     dt /fs             :     1.5
     dumpstep(trj) /fs  :     100
     dumpstep(Vbias)/ps :     1.0
     Vbias factor k /Eh :  0.2100
     Vbias exp α /bohr⁻²:    1.30
Starting Meta-MD   6 with the settings:
     MD time /ps        :     0.5
     dt /fs             :     1.5
     dumpstep(trj) /fs  :     100
     dumpstep(Vbias)/ps :     1.0
     Vbias factor k /Eh :  0.0525
     Vbias exp α /bohr⁻²:    0.78
Starting Meta-MD   8 with the settings:
     MD time /ps        :     0.5
     dt /fs             :     1.5
     dumpstep(trj) /fs  :     100
     dumpstep(Vbias)/ps :     1.0
     Vbias factor k /Eh :  0.1050
     Vbias exp α /bohr⁻²:    0.47
Starting Meta-MD   2 with the settings:
     MD time /ps        :     0.5
     dt /fs             :     1.5
     dumpstep(trj) /fs  :     100
     dumpstep(Vbias)/ps :     1.0
     Vbias factor k /Eh :  0.1050
     Vbias exp α /bohr⁻²:    1.30
*Meta-MTD 1 finished*
*Meta-MTD 13 finished*
*Meta-MTD 4 finished*
*Meta-MTD 12 finished*
*Meta-MTD 6 finished*
*Meta-MTD 11 finished*
*Meta-MTD 14 finished*
*Meta-MTD 10 finished*
*Meta-MTD 3 finished*
*Meta-MTD 9 finished*
*Meta-MTD 8 finished*
*Meta-MTD 5 finished*
*Meta-MTD 2 finished*
*Meta-MTD 7 finished*
 
-----------------------
Multilevel Optimization
-----------------------
 
 -------------------------
 1. crude pre-optimization
 -------------------------
 Optimizing all 70 structures from file "crest_rotamers_0.xyz" ...
 1 2 3 4 5 6 7 8 9 10 11 12 13 14 15 16 17 18 19 20 21 22 23 24 25 26 27 28 29 30 31 32 33 34 35 36 37 38 39 40 41 42 43 44 45 46 47 48 49 50 51 52 53 54 55 56 57 58 59 60 61 62 63 64 65 66 67 68 69 70
 done.
 running RMSDs...
 done.
 E lowest :  -108.67764
 66 structures remain within    12.00 kcal/mol window
 
 -------------------------------------
 2. optimization with tight thresholds
 -------------------------------------
 Optimizing all 67 structures from file "crest_rotamers_1.xyz" ...
 1 2 3 4 5 6 7 8 9 10 11 12 13 14 15 16 17 18 19 20 21 22 23 24 25 26 27 28 29 30 31 32 33 34 35 36 37 38 39 40 41 42 43 44 45 46 47 48 49 50 51 52 53 54 55 56 57 58 59 60 61 62 63 64 65 66 67
 done.
 running RMSDs...
 done.
 E lowest :  -108.67902
 44 structures remain within     6.00 kcal/mol window
 
 
========================================
            MTD Iteration  2
========================================
 
     ========================================
     |         Meta-MD (MTD) Sampling       |
     ========================================
 
Starting Meta-MD   1 with the settings:
     MD time /ps        :     0.5
     dt /fs             :     1.5
     dumpstep(trj) /fs  :     100
     dumpstep(Vbias)/ps :     1.0
     Vbias factor k /Eh :  0.2100
     Vbias exp α /bohr⁻²:    1.30
Starting Meta-MD   2 with the settings:
     MD time /ps        :     0.5
     dt /fs             :     1.5
     dumpstep(trj) /fs  :     100
     dumpstep(Vbias)/ps :     1.0
     Vbias factor k /Eh :  0.1050
     Vbias exp α /bohr⁻²:    1.30
Starting Meta-MD   3 with the settings:
     MD time /ps        :     0.5
     dt /fs             :     1.5
     dumpstep(trj) /fs  :     100
     dumpstep(Vbias)/ps :     1.0
     Vbias factor k /Eh :  0.0525
     Vbias exp α /bohr⁻²:    1.30
Starting Meta-MD   4 with the settings:
     MD time /ps        :     0.5
     dt /fs             :     1.5
     dumpstep(trj) /fs  :     100
     dumpstep(Vbias)/ps :     1.0
     Vbias factor k /Eh :  0.2100
     Vbias exp α /bohr⁻²:    0.78
Starting Meta-MD   5 with the settings:
     MD time /ps        :     0.5
     dt /fs             :     1.5
     dumpstep(trj) /fs  :     100
     dumpstep(Vbias)/ps :     1.0
     Vbias factor k /Eh :  0.1050
     Vbias exp α /bohr⁻²:    0.78
Starting Meta-MD   6 with the settings:
     MD time /ps        :     0.5
     dt /fs             :     1.5
     dumpstep(trj) /fs  :     100
     dumpstep(Vbias)/ps :     1.0
     Vbias factor k /Eh :  0.0525
     Vbias exp α /bohr⁻²:    0.78
Starting Meta-MD   7 with the settings:
     MD time /ps        :     0.5
     dt /fs             :     1.5
     dumpstep(trj) /fs  :     100
     dumpstep(Vbias)/ps :     1.0
     Vbias factor k /Eh :  0.2100
     Vbias exp α /bohr⁻²:    0.47
Starting Meta-MD   8 with the settings:
     MD time /ps        :     0.5
     dt /fs             :     1.5
     dumpstep(trj) /fs  :     100
     dumpstep(Vbias)/ps :     1.0
     Vbias factor k /Eh :  0.1050
     Vbias exp α /bohr⁻²:    0.47
Starting Meta-MD   9 with the settings:
     MD time /ps        :     0.5
     dt /fs             :     1.5
     dumpstep(trj) /fs  :     100
     dumpstep(Vbias)/ps :     1.0
     Vbias factor k /Eh :  0.0525
     Vbias exp α /bohr⁻²:    0.47
Starting Meta-MD  10 with the settings:
     MD time /ps        :     0.5
     dt /fs             :     1.5
     dumpstep(trj) /fs  :     100
     dumpstep(Vbias)/ps :     1.0
     Vbias factor k /Eh :  0.2100
     Vbias exp α /bohr⁻²:    0.28
Starting Meta-MD  11 with the settings:
     MD time /ps        :     0.5
     dt /fs             :     1.5
     dumpstep(trj) /fs  :     100
     dumpstep(Vbias)/ps :     1.0
     Vbias factor k /Eh :  0.1050
     Vbias exp α /bohr⁻²:    0.28
Starting Meta-MD  12 with the settings:
     MD time /ps        :     0.5
     dt /fs             :     1.5
     dumpstep(trj) /fs  :     100
     dumpstep(Vbias)/ps :     1.0
     Vbias factor k /Eh :  0.0525
     Vbias exp α /bohr⁻²:    0.28
*Meta-MTD 6 finished*
*Meta-MTD 9 finished*
*Meta-MTD 3 finished*
*Meta-MTD 8 finished*
*Meta-MTD 5 finished*
*Meta-MTD 7 finished*
*Meta-MTD 1 finished*
*Meta-MTD 2 finished*
*Meta-MTD 12 finished*
*Meta-MTD 11 finished*
*Meta-MTD 10 finished*
*Meta-MTD 4 finished*
 
-----------------------
Multilevel Optimization
-----------------------
 
 -------------------------
 1. crude pre-optimization
 -------------------------
 Optimizing all 60 structures from file "crest_rotamers_0.xyz" ...
 1 2 3 4 5 6 7 8 9 10 11 12 13 14 15 16 17 18 19 20 21 22 23 24 25 26 27 28 29 30 31 32 33 34 35 36 37 38 39 40 41 42 43 44 45 46 47 48 49 50 51 52 53 54 55 56 57 58 59 60
 done.
 running RMSDs...
 done.
 E lowest :  -108.67806
 57 structures remain within    12.00 kcal/mol window
 
 -------------------------------------
 2. optimization with tight thresholds
 -------------------------------------
 Optimizing all 58 structures from file "crest_rotamers_1.xyz" ...
 1 2 3 4 5 6 7 8 9 10 11 12 13 14 15 16 17 18 19 20 21 22 23 24 25 26 27 28 29 30 31 32 33 34 35 36 37 38 39 40 41 42 43 44 45 46 47 48 49 50 51 52 53 54 55 56 57 58
 done.
 running RMSDs...
 done.
 E lowest :  -108.67905
 36 structures remain within     6.00 kcal/mol window
 
========================================
            MTD Iterations done         
========================================
 Collecting ensmbles.
 running RMSDs...
 done.
 E lowest :  -108.67905
 78 structures remain within     6.00 kcal/mol window
 
 -------------------------------
 Additional orientation sampling
 -------------------------------
 Optimizing all 138 structures from file "oh_ensemble.xyz" ...
 1 2 3 4 5 6 7 8 9 10 11 12 13 14 15 16 17 18 19 20 21 22 23 24 25 26 27 28 29 30 31 32 33 34 35 36 37 38 39 40 41 42 43 44 45 46 47 48 49 50 51 52 53 54 55 56 57 58 59 60 61 62 63 64 65 66 67 68 69 70 71 72 73 74 75 76 77 78 79 80 81 82 83 84 85 86 87 88 89 90 91 92 93 94 95 96 97 98 99 100 101 102 103 104 105 106 107 108 109 110 111 112 113 114 115 116 117 118 119 120 121 122 123 124 125 126 127 128 129 130 131 132 133 134 135 136 137 138
 done.
 running RMSDs...
 done.
 E lowest :  -108.67905
 183 structures remain within     6.00 kcal/mol window
 
-----------------------------------------------
Additional regular MDs on lowest 4 conformer(s)
-----------------------------------------------
Starting MD   1 with the settings:
     MD time /ps        :     0.2
     MD Temperature /K  :   400.0
     dt /fs             :     1.5
     dumpstep(trj) /fs  :     100
Starting MD   2 with the settings:
     MD time /ps        :     0.2
     MD Temperature /K  :   500.0
     dt /fs             :     1.5
     dumpstep(trj) /fs  :     100
Starting MD   3 with the settings:
     MD time /ps        :     0.2
     MD Temperature /K  :   400.0
     dt /fs             :     1.5
     dumpstep(trj) /fs  :     100
Starting MD   4 with the settings:
     MD time /ps        :     0.2
     MD Temperature /K  :   500.0
     dt /fs             :     1.5
     dumpstep(trj) /fs  :     100
Starting MD   5 with the settings:
     MD time /ps        :     0.2
     MD Temperature /K  :   400.0
     dt /fs             :     1.5
     dumpstep(trj) /fs  :     100
Starting MD   6 with the settings:
     MD time /ps        :     0.2
     MD Temperature /K  :   500.0
     dt /fs             :     1.5
     dumpstep(trj) /fs  :     100
Starting MD   7 with the settings:
     MD time /ps        :     0.2
     MD Temperature /K  :   400.0
     dt /fs             :     1.5
     dumpstep(trj) /fs  :     100
Starting MD   8 with the settings:
     MD time /ps        :     0.2
     MD Temperature /K  :   500.0
     dt /fs             :     1.5
     dumpstep(trj) /fs  :     100
*MD 3 finished*
*MD 6 finished*
*MD 4 finished*
*MD 8 finished*
*MD 7 finished*
*MD 5 finished*
*MD 2 finished*
*MD 1 finished*
 Appending file crest_rotamers_2.xyz with new structures
 
 -------------------------------------------
 Ensemble optimization with tight thresholds
 -------------------------------------------
 Optimizing all 199 structures from file "crest_rotamers_2.xyz" ...
 1 2 3 4 5 6 7 8 9 10 11 12 13 14 15 16 17 18 19 20 21 22 23 24 25 26 27 28 29 30 31 32 33 34 35 36 37 38 39 40 41 42 43 44 45 46 47 48 49 50 51 52 53 54 55 56 57 58 59 60 61 62 63 64 65 66 67 68 69 70 71 72 73 74 75 76 77 78 79 80 81 82 83 84 85 86 87 88 89 90 91 92 93 94 95 96 97 98 99 100 101 102 103 104 105 106 107 108 109 110 111 112 113 114 115 116 117 118 119 120 121 122 123 124 125 126 127 128 129 130 131 132 133 134 135 136 137 138 139 140 141 142 143 144 145 146 147 148 149 150 151 152 153 154 155 156 157 158 159 160 161 162 163 164 165 166 167 168 169 170 171 172 173 174 175 176 177 178 179 180 181 182 183 184 185 186 187 188 189 190 191 192 193 194 195 196 197 198 199
 done.
 running RMSDs...
 done.
 E lowest :  -108.67910
 189 structures remain within     6.00 kcal/mol window
 
 ...............................................
 A new lower conformer was found!
 Improved by    0.00008 Eh or    0.05306kcal/mol
 ...............................................
 
*******************************************************************************************
**                        N E W    I T E R A T I O N    C Y C L E                        **
*******************************************************************************************
 
========================================
            MTD Iteration  1
========================================
 
     ========================================
     |         Meta-MD (MTD) Sampling       |
     ========================================
 
Starting Meta-MD   1 with the settings:
     MD time /ps        :     0.5
     dt /fs             :     1.5
     dumpstep(trj) /fs  :     100
     dumpstep(Vbias)/ps :     1.0
     Vbias factor k /Eh :  0.2100
     Vbias exp α /bohr⁻²:    1.30
Starting Meta-MD   2 with the settings:
     MD time /ps        :     0.5
     dt /fs             :     1.5
     dumpstep(trj) /fs  :     100
     dumpstep(Vbias)/ps :     1.0
     Vbias factor k /Eh :  0.1050
     Vbias exp α /bohr⁻²:    1.30
Starting Meta-MD   3 with the settings:
     MD time /ps        :     0.5
     dt /fs             :     1.5
     dumpstep(trj) /fs  :     100
     dumpstep(Vbias)/ps :     1.0
     Vbias factor k /Eh :  0.0525
     Vbias exp α /bohr⁻²:    1.30
Starting Meta-MD   4 with the settings:
     MD time /ps        :     0.5
     dt /fs             :     1.5
     dumpstep(trj) /fs  :     100
     dumpstep(Vbias)/ps :     1.0
     Vbias factor k /Eh :  0.2100
     Vbias exp α /bohr⁻²:    0.78
Starting Meta-MD   5 with the settings:
     MD time /ps        :     0.5
     dt /fs             :     1.5
     dumpstep(trj) /fs  :     100
     dumpstep(Vbias)/ps :     1.0
     Vbias factor k /Eh :  0.1050
     Vbias exp α /bohr⁻²:    0.78
Starting Meta-MD   6 with the settings:
     MD time /ps        :     0.5
     dt /fs             :     1.5
     dumpstep(trj) /fs  :     100
     dumpstep(Vbias)/ps :     1.0
     Vbias factor k /Eh :  0.0525
     Vbias exp α /bohr⁻²:    0.78
Starting Meta-MD   7 with the settings:
     MD time /ps        :     0.5
     dt /fs             :     1.5
     dumpstep(trj) /fs  :     100
     dumpstep(Vbias)/ps :     1.0
     Vbias factor k /Eh :  0.2100
     Vbias exp α /bohr⁻²:    0.47
Starting Meta-MD   8 with the settings:
     MD time /ps        :     0.5
     dt /fs             :     1.5
     dumpstep(trj) /fs  :     100
     dumpstep(Vbias)/ps :     1.0
     Vbias factor k /Eh :  0.1050
     Vbias exp α /bohr⁻²:    0.47
Starting Meta-MD   9 with the settings:
     MD time /ps        :     0.5
     dt /fs             :     1.5
     dumpstep(trj) /fs  :     100
     dumpstep(Vbias)/ps :     1.0
     Vbias factor k /Eh :  0.0525
     Vbias exp α /bohr⁻²:    0.47
Starting Meta-MD  10 with the settings:
     MD time /ps        :     0.5
     dt /fs             :     1.5
     dumpstep(trj) /fs  :     100
     dumpstep(Vbias)/ps :     1.0
     Vbias factor k /Eh :  0.2100
     Vbias exp α /bohr⁻²:    0.28
Starting Meta-MD  12 with the settings:
     MD time /ps        :     0.5
     dt /fs             :     1.5
     dumpstep(trj) /fs  :     100
     dumpstep(Vbias)/ps :     1.0
     Vbias factor k /Eh :  0.0525
     Vbias exp α /bohr⁻²:    0.28
Starting Meta-MD  11 with the settings:
     MD time /ps        :     0.5
     dt /fs             :     1.5
     dumpstep(trj) /fs  :     100
     dumpstep(Vbias)/ps :     1.0
     Vbias factor k /Eh :  0.1050
     Vbias exp α /bohr⁻²:    0.28
*Meta-MTD 5 finished*
*Meta-MTD 9 finished*
*Meta-MTD 1 finished*
*Meta-MTD 3 finished*
*Meta-MTD 6 finished*
*Meta-MTD 4 finished*
*Meta-MTD 7 finished*
*Meta-MTD 8 finished*
*Meta-MTD 2 finished*
*Meta-MTD 10 finished*
*Meta-MTD 11 finished*
*Meta-MTD 12 finished*
 
-----------------------
Multilevel Optimization
-----------------------
 
 -------------------------
 1. crude pre-optimization
 -------------------------
 Optimizing all 60 structures from file "crest_rotamers_0.xyz" ...
 1 2 3 4 5 6 7 8 9 10 11 12 13 14 15 16 17 18 19 20 21 22 23 24 25 26 27 28 29 30 31 32 33 34 35 36 37 38 39 40 41 42 43 44 45 46 47 48 49 50 51 52 53 54 55 56 57 58 59 60
 done.
 running RMSDs...
 done.
 E lowest :  -108.67820
 55 structures remain within    12.00 kcal/mol window
 
 -------------------------------------
 2. optimization with tight thresholds
 -------------------------------------
 Optimizing all 56 structures from file "crest_rotamers_1.xyz" ...
 1 2 3 4 5 6 7 8 9 10 11 12 13 14 15 16 17 18 19 20 21 22 23 24 25 26 27 28 29 30 31 32 33 34 35 36 37 38 39 40 41 42 43 44 45 46 47 48 49 50 51 52 53 54 55 56
 done.
 running RMSDs...
 done.
 E lowest :  -108.67914
 31 structures remain within     6.00 kcal/mol window
 
========================================
            MTD Iterations done         
========================================
 Collecting ensmbles.
 running RMSDs...
 done.
 E lowest :  -108.67914
 31 structures remain within     6.00 kcal/mol window
 
 -------------------------------
 Additional orientation sampling
 -------------------------------
 Optimizing all 56 structures from file "oh_ensemble.xyz" ...
 1 2 3 4 5 6 7 8 9 10 11 12 13 14 15 16 17 18 19 20 21 22 23 24 25 26 27 28 29 30 31 32 33 34 35 36 37 38 39 40 41 42 43 44 45 46 47 48 49 50 51 52 53 54 55 56
 done.
 running RMSDs...
 done.
 E lowest :  -108.67914
 77 structures remain within     6.00 kcal/mol window
 
-----------------------------------------------
Additional regular MDs on lowest 4 conformer(s)
-----------------------------------------------
Starting MD   2 with the settings:
     MD time /ps        :     0.2
     MD Temperature /K  :   500.0
     dt /fs             :     1.5
     dumpstep(trj) /fs  :     100
Starting MD   1 with the settings:
     MD time /ps        :     0.2
     MD Temperature /K  :   400.0
     dt /fs             :     1.5
     dumpstep(trj) /fs  :     100
Starting MD   3 with the settings:
     MD time /ps        :     0.2
     MD Temperature /K  :   400.0
     dt /fs             :     1.5
     dumpstep(trj) /fs  :     100
Starting MD   4 with the settings:
     MD time /ps        :     0.2
     MD Temperature /K  :   500.0
     dt /fs             :     1.5
     dumpstep(trj) /fs  :     100
Starting MD   5 with the settings:
     MD time /ps        :     0.2
     MD Temperature /K  :   400.0
     dt /fs             :     1.5
     dumpstep(trj) /fs  :     100
Starting MD   8 with the settings:
     MD time /ps        :     0.2
     MD Temperature /K  :   500.0
     dt /fs             :     1.5
     dumpstep(trj) /fs  :     100
Starting MD   6 with the settings:
     MD time /ps        :     0.2
     MD Temperature /K  :   500.0
     dt /fs             :     1.5
     dumpstep(trj) /fs  :     100
Starting MD   7 with the settings:
     MD time /ps        :     0.2
     MD Temperature /K  :   400.0
     dt /fs             :     1.5
     dumpstep(trj) /fs  :     100
*MD 1 finished*
*MD 2 finished*
*MD 5 finished*
*MD 4 finished*
*MD 7 finished*
*MD 3 finished*
*MD 6 finished*
*MD 8 finished*
 Appending file crest_rotamers_2.xyz with new structures
 
 -------------------------------------------
 Ensemble optimization with tight thresholds
 -------------------------------------------
 Optimizing all 93 structures from file "crest_rotamers_2.xyz" ...
 1 2 3 4 5 6 7 8 9 10 11 12 13 14 15 16 17 18 19 20 21 22 23 24 25 26 27 28 29 30 31 32 33 34 35 36 37 38 39 40 41 42 43 44 45 46 47 48 49 50 51 52 53 54 55 56 57 58 59 60 61 62 63 64 65 66 67 68 69 70 71 72 73 74 75 76 77 78 79 80 81 82 83 84 85 86 87 88 89 90 91 92 93
 done.
 running RMSDs...
 done.
 E lowest :  -108.67915
 77 structures remain within     6.00 kcal/mol window
 
 
     ========================================
     |        Structure Crossing (GC)       |
     ========================================
 =============================
  # threads =          28
 =============================
 input  file name : crest_rotamers_4.xyz
number of atoms                :    70
number of points on xyz files  :    77
conformer energy window  /kcal :    6.00
CN per atom difference cut-off :  0.3000
RMSD threshold                 :  0.5000
max. # of generated structures : 25
 reading xyz file ...
 # in E window                 77
 generating pairs ...        3002
 generated pairs           :        1905
 number of clash discarded :        1021
 average rmsd w.r.t input  : 2.50984
 sd of ensemble            : 0.87731
 number of new structures      :           9
 removed identical structures  :          41
 writing            9  TMPCONF* dirs ...
 --------------------------
 GC: loose pre-optimization
 --------------------------
 Starting optimization of generated structures
 9 jobs to do.
 1 2 3 4 5 6 7 8 9 
 done.
 Now appending opt.xyz file with new structures
 running RMSDs...
 done.
 E lowest :  -108.67905
 9 structures remain within    10.00 kcal/mol window
 --------------------------------------
 GC: optimization with tight thresholds
 --------------------------------------
 Optimizing all 9 structures from file "crest_rotamers_1.xyz" ...
 1 2 3 4 5 6 7 8 9
 done.
 running RMSDs...
 done.
 E lowest :  -108.67915
 
 
   ================================================
   |           Final Geometry Optimization        |
   ================================================
 ------------------------------------------------
 Ensemble optimization with very tight thresholds
 ------------------------------------------------
 Optimizing all 85 structures from file "crest_rotamers_5.xyz" ...
 1 2 3 4 5 6 7 8 9 10 11 12 13 14 15 16 17 18 19 20 21 22 23 24 25 26 27 28 29 30 31 32 33 34 35 36 37 38 39 40 41 42 43 44 45 46 47 48 49 50 51 52 53 54 55 56 57 58 59 60 61 62 63 64 65 66 67 68 69 70 71 72 73 74 75 76 77 78 79 80 81 82 83 84 85
 done.
 running RMSDs...
 done.
 E lowest :  -108.67915
 85 structures remain within     6.00 kcal/mol window
 
 input  file name : crest_rotamers_6.xyz
 output file name : crest_rotamers_7.xyz
 number of atoms                :   70
 number of points on xyz files  :   85
 RMSD threshold                 :   0.2500
 Bconst threshold               :   0.0100
 population threshold           :   0.0500
 conformer energy window  /kcal :   6.0000
 # fragment in coord            :     1
 # bonds in reference structure :    75
   => # of C=C bonds :    12
 number of reliable points      :    85
 reference state Etot :  -108.679153860000
 number of doubles removed by rot/RMSD         :           0
 total number unique points considered further :          85
       Erel/kcal        Etot weight/tot  conformer     set   degen     origin
       1   0.000  -108.67915    0.02949    0.02949       1       1     md1
       2   0.000  -108.67915    0.02946    0.02946       2       1     md2
       3   0.030  -108.67911    0.02805    0.05608       3       2     mtd2
       4   0.030  -108.67911    0.02803                                mtd12
       5   0.034  -108.67910    0.02786    0.02786       4       1     md8
       6   0.051  -108.67907    0.02703    0.02703       5       1     mtd1
       7   0.067  -108.67905    0.02634    0.02634       6       1     md3
       8   0.091  -108.67901    0.02529    0.02529       7       1     mtd10
       9   0.114  -108.67897    0.02434    0.02434       8       1     mtd5
      10   0.116  -108.67897    0.02423    0.02423       9       1     mtd1
      11   0.135  -108.67894    0.02347    0.02347      10       1     mtd12
      12   0.140  -108.67893    0.02327    0.02327      11       1     mtd2
      13   0.174  -108.67888    0.02201    0.02201      12       1     mtd1
      14   0.210  -108.67882    0.02069    0.02069      13       1     mtd3
      15   0.231  -108.67879    0.01998    0.01998      14       1     mtd9
      16   0.237  -108.67878    0.01976    0.01976      15       1     mtd11
      17   0.253  -108.67875    0.01923    0.03845      16       2     gc
      18   0.254  -108.67875    0.01921                                gc
      19   0.265  -108.67873    0.01885    0.01885      17       1     mtd1
      20   0.268  -108.67873    0.01878    0.01878      18       1     mtd6
      21   0.271  -108.67872    0.01865    0.01865      19       1     mtd4
      22   0.294  -108.67869    0.01796    0.01796      20       1     mtd9
      23   0.294  -108.67868    0.01795    0.01795      21       1     mtd7
      24   0.296  -108.67868    0.01791    0.01791      22       1     mtd11
      25   0.377  -108.67855    0.01561    0.01561      23       1     mtd11
      26   0.396  -108.67852    0.01512    0.03015      24       2     gc
      27   0.400  -108.67852    0.01503                                gc
      28   0.444  -108.67845    0.01395    0.01395      25       1     mtd7
      29   0.470  -108.67841    0.01336    0.01336      26       1     mtd7
      30   0.482  -108.67839    0.01307    0.01307      27       1     mtd10
      31   0.501  -108.67836    0.01267    0.01267      28       1     mtd10
      32   0.502  -108.67835    0.01265    0.02527      29       2     mtd4
      33   0.503  -108.67835    0.01262                                mtd4
      34   0.530  -108.67831    0.01206    0.01206      30       1     mtd7
      35   0.614  -108.67818    0.01047    0.01047      31       1     mtd10
      36   0.700  -108.67804    0.00905    0.00905      32       1     hor
      37   0.787  -108.67790    0.00782    0.00782      33       1     hor
      38   0.789  -108.67790    0.00779    0.01543      34       2     hor
      39   0.801  -108.67788    0.00764                                hor
      40   0.808  -108.67787    0.00755    0.00755      35       1     hor
      41   0.816  -108.67785    0.00744    0.00744      36       1     hor
      42   0.820  -108.67785    0.00740    0.00740      37       1     hor
      43   0.826  -108.67784    0.00732    0.00732      38       1     hor
      44   0.799  -108.67788    0.00766    0.00766      39       1     hor
      45   0.828  -108.67783    0.00730    0.00730      40       1     hor
      46   0.832  -108.67783    0.00725    0.01448      41       2     hor
      47   0.834  -108.67783    0.00723                                hor
      48   0.836  -108.67782    0.00720    0.00720      42       1     gc
      49   0.847  -108.67780    0.00706    0.01401      43       2     hor
      50   0.857  -108.67779    0.00695                                hor
      51   0.862  -108.67778    0.00689    0.00689      44       1     hor
      52   0.863  -108.67778    0.00688    0.00688      45       1     hor
      53   0.866  -108.67777    0.00685    0.01361      46       2     hor
      54   0.874  -108.67776    0.00676                                hor
      55   0.850  -108.67780    0.00703    0.00703      47       1     hor
      56   0.888  -108.67774    0.00659    0.00659      48       1     hor
      57   0.911  -108.67770    0.00634    0.00634      49       1     hor
      58   0.863  -108.67778    0.00688    0.00688      50       1     hor
      59   0.913  -108.67770    0.00632    0.00632      51       1     hor
      60   0.914  -108.67770    0.00632    0.00632      52       1     hor
      61   0.915  -108.67770    0.00630    0.00630      53       1     hor
      62   0.922  -108.67768    0.00622    0.00622      54       1     hor
      63   0.939  -108.67766    0.00605    0.00605      55       1     gc
      64   0.941  -108.67765    0.00603    0.00603      56       1     hor
      65   0.948  -108.67764    0.00596    0.00596      57       1     hor
      66   0.952  -108.67764    0.00592    0.00592      58       1     hor
      67   0.955  -108.67763    0.00589    0.00589      59       1     hor
      68   0.963  -108.67762    0.00581    0.01155      60       2     hor
      69   0.971  -108.67761    0.00574                                hor
      70   0.977  -108.67760    0.00568    0.00568      61       1     hor
      71   1.002  -108.67756    0.00545    0.00545      62       1     hor
      72   1.011  -108.67754    0.00536    0.00536      63       1     hor
      73   1.063  -108.67746    0.00491    0.00491      64       1     hor
      74   1.064  -108.67746    0.00490    0.00490      65       1     hor
      75   1.066  -108.67746    0.00489    0.00968      66       2     hor
      76   1.078  -108.67744    0.00479                                hor
      77   1.067  -108.67745    0.00488    0.00488      67       1     hor
      78   1.093  -108.67741    0.00467    0.00467      68       1     hor
      79   1.126  -108.67736    0.00441    0.00441      69       1     hor
      80   1.152  -108.67732    0.00422    0.00422      70       1     hor
      81   1.186  -108.67726    0.00399    0.00399      71       1     hor
      82   1.230  -108.67719    0.00370    0.00370      72       1     hor
      83   1.232  -108.67719    0.00369    0.00369      73       1     gc
      84   1.261  -108.67715    0.00352    0.00352      74       1     hor
      85   1.348  -108.67701    0.00304    0.00304      75       1     gc
T /K                                  :   298.15
E lowest                              :  -108.67915
ensemble average energy (kcal)        :    0.428
ensemble entropy (J/mol K, cal/mol K) :   35.293    8.435
ensemble free energy (kcal/mol)       :   -2.515
population of lowest in %             :    2.949
 number of unique conformers for further calc           75
 list of relative energies saved as "crest.energies"
 
 -----------------
 Wall Time Summary
 -----------------
             test MD wall time :         0h : 0m :38s
                 MTD wall time :         0h : 1m :44s
      multilevel OPT wall time :         0h : 2m :27s
                  MD wall time :         0h : 0m :58s
                  GC wall time :         0h : 0m : 6s
--------------------
Overall wall time  : 0h : 6m : 3s
 
 CREST terminated normally.
