 
       ==============================================
       |                                            |
       |                 C R E S T                  |
       |                                            |
       |  Conformer-Rotamer Ensemble Sampling Tool  |
       |          based on the GFN methods          |
       |             P.Pracht, S.Grimme             |
       |          Universitaet Bonn, MCTC           |
       ==============================================
       Version 2.11.2, Fr 17. Dec 12:10:44 CEST 2021
  Using the xTB program. Compatible with xTB version 6.4.0
 
   Cite work conducted with this code as

   P. Pracht, F. Bohle, S. Grimme, PCCP, 2020, 22, 7169-7192.

   and  S. Grimme, JCTC, 2019, 15, 2847-2862.
 
   with help from:
   C.Bannwarth, F.Bohle, S.Ehlert, S.Grimme,
   C. Plett, P.Pracht, S. Spicher
 
   This program is distributed in the hope that it will be useful,
   but WITHOUT ANY WARRANTY; without even the implied warranty of
   MERCHANTABILITY or FITNESS FOR A PARTICULAR PURPOSE.

 Command line input:
 > crest 00177_r_0.xyz -T 28 -gfn2 -chrg 0 -uhf 0 -rthr 0.25 -shake 1 --mdlen 0.5

  -T 28 (CPUs/Threads selected)
  -gfn2 : Use of GFN2-xTB requested.
  -chrg 0
  -uhf 0
  -rthr 0.25
  --mdlen 0.5 (MD length in ps)
 
 -------------------------
 xTB Geometry Optimization
 -------------------------
 Geometry successfully optimized.
 
------------------------------------------------
Generating MTD length from a flexibility measure
------------------------------------------------
      -----------------------------------------------------------      
     |                   =====================                   |     
     |                           x T B                           |     
     |                   =====================                   |     
     |                         S. Grimme                         |     
     |          Mulliken Center for Theoretical Chemistry        |     
     |                    University of Bonn                     |     
      -----------------------------------------------------------      

   * xtb version 6.4.1 (afa7bdf) compiled by 'ehlert@majestix' on 2021-06-10

   xtb is free software: you can redistribute it and/or modify it under
   the terms of the GNU Lesser General Public License as published by
   the Free Software Foundation, either version 3 of the License, or
   (at your option) any later version.
   
   xtb is distributed in the hope that it will be useful,
   but WITHOUT ANY WARRANTY; without even the implied warranty of
   MERCHANTABILITY or FITNESS FOR A PARTICULAR PURPOSE.  See the
   GNU Lesser General Public License for more details.
   
   Cite this work as:
   * C. Bannwarth, E. Caldeweyher, S. Ehlert, A. Hansen, P. Pracht,
     J. Seibert, S. Spicher, S. Grimme, WIREs Comput. Mol. Sci., 2020, 11,
     e01493. DOI: 10.1002/wcms.1493
   
   for GFN2-xTB:
   * C. Bannwarth, S. Ehlert and S. Grimme., J. Chem. Theory Comput., 2019,
     15, 1652-1671. DOI: 10.1021/acs.jctc.8b01176
   for GFN1-xTB:
   * S. Grimme, C. Bannwarth, P. Shushkov, J. Chem. Theory Comput., 2017,
     13, 1989-2009. DOI: 10.1021/acs.jctc.7b00118
   for GFN0-xTB:
   * P. Pracht, E. Caldeweyher, S. Ehlert, S. Grimme, ChemRxiv, 2019, preprint.
     DOI: 10.26434/chemrxiv.8326202.v1
   for GFN-FF:
   * S. Spicher and S. Grimme, Angew. Chem. Int. Ed., 2020, 59, 15665-15673.
     DOI: 10.1002/anie.202004239
   
   for DFT-D4:
   * E. Caldeweyher, C. Bannwarth and S. Grimme, J. Chem. Phys., 2017,
     147, 034112. DOI: 10.1063/1.4993215
   * E. Caldeweyher, S. Ehlert, A. Hansen, H. Neugebauer, S. Spicher,
     C. Bannwarth and S. Grimme, J. Chem. Phys., 2019, 150, 154122.
     DOI: 10.1063/1.5090222
   * E. Caldeweyher, J.-M. Mewes, S. Ehlert and S. Grimme, Phys. Chem. Chem. Phys.
     2020, 22, 8499-8512. DOI: 10.1039/D0CP00502A
   
   for sTDA-xTB:
   * S. Grimme and C. Bannwarth, J. Chem. Phys., 2016, 145, 054103.
     DOI: 10.1063/1.4959605
   
   in the mass-spec context:
   * V. Asgeirsson, C. Bauer and S. Grimme, Chem. Sci., 2017, 8, 4879.
     DOI: 10.1039/c7sc00601b
   * J. Koopman and S. Grimme, ACS Omega 2019, 4, 12, 15120-15133.
     DOI: 10.1021/acsomega.9b02011
   
   for metadynamics refer to:
   * S. Grimme, J. Chem. Theory Comput., 2019, 155, 2847-2862
     DOI: 10.1021/acs.jctc.9b00143
   
   for SPH calculations refer to:
   * S. Spicher and S. Grimme, J. Chem. Theory Comput., 2021, 17, 1701-1714
     DOI: 10.1021/acs.jctc.0c01306
   
   with help from (in alphabetical order)
   P. Atkinson, C. Bannwarth, F. Bohle, G. Brandenburg, E. Caldeweyher
   M. Checinski, S. Dohm, S. Ehlert, S. Ehrlich, I. Gerasimov, J. Koopman
   C. Lavigne, S. Lehtola, F. März, M. Müller, F. Musil, H. Neugebauer
   J. Pisarek, C. Plett, P. Pracht, J. Seibert, P. Shushkov, S. Spicher
   M. Stahn, M. Steiner, T. Strunk, J. Stückrath, T. Rose, and J. Unsleber
   
 * started run on 2024/12/09 at 16:34:34.374     

           -------------------------------------------------
          |                Calculation Setup                |
           -------------------------------------------------

          program call               : xtb tmpcoord --gfn0 --sp
          hostname                   : node22
          coordinate file            : tmpcoord
          omp threads                :                    28
          number of atoms            :                    78
          number of electrons        :                   190
          charge                     :                     0
          spin                       :                   0.0
          first test random number   :      0.94229182884786

   ID    Z sym.   atoms
    1    6 c      1, 2, 4-18, 20, 22-35
    2   14 si     3, 21
    3    8 o      19, 36
    4    1 h      37-78
########################################################################
[WARNING] Please study the warnings concerning your input carefully
-1- prog_main_parseArguments: The use of '--gfn0' is discouraged, please use '--gfn 0' next time
########################################################################

           -------------------------------------------------
          |                 G F N 0 - x T B                 |
           -------------------------------------------------

        Reference                      10.26434/chemrxiv.8326202.v1
      * Hamiltonian:
        H0-scaling (s, p, d)           2.000000    2.486800    2.270000
        zeta-weighting                 1.000000
      * Dispersion:
        s8                             2.850000
        a1                             0.800000
        a2                             4.600000
        s9                             0.000000
      * Repulsion:
        kExp                           1.500000
        rExp                           1.000000
      * Coulomb:
        alpha                          0.000000
        third order                    atomic
        anisotropic                    false
      * Polar bond correction:
        rad-shift                      0.053700
        strength                      -0.012900
        en-exp                         3.484700
        en-scale                       0.509700


          ...................................................
          :                      SETUP                      :
          :.................................................:
          :  # basis functions                 240          :
          :  # atomic orbitals                 238          :
          :  # shells                          158          :
          :  # electrons                       190          :
          :  electronic temp.          300.0000000     K    :
          :  accuracy                    1.0000000          :
          :  -> integral cutoff          0.2500000E+02      :
          :  -> integral neglect         0.1000000E-07      :
          ...................................................
  Checking positiv definite overlap ...  done.
 

         #    Occupation            Energy/Eh            Energy/eV
      -------------------------------------------------------------
         1        2.0000           -0.6934906             -18.8708
       ...           ...                  ...                  ...
        89        2.0000           -0.4276753             -11.6376
        90        2.0000           -0.4252541             -11.5718
        91        2.0000           -0.4205343             -11.4433
        92        2.0000           -0.4191641             -11.4060
        93        2.0000           -0.4175271             -11.3615
        94        2.0000           -0.3929764             -10.6934
        95        2.0000           -0.3923334             -10.6759 (HOMO)
        96                         -0.3024048              -8.2289 (LUMO)
        97                         -0.3020895              -8.2203
        98                         -0.2686242              -7.3096
        99                         -0.2678942              -7.2898
       100                         -0.2355456              -6.4095
       ...                                ...                  ...
       238                          0.7047015              19.1759
      -------------------------------------------------------------
                  HL-Gap            0.0899287 Eh            2.4471 eV
             Fermi-level            0.0000000 Eh            0.0000 eV

 EHT (total)                   0 d,  0 h,  0 min,  0.041 sec
 EHT setup                      ...        0 min,  0.001 sec (  3.063%)
 Coordination number            ...        0 min,  0.001 sec (  2.983%)
 EEQ model density              ...        0 min,  0.001 sec (  2.261%)
 D4 Dispersion                  ...        0 min,  0.003 sec (  7.321%)
 Integral evaluation            ...        0 min,  0.002 sec (  3.901%)
 Cholesky factorization         ...        0 min,  0.008 sec ( 18.826%)
 Zeroth order Hamiltonian       ...        0 min,  0.021 sec ( 50.596%)
 Gradient calculation           ...        0 min,  0.004 sec (  9.138%)

         :::::::::::::::::::::::::::::::::::::::::::::::::::::
         ::                     SUMMARY                     ::
         :::::::::::::::::::::::::::::::::::::::::::::::::::::
         :: total energy            -100.875471542550 Eh    ::
         :: gradient norm              0.057591137126 Eh/a0 ::
         :: HOMO-LUMO gap              2.447083614331 eV    ::
         ::.................................................::
         :: H0 energy               -102.254439728841 Eh    ::
         :: repulsion energy           1.697758689772 Eh    ::
         :: electrostat energy        -0.240054897583 Eh    ::
         :: -> Gsolv                   0.000000000000 Eh    ::
         ::    -> Gsasa                0.000000000000 Eh    ::
         ::    -> Gshift               0.000000000000 Eh    ::
         :: dispersion energy         -0.053574850965 Eh    ::
         :: short-range corr.         -0.025160754933 Eh    ::
         :: add. restraining           0.000000000000 Eh    ::
         :: total charge              -0.000000000000 e     ::
         :::::::::::::::::::::::::::::::::::::::::::::::::::::

           -------------------------------------------------
          |                Property Printout                |
           -------------------------------------------------

    * Orbital Energies and Occupations

         #    Occupation            Energy/Eh            Energy/eV
      -------------------------------------------------------------
         1        2.0000           -0.6934906             -18.8708
       ...           ...                  ...                  ...
        83        2.0000           -0.4518802             -12.2963
        84        2.0000           -0.4465666             -12.1517
        85        2.0000           -0.4457224             -12.1287
        86        2.0000           -0.4305213             -11.7151
        87        2.0000           -0.4304541             -11.7133
        88        2.0000           -0.4280989             -11.6492
        89        2.0000           -0.4276753             -11.6376
        90        2.0000           -0.4252541             -11.5718
        91        2.0000           -0.4205343             -11.4433
        92        2.0000           -0.4191641             -11.4060
        93        2.0000           -0.4175271             -11.3615
        94        2.0000           -0.3929764             -10.6934
        95        2.0000           -0.3923334             -10.6759 (HOMO)
        96                         -0.3024048              -8.2289 (LUMO)
        97                         -0.3020895              -8.2203
        98                         -0.2686242              -7.3096
        99                         -0.2678942              -7.2898
       100                         -0.2355456              -6.4095
       101                         -0.2353372              -6.4039
       102                         -0.2076195              -5.6496
       103                         -0.2067207              -5.6252
       104                         -0.2035117              -5.5378
       105                         -0.2023195              -5.5054
       106                         -0.2003999              -5.4532
       ...                                ...                  ...
       238                          0.7047015              19.1759
      -------------------------------------------------------------
                  HL-Gap            0.0899287 Eh            2.4471 eV
             Fermi-level            0.0000000 Eh            0.0000 eV

     #   Z          covCN         q      C6AA      α(0)
     1   6 c        3.763    -0.303    29.975     7.898
     2   6 c        3.696    -0.380    32.287     8.222
     3  14 si       3.553     0.581   136.095    21.682
     4   6 c        3.696    -0.349    31.387     8.106
     5   6 c        3.762    -0.304    30.013     7.903
     6   6 c        3.695    -0.363    31.795     8.159
     7   6 c        3.759    -0.300    29.918     7.892
     8   6 c        2.855    -0.212    35.451     9.728
     9   6 c        2.934    -0.149    33.532     9.467
    10   6 c        2.983     0.059    28.104     8.669
    11   6 c        2.919    -0.139    33.260     9.428
    12   6 c        2.915    -0.090    31.893     9.232
    13   6 c        2.917    -0.095    32.014     9.249
    14   6 c        2.917    -0.125    32.851     9.369
    15   6 c        2.989     0.036    28.642     8.752
    16   6 c        2.972    -0.100    32.140     9.270
    17   6 c        2.972    -0.101    32.154     9.272
    18   6 c        2.872     0.278    23.542     7.929
    19   8 o        1.660    -0.625    25.572     6.841
    20   6 c        2.856    -0.217    35.620     9.751
    21  14 si       3.553     0.584   136.012    21.675
    22   6 c        3.696    -0.370    31.996     8.185
    23   6 c        3.760    -0.309    30.148     7.922
    24   6 c        3.695    -0.373    32.082     8.196
    25   6 c        3.760    -0.300    29.915     7.891
    26   6 c        3.696    -0.347    31.341     8.100
    27   6 c        3.762    -0.307    30.086     7.913
    28   6 c        2.933    -0.147    33.467     9.458
    29   6 c        2.983     0.059    28.109     8.670
    30   6 c        2.919    -0.139    33.263     9.428
    31   6 c        2.915    -0.090    31.890     9.231
    32   6 c        2.917    -0.096    32.036     9.252
    33   6 c        2.917    -0.125    32.853     9.369
    34   6 c        2.990     0.036    28.634     8.751
    35   6 c        2.868     0.276    23.575     7.934
    36   8 o        1.660    -0.623    25.514     6.833
    37   1 h        0.925     0.106     1.735     2.060
    38   1 h        0.925     0.102     1.765     2.078
    39   1 h        0.925     0.109     1.709     2.044
    40   1 h        0.924     0.121     1.607     1.982
    41   1 h        0.924     0.127     1.558     1.952
    42   1 h        0.924     0.109     1.702     2.040
    43   1 h        0.925     0.161     1.319     1.796
    44   1 h        0.925     0.137     1.486     1.906
    45   1 h        0.925     0.111     1.687     2.031
    46   1 h        0.925     0.107     1.723     2.053
    47   1 h        0.924     0.120     1.612     1.985
    48   1 h        0.924     0.116     1.650     2.009
    49   1 h        0.925     0.106     1.735     2.060
    50   1 h        0.925     0.147     1.414     1.859
    51   1 h        0.925     0.133     1.510     1.922
    52   1 h        0.926     0.093     1.855     2.130
    53   1 h        0.926     0.092     1.863     2.135
    54   1 h        0.926     0.085     1.925     2.170
    55   1 h        0.926     0.088     1.902     2.157
    56   1 h        0.926     0.115     1.657     2.013
    57   1 h        0.805     0.313     0.683     1.298
    58   1 h        0.925     0.162     1.316     1.794
    59   1 h        0.924     0.128     1.547     1.945
    60   1 h        0.925     0.111     1.685     2.030
    61   1 h        0.925     0.108     1.713     2.047
    62   1 h        0.925     0.106     1.730     2.057
    63   1 h        0.924     0.122     1.600     1.978
    64   1 h        0.924     0.123     1.589     1.971
    65   1 h        0.925     0.107     1.723     2.052
    66   1 h        0.925     0.107     1.724     2.053
    67   1 h        0.925     0.103     1.760     2.074
    68   1 h        0.925     0.157     1.344     1.813
    69   1 h        0.924     0.112     1.680     2.027
    70   1 h        0.925     0.108     1.711     2.046
    71   1 h        0.925     0.109     1.705     2.042
    72   1 h        0.925     0.132     1.516     1.926
    73   1 h        0.926     0.092     1.863     2.134
    74   1 h        0.926     0.092     1.864     2.135
    75   1 h        0.926     0.085     1.928     2.171
    76   1 h        0.926     0.087     1.913     2.163
    77   1 h        0.926     0.112     1.680     2.027
    78   1 h        0.805     0.311     0.688     1.303

 Mol. C6AA /au·bohr⁶  :      69817.727531
 Mol. C8AA /au·bohr⁸  :    1908670.252925
 Mol. α(0) /au        :        419.092964


Wiberg/Mayer (AO) data.
largest (>0.10) Wiberg bond orders for each atom

 ---------------------------------------------------------------------------
     #   Z sym  total        # sym  WBO       # sym  WBO       # sym  WBO
 ---------------------------------------------------------------------------
     1   6 c    3.979 --     2 c    1.022    39 h    0.980    38 h    0.979
                            37 h    0.979
     2   6 c    3.914 --     1 c    1.022    41 h    0.959    40 h    0.959
                             3 si   0.922
     3  14 si   4.029 --     4 c    0.925     6 c    0.922     2 c    0.922
                             8 c    0.894
     4   6 c    3.921 --     5 c    1.022    43 h    0.958    42 h    0.957
                             3 si   0.925
     5   6 c    3.979 --     4 c    1.022    45 h    0.981    46 h    0.979
                            44 h    0.978
     6   6 c    3.917 --     7 c    1.022    48 h    0.958    47 h    0.958
                             3 si   0.922
     7   6 c    3.980 --     6 c    1.022    49 h    0.981    51 h    0.979
                            50 h    0.978
     8   6 c    3.904 --     9 c    1.534    35 c    1.232     3 si   0.894
     9   6 c    3.985 --     8 c    1.534    10 c    1.266    52 h    0.962
    10   6 c    3.978 --    11 c    1.280     9 c    1.266    15 c    1.241
    11   6 c    3.980 --    12 c    1.552    10 c    1.280    53 h    0.969
                            14 c    0.116
    12   6 c    3.975 --    11 c    1.552    13 c    1.318    54 h    0.973
    13   6 c    3.984 --    14 c    1.558    12 c    1.318    55 h    0.972
    14   6 c    3.987 --    13 c    1.558    15 c    1.271    56 h    0.966
                            11 c    0.116
    15   6 c    3.977 --    14 c    1.271    16 c    1.255    10 c    1.241
    16   6 c    3.964 --    35 c    1.403    15 c    1.255    17 c    0.992
    17   6 c    3.964 --    18 c    1.404    34 c    1.253    16 c    0.992
    18   6 c    3.941 --    17 c    1.404    20 c    1.231    19 o    1.133
    19   8 o    2.341 --    18 c    1.133    57 h    0.968
    20   6 c    3.901 --    28 c    1.537    18 c    1.231    21 si   0.892
    21  14 si   4.031 --    22 c    0.925    24 c    0.924    26 c    0.923
                            20 c    0.892
    22   6 c    3.918 --    23 c    1.022    58 h    0.957    59 h    0.957
                            21 si   0.925
    23   6 c    3.979 --    22 c    1.022    60 h    0.980    62 h    0.980
                            61 h    0.979
    24   6 c    3.917 --    25 c    1.022    63 h    0.959    64 h    0.958
                            21 si   0.924
    25   6 c    3.980 --    24 c    1.022    66 h    0.980    65 h    0.979
                            67 h    0.978
    26   6 c    3.920 --    27 c    1.022    69 h    0.958    68 h    0.958
                            21 si   0.923
    27   6 c    3.979 --    26 c    1.022    71 h    0.981    70 h    0.979
                            72 h    0.978
    28   6 c    3.984 --    20 c    1.537    29 c    1.264    73 h    0.962
    29   6 c    3.978 --    30 c    1.281    28 c    1.264    34 c    1.242
    30   6 c    3.980 --    31 c    1.551    29 c    1.281    74 h    0.969
                            33 c    0.116
    31   6 c    3.975 --    30 c    1.551    32 c    1.319    75 h    0.973
    32   6 c    3.984 --    33 c    1.557    31 c    1.319    76 h    0.972
    33   6 c    3.987 --    32 c    1.557    34 c    1.272    77 h    0.966
                            30 c    0.116
    34   6 c    3.977 --    33 c    1.272    17 c    1.253    29 c    1.242
    35   6 c    3.940 --    16 c    1.403     8 c    1.232    36 o    1.133
    36   8 o    2.346 --    35 c    1.133    78 h    0.967
    37   1 h    0.981 --     1 c    0.979
    38   1 h    0.982 --     1 c    0.979
    39   1 h    0.985 --     1 c    0.980
    40   1 h    0.984 --     2 c    0.959
    41   1 h    0.985 --     2 c    0.959
    42   1 h    0.985 --     4 c    0.957
    43   1 h    1.000 --     4 c    0.958
    44   1 h    0.983 --     5 c    0.978
    45   1 h    0.985 --     5 c    0.981
    46   1 h    0.982 --     5 c    0.979
    47   1 h    0.985 --     6 c    0.958
    48   1 h    0.987 --     6 c    0.958
    49   1 h    0.985 --     7 c    0.981
    50   1 h    0.996 --     7 c    0.978
    51   1 h    0.983 --     7 c    0.979
    52   1 h    0.974 --     9 c    0.962
    53   1 h    0.978 --    11 c    0.969
    54   1 h    0.983 --    12 c    0.973
    55   1 h    0.983 --    13 c    0.972
    56   1 h    0.981 --    14 c    0.966
    57   1 h    0.988 --    19 o    0.968
    58   1 h    0.995 --    22 c    0.957
    59   1 h    0.986 --    22 c    0.957
    60   1 h    0.985 --    23 c    0.980
    61   1 h    0.981 --    23 c    0.979
    62   1 h    0.983 --    23 c    0.980
    63   1 h    0.986 --    24 c    0.959
    64   1 h    0.984 --    24 c    0.958
    65   1 h    0.980 --    25 c    0.979
    66   1 h    0.985 --    25 c    0.980
    67   1 h    0.981 --    25 c    0.978
    68   1 h    0.998 --    26 c    0.958
    69   1 h    0.985 --    26 c    0.958
    70   1 h    0.982 --    27 c    0.979
    71   1 h    0.985 --    27 c    0.981
    72   1 h    0.982 --    27 c    0.978
    73   1 h    0.974 --    28 c    0.962
    74   1 h    0.978 --    30 c    0.969
    75   1 h    0.983 --    31 c    0.973
    76   1 h    0.983 --    32 c    0.972
    77   1 h    0.981 --    33 c    0.966
    78   1 h    0.988 --    36 o    0.967
 ---------------------------------------------------------------------------

Topologies differ in total number of bonds
Writing topology from bond orders to xtbtopo.mol

 dipole moment from electron density (au)
     X       Y       Z   
   0.0905   0.3546   0.4645  total (Debye):    1.503


           -------------------------------------------------
          | TOTAL ENERGY             -100.875471542550 Eh   |
          | GRADIENT NORM               0.057591137126 Eh/α |
          | HOMO-LUMO GAP               2.447083614331 eV   |
           -------------------------------------------------

------------------------------------------------------------------------
 * finished run on 2024/12/09 at 16:34:34.581     
------------------------------------------------------------------------
 total:
 * wall-time:     0 d,  0 h,  0 min,  0.207 sec
 *  cpu-time:     0 d,  0 h,  0 min,  5.108 sec
 * ratio c/w:    24.656 speedup
 SCF:
 * wall-time:     0 d,  0 h,  0 min,  0.041 sec
 *  cpu-time:     0 d,  0 h,  0 min,  1.052 sec
 * ratio c/w:    25.394 speedup

 Calculating WBOs... done.
      -----------------------------------------------------------      
     |                   =====================                   |     
     |                           x T B                           |     
     |                   =====================                   |     
     |                         S. Grimme                         |     
     |          Mulliken Center for Theoretical Chemistry        |     
     |                    University of Bonn                     |     
      -----------------------------------------------------------      

   * xtb version 6.4.1 (afa7bdf) compiled by 'ehlert@majestix' on 2021-06-10

   xtb is free software: you can redistribute it and/or modify it under
   the terms of the GNU Lesser General Public License as published by
   the Free Software Foundation, either version 3 of the License, or
   (at your option) any later version.
   
   xtb is distributed in the hope that it will be useful,
   but WITHOUT ANY WARRANTY; without even the implied warranty of
   MERCHANTABILITY or FITNESS FOR A PARTICULAR PURPOSE.  See the
   GNU Lesser General Public License for more details.
   
   Cite this work as:
   * C. Bannwarth, E. Caldeweyher, S. Ehlert, A. Hansen, P. Pracht,
     J. Seibert, S. Spicher, S. Grimme, WIREs Comput. Mol. Sci., 2020, 11,
     e01493. DOI: 10.1002/wcms.1493
   
   for GFN2-xTB:
   * C. Bannwarth, S. Ehlert and S. Grimme., J. Chem. Theory Comput., 2019,
     15, 1652-1671. DOI: 10.1021/acs.jctc.8b01176
   for GFN1-xTB:
   * S. Grimme, C. Bannwarth, P. Shushkov, J. Chem. Theory Comput., 2017,
     13, 1989-2009. DOI: 10.1021/acs.jctc.7b00118
   for GFN0-xTB:
   * P. Pracht, E. Caldeweyher, S. Ehlert, S. Grimme, ChemRxiv, 2019, preprint.
     DOI: 10.26434/chemrxiv.8326202.v1
   for GFN-FF:
   * S. Spicher and S. Grimme, Angew. Chem. Int. Ed., 2020, 59, 15665-15673.
     DOI: 10.1002/anie.202004239
   
   for DFT-D4:
   * E. Caldeweyher, C. Bannwarth and S. Grimme, J. Chem. Phys., 2017,
     147, 034112. DOI: 10.1063/1.4993215
   * E. Caldeweyher, S. Ehlert, A. Hansen, H. Neugebauer, S. Spicher,
     C. Bannwarth and S. Grimme, J. Chem. Phys., 2019, 150, 154122.
     DOI: 10.1063/1.5090222
   * E. Caldeweyher, J.-M. Mewes, S. Ehlert and S. Grimme, Phys. Chem. Chem. Phys.
     2020, 22, 8499-8512. DOI: 10.1039/D0CP00502A
   
   for sTDA-xTB:
   * S. Grimme and C. Bannwarth, J. Chem. Phys., 2016, 145, 054103.
     DOI: 10.1063/1.4959605
   
   in the mass-spec context:
   * V. Asgeirsson, C. Bauer and S. Grimme, Chem. Sci., 2017, 8, 4879.
     DOI: 10.1039/c7sc00601b
   * J. Koopman and S. Grimme, ACS Omega 2019, 4, 12, 15120-15133.
     DOI: 10.1021/acsomega.9b02011
   
   for metadynamics refer to:
   * S. Grimme, J. Chem. Theory Comput., 2019, 155, 2847-2862
     DOI: 10.1021/acs.jctc.9b00143
   
   for SPH calculations refer to:
   * S. Spicher and S. Grimme, J. Chem. Theory Comput., 2021, 17, 1701-1714
     DOI: 10.1021/acs.jctc.0c01306
   
   with help from (in alphabetical order)
   P. Atkinson, C. Bannwarth, F. Bohle, G. Brandenburg, E. Caldeweyher
   M. Checinski, S. Dohm, S. Ehlert, S. Ehrlich, I. Gerasimov, J. Koopman
   C. Lavigne, S. Lehtola, F. März, M. Müller, F. Musil, H. Neugebauer
   J. Pisarek, C. Plett, P. Pracht, J. Seibert, P. Shushkov, S. Spicher
   M. Stahn, M. Steiner, T. Strunk, J. Stückrath, T. Rose, and J. Unsleber
   
 * started run on 2024/12/09 at 16:34:34.621     

           -------------------------------------------------
          |                Calculation Setup                |
           -------------------------------------------------

          program call               : xtb tmpcoord --gfnff --sp
          hostname                   : node22
          coordinate file            : tmpcoord
          omp threads                :                    28
          number of atoms            :                    78
          number of electrons        :                   190
          charge                     :                     0
          spin                       :                   0.0
          first test random number   :      0.72970090993893

   ID    Z sym.   atoms
    1    6 c      1, 2, 4-18, 20, 22-35
    2   14 si     3, 21
    3    8 o      19, 36
    4    1 h      37-78
 
          ==================== Thresholds ====================
          CN  :   150.00000
          rep :   500.00000
          disp:  2500.00000
          HB1 :   250.00000
          HB2 :   450.00000
 
          Pauling EN used:
          Z : 1  EN :  2.20
          Z : 6  EN :  2.55
          Z : 8  EN :  3.44
          Z :14  EN :  1.90
          electric field strengths (au): 0.000
 
           ------------------------------------------------- 
          |           Force Field Initialization            |
           ------------------------------------------------- 
 
          distances ...
          ----------------------------------------
          generating topology and atomic info file ...
          pair mat ...
          computing topology distances matrix with Floyd-Warshall algo ...
          making topology EEQ charges ...
          #fragments for EEQ constrain: 1
          ----------------------------------------
          generating topology and atomic info file ...
          pair mat ...
          computing topology distances matrix with Floyd-Warshall algo ...
          making topology EEQ charges ...
          #fragments for EEQ constrain: 1
          rings ...
          # BATM   968
          # H in HB   12
          doing iterative Hueckel for 1 subsystem(s) ...
 
  atom   neighbors  erfCN metchar sp-hybrid imet pi  qest     coordinates
    1  c       4    3.49   0.00         3    0    0  -0.070  -13.348401    2.040668    1.690369
    2  c       4    3.48   0.00         3    0    0  -0.014  -11.187111    1.717947   -0.185263
    3  si      4    3.50   0.05         3    0    0   0.080   -8.000288    1.132859    1.435018
    4  c       4    3.48   0.00         3    0    0  -0.014   -8.266337   -1.765785    3.582102
    5  c       4    3.49   0.00         3    0    0  -0.070   -8.651356   -4.222262    2.121846
    6  c       4    3.48   0.00         3    0    0  -0.014   -7.166567    4.108360    3.334268
    7  c       4    3.49   0.00         3    0    0  -0.070   -4.346400    4.509089    3.766065
    8  c       3    2.80   0.00         2    0    1  -0.028   -5.567352    0.609605   -1.154135
    9  c       3    2.83   0.00         2    0    1  -0.035   -5.989627    1.194026   -3.640980
   10  c       3    2.82   0.00         2    0    1  -0.014   -4.149492    0.819162   -5.531531
   11  c       3    2.81   0.00         2    0    1  -0.041   -4.602787    1.420612   -8.087122
   12  c       3    2.81   0.00         2    0    1  -0.015   -2.782662    1.036182   -9.879361
   13  c       3    2.81   0.00         2    0    1  -0.040   -0.426419    0.031473   -9.193731
   14  c       3    2.81   0.00         2    0    1  -0.018    0.076976   -0.569936   -6.732400
   15  c       3    2.83   0.00         2    0    1   0.003   -1.765030   -0.193398   -4.843676
   16  c       3    2.82   0.00         2    0    1  -0.012   -1.317671   -0.800427   -2.275046
   17  c       3    2.82   0.00         2    0    1  -0.012    1.163833   -1.831027   -1.439773
   18  c       3    2.84   0.00         2    0    1   0.104    3.046109   -0.188925   -0.698128
   19  o       2    1.92   0.00         3    0    1  -0.444    2.715459    2.359427   -0.789812
   20  c       3    2.80   0.00         2    0    1  -0.028    5.404496   -1.051757    0.208319
   21  si      4    3.50   0.05         3    0    0   0.080    7.779594    1.427565    1.258988
   22  c       4    3.48   0.00         3    0    0  -0.014    8.720238    3.318079   -1.680712
   23  c       4    3.49   0.00         3    0    0  -0.070   10.833610    5.226028   -1.243798
   24  c       4    3.48   0.00         3    0    0  -0.014   10.619095   -0.313604    2.693965
   25  c       4    3.49   0.00         3    0    0  -0.070   12.234681    1.311321    4.441836
   26  c       4    3.48   0.00         3    0    0  -0.014    6.256452    3.551724    3.763463
   27  c       4    3.49   0.00         3    0    0  -0.070    4.942771    2.062741    5.854935
   28  c       3    2.83   0.00         2    0    1  -0.035    5.810440   -3.605023    0.285370
   29  c       3    2.82   0.00         2    0    1  -0.014    3.965090   -5.368163   -0.484360
   30  c       3    2.81   0.00         2    0    1  -0.041    4.399788   -7.995261   -0.408735
   31  c       3    2.81   0.00         2    0    1  -0.015    2.570136   -9.661619   -1.149903
   32  c       3    2.81   0.00         2    0    1  -0.040    0.222281   -8.771969   -2.001413
   33  c       3    2.81   0.00         2    0    1  -0.018   -0.261301   -6.236125   -2.099776
   34  c       3    2.83   0.00         2    0    1   0.003    1.590929   -4.473842   -1.348733
   35  c       3    2.83   0.00         2    0    1   0.104   -3.185738   -0.406616   -0.499200
   36  o       2    1.92   0.00         3    0    1  -0.444   -2.804481   -0.980518    1.976654
   37  h       1    0.97   0.00         0    0    0   0.028  -13.600213    0.336962    2.809149
   38  h       1    0.97   0.00         0    0    0   0.028  -12.964931    3.599885    2.971951
   39  h       1    0.97   0.00         0    0    0   0.028  -15.118251    2.430870    0.714961
   40  h       1    0.97   0.00         0    0    0   0.007  -11.080634    3.414383   -1.351289
   41  h       1    0.97   0.00         0    0    0   0.007  -11.637474    0.160005   -1.456582
   42  h       1    0.97   0.00         0    0    0   0.007   -9.842277   -1.505217    4.885960
   43  h       1    0.97   0.00         0    0    0   0.007   -6.572029   -1.938099    4.736753
   44  h       1    0.97   0.00         0    0    0   0.028   -7.065581   -4.562500    0.860514
   45  h       1    0.97   0.00         0    0    0   0.028   -8.806111   -5.822410    3.406451
   46  h       1    0.97   0.00         0    0    0   0.028  -10.364002   -4.139180    0.988821
   47  h       1    0.97   0.00         0    0    0   0.007   -7.925155    5.762580    2.362499
   48  h       1    0.97   0.00         0    0    0   0.007   -8.110850    4.024347    5.165097
   49  h       1    0.97   0.00         0    0    0   0.028   -4.010234    6.205244    4.881984
   50  h       1    0.97   0.00         0    0    0   0.028   -3.531486    2.906387    4.755542
   51  h       1    0.97   0.00         0    0    0   0.028   -3.368073    4.717722    1.969946
   52  h       1    0.97   0.00         0    0    0   0.042   -7.792941    1.966009   -4.199451
   53  h       1    0.97   0.00         0    0    0   0.041   -6.423847    2.190827   -8.598461
   54  h       1    0.97   0.00         0    0    0   0.041   -3.144501    1.499203  -11.834008
   55  h       1    0.97   0.00         0    0    0   0.040    0.992066   -0.266161  -10.630976
   56  h       1    0.97   0.00         0    0    0   0.032    1.888214   -1.348887   -6.200229
   57  h       1    0.97   0.01         0    0    0   0.216    1.061605    2.731213   -1.478497
   58  h       1    0.97   0.00         0    0    0   0.007    7.059979    4.311595   -2.385115
   59  h       1    0.97   0.00         0    0    0   0.007    9.297283    2.016293   -3.172879
   60  h       1    0.97   0.00         0    0    0   0.028   11.192254    6.320822   -2.949236
   61  h       1    0.97   0.00         0    0    0   0.028   12.577293    4.271424   -0.725862
   62  h       1    0.97   0.00         0    0    0   0.028   10.334789    6.531466    0.262182
   63  h       1    0.97   0.00         0    0    0   0.007   11.810829   -1.046847    1.179618
   64  h       1    0.97   0.00         0    0    0   0.007    9.967303   -1.948172    3.767566
   65  h       1    0.97   0.00         0    0    0   0.028   11.142205    1.935974    6.064794
   66  h       1    0.97   0.00         0    0    0   0.028   13.853506    0.245733    5.136082
   67  h       1    0.97   0.00         0    0    0   0.028   12.936476    2.975687    3.466404
   68  h       1    0.97   0.00         0    0    0   0.007    4.880428    4.793658    2.868885
   69  h       1    0.97   0.00         0    0    0   0.007    7.689252    4.770202    4.605571
   70  h       1    0.97   0.00         0    0    0   0.028    6.267866    0.820213    6.816275
   71  h       1    0.97   0.00         0    0    0   0.028    4.116504    3.329082    7.250453
   72  h       1    0.97   0.00         0    0    0   0.028    3.438459    0.901941    5.071652
   73  h       1    0.97   0.00         0    0    0   0.042    7.600238   -4.322087    0.950654
   74  h       1    0.97   0.00         0    0    0   0.041    6.214409   -8.663493    0.248348
   75  h       1    0.97   0.00         0    0    0   0.041    2.917909  -11.671876   -1.087573
   76  h       1    0.97   0.00         0    0    0   0.040   -1.205208  -10.109612   -2.583864
   77  h       1    0.97   0.00         0    0    0   0.032   -2.064693   -5.546886   -2.765887
   78  h       1    0.97   0.01         0    0    0   0.216   -1.142387   -1.719479    2.176568
 
          #atoms :   78
          #bonds :   81
          #angl  :   146
          #tors  :   248
          #nmol  :   1
          #optfrag :   1
           ------------------------------------------------- 
          |                   G F N - F F                   |
          |          A general generic force-field          |
          |                  Version 1.0.3                  | 
           ------------------------------------------------- 
          nhb123   2089 232 0

 E+G (total)                   0 d,  0 h,  0 min,  0.004 sec
 distance/D3 list               ...        0 min,  0.000 sec (  0.766%)
 non bonded repulsion           ...        0 min,  0.000 sec (  7.247%)
 dCN                            ...        0 min,  0.000 sec (  6.265%)
 EEQ energy and q               ...        0 min,  0.000 sec ( 12.687%)
 D3                             ...        0 min,  0.001 sec ( 15.155%)
 EEQ gradient                   ...        0 min,  0.000 sec (  7.633%)
 bonds                          ...        0 min,  0.000 sec ( 11.561%)
 bend and torsion               ...        0 min,  0.001 sec ( 13.892%)
 bonded ATM                     ...        0 min,  0.000 sec (  1.676%)
 HB/XB (incl list setup)        ...        0 min,  0.001 sec ( 18.173%)

         :::::::::::::::::::::::::::::::::::::::::::::::::::::
         ::                     SUMMARY                     ::
         :::::::::::::::::::::::::::::::::::::::::::::::::::::
         :: total energy             -13.630501546731 Eh    ::
         :: gradient norm              0.078247853184 Eh/a0 ::
         ::.................................................::
         :: bond energy              -14.293147555799 Eh    ::
         :: angle energy               0.018990292702 Eh    ::
         :: torsion energy             0.011582765273 Eh    ::
         :: repulsion energy           0.878036073745 Eh    ::
         :: electrostat energy        -0.151312421472 Eh    ::
         :: dispersion energy         -0.082261141980 Eh    ::
         :: HB energy                 -0.001101273384 Eh    ::
         :: XB energy                  0.000000000000 Eh    ::
         :: bonded atm energy         -0.011288285816 Eh    ::
         :: external energy            0.000000000000 Eh    ::
         :: add. restraining           0.000000000000 Eh    ::
         :: total charge              -0.000000000000 e     ::
         :::::::::::::::::::::::::::::::::::::::::::::::::::::

           -------------------------------------------------
          |                Property Printout                |
           -------------------------------------------------

           -------------------------------------------------
          | TOTAL ENERGY              -13.630501546731 Eh   |
          | GRADIENT NORM               0.078247853184 Eh/α |
           -------------------------------------------------

------------------------------------------------------------------------
 * finished run on 2024/12/09 at 16:34:34.724     
------------------------------------------------------------------------
 total:
 * wall-time:     0 d,  0 h,  0 min,  0.103 sec
 *  cpu-time:     0 d,  0 h,  0 min,  2.033 sec
 * ratio c/w:    19.734 speedup
 SCF:
 * wall-time:     0 d,  0 h,  0 min,  0.006 sec
 *  cpu-time:     0 d,  0 h,  0 min,  0.134 sec
 * ratio c/w:    21.450 speedup

 Calculating NCI flexibility... done.
     covalent flexibility measure :   0.285
 non-covalent flexibility measure :   1.000
 flexibility measure :   0.409
 t(MTD) / ps set by command line  :     0.5
 t(MTD) / ps    :     0.5
 Σ(t(MTD)) / ps :     7.0 (14 MTDs)
 
-------------------------------------
Starting a trial MTD to test settings
-------------------------------------
 Estimated runtime for one MTD (0.5 ps) on a single thread: 3 min 17 sec
 Estimated runtime for a batch of 14 MTDs on 28 threads: 1 min 39 sec
 
 list of Vbias parameters applied:
$metadyn    0.00300   1.300
$metadyn    0.00150   1.300
$metadyn    0.00075   1.300
$metadyn    0.00300   0.780
$metadyn    0.00150   0.780
$metadyn    0.00075   0.780
$metadyn    0.00300   0.468
$metadyn    0.00150   0.468
$metadyn    0.00075   0.468
$metadyn    0.00300   0.281
$metadyn    0.00150   0.281
$metadyn    0.00075   0.281
$metadyn    0.00100   0.100
$metadyn    0.00500   0.800
 
*******************************************************************************************
**                        N E W    I T E R A T I O N    C Y C L E                        **
*******************************************************************************************
 
========================================
            MTD Iteration  1
========================================
 
     ========================================
     |         Meta-MD (MTD) Sampling       |
     ========================================
 
Starting Meta-MD   1 with the settings:
     MD time /ps        :     0.5
     dt /fs             :     1.5
     dumpstep(trj) /fs  :     100
     dumpstep(Vbias)/ps :     1.0
     Vbias factor k /Eh :  0.2340
     Vbias exp α /bohr⁻²:    1.30
Starting Meta-MD  14 with the settings:
     MD time /ps        :     0.5
     dt /fs             :     1.5
     dumpstep(trj) /fs  :     100
     dumpstep(Vbias)/ps :     1.0
     Vbias factor k /Eh :  0.3900
     Vbias exp α /bohr⁻²:    0.80
Starting Meta-MD   4 with the settings:
     MD time /ps        :     0.5
     dt /fs             :     1.5
     dumpstep(trj) /fs  :     100
     dumpstep(Vbias)/ps :     1.0
     Vbias factor k /Eh :  0.2340
     Vbias exp α /bohr⁻²:    0.78
Starting Meta-MD   6 with the settings:
     MD time /ps        :     0.5
     dt /fs             :     1.5
     dumpstep(trj) /fs  :     100
     dumpstep(Vbias)/ps :     1.0
     Vbias factor k /Eh :  0.0585
     Vbias exp α /bohr⁻²:    0.78
Starting Meta-MD   2 with the settings:
     MD time /ps        :     0.5
     dt /fs             :     1.5
     dumpstep(trj) /fs  :     100
     dumpstep(Vbias)/ps :     1.0
     Vbias factor k /Eh :  0.1170
     Vbias exp α /bohr⁻²:    1.30
Starting Meta-MD   5 with the settings:
     MD time /ps        :     0.5
     dt /fs             :     1.5
     dumpstep(trj) /fs  :     100
     dumpstep(Vbias)/ps :     1.0
     Vbias factor k /Eh :  0.1170
     Vbias exp α /bohr⁻²:    0.78
Starting Meta-MD   8 with the settings:
     MD time /ps        :     0.5
     dt /fs             :     1.5
     dumpstep(trj) /fs  :     100
     dumpstep(Vbias)/ps :     1.0
     Vbias factor k /Eh :  0.1170
     Vbias exp α /bohr⁻²:    0.47
Starting Meta-MD   7 with the settings:
     MD time /ps        :     0.5
     dt /fs             :     1.5
     dumpstep(trj) /fs  :     100
     dumpstep(Vbias)/ps :     1.0
     Vbias factor k /Eh :  0.2340
     Vbias exp α /bohr⁻²:    0.47
Starting Meta-MD  10 with the settings:
     MD time /ps        :     0.5
     dt /fs             :     1.5
     dumpstep(trj) /fs  :     100
     dumpstep(Vbias)/ps :     1.0
     Vbias factor k /Eh :  0.2340
     Vbias exp α /bohr⁻²:    0.28
Starting Meta-MD  12 with the settings:
     MD time /ps        :     0.5
     dt /fs             :     1.5
     dumpstep(trj) /fs  :     100
     dumpstep(Vbias)/ps :     1.0
     Vbias factor k /Eh :  0.0585
     Vbias exp α /bohr⁻²:    0.28
Starting Meta-MD  11 with the settings:
     MD time /ps        :     0.5
     dt /fs             :     1.5
     dumpstep(trj) /fs  :     100
     dumpstep(Vbias)/ps :     1.0
     Vbias factor k /Eh :  0.1170
     Vbias exp α /bohr⁻²:    0.28
Starting Meta-MD  13 with the settings:
     MD time /ps        :     0.5
     dt /fs             :     1.5
     dumpstep(trj) /fs  :     100
     dumpstep(Vbias)/ps :     1.0
     Vbias factor k /Eh :  0.0780
     Vbias exp α /bohr⁻²:    0.10
Starting Meta-MD   3 with the settings:
     MD time /ps        :     0.5
     dt /fs             :     1.5
     dumpstep(trj) /fs  :     100
     dumpstep(Vbias)/ps :     1.0
     Vbias factor k /Eh :  0.0585
     Vbias exp α /bohr⁻²:    1.30
Starting Meta-MD   9 with the settings:
     MD time /ps        :     0.5
     dt /fs             :     1.5
     dumpstep(trj) /fs  :     100
     dumpstep(Vbias)/ps :     1.0
     Vbias factor k /Eh :  0.0585
     Vbias exp α /bohr⁻²:    0.47
*Meta-MTD 2 finished*
*Meta-MTD 3 finished*
*Meta-MTD 11 finished*
*Meta-MTD 4 finished*
*Meta-MTD 9 finished*
*Meta-MTD 1 finished*
*Meta-MTD 14 finished*
*Meta-MTD 10 finished*
*Meta-MTD 12 finished*
*Meta-MTD 5 finished*
*Meta-MTD 13 finished*
*Meta-MTD 8 finished*
*Meta-MTD 7 finished*
*Meta-MTD 6 finished*
 
-----------------------
Multilevel Optimization
-----------------------
 
 -------------------------
 1. crude pre-optimization
 -------------------------
 Optimizing all 70 structures from file "crest_rotamers_0.xyz" ...
 1 2 3 4 5 6 7 8 9 10 11 12 13 14 15 16 17 18 19 20 21 22 23 24 25 26 27 28 29 30 31 32 33 34 35 36 37 38 39 40 41 42 43 44 45 46 47 48 49 50 51 52 53 54 55 56 57 58 59 60 61 62 63 64 65 66 67 68 69 70
 done.
 running RMSDs...
 done.
 E lowest :  -101.52219
 67 structures remain within    12.00 kcal/mol window
 
 -------------------------------------
 2. optimization with tight thresholds
 -------------------------------------
 Optimizing all 68 structures from file "crest_rotamers_1.xyz" ...
 1 2 3 4 5 6 7 8 9 10 11 12 13 14 15 16 17 18 19 20 21 22 23 24 25 26 27 28 29 30 31 32 33 34 35 36 37 38 39 40 41 42 43 44 45 46 47 48 49 50 51 52 53 54 55 56 57 58 59 60 61 62 63 64 65 66 67 68
 done.
 running RMSDs...
 done.
 E lowest :  -101.52499
 53 structures remain within     6.00 kcal/mol window
 
 
========================================
            MTD Iteration  2
========================================
 
     ========================================
     |         Meta-MD (MTD) Sampling       |
     ========================================
 
Starting Meta-MD   1 with the settings:
     MD time /ps        :     0.5
     dt /fs             :     1.5
     dumpstep(trj) /fs  :     100
     dumpstep(Vbias)/ps :     1.0
     Vbias factor k /Eh :  0.2340
     Vbias exp α /bohr⁻²:    1.30
Starting Meta-MD   2 with the settings:
     MD time /ps        :     0.5
     dt /fs             :     1.5
     dumpstep(trj) /fs  :     100
     dumpstep(Vbias)/ps :     1.0
     Vbias factor k /Eh :  0.1170
     Vbias exp α /bohr⁻²:    1.30
Starting Meta-MD   3 with the settings:
     MD time /ps        :     0.5
     dt /fs             :     1.5
     dumpstep(trj) /fs  :     100
     dumpstep(Vbias)/ps :     1.0
     Vbias factor k /Eh :  0.0585
     Vbias exp α /bohr⁻²:    1.30
Starting Meta-MD   4 with the settings:
     MD time /ps        :     0.5
     dt /fs             :     1.5
     dumpstep(trj) /fs  :     100
     dumpstep(Vbias)/ps :     1.0
     Vbias factor k /Eh :  0.2340
     Vbias exp α /bohr⁻²:    0.78
Starting Meta-MD   5 with the settings:
     MD time /ps        :     0.5
     dt /fs             :     1.5
     dumpstep(trj) /fs  :     100
     dumpstep(Vbias)/ps :     1.0
     Vbias factor k /Eh :  0.1170
     Vbias exp α /bohr⁻²:    0.78
Starting Meta-MD   6 with the settings:
     MD time /ps        :     0.5
     dt /fs             :     1.5
     dumpstep(trj) /fs  :     100
     dumpstep(Vbias)/ps :     1.0
     Vbias factor k /Eh :  0.0585
     Vbias exp α /bohr⁻²:    0.78
Starting Meta-MD   7 with the settings:
     MD time /ps        :     0.5
     dt /fs             :     1.5
     dumpstep(trj) /fs  :     100
     dumpstep(Vbias)/ps :     1.0
     Vbias factor k /Eh :  0.2340
     Vbias exp α /bohr⁻²:    0.47
Starting Meta-MD   8 with the settings:
     MD time /ps        :     0.5
     dt /fs             :     1.5
     dumpstep(trj) /fs  :     100
     dumpstep(Vbias)/ps :     1.0
     Vbias factor k /Eh :  0.1170
     Vbias exp α /bohr⁻²:    0.47
Starting Meta-MD   9 with the settings:
     MD time /ps        :     0.5
     dt /fs             :     1.5
     dumpstep(trj) /fs  :     100
     dumpstep(Vbias)/ps :     1.0
     Vbias factor k /Eh :  0.0585
     Vbias exp α /bohr⁻²:    0.47
Starting Meta-MD  10 with the settings:
     MD time /ps        :     0.5
     dt /fs             :     1.5
     dumpstep(trj) /fs  :     100
     dumpstep(Vbias)/ps :     1.0
     Vbias factor k /Eh :  0.2340
     Vbias exp α /bohr⁻²:    0.28
Starting Meta-MD  11 with the settings:
     MD time /ps        :     0.5
     dt /fs             :     1.5
     dumpstep(trj) /fs  :     100
     dumpstep(Vbias)/ps :     1.0
     Vbias factor k /Eh :  0.1170
     Vbias exp α /bohr⁻²:    0.28
Starting Meta-MD  12 with the settings:
     MD time /ps        :     0.5
     dt /fs             :     1.5
     dumpstep(trj) /fs  :     100
     dumpstep(Vbias)/ps :     1.0
     Vbias factor k /Eh :  0.0585
     Vbias exp α /bohr⁻²:    0.28
*Meta-MTD 1 finished*
*Meta-MTD 4 finished*
*Meta-MTD 12 finished*
*Meta-MTD 6 finished*
*Meta-MTD 8 finished*
*Meta-MTD 2 finished*
*Meta-MTD 3 finished*
*Meta-MTD 7 finished*
*Meta-MTD 9 finished*
*Meta-MTD 5 finished*
*Meta-MTD 10 finished*
*Meta-MTD 11 finished*
 
-----------------------
Multilevel Optimization
-----------------------
 
 -------------------------
 1. crude pre-optimization
 -------------------------
 Optimizing all 60 structures from file "crest_rotamers_0.xyz" ...
 1 2 3 4 5 6 7 8 9 10 11 12 13 14 15 16 17 18 19 20 21 22 23 24 25 26 27 28 29 30 31 32 33 34 35 36 37 38 39 40 41 42 43 44 45 46 47 48 49 50 51 52 53 54 55 56 57 58 59 60
 done.
 running RMSDs...
 done.
 E lowest :  -101.52407
 53 structures remain within    12.00 kcal/mol window
 
 -------------------------------------
 2. optimization with tight thresholds
 -------------------------------------
 Optimizing all 54 structures from file "crest_rotamers_1.xyz" ...
 1 2 3 4 5 6 7 8 9 10 11 12 13 14 15 16 17 18 19 20 21 22 23 24 25 26 27 28 29 30 31 32 33 34 35 36 37 38 39 40 41 42 43 44 45 46 47 48 49 50 51 52 53 54
 done.
 running RMSDs...
 done.
 E lowest :  -101.52500
 31 structures remain within     6.00 kcal/mol window
 
========================================
            MTD Iterations done         
========================================
 Collecting ensmbles.
 running RMSDs...
 done.
 E lowest :  -101.52500
 83 structures remain within     6.00 kcal/mol window
 
 -------------------------------
 Additional orientation sampling
 -------------------------------
 Optimizing all 146 structures from file "oh_ensemble.xyz" ...
 1 2 3 4 5 6 7 8 9 10 11 12 13 14 15 16 17 18 19 20 21 22 23 24 25 26 27 28 29 30 31 32 33 34 35 36 37 38 39 40 41 42 43 44 45 46 47 48 49 50 51 52 53 54 55 56 57 58 59 60 61 62 63 64 65 66 67 68 69 70 71 72 73 74 75 76 77 78 79 80 81 82 83 84 85 86 87 88 89 90 91 92 93 94 95 96 97 98 99 100 101 102 103 104 105 106 107 108 109 110 111 112 113 114 115 116 117 118 119 120 121 122 123 124 125 126 127 128 129 130 131 132 133 134 135 136 137 138 139 140 141 142 143 144 145 146
 done.
 running RMSDs...
 done.
 E lowest :  -101.52500
 211 structures remain within     6.00 kcal/mol window
 
-----------------------------------------------
Additional regular MDs on lowest 4 conformer(s)
-----------------------------------------------
Starting MD   1 with the settings:
     MD time /ps        :     0.2
     MD Temperature /K  :   400.0
     dt /fs             :     1.5
     dumpstep(trj) /fs  :     100
Starting MD   2 with the settings:
     MD time /ps        :     0.2
     MD Temperature /K  :   500.0
     dt /fs             :     1.5
     dumpstep(trj) /fs  :     100
Starting MD   4 with the settings:
     MD time /ps        :     0.2
     MD Temperature /K  :   500.0
     dt /fs             :     1.5
     dumpstep(trj) /fs  :     100
Starting MD   3 with the settings:
     MD time /ps        :     0.2
     MD Temperature /K  :   400.0
     dt /fs             :     1.5
     dumpstep(trj) /fs  :     100
Starting MD   5 with the settings:
     MD time /ps        :     0.2
     MD Temperature /K  :   400.0
     dt /fs             :     1.5
     dumpstep(trj) /fs  :     100
Starting MD   6 with the settings:
     MD time /ps        :     0.2
     MD Temperature /K  :   500.0
     dt /fs             :     1.5
     dumpstep(trj) /fs  :     100
Starting MD   8 with the settings:
     MD time /ps        :     0.2
     MD Temperature /K  :   500.0
     dt /fs             :     1.5
     dumpstep(trj) /fs  :     100
Starting MD   7 with the settings:
     MD time /ps        :     0.2
     MD Temperature /K  :   400.0
     dt /fs             :     1.5
     dumpstep(trj) /fs  :     100
*MD 5 finished*
*MD 2 finished*
*MD 1 finished*
*MD 6 finished*
*MD 4 finished*
*MD 3 finished*
*MD 8 finished*
*MD 7 finished*
 Appending file crest_rotamers_2.xyz with new structures
 
 -------------------------------------------
 Ensemble optimization with tight thresholds
 -------------------------------------------
 Optimizing all 227 structures from file "crest_rotamers_2.xyz" ...
 1 2 3 4 5 6 7 8 9 10 11 12 13 14 15 16 17 18 19 20 21 22 23 24 25 26 27 28 29 30 31 32 33 34 35 36 37 38 39 40 41 42 43 44 45 46 47 48 49 50 51 52 53 54 55 56 57 58 59 60 61 62 63 64 65 66 67 68 69 70 71 72 73 74 75 76 77 78 79 80 81 82 83 84 85 86 87 88 89 90 91 92 93 94 95 96 97 98 99 100 101 102 103 104 105 106 107 108 109 110 111 112 113 114 115 116 117 118 119 120 121 122 123 124 125 126 127 128 129 130 131 132 133 134 135 136 137 138 139 140 141 142 143 144 145 146 147 148 149 150 151 152 153 154 155 156 157 158 159 160 161 162 163 164 165 166 167 168 169 170 171 172 173 174 175 176 177 178 179 180 181 182 183 184 185 186 187 188 189 190 191 192 193 194 195 196 197 198 199 200 201 202 203 204 205 206 207 208 209 210 211 212 213 214 215 216 217 218 219 220 221 222 223 224 225 226 227
 done.
 running RMSDs...
 done.
 E lowest :  -101.52500
 214 structures remain within     6.00 kcal/mol window
 
 
     ========================================
     |        Structure Crossing (GC)       |
     ========================================
 =============================
  # threads =          28
 =============================
 input  file name : crest_rotamers_4.xyz
number of atoms                :    78
number of points on xyz files  :   214
conformer energy window  /kcal :    6.00
CN per atom difference cut-off :  0.3000
RMSD threshold                 :  0.5000
max. # of generated structures : 25
 reading xyz file ...
 # in E window                214
 generating pairs ...       23004
  41.1 % done
 100.0 % done
 generated pairs           :        5028
 number of clash discarded :       17763
 average rmsd w.r.t input  : 3.13053
 sd of ensemble            : 1.07382
 number of new structures      :          33
 removed identical structures  :          17
 writing           25  TMPCONF* dirs ...
 --------------------------
 GC: loose pre-optimization
 --------------------------
 Starting optimization of generated structures
 25 jobs to do.
 1 2 3 4 5 6 7 8 9 10 11 12 13 14 15 16 17 18 19 20 21 22 23 24 25 
 done.
 Now appending opt.xyz file with new structures
 running RMSDs...
 done.
 E lowest :  -101.52298
 25 structures remain within    10.00 kcal/mol window
 --------------------------------------
 GC: optimization with tight thresholds
 --------------------------------------
 Optimizing all 25 structures from file "crest_rotamers_1.xyz" ...
 1 2 3 4 5 6 7 8 9 10 11 12 13 14 15 16 17 18 19 20 21 22 23 24 25
 done.
 running RMSDs...
 done.
 E lowest :  -101.52500
 
 
   ================================================
   |           Final Geometry Optimization        |
   ================================================
 ------------------------------------------------
 Ensemble optimization with very tight thresholds
 ------------------------------------------------
 Optimizing all 237 structures from file "crest_rotamers_5.xyz" ...
 1 2 3 4 5 6 7 8 9 10 11 12 13 14 15 16 17 18 19 20 21 22 23 24 25 26 27 28 29 30 31 32 33 34 35 36 37 38 39 40 41 42 43 44 45 46 47 48 49 50 51 52 53 54 55 56 57 58 59 60 61 62 63 64 65 66 67 68 69 70 71 72 73 74 75 76 77 78 79 80 81 82 83 84 85 86 87 88 89 90 91 92 93 94 95 96 97 98 99 100 101 102 103 104 105 106 107 108 109 110 111 112 113 114 115 116 117 118 119 120 121 122 123 124 125 126 127 128 129 130 131 132 133 134 135 136 137 138 139 140 141 142 143 144 145 146 147 148 149 150 151 152 153 154 155 156 157 158 159 160 161 162 163 164 165 166 167 168 169 170 171 172 173 174 175 176 177 178 179 180 181 182 183 184 185 186 187 188 189 190 191 192 193 194 195 196 197 198 199 200 201 202 203 204 205 206 207 208 209 210 211 212 213 214 215 216 217 218 219 220 221 222 223 224 225 226 227 228 229 230 231 232 233 234 235 236 237
 done.
 running RMSDs...
 done.
 E lowest :  -101.52500
 235 structures remain within     6.00 kcal/mol window
 
 input  file name : crest_rotamers_6.xyz
 output file name : crest_rotamers_7.xyz
 number of atoms                :   78
 number of points on xyz files  :   237
 RMSD threshold                 :   0.2500
 Bconst threshold               :   0.0100
 population threshold           :   0.0500
 conformer energy window  /kcal :   6.0000
 # fragment in coord            :     1
 # bonds in reference structure :    81
   => # of C=C bonds :     8
 number of reliable points      :   237
 reference state Etot :  -101.525004910000
 number of doubles removed by rot/RMSD         :           2
 total number unique points considered further :         235
       Erel/kcal        Etot weight/tot  conformer     set   degen     origin
       1   0.000  -101.52500    0.09544    0.09544       1       1     md2
       2   0.526  -101.52417    0.03934    0.11675       2       3     mtd3
       3   0.538  -101.52415    0.03855                                md3
       4   0.533  -101.52416    0.03886                                md5
       5   0.537  -101.52415    0.03860    0.03860       3       1     mtd1
       6   0.558  -101.52412    0.03725    0.03725       4       1     md6
       7   0.808  -101.52372    0.02445    0.04803       5       2     mtd12
       8   0.829  -101.52368    0.02357                                mtd10
       9   0.837  -101.52367    0.02325    0.06954       6       3     mtd9
      10   0.839  -101.52367    0.02317                                mtd13
      11   0.841  -101.52366    0.02311                                mtd12
      12   0.843  -101.52366    0.02302    0.04515       7       2     mtd14
      13   0.867  -101.52362    0.02213                                mtd12
      14   0.847  -101.52366    0.02289    0.02289       8       1     mtd7
      15   0.881  -101.52360    0.02159    0.02159       9       1     mtd7
      16   0.943  -101.52350    0.01947    0.01947      10       1     gc
      17   0.951  -101.52349    0.01921    0.01921      11       1     mtd2
      18   0.957  -101.52348    0.01900    0.01900      12       1     mtd2
      19   0.969  -101.52346    0.01863    0.01863      13       1     mtd8
      20   0.985  -101.52343    0.01812    0.03590      14       2     mtd13
      21   0.997  -101.52342    0.01778                                gc
      22   0.998  -101.52341    0.01774    0.03500      15       2     mtd10
      23   1.014  -101.52339    0.01726                                mtd5
      24   1.035  -101.52336    0.01667    0.01667      16       1     md4
      25   1.043  -101.52334    0.01645    0.01645      17       1     mtd5
      26   1.135  -101.52320    0.01407    0.01407      18       1     mtd8
      27   1.173  -101.52314    0.01320    0.01320      19       1     mtd7
      28   1.332  -101.52288    0.01010    0.01010      20       1     mtd6
      29   1.334  -101.52288    0.01006    0.01006      21       1     mtd4
      30   1.341  -101.52287    0.00994    0.00994      22       1     mtd12
      31   1.344  -101.52286    0.00990    0.00990      23       1     mtd9
      32   1.361  -101.52284    0.00962    0.00962      24       1     mtd3
      33   1.374  -101.52282    0.00941    0.00941      25       1     md3
      34   1.439  -101.52271    0.00842    0.00842      26       1     gc
      35   1.492  -101.52263    0.00771    0.00771      27       1     mtd14
      36   1.495  -101.52262    0.00766    0.00766      28       1     mtd5
      37   1.496  -101.52262    0.00766    0.00766      29       1     mtd5
      38   1.514  -101.52259    0.00743    0.01470      30       2     gc
      39   1.526  -101.52257    0.00728                                gc
      40   1.584  -101.52248    0.00660    0.00660      31       1     mtd8
      41   1.654  -101.52237    0.00586    0.00586      32       1     gc
      42   1.661  -101.52236    0.00580    0.00580      33       1     mtd12
      43   1.662  -101.52236    0.00579    0.00579      34       1     gc
      44   1.693  -101.52231    0.00549    0.00549      35       1     gc
      45   1.768  -101.52219    0.00484    0.00484      36       1     mtd8
      46   1.779  -101.52217    0.00475    0.00475      37       1     mtd4
      47   1.795  -101.52214    0.00463    0.00463      38       1     mtd1
      48   1.801  -101.52213    0.00458    0.00458      39       1     mtd6
      49   1.809  -101.52212    0.00452    0.00899      40       2     mtd7
      50   1.815  -101.52211    0.00447                                mtd5
      51   1.810  -101.52212    0.00451    0.00451      41       1     mtd10
      52   1.817  -101.52211    0.00445    0.00445      42       1     mtd1
      53   1.824  -101.52210    0.00441    0.00441      43       1     mtd2
      54   1.829  -101.52209    0.00437    0.00437      44       1     gc
      55   1.843  -101.52207    0.00426    0.00842      45       2     mtd5
      56   1.859  -101.52204    0.00415                                mtd7
      57   1.853  -101.52205    0.00420    0.00420      46       1     gc
      58   1.874  -101.52202    0.00405    0.00405      47       1     mtd10
      59   1.887  -101.52200    0.00396    0.00396      48       1     mtd9
      60   1.919  -101.52195    0.00375    0.00375      49       1     mtd7
      61   1.933  -101.52192    0.00366    0.00366      50       1     mtd4
      62   1.945  -101.52191    0.00359    0.00359      51       1     mtd1
      63   1.996  -101.52182    0.00329    0.00329      52       1     mtd1
      64   2.006  -101.52181    0.00324    0.00324      53       1     mtd6
      65   2.075  -101.52170    0.00289    0.00289      54       1     mtd9
      66   2.075  -101.52170    0.00288    0.00288      55       1     mtd10
      67   2.097  -101.52166    0.00278    0.00278      56       1     mtd8
      68   2.098  -101.52166    0.00277    0.00277      57       1     mtd3
      69   2.100  -101.52166    0.00277    0.00277      58       1     mtd3
      70   2.104  -101.52165    0.00275    0.00544      59       2     mtd1
      71   2.116  -101.52163    0.00269                                mtd9
      72   2.125  -101.52162    0.00265    0.00265      60       1     mtd11
      73   2.202  -101.52150    0.00233    0.00233      61       1     mtd1
      74   2.221  -101.52147    0.00226    0.00226      62       1     mtd10
      75   2.222  -101.52146    0.00225    0.00225      63       1     gc
      76   2.228  -101.52145    0.00223    0.00442      64       2     mtd14
      77   2.239  -101.52144    0.00219                                mtd14
      78   2.231  -101.52145    0.00222    0.00222      65       1     mtd9
      79   2.255  -101.52141    0.00213    0.00213      66       1     mtd2
      80   2.268  -101.52139    0.00208    0.00208      67       1     mtd7
      81   2.285  -101.52136    0.00203    0.00203      68       1     mtd2
      82   2.311  -101.52132    0.00194    0.00194      69       1     gc
      83   2.334  -101.52129    0.00186    0.00186      70       1     mtd11
      84   2.346  -101.52127    0.00183    0.00183      71       1     gc
      85   2.359  -101.52124    0.00179    0.00179      72       1     mtd10
      86   2.374  -101.52122    0.00174    0.00174      73       1     gc
      87   2.485  -101.52105    0.00145    0.00145      74       1     gc
      88   2.507  -101.52101    0.00139    0.00139      75       1     gc
      89   2.559  -101.52093    0.00128    0.00128      76       1     mtd4
      90   2.601  -101.52086    0.00119    0.00119      77       1     gc
      91   2.604  -101.52086    0.00118    0.00118      78       1     mtd4
      92   2.621  -101.52083    0.00115    0.00115      79       1     mtd4
      93   2.713  -101.52068    0.00098    0.00098      80       1     mtd2
      94   2.757  -101.52061    0.00091    0.00091      81       1     gc
      95   2.829  -101.52050    0.00081    0.00081      82       1     gc
      96   2.862  -101.52044    0.00076    0.00076      83       1     mtd10
      97   2.882  -101.52041    0.00074    0.00074      84       1     mtd3
      98   3.059  -101.52013    0.00055    0.00055      85       1     hor
      99   3.109  -101.52005    0.00050    0.00050      86       1     gc
     100   3.147  -101.51999    0.00047    0.00047      87       1     hor
     101   3.182  -101.51993    0.00045    0.00045      88       1     hor
     102   3.201  -101.51990    0.00043    0.00043      89       1     mtd7
     103   3.203  -101.51990    0.00043    0.00043      90       1     mtd8
     104   3.208  -101.51989    0.00043    0.00043      91       1     hor
     105   3.228  -101.51986    0.00041    0.00041      92       1     hor
     106   3.313  -101.51973    0.00036    0.00036      93       1     hor
     107   3.336  -101.51969    0.00034    0.00034      94       1     hor
     108   3.342  -101.51968    0.00034    0.00034      95       1     hor
     109   3.345  -101.51967    0.00034    0.00034      96       1     hor
     110   3.406  -101.51958    0.00031    0.00031      97       1     mtd8
     111   3.492  -101.51944    0.00026    0.00026      98       1     hor
     112   3.500  -101.51943    0.00026    0.00026      99       1     hor
     113   3.504  -101.51942    0.00026    0.00026     100       1     hor
     114   3.516  -101.51940    0.00025    0.00025     101       1     gc
     115   3.520  -101.51940    0.00025    0.00025     102       1     hor
     116   3.524  -101.51939    0.00025    0.00025     103       1     hor
     117   3.574  -101.51931    0.00023    0.00023     104       1     hor
     118   3.583  -101.51930    0.00023    0.00023     105       1     hor
     119   3.645  -101.51920    0.00020    0.00020     106       1     hor
     120   3.653  -101.51918    0.00020    0.00020     107       1     hor
     121   3.661  -101.51917    0.00020    0.00020     108       1     hor
     122   3.692  -101.51912    0.00019    0.00019     109       1     hor
     123   3.698  -101.51911    0.00019    0.00019     110       1     hor
     124   3.711  -101.51909    0.00018    0.00018     111       1     gc
     125   3.733  -101.51906    0.00018    0.00018     112       1     hor
     126   3.750  -101.51903    0.00017    0.00017     113       1     hor
     127   3.769  -101.51900    0.00017    0.00017     114       1     hor
     128   3.787  -101.51897    0.00016    0.00016     115       1     hor
     129   3.796  -101.51896    0.00016    0.00016     116       1     hor
     130   3.802  -101.51895    0.00016    0.00016     117       1     hor
     131   3.823  -101.51891    0.00015    0.00030     118       2     hor
     132   3.836  -101.51889    0.00015                                hor
     133   3.836  -101.51889    0.00015    0.00030     119       2     hor
     134   3.836  -101.51889    0.00015                                hor
     135   3.853  -101.51886    0.00014    0.00014     120       1     hor
     136   3.888  -101.51881    0.00014    0.00014     121       1     hor
     137   3.923  -101.51875    0.00013    0.00013     122       1     hor
     138   3.929  -101.51874    0.00013    0.00013     123       1     hor
     139   3.929  -101.51874    0.00013    0.00013     124       1     hor
     140   3.931  -101.51874    0.00013    0.00025     125       2     hor
     141   3.936  -101.51873    0.00013                                hor
     142   3.938  -101.51873    0.00012    0.00012     126       1     hor
     143   3.958  -101.51870    0.00012    0.00012     127       1     hor
     144   3.963  -101.51869    0.00012    0.00012     128       1     hor
     145   3.973  -101.51867    0.00012    0.00012     129       1     hor
     146   4.046  -101.51856    0.00010    0.00010     130       1     hor
     147   4.053  -101.51855    0.00010    0.00010     131       1     hor
     148   4.079  -101.51850    0.00010    0.00029     132       3     hor
     149   4.092  -101.51848    0.00010                                hor
     150   4.090  -101.51849    0.00010                                hor
     151   4.101  -101.51847    0.00009    0.00009     133       1     hor
     152   4.113  -101.51845    0.00009    0.00019     134       2     hor
     153   4.092  -101.51848    0.00010                                hor
     154   4.113  -101.51845    0.00009    0.00009     135       1     hor
     155   4.122  -101.51844    0.00009    0.00018     136       2     hor
     156   4.129  -101.51842    0.00009                                hor
     157   4.131  -101.51842    0.00009    0.00009     137       1     hor
     158   4.133  -101.51842    0.00009    0.00018     138       2     hor
     159   4.107  -101.51846    0.00009                                hor
     160   4.147  -101.51840    0.00009    0.00009     139       1     hor
     161   4.148  -101.51839    0.00009    0.00009     140       1     hor
     162   4.170  -101.51836    0.00008    0.00008     141       1     hor
     163   4.198  -101.51832    0.00008    0.00008     142       1     hor
     164   4.213  -101.51829    0.00008    0.00008     143       1     hor
     165   4.220  -101.51828    0.00008    0.00008     144       1     hor
     166   4.238  -101.51825    0.00008    0.00008     145       1     hor
     167   4.251  -101.51823    0.00007    0.00007     146       1     hor
     168   4.258  -101.51822    0.00007    0.00007     147       1     mtd11
     169   4.267  -101.51821    0.00007    0.00014     148       2     hor
     170   4.273  -101.51820    0.00007                                hor
     171   4.335  -101.51810    0.00006    0.00006     149       1     hor
     172   4.338  -101.51809    0.00006    0.00013     150       2     hor
     173   4.354  -101.51807    0.00006                                hor
     174   4.348  -101.51808    0.00006    0.00006     151       1     hor
     175   4.376  -101.51803    0.00006    0.00006     152       1     hor
     176   4.382  -101.51802    0.00006    0.00006     153       1     hor
     177   4.387  -101.51801    0.00006    0.00006     154       1     gc
     178   4.388  -101.51801    0.00006    0.00006     155       1     hor
     179   4.407  -101.51798    0.00006    0.00006     156       1     hor
     180   4.419  -101.51796    0.00006    0.00006     157       1     hor
     181   4.420  -101.51796    0.00006    0.00006     158       1     hor
     182   4.442  -101.51793    0.00005    0.00005     159       1     hor
     183   4.459  -101.51790    0.00005    0.00005     160       1     hor
     184   4.464  -101.51789    0.00005    0.00005     161       1     hor
     185   4.468  -101.51789    0.00005    0.00005     162       1     hor
     186   4.470  -101.51788    0.00005    0.00005     163       1     hor
     187   4.516  -101.51781    0.00005    0.00009     164       2     hor
     188   4.518  -101.51780    0.00005                                hor
     189   4.549  -101.51776    0.00004    0.00004     165       1     hor
     190   4.554  -101.51775    0.00004    0.00004     166       1     hor
     191   4.606  -101.51767    0.00004    0.00004     167       1     hor
     192   4.608  -101.51766    0.00004    0.00004     168       1     hor
     193   4.628  -101.51763    0.00004    0.00004     169       1     hor
     194   4.629  -101.51763    0.00004    0.00004     170       1     hor
     195   4.636  -101.51762    0.00004    0.00004     171       1     hor
     196   4.644  -101.51760    0.00004    0.00004     172       1     hor
     197   4.657  -101.51758    0.00004    0.00004     173       1     hor
     198   4.664  -101.51757    0.00004    0.00007     174       2     hor
     199   4.667  -101.51757    0.00004                                hor
     200   4.667  -101.51757    0.00004    0.00004     175       1     hor
     201   4.672  -101.51756    0.00004    0.00004     176       1     hor
     202   4.688  -101.51753    0.00004    0.00004     177       1     hor
     203   4.720  -101.51748    0.00003    0.00003     178       1     hor
     204   4.755  -101.51743    0.00003    0.00003     179       1     hor
     205   4.788  -101.51738    0.00003    0.00003     180       1     hor
     206   4.790  -101.51737    0.00003    0.00006     181       2     hor
     207   4.791  -101.51737    0.00003                                hor
     208   4.818  -101.51733    0.00003    0.00003     182       1     hor
     209   4.870  -101.51724    0.00003    0.00003     183       1     hor
     210   4.872  -101.51724    0.00003    0.00005     184       2     hor
     211   4.874  -101.51724    0.00003                                hor
     212   4.878  -101.51723    0.00003    0.00003     185       1     hor
     213   4.910  -101.51718    0.00002    0.00005     186       2     hor
     214   4.948  -101.51712    0.00002                                hor
     215   4.921  -101.51716    0.00002    0.00002     187       1     hor
     216   4.968  -101.51709    0.00002    0.00002     188       1     hor
     217   5.001  -101.51704    0.00002    0.00002     189       1     hor
     218   5.018  -101.51701    0.00002    0.00002     190       1     hor
     219   5.030  -101.51699    0.00002    0.00002     191       1     hor
     220   5.050  -101.51696    0.00002    0.00002     192       1     hor
     221   5.053  -101.51695    0.00002    0.00002     193       1     hor
     222   5.060  -101.51694    0.00002    0.00002     194       1     hor
     223   5.254  -101.51663    0.00001    0.00001     195       1     hor
     224   5.278  -101.51659    0.00001    0.00001     196       1     hor
     225   5.308  -101.51655    0.00001    0.00001     197       1     hor
     226   5.407  -101.51639    0.00001    0.00001     198       1     mtd11
     227   5.444  -101.51633    0.00001    0.00001     199       1     hor
     228   5.456  -101.51631    0.00001    0.00001     200       1     hor
     229   5.498  -101.51624    0.00001    0.00001     201       1     hor
     230   5.541  -101.51617    0.00001    0.00001     202       1     hor
     231   5.548  -101.51616    0.00001    0.00001     203       1     hor
     232   5.576  -101.51612    0.00001    0.00001     204       1     mtd7
     233   5.637  -101.51602    0.00001    0.00001     205       1     hor
     234   5.754  -101.51584    0.00001    0.00001     206       1     hor
     235   5.946  -101.51553    0.00000    0.00000     207       1     hor
T /K                                  :   298.15
E lowest                              :  -101.52500
ensemble average energy (kcal)        :    1.042
ensemble entropy (J/mol K, cal/mol K) :   34.148    8.162
ensemble free energy (kcal/mol)       :   -2.433
population of lowest in %             :    9.544
 number of unique conformers for further calc          207
 list of relative energies saved as "crest.energies"
 
 -----------------
 Wall Time Summary
 -----------------
             test MD wall time :         0h : 0m :49s
                 MTD wall time :         0h : 1m :28s
      multilevel OPT wall time :         0h : 2m : 2s
                  MD wall time :         0h : 0m :41s
                  GC wall time :         0h : 0m :31s
--------------------
Overall wall time  : 0h : 6m : 0s
 
 CREST terminated normally.
