 
       ==============================================
       |                                            |
       |                 C R E S T                  |
       |                                            |
       |  Conformer-Rotamer Ensemble Sampling Tool  |
       |          based on the GFN methods          |
       |             P.Pracht, S.Grimme             |
       |          Universitaet Bonn, MCTC           |
       ==============================================
       Version 2.11.2, Fr 17. Dec 12:10:44 CEST 2021
  Using the xTB program. Compatible with xTB version 6.4.0
 
   Cite work conducted with this code as

   P. Pracht, F. Bohle, S. Grimme, PCCP, 2020, 22, 7169-7192.

   and  S. Grimme, JCTC, 2019, 15, 2847-2862.
 
   with help from:
   C.Bannwarth, F.Bohle, S.Ehlert, S.Grimme,
   C. Plett, P.Pracht, S. Spicher
 
   This program is distributed in the hope that it will be useful,
   but WITHOUT ANY WARRANTY; without even the implied warranty of
   MERCHANTABILITY or FITNESS FOR A PARTICULAR PURPOSE.

 Command line input:
 > crest 01189_r_0.xyz -T 28 -gfn2 -chrg 0 -uhf 0 -rthr 0.25 -shake 1 --mdlen 0.5

  -T 28 (CPUs/Threads selected)
  -gfn2 : Use of GFN2-xTB requested.
  -chrg 0
  -uhf 0
  -rthr 0.25
  --mdlen 0.5 (MD length in ps)
 
 -------------------------
 xTB Geometry Optimization
 -------------------------
 Geometry successfully optimized.
 
------------------------------------------------
Generating MTD length from a flexibility measure
------------------------------------------------
      -----------------------------------------------------------      
     |                   =====================                   |     
     |                           x T B                           |     
     |                   =====================                   |     
     |                         S. Grimme                         |     
     |          Mulliken Center for Theoretical Chemistry        |     
     |                    University of Bonn                     |     
      -----------------------------------------------------------      

   * xtb version 6.4.1 (afa7bdf) compiled by 'ehlert@majestix' on 2021-06-10

   xtb is free software: you can redistribute it and/or modify it under
   the terms of the GNU Lesser General Public License as published by
   the Free Software Foundation, either version 3 of the License, or
   (at your option) any later version.
   
   xtb is distributed in the hope that it will be useful,
   but WITHOUT ANY WARRANTY; without even the implied warranty of
   MERCHANTABILITY or FITNESS FOR A PARTICULAR PURPOSE.  See the
   GNU Lesser General Public License for more details.
   
   Cite this work as:
   * C. Bannwarth, E. Caldeweyher, S. Ehlert, A. Hansen, P. Pracht,
     J. Seibert, S. Spicher, S. Grimme, WIREs Comput. Mol. Sci., 2020, 11,
     e01493. DOI: 10.1002/wcms.1493
   
   for GFN2-xTB:
   * C. Bannwarth, S. Ehlert and S. Grimme., J. Chem. Theory Comput., 2019,
     15, 1652-1671. DOI: 10.1021/acs.jctc.8b01176
   for GFN1-xTB:
   * S. Grimme, C. Bannwarth, P. Shushkov, J. Chem. Theory Comput., 2017,
     13, 1989-2009. DOI: 10.1021/acs.jctc.7b00118
   for GFN0-xTB:
   * P. Pracht, E. Caldeweyher, S. Ehlert, S. Grimme, ChemRxiv, 2019, preprint.
     DOI: 10.26434/chemrxiv.8326202.v1
   for GFN-FF:
   * S. Spicher and S. Grimme, Angew. Chem. Int. Ed., 2020, 59, 15665-15673.
     DOI: 10.1002/anie.202004239
   
   for DFT-D4:
   * E. Caldeweyher, C. Bannwarth and S. Grimme, J. Chem. Phys., 2017,
     147, 034112. DOI: 10.1063/1.4993215
   * E. Caldeweyher, S. Ehlert, A. Hansen, H. Neugebauer, S. Spicher,
     C. Bannwarth and S. Grimme, J. Chem. Phys., 2019, 150, 154122.
     DOI: 10.1063/1.5090222
   * E. Caldeweyher, J.-M. Mewes, S. Ehlert and S. Grimme, Phys. Chem. Chem. Phys.
     2020, 22, 8499-8512. DOI: 10.1039/D0CP00502A
   
   for sTDA-xTB:
   * S. Grimme and C. Bannwarth, J. Chem. Phys., 2016, 145, 054103.
     DOI: 10.1063/1.4959605
   
   in the mass-spec context:
   * V. Asgeirsson, C. Bauer and S. Grimme, Chem. Sci., 2017, 8, 4879.
     DOI: 10.1039/c7sc00601b
   * J. Koopman and S. Grimme, ACS Omega 2019, 4, 12, 15120-15133.
     DOI: 10.1021/acsomega.9b02011
   
   for metadynamics refer to:
   * S. Grimme, J. Chem. Theory Comput., 2019, 155, 2847-2862
     DOI: 10.1021/acs.jctc.9b00143
   
   for SPH calculations refer to:
   * S. Spicher and S. Grimme, J. Chem. Theory Comput., 2021, 17, 1701-1714
     DOI: 10.1021/acs.jctc.0c01306
   
   with help from (in alphabetical order)
   P. Atkinson, C. Bannwarth, F. Bohle, G. Brandenburg, E. Caldeweyher
   M. Checinski, S. Dohm, S. Ehlert, S. Ehrlich, I. Gerasimov, J. Koopman
   C. Lavigne, S. Lehtola, F. März, M. Müller, F. Musil, H. Neugebauer
   J. Pisarek, C. Plett, P. Pracht, J. Seibert, P. Shushkov, S. Spicher
   M. Stahn, M. Steiner, T. Strunk, J. Stückrath, T. Rose, and J. Unsleber
   
 * started run on 2024/07/31 at 10:49:22.827     

           -------------------------------------------------
          |                Calculation Setup                |
           -------------------------------------------------

          program call               : xtb tmpcoord --gfn0 --sp
          hostname                   : node30
          coordinate file            : tmpcoord
          omp threads                :                    28
          number of atoms            :                    45
          number of electrons        :                   130
          charge                     :                     0
          spin                       :                   0.0
          first test random number   :      0.09111070295070

   ID    Z sym.   atoms
    1    6 c      1-5, 7-16, 19-27
    2    7 n      6, 17
    3    8 o      18
    4    1 h      28-45
########################################################################
[WARNING] Please study the warnings concerning your input carefully
-1- prog_main_parseArguments: The use of '--gfn0' is discouraged, please use '--gfn 0' next time
########################################################################

           -------------------------------------------------
          |                 G F N 0 - x T B                 |
           -------------------------------------------------

        Reference                      10.26434/chemrxiv.8326202.v1
      * Hamiltonian:
        H0-scaling (s, p, d)           2.000000    2.486800    2.270000
        zeta-weighting                 1.000000
      * Dispersion:
        s8                             2.850000
        a1                             0.800000
        a2                             4.600000
        s9                             0.000000
      * Repulsion:
        kExp                           1.500000
        rExp                           1.000000
      * Coulomb:
        alpha                          0.000000
        third order                    atomic
        anisotropic                    false
      * Polar bond correction:
        rad-shift                      0.053700
        strength                      -0.012900
        en-exp                         3.484700
        en-scale                       0.509700


          ...................................................
          :                      SETUP                      :
          :.................................................:
          :  # basis functions                 144          :
          :  # atomic orbitals                 144          :
          :  # shells                           90          :
          :  # electrons                       130          :
          :  electronic temp.          300.0000000     K    :
          :  accuracy                    1.0000000          :
          :  -> integral cutoff          0.2500000E+02      :
          :  -> integral neglect         0.1000000E-07      :
          ...................................................
  Checking positiv definite overlap ...  done.
 

         #    Occupation            Energy/Eh            Energy/eV
      -------------------------------------------------------------
         1        2.0000           -0.7113625             -19.3572
       ...           ...                  ...                  ...
        59        2.0000           -0.4349609             -11.8359
        60        2.0000           -0.4316918             -11.7469
        61        2.0000           -0.4308001             -11.7227
        62        2.0000           -0.4265911             -11.6081
        63        2.0000           -0.4258011             -11.5866
        64        2.0000           -0.4226144             -11.4999
        65        2.0000           -0.4098811             -11.1534 (HOMO)
        66                         -0.3233984              -8.8001 (LUMO)
        67                         -0.2866683              -7.8006
        68                         -0.2709624              -7.3733
        69                         -0.2681988              -7.2981
        70                         -0.2676423              -7.2829
       ...                                ...                  ...
       144                          0.6634350              18.0530
      -------------------------------------------------------------
                  HL-Gap            0.0864827 Eh            2.3533 eV
             Fermi-level            0.0000000 Eh            0.0000 eV

 EHT (total)                   0 d,  0 h,  0 min,  0.036 sec
 EHT setup                      ...        0 min,  0.001 sec (  1.605%)
 Coordination number            ...        0 min,  0.001 sec (  3.177%)
 EEQ model density              ...        0 min,  0.000 sec (  1.024%)
 D4 Dispersion                  ...        0 min,  0.002 sec (  5.792%)
 Integral evaluation            ...        0 min,  0.001 sec (  2.844%)
 Cholesky factorization         ...        0 min,  0.009 sec ( 23.481%)
 Zeroth order Hamiltonian       ...        0 min,  0.020 sec ( 56.193%)
 Gradient calculation           ...        0 min,  0.002 sec (  4.292%)

         :::::::::::::::::::::::::::::::::::::::::::::::::::::
         ::                     SUMMARY                     ::
         :::::::::::::::::::::::::::::::::::::::::::::::::::::
         :: total energy             -69.685731688616 Eh    ::
         :: gradient norm              0.086074087835 Eh/a0 ::
         :: HOMO-LUMO gap              2.353314113450 eV    ::
         ::.................................................::
         :: H0 energy                -70.656046138440 Eh    ::
         :: repulsion energy           1.218676208323 Eh    ::
         :: electrostat energy        -0.144801861735 Eh    ::
         :: -> Gsolv                   0.000000000000 Eh    ::
         ::    -> Gsasa                0.000000000000 Eh    ::
         ::    -> Gshift               0.000000000000 Eh    ::
         :: dispersion energy         -0.030364590713 Eh    ::
         :: short-range corr.         -0.073195306050 Eh    ::
         :: add. restraining           0.000000000000 Eh    ::
         :: total charge               0.000000000000 e     ::
         :::::::::::::::::::::::::::::::::::::::::::::::::::::

           -------------------------------------------------
          |                Property Printout                |
           -------------------------------------------------

    * Orbital Energies and Occupations

         #    Occupation            Energy/Eh            Energy/eV
      -------------------------------------------------------------
         1        2.0000           -0.7113625             -19.3572
       ...           ...                  ...                  ...
        53        2.0000           -0.4680037             -12.7350
        54        2.0000           -0.4653109             -12.6618
        55        2.0000           -0.4635763             -12.6146
        56        2.0000           -0.4584813             -12.4759
        57        2.0000           -0.4443762             -12.0921
        58        2.0000           -0.4395995             -11.9621
        59        2.0000           -0.4349609             -11.8359
        60        2.0000           -0.4316918             -11.7469
        61        2.0000           -0.4308001             -11.7227
        62        2.0000           -0.4265911             -11.6081
        63        2.0000           -0.4258011             -11.5866
        64        2.0000           -0.4226144             -11.4999
        65        2.0000           -0.4098811             -11.1534 (HOMO)
        66                         -0.3233984              -8.8001 (LUMO)
        67                         -0.2866683              -7.8006
        68                         -0.2709624              -7.3733
        69                         -0.2681988              -7.2981
        70                         -0.2676423              -7.2829
        71                         -0.2638333              -7.1793
        72                         -0.2515031              -6.8437
        73                         -0.2266998              -6.1688
        74                         -0.1700707              -4.6279
        75                         -0.1471575              -4.0044
        76                         -0.1451436              -3.9496
       ...                                ...                  ...
       144                          0.6634350              18.0530
      -------------------------------------------------------------
                  HL-Gap            0.0864827 Eh            2.3533 eV
             Fermi-level            0.0000000 Eh            0.0000 eV

     #   Z          covCN         q      C6AA      α(0)
     1   6 c        2.920    -0.082    31.656     9.198
     2   6 c        2.920    -0.092    31.932     9.237
     3   6 c        2.924    -0.071    31.369     9.156
     4   6 c        2.973     0.013    29.194     8.835
     5   6 c        3.927     0.274    18.391     6.171
     6   7 n        1.838    -0.728    42.340     9.679
     7   6 c        2.999     0.557    18.938     7.116
     8   6 c        2.957     0.331    22.554     7.765
     9   6 c        2.914    -0.210    35.373     9.722
    10   6 c        2.922    -0.090    31.884     9.231
    11   6 c        2.985    -0.007    29.695     8.911
    12   6 c        2.915    -0.137    33.204     9.419
    13   6 c        2.916    -0.086    31.781     9.215
    14   6 c        2.916    -0.098    32.117     9.264
    15   6 c        2.920    -0.172    34.228     9.564
    16   6 c        2.971     0.423    20.993     7.492
    17   7 n        1.851    -0.699    41.183     9.547
    18   8 o        1.707    -0.470    22.069     6.356
    19   6 c        3.833     0.131    20.658     6.546
    20   6 c        2.971     0.015    29.162     8.830
    21   6 c        2.925    -0.121    32.731     9.353
    22   6 c        2.920    -0.074    31.443     9.166
    23   6 c        2.921    -0.083    31.700     9.204
    24   6 c        2.920    -0.090    31.888     9.231
    25   6 c        2.924    -0.082    31.655     9.198
    26   6 c        2.925    -0.124    32.833     9.367
    27   6 c        2.920    -0.070    31.339     9.151
    28   1 h        0.926     0.094     1.841     2.122
    29   1 h        0.926     0.099     1.793     2.094
    30   1 h        0.926     0.149     1.398     1.849
    31   1 h        0.924     0.046     2.367     2.406
    32   1 h        0.926     0.146     1.422     1.865
    33   1 h        0.925     0.104     1.745     2.066
    34   1 h        0.926     0.110     1.696     2.037
    35   1 h        0.926     0.101     1.779     2.086
    36   1 h        0.926     0.108     1.716     2.049
    37   1 h        0.926     0.163     1.309     1.789
    38   1 h        0.924     0.049     2.334     2.389
    39   1 h        0.926     0.091     1.869     2.138
    40   1 h        0.926     0.092     1.858     2.131
    41   1 h        0.926     0.093     1.848     2.126
    42   1 h        0.926     0.096     1.821     2.110
    43   1 h        0.926     0.118     1.629     1.996
    44   1 h        0.926     0.091     1.865     2.135
    45   1 h        0.926     0.092     1.855     2.130

 Mol. C6AA /au·bohr⁶  :      29301.859721
 Mol. C8AA /au·bohr⁸  :     743262.586655
 Mol. α(0) /au        :        273.440311


Wiberg/Mayer (AO) data.
largest (>0.10) Wiberg bond orders for each atom

 ---------------------------------------------------------------------------
     #   Z sym  total        # sym  WBO       # sym  WBO       # sym  WBO
 ---------------------------------------------------------------------------
     1   6 c    3.987 --     2 c    1.439    27 c    1.436    28 h    0.973
                             4 c    0.110
     2   6 c    3.988 --     3 c    1.444     1 c    1.439    29 h    0.972
                            26 c    0.112
     3   6 c    3.989 --     2 c    1.444     4 c    1.411    30 h    0.968
                            27 c    0.111
     4   6 c    3.975 --     3 c    1.411    26 c    1.409     5 c    0.994
                             1 c    0.110
     5   6 c    3.953 --     4 c    0.994     6 n    0.968    31 h    0.962
                            19 c    0.916
     6   7 n    2.813 --     7 c    1.553     5 c    0.968    18 o    0.171
     7   6 c    3.885 --     6 n    1.553    18 o    1.203     8 c    1.028
     8   6 c    3.935 --    17 n    1.433     9 c    1.275     7 c    1.028
     9   6 c    3.987 --    10 c    1.557     8 c    1.275    32 h    0.968
    10   6 c    3.981 --     9 c    1.557    11 c    1.273    33 h    0.968
    11   6 c    3.979 --    12 c    1.280    10 c    1.273    16 c    1.235
    12   6 c    3.987 --    13 c    1.556    11 c    1.280    34 h    0.969
                            15 c    0.117
    13   6 c    3.981 --    12 c    1.556    14 c    1.318    35 h    0.973
    14   6 c    3.986 --    15 c    1.558    13 c    1.318    36 h    0.973
    15   6 c    3.986 --    14 c    1.558    16 c    1.270    37 h    0.968
                            12 c    0.117
    16   6 c    3.947 --    15 c    1.270    17 n    1.248    11 c    1.235
    17   7 n    2.947 --     8 c    1.433    16 c    1.248
    18   8 o    2.475 --     7 c    1.203    19 c    0.966     6 n    0.171
    19   6 c    3.955 --    20 c    1.001    38 h    0.967    18 o    0.966
                             5 c    0.916
    20   6 c    3.975 --    25 c    1.409    21 c    1.406    19 c    1.001
                            23 c    0.110
    21   6 c    3.988 --    22 c    1.447    20 c    1.406    39 h    0.970
                            24 c    0.111
    22   6 c    3.988 --    21 c    1.447    23 c    1.436    40 h    0.972
                            25 c    0.111
    23   6 c    3.987 --    24 c    1.438    22 c    1.436    41 h    0.973
                            20 c    0.110
    24   6 c    3.988 --    25 c    1.445    23 c    1.438    42 h    0.972
                            21 c    0.111
    25   6 c    3.989 --    24 c    1.445    20 c    1.409    43 h    0.968
                            22 c    0.111
    26   6 c    3.988 --    27 c    1.446     4 c    1.409    44 h    0.970
                             2 c    0.112
    27   6 c    3.988 --    26 c    1.446     1 c    1.436    45 h    0.973
                             3 c    0.111
    28   1 h    0.983 --     1 c    0.973
    29   1 h    0.984 --     2 c    0.972
    30   1 h    0.987 --     3 c    0.968
    31   1 h    0.989 --     5 c    0.962
    32   1 h    0.992 --     9 c    0.968
    33   1 h    0.979 --    10 c    0.968
    34   1 h    0.979 --    12 c    0.969
    35   1 h    0.984 --    13 c    0.973
    36   1 h    0.984 --    14 c    0.973
    37   1 h    0.984 --    15 c    0.968
    38   1 h    0.994 --    19 c    0.967
    39   1 h    0.980 --    21 c    0.970
    40   1 h    0.983 --    22 c    0.972
    41   1 h    0.984 --    23 c    0.973
    42   1 h    0.984 --    24 c    0.972
    43   1 h    0.990 --    25 c    0.968
    44   1 h    0.980 --    26 c    0.970
    45   1 h    0.984 --    27 c    0.973
 ---------------------------------------------------------------------------

Topologies differ in total number of bonds
Writing topology from bond orders to xtbtopo.mol

 dipole moment from electron density (au)
     X       Y       Z   
   0.5593   2.4735  -1.0596  total (Debye):    6.986


           -------------------------------------------------
          | TOTAL ENERGY              -69.685731688616 Eh   |
          | GRADIENT NORM               0.086074087835 Eh/α |
          | HOMO-LUMO GAP               2.353314113450 eV   |
           -------------------------------------------------

------------------------------------------------------------------------
 * finished run on 2024/07/31 at 10:49:22.923     
------------------------------------------------------------------------
 total:
 * wall-time:     0 d,  0 h,  0 min,  0.096 sec
 *  cpu-time:     0 d,  0 h,  0 min,  2.107 sec
 * ratio c/w:    21.886 speedup
 SCF:
 * wall-time:     0 d,  0 h,  0 min,  0.037 sec
 *  cpu-time:     0 d,  0 h,  0 min,  0.934 sec
 * ratio c/w:    25.246 speedup

 Calculating WBOs... done.
      -----------------------------------------------------------      
     |                   =====================                   |     
     |                           x T B                           |     
     |                   =====================                   |     
     |                         S. Grimme                         |     
     |          Mulliken Center for Theoretical Chemistry        |     
     |                    University of Bonn                     |     
      -----------------------------------------------------------      

   * xtb version 6.4.1 (afa7bdf) compiled by 'ehlert@majestix' on 2021-06-10

   xtb is free software: you can redistribute it and/or modify it under
   the terms of the GNU Lesser General Public License as published by
   the Free Software Foundation, either version 3 of the License, or
   (at your option) any later version.
   
   xtb is distributed in the hope that it will be useful,
   but WITHOUT ANY WARRANTY; without even the implied warranty of
   MERCHANTABILITY or FITNESS FOR A PARTICULAR PURPOSE.  See the
   GNU Lesser General Public License for more details.
   
   Cite this work as:
   * C. Bannwarth, E. Caldeweyher, S. Ehlert, A. Hansen, P. Pracht,
     J. Seibert, S. Spicher, S. Grimme, WIREs Comput. Mol. Sci., 2020, 11,
     e01493. DOI: 10.1002/wcms.1493
   
   for GFN2-xTB:
   * C. Bannwarth, S. Ehlert and S. Grimme., J. Chem. Theory Comput., 2019,
     15, 1652-1671. DOI: 10.1021/acs.jctc.8b01176
   for GFN1-xTB:
   * S. Grimme, C. Bannwarth, P. Shushkov, J. Chem. Theory Comput., 2017,
     13, 1989-2009. DOI: 10.1021/acs.jctc.7b00118
   for GFN0-xTB:
   * P. Pracht, E. Caldeweyher, S. Ehlert, S. Grimme, ChemRxiv, 2019, preprint.
     DOI: 10.26434/chemrxiv.8326202.v1
   for GFN-FF:
   * S. Spicher and S. Grimme, Angew. Chem. Int. Ed., 2020, 59, 15665-15673.
     DOI: 10.1002/anie.202004239
   
   for DFT-D4:
   * E. Caldeweyher, C. Bannwarth and S. Grimme, J. Chem. Phys., 2017,
     147, 034112. DOI: 10.1063/1.4993215
   * E. Caldeweyher, S. Ehlert, A. Hansen, H. Neugebauer, S. Spicher,
     C. Bannwarth and S. Grimme, J. Chem. Phys., 2019, 150, 154122.
     DOI: 10.1063/1.5090222
   * E. Caldeweyher, J.-M. Mewes, S. Ehlert and S. Grimme, Phys. Chem. Chem. Phys.
     2020, 22, 8499-8512. DOI: 10.1039/D0CP00502A
   
   for sTDA-xTB:
   * S. Grimme and C. Bannwarth, J. Chem. Phys., 2016, 145, 054103.
     DOI: 10.1063/1.4959605
   
   in the mass-spec context:
   * V. Asgeirsson, C. Bauer and S. Grimme, Chem. Sci., 2017, 8, 4879.
     DOI: 10.1039/c7sc00601b
   * J. Koopman and S. Grimme, ACS Omega 2019, 4, 12, 15120-15133.
     DOI: 10.1021/acsomega.9b02011
   
   for metadynamics refer to:
   * S. Grimme, J. Chem. Theory Comput., 2019, 155, 2847-2862
     DOI: 10.1021/acs.jctc.9b00143
   
   for SPH calculations refer to:
   * S. Spicher and S. Grimme, J. Chem. Theory Comput., 2021, 17, 1701-1714
     DOI: 10.1021/acs.jctc.0c01306
   
   with help from (in alphabetical order)
   P. Atkinson, C. Bannwarth, F. Bohle, G. Brandenburg, E. Caldeweyher
   M. Checinski, S. Dohm, S. Ehlert, S. Ehrlich, I. Gerasimov, J. Koopman
   C. Lavigne, S. Lehtola, F. März, M. Müller, F. Musil, H. Neugebauer
   J. Pisarek, C. Plett, P. Pracht, J. Seibert, P. Shushkov, S. Spicher
   M. Stahn, M. Steiner, T. Strunk, J. Stückrath, T. Rose, and J. Unsleber
   
 * started run on 2024/07/31 at 10:49:22.966     

           -------------------------------------------------
          |                Calculation Setup                |
           -------------------------------------------------

          program call               : xtb tmpcoord --gfnff --sp
          hostname                   : node30
          coordinate file            : tmpcoord
          omp threads                :                    28
          number of atoms            :                    45
          number of electrons        :                   130
          charge                     :                     0
          spin                       :                   0.0
          first test random number   :      0.55684073191670

   ID    Z sym.   atoms
    1    6 c      1-5, 7-16, 19-27
    2    7 n      6, 17
    3    8 o      18
    4    1 h      28-45
 
          ==================== Thresholds ====================
          CN  :   150.00000
          rep :   500.00000
          disp:  2500.00000
          HB1 :   250.00000
          HB2 :   450.00000
 
          Pauling EN used:
          Z : 1  EN :  2.20
          Z : 6  EN :  2.55
          Z : 7  EN :  3.04
          Z : 8  EN :  3.44
          electric field strengths (au): 0.000
 
           ------------------------------------------------- 
          |           Force Field Initialization            |
           ------------------------------------------------- 
 
          distances ...
          ----------------------------------------
          generating topology and atomic info file ...
          pair mat ...
          computing topology distances matrix with Floyd-Warshall algo ...
          making topology EEQ charges ...
          #fragments for EEQ constrain: 1
          ----------------------------------------
          generating topology and atomic info file ...
          pair mat ...
          computing topology distances matrix with Floyd-Warshall algo ...
          making topology EEQ charges ...
          #fragments for EEQ constrain: 1
          rings ...
          # BATM   479
          # H in HB   16
          doing iterative Hueckel for 3 subsystem(s) ...
 
  atom   neighbors  erfCN metchar sp-hybrid imet pi  qest     coordinates
    1  c       3    2.81   0.00         2    0    1  -0.019   -7.747156   -4.719659    0.847235
    2  c       3    2.81   0.00         2    0    1  -0.033   -5.481894   -4.645844   -0.456993
    3  c       3    2.82   0.00         2    0    1  -0.030   -3.502636   -3.186360    0.428051
    4  c       3    2.82   0.00         2    0    1  -0.003   -3.770774   -1.791471    2.631886
    5  c       4    3.57   0.00         3    0    0   0.041   -1.686209   -0.074464    3.536376
    6  n       2    1.94   0.00         2    0    1  -0.235    0.763684   -0.859984    2.672665
    7  c       3    2.99   0.00         2    0    1   0.152    1.754211    0.926264    1.430925
    8  c       3    2.86   0.00         2    0    1   0.055    4.235928    0.851931    0.217812
    9  c       3    2.81   0.00         2    0    1  -0.025    5.083700    2.977596   -1.167196
   10  c       3    2.82   0.00         2    0    1  -0.030    7.407925    2.878247   -2.286749
   11  c       3    2.83   0.00         2    0    1   0.003    8.891532    0.677879   -2.031974
   12  c       3    2.81   0.00         2    0    1  -0.032   11.311723    0.403820   -3.105003
   13  c       3    2.81   0.00         2    0    1  -0.030   12.644853   -1.784726   -2.774977
   14  c       3    2.81   0.00         2    0    1  -0.031   11.621078   -3.790344   -1.366476
   15  c       3    2.81   0.00         2    0    1  -0.018    9.277580   -3.590451   -0.301986
   16  c       3    2.87   0.00         2    0    1   0.057    7.853457   -1.353956   -0.603109
   17  n       2    1.96   0.00         2    0    1  -0.221    5.563329   -1.220862    0.477878
   18  o       2    1.92   0.00         3    0    1  -0.347    0.402285    3.102872    1.209267
   19  c       4    3.55   0.00         3    0    0   0.079   -1.947127    2.705889    2.456965
   20  c       3    2.81   0.00         2    0    1  -0.003   -4.148350    2.977485    0.683683
   21  c       3    2.82   0.00         2    0    1  -0.030   -6.486111    3.722427    1.614998
   22  c       3    2.81   0.00         2    0    1  -0.033   -8.563925    3.823833    0.035166
   23  c       3    2.81   0.00         2    0    1  -0.019   -8.323205    3.194121   -2.492711
   24  c       3    2.81   0.00         2    0    1  -0.033   -5.991985    2.478520   -3.436301
   25  c       3    2.82   0.00         2    0    1  -0.030   -3.914455    2.363529   -1.855711
   26  c       3    2.82   0.00         2    0    1  -0.030   -6.036668   -1.896794    3.950566
   27  c       3    2.81   0.00         2    0    1  -0.033   -8.016380   -3.350875    3.060230
   28  h       1    0.97   0.00         0    0    0   0.036   -9.296581   -5.850075    0.149032
   29  h       1    0.97   0.00         0    0    0   0.053   -5.256015   -5.724279   -2.175239
   30  h       1    0.97   0.00         0    0    0   0.048   -1.723295   -3.141327   -0.569067
   31  h       1    0.97   0.00         0    0    0   0.047   -1.681973   -0.052687    5.607952
   32  h       1    0.97   0.00         0    0    0   0.059    3.884079    4.619067   -1.306617
   33  h       1    0.97   0.00         0    0    0   0.052    8.132342    4.457616   -3.363398
   34  h       1    0.97   0.00         0    0    0   0.050   12.089960    1.952279   -4.186878
   35  h       1    0.97   0.00         0    0    0   0.051   14.501996   -1.988794   -3.597088
   36  h       1    0.97   0.00         0    0    0   0.050   12.713485   -5.498741   -1.133412
   37  h       1    0.97   0.00         0    0    0   0.046    8.450507   -5.100873    0.787258
   38  h       1    0.97   0.00         0    0    0   0.045   -2.095246    4.083497    3.997366
   39  h       1    0.97   0.00         0    0    0   0.048   -6.675980    4.216357    3.587350
   40  h       1    0.97   0.00         0    0    0   0.053  -10.376627    4.394459    0.779334
   41  h       1    0.97   0.00         0    0    0   0.036   -9.948669    3.266241   -3.724416
   42  h       1    0.97   0.00         0    0    0   0.053   -5.790356    1.995115   -5.408930
   43  h       1    0.97   0.00         0    0    0   0.048   -2.096811    1.802835   -2.595391
   44  h       1    0.97   0.00         0    0    0   0.048   -6.251481   -0.832608    5.680681
   45  h       1    0.97   0.00         0    0    0   0.053   -9.773748   -3.417086    4.096755
 
          #atoms :   45
          #bonds :   49
          #angl  :   81
          #tors  :   145
          #nmol  :   1
          #optfrag :   1
           ------------------------------------------------- 
          |                   G F N - F F                   |
          |          A general generic force-field          |
          |                  Version 1.0.3                  | 
           ------------------------------------------------- 
          nhb123   1946 246 0

 E+G (total)                   0 d,  0 h,  0 min,  0.003 sec
 distance/D3 list               ...        0 min,  0.000 sec (  0.631%)
 non bonded repulsion           ...        0 min,  0.000 sec (  8.726%)
 dCN                            ...        0 min,  0.000 sec (  2.741%)
 EEQ energy and q               ...        0 min,  0.000 sec ( 12.661%)
 D3                             ...        0 min,  0.000 sec ( 12.060%)
 EEQ gradient                   ...        0 min,  0.000 sec (  8.500%)
 bonds                          ...        0 min,  0.000 sec (  9.484%)
 bend and torsion               ...        0 min,  0.001 sec ( 16.032%)
 bonded ATM                     ...        0 min,  0.000 sec (  1.419%)
 HB/XB (incl list setup)        ...        0 min,  0.001 sec ( 21.093%)

         :::::::::::::::::::::::::::::::::::::::::::::::::::::
         ::                     SUMMARY                     ::
         :::::::::::::::::::::::::::::::::::::::::::::::::::::
         :: total energy              -9.511690379779 Eh    ::
         :: gradient norm              0.071764797995 Eh/a0 ::
         ::.................................................::
         :: bond energy              -10.060467915834 Eh    ::
         :: angle energy               0.011771308757 Eh    ::
         :: torsion energy             0.007009185851 Eh    ::
         :: repulsion energy           0.672290860409 Eh    ::
         :: electrostat energy        -0.085794068226 Eh    ::
         :: dispersion energy         -0.044962169485 Eh    ::
         :: HB energy                 -0.000357863446 Eh    ::
         :: XB energy                  0.000000000000 Eh    ::
         :: bonded atm energy         -0.011179717805 Eh    ::
         :: external energy            0.000000000000 Eh    ::
         :: add. restraining           0.000000000000 Eh    ::
         :: total charge               0.000000000000 e     ::
         :::::::::::::::::::::::::::::::::::::::::::::::::::::

           -------------------------------------------------
          |                Property Printout                |
           -------------------------------------------------

           -------------------------------------------------
          | TOTAL ENERGY               -9.511690379779 Eh   |
          | GRADIENT NORM               0.071764797995 Eh/α |
           -------------------------------------------------

------------------------------------------------------------------------
 * finished run on 2024/07/31 at 10:49:23.017     
------------------------------------------------------------------------
 total:
 * wall-time:     0 d,  0 h,  0 min,  0.051 sec
 *  cpu-time:     0 d,  0 h,  0 min,  0.859 sec
 * ratio c/w:    16.761 speedup
 SCF:
 * wall-time:     0 d,  0 h,  0 min,  0.005 sec
 *  cpu-time:     0 d,  0 h,  0 min,  0.124 sec
 * ratio c/w:    23.081 speedup

 Calculating NCI flexibility... done.
     covalent flexibility measure :   0.039
 non-covalent flexibility measure :   1.000
 flexibility measure :   0.117
 t(MTD) / ps set by command line  :     0.5
 t(MTD) / ps    :     0.5
 Σ(t(MTD)) / ps :     7.0 (14 MTDs)
 
-------------------------------------
Starting a trial MTD to test settings
-------------------------------------
 Estimated runtime for one MTD (0.5 ps) on a single thread: 1 min 10 sec
 Estimated runtime for a batch of 14 MTDs on 28 threads: 35 sec
 
 list of Vbias parameters applied:
$metadyn    0.00300   1.300
$metadyn    0.00150   1.300
$metadyn    0.00075   1.300
$metadyn    0.00300   0.780
$metadyn    0.00150   0.780
$metadyn    0.00075   0.780
$metadyn    0.00300   0.468
$metadyn    0.00150   0.468
$metadyn    0.00075   0.468
$metadyn    0.00300   0.281
$metadyn    0.00150   0.281
$metadyn    0.00075   0.281
$metadyn    0.00100   0.100
$metadyn    0.00500   0.800
 
*******************************************************************************************
**                        N E W    I T E R A T I O N    C Y C L E                        **
*******************************************************************************************
 
========================================
            MTD Iteration  1
========================================
 
     ========================================
     |         Meta-MD (MTD) Sampling       |
     ========================================
 
Starting Meta-MD   4 with the settings:
     MD time /ps        :     0.5
     dt /fs             :     1.5
     dumpstep(trj) /fs  :     100
     dumpstep(Vbias)/ps :     1.0
     Vbias factor k /Eh :  0.1350
     Vbias exp α /bohr⁻²:    0.78
Starting Meta-MD   9 with the settings:
     MD time /ps        :     0.5
     dt /fs             :     1.5
     dumpstep(trj) /fs  :     100
     dumpstep(Vbias)/ps :     1.0
     Vbias factor k /Eh :  0.0338
     Vbias exp α /bohr⁻²:    0.47
Starting Meta-MD   5 with the settings:
     MD time /ps        :     0.5
     dt /fs             :     1.5
     dumpstep(trj) /fs  :     100
     dumpstep(Vbias)/ps :     1.0
     Vbias factor k /Eh :  0.0675
     Vbias exp α /bohr⁻²:    0.78
Starting Meta-MD  14 with the settings:
     MD time /ps        :     0.5
     dt /fs             :     1.5
     dumpstep(trj) /fs  :     100
     dumpstep(Vbias)/ps :     1.0
     Vbias factor k /Eh :  0.2250
     Vbias exp α /bohr⁻²:    0.80
Starting Meta-MD   8 with the settings:
     MD time /ps        :     0.5
     dt /fs             :     1.5
     dumpstep(trj) /fs  :     100
     dumpstep(Vbias)/ps :     1.0
     Vbias factor k /Eh :  0.0675
     Vbias exp α /bohr⁻²:    0.47
Starting Meta-MD   6 with the settings:
     MD time /ps        :     0.5
     dt /fs             :     1.5
     dumpstep(trj) /fs  :     100
     dumpstep(Vbias)/ps :     1.0
     Vbias factor k /Eh :  0.0338
     Vbias exp α /bohr⁻²:    0.78
Starting Meta-MD  12 with the settings:
     MD time /ps        :     0.5
     dt /fs             :     1.5
     dumpstep(trj) /fs  :     100
     dumpstep(Vbias)/ps :     1.0
     Vbias factor k /Eh :  0.0338
     Vbias exp α /bohr⁻²:    0.28
Starting Meta-MD  10 with the settings:
     MD time /ps        :     0.5
     dt /fs             :     1.5
     dumpstep(trj) /fs  :     100
     dumpstep(Vbias)/ps :     1.0
     Vbias factor k /Eh :  0.1350
     Vbias exp α /bohr⁻²:    0.28
Starting Meta-MD   7 with the settings:
     MD time /ps        :     0.5
     dt /fs             :     1.5
     dumpstep(trj) /fs  :     100
     dumpstep(Vbias)/ps :     1.0
     Vbias factor k /Eh :  0.1350
     Vbias exp α /bohr⁻²:    0.47
Starting Meta-MD   2 with the settings:
     MD time /ps        :     0.5
     dt /fs             :     1.5
     dumpstep(trj) /fs  :     100
     dumpstep(Vbias)/ps :     1.0
     Vbias factor k /Eh :  0.0675
     Vbias exp α /bohr⁻²:    1.30
Starting Meta-MD   3 with the settings:
     MD time /ps        :     0.5
     dt /fs             :     1.5
     dumpstep(trj) /fs  :     100
     dumpstep(Vbias)/ps :     1.0
     Vbias factor k /Eh :  0.0338
     Vbias exp α /bohr⁻²:    1.30
Starting Meta-MD  11 with the settings:
     MD time /ps        :     0.5
     dt /fs             :     1.5
     dumpstep(trj) /fs  :     100
     dumpstep(Vbias)/ps :     1.0
     Vbias factor k /Eh :  0.0675
     Vbias exp α /bohr⁻²:    0.28
Starting Meta-MD  13 with the settings:
     MD time /ps        :     0.5
     dt /fs             :     1.5
     dumpstep(trj) /fs  :     100
     dumpstep(Vbias)/ps :     1.0
     Vbias factor k /Eh :  0.0450
     Vbias exp α /bohr⁻²:    0.10
Starting Meta-MD   1 with the settings:
     MD time /ps        :     0.5
     dt /fs             :     1.5
     dumpstep(trj) /fs  :     100
     dumpstep(Vbias)/ps :     1.0
     Vbias factor k /Eh :  0.1350
     Vbias exp α /bohr⁻²:    1.30
*Meta-MTD 11 finished*
*Meta-MTD 9 finished*
*Meta-MTD 4 finished*
*Meta-MTD 13 finished*
*Meta-MTD 5 finished*
*Meta-MTD 3 finished*
*Meta-MTD 1 finished*
*Meta-MTD 12 finished*
*Meta-MTD 8 finished*
*Meta-MTD 2 finished*
*Meta-MTD 7 finished*
*Meta-MTD 10 finished*
*Meta-MTD 14 finished*
*Meta-MTD 6 finished*
 
-----------------------
Multilevel Optimization
-----------------------
 
 -------------------------
 1. crude pre-optimization
 -------------------------
 Optimizing all 70 structures from file "crest_rotamers_0.xyz" ...
 1 2 3 4 5 6 7 8 9 10 11 12 13 14 15 16 17 18 19 20 21 22 23 24 25 26 27 28 29 30 31 32 33 34 35 36 37 38 39 40 41 42 43 44 45 46 47 48 49 50 51 52 53 54 55 56 57 58 59 60 61 62 63 64 65 66 67 68 69 70
 done.
 running RMSDs...
 done.
 E lowest :   -70.47038
 58 structures remain within    12.00 kcal/mol window
 
 -------------------------------------
 2. optimization with tight thresholds
 -------------------------------------
 Optimizing all 59 structures from file "crest_rotamers_1.xyz" ...
 1 2 3 4 5 6 7 8 9 10 11 12 13 14 15 16 17 18 19 20 21 22 23 24 25 26 27 28 29 30 31 32 33 34 35 36 37 38 39 40 41 42 43 44 45 46 47 48 49 50 51 52 53 54 55 56 57 58 59
 done.
 running RMSDs...
 done.
 E lowest :   -70.47320
 6 structures remain within     6.00 kcal/mol window
 
 
========================================
            MTD Iteration  2
========================================
 
     ========================================
     |         Meta-MD (MTD) Sampling       |
     ========================================
 
Starting Meta-MD   1 with the settings:
     MD time /ps        :     0.5
     dt /fs             :     1.5
     dumpstep(trj) /fs  :     100
     dumpstep(Vbias)/ps :     1.0
     Vbias factor k /Eh :  0.1350
     Vbias exp α /bohr⁻²:    1.30
Starting Meta-MD   2 with the settings:
     MD time /ps        :     0.5
     dt /fs             :     1.5
     dumpstep(trj) /fs  :     100
     dumpstep(Vbias)/ps :     1.0
     Vbias factor k /Eh :  0.0675
     Vbias exp α /bohr⁻²:    1.30
Starting Meta-MD   3 with the settings:
     MD time /ps        :     0.5
     dt /fs             :     1.5
     dumpstep(trj) /fs  :     100
     dumpstep(Vbias)/ps :     1.0
     Vbias factor k /Eh :  0.0338
     Vbias exp α /bohr⁻²:    1.30
Starting Meta-MD   4 with the settings:
     MD time /ps        :     0.5
     dt /fs             :     1.5
     dumpstep(trj) /fs  :     100
     dumpstep(Vbias)/ps :     1.0
     Vbias factor k /Eh :  0.1350
     Vbias exp α /bohr⁻²:    0.78
Starting Meta-MD   5 with the settings:
     MD time /ps        :     0.5
     dt /fs             :     1.5
     dumpstep(trj) /fs  :     100
     dumpstep(Vbias)/ps :     1.0
     Vbias factor k /Eh :  0.0675
     Vbias exp α /bohr⁻²:    0.78
Starting Meta-MD   6 with the settings:
     MD time /ps        :     0.5
     dt /fs             :     1.5
     dumpstep(trj) /fs  :     100
     dumpstep(Vbias)/ps :     1.0
     Vbias factor k /Eh :  0.0338
     Vbias exp α /bohr⁻²:    0.78
Starting Meta-MD   7 with the settings:
     MD time /ps        :     0.5
     dt /fs             :     1.5
     dumpstep(trj) /fs  :     100
     dumpstep(Vbias)/ps :     1.0
     Vbias factor k /Eh :  0.1350
     Vbias exp α /bohr⁻²:    0.47
Starting Meta-MD   8 with the settings:
     MD time /ps        :     0.5
     dt /fs             :     1.5
     dumpstep(trj) /fs  :     100
     dumpstep(Vbias)/ps :     1.0
     Vbias factor k /Eh :  0.0675
     Vbias exp α /bohr⁻²:    0.47
Starting Meta-MD   9 with the settings:
     MD time /ps        :     0.5
     dt /fs             :     1.5
     dumpstep(trj) /fs  :     100
     dumpstep(Vbias)/ps :     1.0
     Vbias factor k /Eh :  0.0338
     Vbias exp α /bohr⁻²:    0.47
Starting Meta-MD  10 with the settings:
     MD time /ps        :     0.5
     dt /fs             :     1.5
     dumpstep(trj) /fs  :     100
     dumpstep(Vbias)/ps :     1.0
     Vbias factor k /Eh :  0.1350
     Vbias exp α /bohr⁻²:    0.28
Starting Meta-MD  11 with the settings:
     MD time /ps        :     0.5
     dt /fs             :     1.5
     dumpstep(trj) /fs  :     100
     dumpstep(Vbias)/ps :     1.0
     Vbias factor k /Eh :  0.0675
     Vbias exp α /bohr⁻²:    0.28
Starting Meta-MD  12 with the settings:
     MD time /ps        :     0.5
     dt /fs             :     1.5
     dumpstep(trj) /fs  :     100
     dumpstep(Vbias)/ps :     1.0
     Vbias factor k /Eh :  0.0338
     Vbias exp α /bohr⁻²:    0.28
*Meta-MTD 8 finished*
*Meta-MTD 7 finished*
*Meta-MTD 1 finished*
*Meta-MTD 3 finished*
*Meta-MTD 10 finished*
*Meta-MTD 12 finished*
*Meta-MTD 4 finished*
*Meta-MTD 9 finished*
*Meta-MTD 6 finished*
*Meta-MTD 11 finished*
*Meta-MTD 5 finished*
*Meta-MTD 2 finished*
 
-----------------------
Multilevel Optimization
-----------------------
 
 -------------------------
 1. crude pre-optimization
 -------------------------
 Optimizing all 60 structures from file "crest_rotamers_0.xyz" ...
 1 2 3 4 5 6 7 8 9 10 11 12 13 14 15 16 17 18 19 20 21 22 23 24 25 26 27 28 29 30 31 32 33 34 35 36 37 38 39 40 41 42 43 44 45 46 47 48 49 50 51 52 53 54 55 56 57 58 59 60
 done.
 running RMSDs...
 done.
 E lowest :   -70.47266
 52 structures remain within    12.00 kcal/mol window
 
 -------------------------------------
 2. optimization with tight thresholds
 -------------------------------------
 Optimizing all 53 structures from file "crest_rotamers_1.xyz" ...
 1 2 3 4 5 6 7 8 9 10 11 12 13 14 15 16 17 18 19 20 21 22 23 24 25 26 27 28 29 30 31 32 33 34 35 36 37 38 39 40 41 42 43 44 45 46 47 48 49 50 51 52 53
 done.
 running RMSDs...
 done.
 E lowest :   -70.47320
 4 structures remain within     6.00 kcal/mol window
 
========================================
            MTD Iterations done         
========================================
 Collecting ensmbles.
 running RMSDs...
 done.
 E lowest :   -70.47320
 7 structures remain within     6.00 kcal/mol window
 
-----------------------------------------------
Additional regular MDs on lowest 3 conformer(s)
-----------------------------------------------
Starting MD   1 with the settings:
     MD time /ps        :     0.2
     MD Temperature /K  :   400.0
     dt /fs             :     1.5
     dumpstep(trj) /fs  :     100
Starting MD   2 with the settings:
     MD time /ps        :     0.2
     MD Temperature /K  :   500.0
     dt /fs             :     1.5
     dumpstep(trj) /fs  :     100
Starting MD   3 with the settings:
     MD time /ps        :     0.2
     MD Temperature /K  :   400.0
     dt /fs             :     1.5
     dumpstep(trj) /fs  :     100
Starting MD   4 with the settings:
     MD time /ps        :     0.2
     MD Temperature /K  :   500.0
     dt /fs             :     1.5
     dumpstep(trj) /fs  :     100
Starting MD   6 with the settings:
     MD time /ps        :     0.2
     MD Temperature /K  :   500.0
     dt /fs             :     1.5
     dumpstep(trj) /fs  :     100
Starting MD   5 with the settings:
     MD time /ps        :     0.2
     MD Temperature /K  :   400.0
     dt /fs             :     1.5
     dumpstep(trj) /fs  :     100
*MD 1 finished*
*MD 5 finished*
*MD 2 finished*
*MD 6 finished*
*MD 3 finished*
*MD 4 finished*
 Appending file crest_rotamers_1.xyz with new structures
 
 -------------------------------------------
 Ensemble optimization with tight thresholds
 -------------------------------------------
 Optimizing all 19 structures from file "crest_rotamers_1.xyz" ...
 1 2 3 4 5 6 7 8 9 10 11 12 13 14 15 16 17 18 19
 done.
 running RMSDs...
 done.
 E lowest :   -70.47320
 7 structures remain within     6.00 kcal/mol window
 
 
     ========================================
     |        Structure Crossing (GC)       |
     ========================================
 =============================
  # threads =          28
 =============================
 input  file name : crest_rotamers_3.xyz
number of atoms                :    45
number of points on xyz files  :     7
conformer energy window  /kcal :    6.00
CN per atom difference cut-off :  0.3000
RMSD threshold                 :  0.5000
max. # of generated structures : 25
 reading xyz file ...
 # in E window                  7
 generating pairs ...          27
 generated pairs           :          21
 number of clash discarded :           0
 average rmsd w.r.t input  : 3.87289
 sd of ensemble            : 1.22234
 number of new structures      :           8
 removed identical structures  :          13
 writing            8  TMPCONF* dirs ...
 --------------------------
 GC: loose pre-optimization
 --------------------------
 Starting optimization of generated structures
 8 jobs to do.
 1 2 3 4 5 6 7 8 
 done.
 Now appending opt.xyz file with new structures
 running RMSDs...
 done.
 E lowest :   -70.47319
 8 structures remain within    10.00 kcal/mol window
 --------------------------------------
 GC: optimization with tight thresholds
 --------------------------------------
 Optimizing all 8 structures from file "crest_rotamers_1.xyz" ...
 1 2 3 4 5 6 7 8
 done.
 running RMSDs...
 done.
 E lowest :   -70.47320
 
 
   ================================================
   |           Final Geometry Optimization        |
   ================================================
 ------------------------------------------------
 Ensemble optimization with very tight thresholds
 ------------------------------------------------
 Optimizing all 9 structures from file "crest_rotamers_4.xyz" ...
 1 2 3 4 5 6 7 8 9
 done.
 running RMSDs...
 done.
 E lowest :   -70.47321
 8 structures remain within     6.00 kcal/mol window
 
 input  file name : crest_rotamers_5.xyz
 output file name : crest_rotamers_6.xyz
 number of atoms                :   45
 number of points on xyz files  :   9
 RMSD threshold                 :   0.2500
 Bconst threshold               :   0.0100
 population threshold           :   0.0500
 conformer energy window  /kcal :   6.0000
 # fragment in coord            :     1
 # bonds in reference structure :    49
   => # of C=C bonds :     9
 number of reliable points      :     9
 reference state Etot :  -70.4732053100000
 number of doubles removed by rot/RMSD         :           1
 total number unique points considered further :           8
       Erel/kcal        Etot weight/tot  conformer     set   degen     origin
       1   0.000   -70.47321    0.22411    0.89525       1       4     mtd5
       2   0.001   -70.47320    0.22390                                mtd9
       3   0.001   -70.47320    0.22371                                mtd1
       4   0.002   -70.47320    0.22353                                gc
       5   1.265   -70.47119    0.02653    0.10475       2       4     mtd8
       6   1.267   -70.47119    0.02646                                gc
       7   1.276   -70.47117    0.02604                                gc
       8   1.284   -70.47116    0.02573                                gc
T /K                                  :   298.15
E lowest                              :   -70.47321
ensemble average energy (kcal)        :    0.134
ensemble entropy (J/mol K, cal/mol K) :   14.315    3.421
ensemble free energy (kcal/mol)       :   -1.020
population of lowest in %             :   89.525
 number of unique conformers for further calc            2
 list of relative energies saved as "crest.energies"
 
 -----------------
 Wall Time Summary
 -----------------
             test MD wall time :         0h : 0m :17s
                 MTD wall time :         0h : 0m :32s
      multilevel OPT wall time :         0h : 0m :32s
                  MD wall time :         0h : 0m :10s
                  GC wall time :         0h : 0m : 3s
--------------------
Overall wall time  : 0h : 1m :37s
 
 CREST terminated normally.
