 
       ==============================================
       |                                            |
       |                 C R E S T                  |
       |                                            |
       |  Conformer-Rotamer Ensemble Sampling Tool  |
       |          based on the GFN methods          |
       |             P.Pracht, S.Grimme             |
       |          Universitaet Bonn, MCTC           |
       ==============================================
       Version 2.11.2, Fr 17. Dec 12:10:44 CEST 2021
  Using the xTB program. Compatible with xTB version 6.4.0
 
   Cite work conducted with this code as

   P. Pracht, F. Bohle, S. Grimme, PCCP, 2020, 22, 7169-7192.

   and  S. Grimme, JCTC, 2019, 15, 2847-2862.
 
   with help from:
   C.Bannwarth, F.Bohle, S.Ehlert, S.Grimme,
   C. Plett, P.Pracht, S. Spicher
 
   This program is distributed in the hope that it will be useful,
   but WITHOUT ANY WARRANTY; without even the implied warranty of
   MERCHANTABILITY or FITNESS FOR A PARTICULAR PURPOSE.

 Command line input:
 > crest 00194_r_0.xyz -T 28 -gfn2 -chrg 0 -uhf 0 -rthr 0.25 -shake 1 --mdlen 0.5

  -T 28 (CPUs/Threads selected)
  -gfn2 : Use of GFN2-xTB requested.
  -chrg 0
  -uhf 0
  -rthr 0.25
  --mdlen 0.5 (MD length in ps)
 
 -------------------------
 xTB Geometry Optimization
 -------------------------
 Geometry successfully optimized.
 
------------------------------------------------
Generating MTD length from a flexibility measure
------------------------------------------------
      -----------------------------------------------------------      
     |                   =====================                   |     
     |                           x T B                           |     
     |                   =====================                   |     
     |                         S. Grimme                         |     
     |          Mulliken Center for Theoretical Chemistry        |     
     |                    University of Bonn                     |     
      -----------------------------------------------------------      

   * xtb version 6.4.1 (afa7bdf) compiled by 'ehlert@majestix' on 2021-06-10

   xtb is free software: you can redistribute it and/or modify it under
   the terms of the GNU Lesser General Public License as published by
   the Free Software Foundation, either version 3 of the License, or
   (at your option) any later version.
   
   xtb is distributed in the hope that it will be useful,
   but WITHOUT ANY WARRANTY; without even the implied warranty of
   MERCHANTABILITY or FITNESS FOR A PARTICULAR PURPOSE.  See the
   GNU Lesser General Public License for more details.
   
   Cite this work as:
   * C. Bannwarth, E. Caldeweyher, S. Ehlert, A. Hansen, P. Pracht,
     J. Seibert, S. Spicher, S. Grimme, WIREs Comput. Mol. Sci., 2020, 11,
     e01493. DOI: 10.1002/wcms.1493
   
   for GFN2-xTB:
   * C. Bannwarth, S. Ehlert and S. Grimme., J. Chem. Theory Comput., 2019,
     15, 1652-1671. DOI: 10.1021/acs.jctc.8b01176
   for GFN1-xTB:
   * S. Grimme, C. Bannwarth, P. Shushkov, J. Chem. Theory Comput., 2017,
     13, 1989-2009. DOI: 10.1021/acs.jctc.7b00118
   for GFN0-xTB:
   * P. Pracht, E. Caldeweyher, S. Ehlert, S. Grimme, ChemRxiv, 2019, preprint.
     DOI: 10.26434/chemrxiv.8326202.v1
   for GFN-FF:
   * S. Spicher and S. Grimme, Angew. Chem. Int. Ed., 2020, 59, 15665-15673.
     DOI: 10.1002/anie.202004239
   
   for DFT-D4:
   * E. Caldeweyher, C. Bannwarth and S. Grimme, J. Chem. Phys., 2017,
     147, 034112. DOI: 10.1063/1.4993215
   * E. Caldeweyher, S. Ehlert, A. Hansen, H. Neugebauer, S. Spicher,
     C. Bannwarth and S. Grimme, J. Chem. Phys., 2019, 150, 154122.
     DOI: 10.1063/1.5090222
   * E. Caldeweyher, J.-M. Mewes, S. Ehlert and S. Grimme, Phys. Chem. Chem. Phys.
     2020, 22, 8499-8512. DOI: 10.1039/D0CP00502A
   
   for sTDA-xTB:
   * S. Grimme and C. Bannwarth, J. Chem. Phys., 2016, 145, 054103.
     DOI: 10.1063/1.4959605
   
   in the mass-spec context:
   * V. Asgeirsson, C. Bauer and S. Grimme, Chem. Sci., 2017, 8, 4879.
     DOI: 10.1039/c7sc00601b
   * J. Koopman and S. Grimme, ACS Omega 2019, 4, 12, 15120-15133.
     DOI: 10.1021/acsomega.9b02011
   
   for metadynamics refer to:
   * S. Grimme, J. Chem. Theory Comput., 2019, 155, 2847-2862
     DOI: 10.1021/acs.jctc.9b00143
   
   for SPH calculations refer to:
   * S. Spicher and S. Grimme, J. Chem. Theory Comput., 2021, 17, 1701-1714
     DOI: 10.1021/acs.jctc.0c01306
   
   with help from (in alphabetical order)
   P. Atkinson, C. Bannwarth, F. Bohle, G. Brandenburg, E. Caldeweyher
   M. Checinski, S. Dohm, S. Ehlert, S. Ehrlich, I. Gerasimov, J. Koopman
   C. Lavigne, S. Lehtola, F. März, M. Müller, F. Musil, H. Neugebauer
   J. Pisarek, C. Plett, P. Pracht, J. Seibert, P. Shushkov, S. Spicher
   M. Stahn, M. Steiner, T. Strunk, J. Stückrath, T. Rose, and J. Unsleber
   
 * started run on 2025/01/21 at 11:24:54.237     

           -------------------------------------------------
          |                Calculation Setup                |
           -------------------------------------------------

          program call               : xtb tmpcoord --gfn0 --sp
          hostname                   : node25
          coordinate file            : tmpcoord
          omp threads                :                    28
          number of atoms            :                    62
          number of electrons        :                   174
          charge                     :                     0
          spin                       :                   0.0
          first test random number   :      0.09283348680048

   ID    Z sym.   atoms
    1    6 c      1-17, 19-34, 36
    2    8 o      18, 35
    3    1 h      37-62
########################################################################
[WARNING] Please study the warnings concerning your input carefully
-1- prog_main_parseArguments: The use of '--gfn0' is discouraged, please use '--gfn 0' next time
########################################################################

           -------------------------------------------------
          |                 G F N 0 - x T B                 |
           -------------------------------------------------

        Reference                      10.26434/chemrxiv.8326202.v1
      * Hamiltonian:
        H0-scaling (s, p, d)           2.000000    2.486800    2.270000
        zeta-weighting                 1.000000
      * Dispersion:
        s8                             2.850000
        a1                             0.800000
        a2                             4.600000
        s9                             0.000000
      * Repulsion:
        kExp                           1.500000
        rExp                           1.000000
      * Coulomb:
        alpha                          0.000000
        third order                    atomic
        anisotropic                    false
      * Polar bond correction:
        rad-shift                      0.053700
        strength                      -0.012900
        en-exp                         3.484700
        en-scale                       0.509700


          ...................................................
          :                      SETUP                      :
          :.................................................:
          :  # basis functions                 196          :
          :  # atomic orbitals                 196          :
          :  # shells                          124          :
          :  # electrons                       174          :
          :  electronic temp.          300.0000000     K    :
          :  accuracy                    1.0000000          :
          :  -> integral cutoff          0.2500000E+02      :
          :  -> integral neglect         0.1000000E-07      :
          ...................................................
  Checking positiv definite overlap ...  done.
 

         #    Occupation            Energy/Eh            Energy/eV
      -------------------------------------------------------------
         1        2.0000           -0.6947182             -18.9042
       ...           ...                  ...                  ...
        81        2.0000           -0.4333824             -11.7929
        82        2.0000           -0.4312337             -11.7345
        83        2.0000           -0.4302319             -11.7072
        84        2.0000           -0.4126057             -11.2276
        85        2.0000           -0.4120399             -11.2122
        86        2.0000           -0.3951160             -10.7517
        87        2.0000           -0.3898824             -10.6092 (HOMO)
        88                         -0.3018409              -8.2135 (LUMO)
        89                         -0.2995942              -8.1524
        90                         -0.2735935              -7.4449
        91                         -0.2732652              -7.4359
        92                         -0.2674964              -7.2789
       ...                                ...                  ...
       196                          0.6557084              17.8427
      -------------------------------------------------------------
                  HL-Gap            0.0880415 Eh            2.3957 eV
             Fermi-level            0.0000000 Eh            0.0000 eV

 EHT (total)                   0 d,  0 h,  0 min,  0.034 sec
 EHT setup                      ...        0 min,  0.001 sec (  2.683%)
 Coordination number            ...        0 min,  0.001 sec (  2.564%)
 EEQ model density              ...        0 min,  0.001 sec (  1.830%)
 D4 Dispersion                  ...        0 min,  0.003 sec (  7.725%)
 Integral evaluation            ...        0 min,  0.001 sec (  3.661%)
 Cholesky factorization         ...        0 min,  0.011 sec ( 33.580%)
 Zeroth order Hamiltonian       ...        0 min,  0.013 sec ( 39.828%)
 Gradient calculation           ...        0 min,  0.002 sec (  6.139%)

         :::::::::::::::::::::::::::::::::::::::::::::::::::::
         ::                     SUMMARY                     ::
         :::::::::::::::::::::::::::::::::::::::::::::::::::::
         :: total energy             -92.517994889488 Eh    ::
         :: gradient norm              0.041770327374 Eh/a0 ::
         :: HOMO-LUMO gap              2.395731693061 eV    ::
         ::.................................................::
         :: H0 energy                -94.028414070067 Eh    ::
         :: repulsion energy           1.687224120798 Eh    ::
         :: electrostat energy        -0.108469557443 Eh    ::
         :: -> Gsolv                   0.000000000000 Eh    ::
         ::    -> Gsasa                0.000000000000 Eh    ::
         ::    -> Gshift               0.000000000000 Eh    ::
         :: dispersion energy         -0.043079877571 Eh    ::
         :: short-range corr.         -0.025255505205 Eh    ::
         :: add. restraining           0.000000000000 Eh    ::
         :: total charge               0.000000000000 e     ::
         :::::::::::::::::::::::::::::::::::::::::::::::::::::

           -------------------------------------------------
          |                Property Printout                |
           -------------------------------------------------

    * Orbital Energies and Occupations

         #    Occupation            Energy/Eh            Energy/eV
      -------------------------------------------------------------
         1        2.0000           -0.6947182             -18.9042
       ...           ...                  ...                  ...
        75        2.0000           -0.4547638             -12.3748
        76        2.0000           -0.4536601             -12.3447
        77        2.0000           -0.4469412             -12.1619
        78        2.0000           -0.4435753             -12.0703
        79        2.0000           -0.4399590             -11.9719
        80        2.0000           -0.4366037             -11.8806
        81        2.0000           -0.4333824             -11.7929
        82        2.0000           -0.4312337             -11.7345
        83        2.0000           -0.4302319             -11.7072
        84        2.0000           -0.4126057             -11.2276
        85        2.0000           -0.4120399             -11.2122
        86        2.0000           -0.3951160             -10.7517
        87        2.0000           -0.3898824             -10.6092 (HOMO)
        88                         -0.3018409              -8.2135 (LUMO)
        89                         -0.2995942              -8.1524
        90                         -0.2735935              -7.4449
        91                         -0.2732652              -7.4359
        92                         -0.2674964              -7.2789
        93                         -0.2674817              -7.2785
        94                         -0.2563670              -6.9761
        95                         -0.2553404              -6.9482
        96                         -0.2340652              -6.3692
        97                         -0.2277724              -6.1980
        98                         -0.1850807              -5.0363
       ...                                ...                  ...
       196                          0.6557084              17.8427
      -------------------------------------------------------------
                  HL-Gap            0.0880415 Eh            2.3957 eV
             Fermi-level            0.0000000 Eh            0.0000 eV

     #   Z          covCN         q      C6AA      α(0)
     1   6 c        3.758    -0.384    32.238     8.192
     2   6 c        2.965     0.099    27.196     8.527
     3   6 c        2.925    -0.128    32.927     9.381
     4   6 c        2.917    -0.082    31.667     9.199
     5   6 c        2.923    -0.153    33.657     9.484
     6   6 c        2.976     0.058    28.129     8.673
     7   6 c        2.971    -0.048    30.744     9.067
     8   6 c        2.924    -0.178    34.410     9.589
     9   6 c        2.985     0.068    27.884     8.635
    10   6 c        2.919    -0.131    33.021     9.394
    11   6 c        2.915    -0.086    31.788     9.216
    12   6 c        2.916    -0.091    31.915     9.235
    13   6 c        2.918    -0.109    32.409     9.306
    14   6 c        2.989     0.030    28.788     8.774
    15   6 c        2.976    -0.005    29.644     8.903
    16   6 c        2.976    -0.005    29.640     8.903
    17   6 c        2.851     0.219    24.682     8.117
    18   8 o        1.659    -0.536    23.500     6.558
    19   6 c        2.971    -0.048    30.741     9.066
    20   6 c        2.976     0.058    28.133     8.673
    21   6 c        2.924    -0.122    32.759     9.357
    22   6 c        2.917    -0.089    31.865     9.228
    23   6 c        2.925    -0.128    32.931     9.381
    24   6 c        2.964     0.105    27.050     8.504
    25   6 c        3.758    -0.384    32.263     8.195
    26   6 c        2.930    -0.187    34.662     9.625
    27   6 c        2.924    -0.178    34.410     9.590
    28   6 c        2.985     0.069    27.872     8.633
    29   6 c        2.919    -0.131    33.014     9.393
    30   6 c        2.915    -0.086    31.781     9.215
    31   6 c        2.916    -0.091    31.903     9.233
    32   6 c        2.918    -0.109    32.409     9.306
    33   6 c        2.989     0.030    28.777     8.772
    34   6 c        2.851     0.219    24.693     8.118
    35   8 o        1.659    -0.535    23.474     6.554
    36   6 c        2.930    -0.156    33.757     9.498
    37   1 h        0.924     0.127     1.554     1.950
    38   1 h        0.925     0.129     1.540     1.941
    39   1 h        0.925     0.127     1.559     1.952
    40   1 h        0.926     0.096     1.821     2.110
    41   1 h        0.926     0.094     1.841     2.122
    42   1 h        0.925     0.113     1.674     2.023
    43   1 h        0.926     0.117     1.638     2.001
    44   1 h        0.926     0.099     1.797     2.096
    45   1 h        0.926     0.092     1.858     2.132
    46   1 h        0.926     0.093     1.848     2.126
    47   1 h        0.926     0.111     1.684     2.029
    48   1 h        0.805     0.301     0.719     1.332
    49   1 h        0.926     0.107     1.726     2.055
    50   1 h        0.926     0.094     1.838     2.120
    51   1 h        0.926     0.096     1.820     2.110
    52   1 h        0.925     0.126     1.564     1.956
    53   1 h        0.925     0.129     1.543     1.942
    54   1 h        0.924     0.130     1.534     1.937
    55   1 h        0.925     0.117     1.637     2.001
    56   1 h        0.926     0.118     1.633     1.999
    57   1 h        0.926     0.099     1.792     2.093
    58   1 h        0.926     0.093     1.853     2.129
    59   1 h        0.926     0.094     1.841     2.122
    60   1 h        0.926     0.112     1.682     2.028
    61   1 h        0.805     0.301     0.719     1.332
    62   1 h        0.926     0.111     1.686     2.030

 Mol. C6AA /au·bohr⁶  :      53482.155515
 Mol. C8AA /au·bohr⁸  :    1374742.140311
 Mol. α(0) /au        :        371.161001


Wiberg/Mayer (AO) data.
largest (>0.10) Wiberg bond orders for each atom

 ---------------------------------------------------------------------------
     #   Z sym  total        # sym  WBO       # sym  WBO       # sym  WBO
 ---------------------------------------------------------------------------
     1   6 c    3.978 --     2 c    1.019    39 h    0.978    38 h    0.977
                            37 h    0.966
     2   6 c    3.974 --    36 c    1.424     3 c    1.407     1 c    1.019
                             5 c    0.106
     3   6 c    3.984 --     4 c    1.443     2 c    1.407    40 h    0.971
                             6 c    0.104
     4   6 c    3.987 --     3 c    1.443     5 c    1.440    41 h    0.972
                            36 c    0.107
     5   6 c    3.983 --     4 c    1.440     6 c    1.383    42 h    0.969
                             2 c    0.106
     6   6 c    3.975 --    36 c    1.395     5 c    1.383     7 c    1.029
                             3 c    0.104
     7   6 c    3.975 --     8 c    1.518    34 c    1.214     6 c    1.029
     8   6 c    3.985 --     7 c    1.518     9 c    1.274    43 h    0.965
     9   6 c    3.978 --    10 c    1.279     8 c    1.274    14 c    1.239
    10   6 c    3.980 --    11 c    1.553     9 c    1.279    44 h    0.969
                            13 c    0.115
    11   6 c    3.975 --    10 c    1.553    12 c    1.318    45 h    0.973
    12   6 c    3.983 --    13 c    1.558    11 c    1.318    46 h    0.972
    13   6 c    3.987 --    12 c    1.558    14 c    1.271    47 h    0.966
                            10 c    0.115
    14   6 c    3.977 --    13 c    1.271    15 c    1.260     9 c    1.239
    15   6 c    3.967 --    34 c    1.412    14 c    1.260    16 c    0.998
    16   6 c    3.967 --    17 c    1.413    33 c    1.259    15 c    0.998
    17   6 c    3.941 --    16 c    1.413    19 c    1.214    18 o    1.130
    18   8 o    2.303 --    17 c    1.130    48 h    0.967
    19   6 c    3.975 --    27 c    1.518    17 c    1.214    20 c    1.029
    20   6 c    3.975 --    26 c    1.390    21 c    1.388    19 c    1.029
                            23 c    0.104
    21   6 c    3.983 --    22 c    1.448    20 c    1.388    49 h    0.970
                            24 c    0.107
    22   6 c    3.987 --    21 c    1.448    23 c    1.436    50 h    0.972
                            26 c    0.106
    23   6 c    3.984 --    22 c    1.436    24 c    1.413    51 h    0.971
                            20 c    0.104
    24   6 c    3.974 --    26 c    1.416    23 c    1.413    25 c    1.019
                            21 c    0.107
    25   6 c    3.978 --    24 c    1.019    52 h    0.977    53 h    0.977
                            54 h    0.966
    26   6 c    3.983 --    24 c    1.416    20 c    1.390    55 h    0.966
                            22 c    0.106
    27   6 c    3.985 --    19 c    1.518    28 c    1.274    56 h    0.965
    28   6 c    3.978 --    29 c    1.279    27 c    1.274    33 c    1.240
    29   6 c    3.980 --    30 c    1.553    28 c    1.279    57 h    0.969
                            32 c    0.115
    30   6 c    3.975 --    29 c    1.553    31 c    1.318    58 h    0.973
    31   6 c    3.983 --    32 c    1.557    30 c    1.318    59 h    0.972
    32   6 c    3.987 --    31 c    1.557    33 c    1.271    60 h    0.966
                            29 c    0.115
    33   6 c    3.977 --    32 c    1.271    16 c    1.259    28 c    1.240
    34   6 c    3.941 --    15 c    1.412     7 c    1.214    35 o    1.131
    35   8 o    2.304 --    34 c    1.131    61 h    0.967
    36   6 c    3.983 --     2 c    1.424     6 c    1.395    62 h    0.967
                             4 c    0.107
    37   1 h    0.987 --     1 c    0.966
    38   1 h    0.980 --     1 c    0.977
    39   1 h    0.979 --     1 c    0.978
    40   1 h    0.980 --     3 c    0.971
    41   1 h    0.983 --     4 c    0.972
    42   1 h    0.981 --     5 c    0.969
    43   1 h    0.974 --     8 c    0.965
    44   1 h    0.978 --    10 c    0.969
    45   1 h    0.983 --    11 c    0.973
    46   1 h    0.984 --    12 c    0.972
    47   1 h    0.980 --    13 c    0.966
    48   1 h    0.986 --    18 o    0.967
    49   1 h    0.980 --    21 c    0.970
    50   1 h    0.983 --    22 c    0.972
    51   1 h    0.980 --    23 c    0.971
    52   1 h    0.980 --    25 c    0.977
    53   1 h    0.980 --    25 c    0.977
    54   1 h    0.987 --    25 c    0.966
    55   1 h    0.978 --    26 c    0.966
    56   1 h    0.974 --    27 c    0.965
    57   1 h    0.978 --    29 c    0.969
    58   1 h    0.983 --    30 c    0.973
    59   1 h    0.984 --    31 c    0.972
    60   1 h    0.980 --    32 c    0.966
    61   1 h    0.986 --    35 o    0.967
    62   1 h    0.977 --    36 c    0.967
 ---------------------------------------------------------------------------

Topologies differ in total number of bonds
Writing topology from bond orders to xtbtopo.mol

 dipole moment from electron density (au)
     X       Y       Z   
  -0.2217   0.3272   1.6812  total (Debye):    4.390


           -------------------------------------------------
          | TOTAL ENERGY              -92.517994889488 Eh   |
          | GRADIENT NORM               0.041770327374 Eh/α |
          | HOMO-LUMO GAP               2.395731693061 eV   |
           -------------------------------------------------

------------------------------------------------------------------------
 * finished run on 2025/01/21 at 11:24:54.421     
------------------------------------------------------------------------
 total:
 * wall-time:     0 d,  0 h,  0 min,  0.184 sec
 *  cpu-time:     0 d,  0 h,  0 min,  4.455 sec
 * ratio c/w:    24.152 speedup
 SCF:
 * wall-time:     0 d,  0 h,  0 min,  0.034 sec
 *  cpu-time:     0 d,  0 h,  0 min,  0.840 sec
 * ratio c/w:    24.541 speedup

 Calculating WBOs... done.
      -----------------------------------------------------------      
     |                   =====================                   |     
     |                           x T B                           |     
     |                   =====================                   |     
     |                         S. Grimme                         |     
     |          Mulliken Center for Theoretical Chemistry        |     
     |                    University of Bonn                     |     
      -----------------------------------------------------------      

   * xtb version 6.4.1 (afa7bdf) compiled by 'ehlert@majestix' on 2021-06-10

   xtb is free software: you can redistribute it and/or modify it under
   the terms of the GNU Lesser General Public License as published by
   the Free Software Foundation, either version 3 of the License, or
   (at your option) any later version.
   
   xtb is distributed in the hope that it will be useful,
   but WITHOUT ANY WARRANTY; without even the implied warranty of
   MERCHANTABILITY or FITNESS FOR A PARTICULAR PURPOSE.  See the
   GNU Lesser General Public License for more details.
   
   Cite this work as:
   * C. Bannwarth, E. Caldeweyher, S. Ehlert, A. Hansen, P. Pracht,
     J. Seibert, S. Spicher, S. Grimme, WIREs Comput. Mol. Sci., 2020, 11,
     e01493. DOI: 10.1002/wcms.1493
   
   for GFN2-xTB:
   * C. Bannwarth, S. Ehlert and S. Grimme., J. Chem. Theory Comput., 2019,
     15, 1652-1671. DOI: 10.1021/acs.jctc.8b01176
   for GFN1-xTB:
   * S. Grimme, C. Bannwarth, P. Shushkov, J. Chem. Theory Comput., 2017,
     13, 1989-2009. DOI: 10.1021/acs.jctc.7b00118
   for GFN0-xTB:
   * P. Pracht, E. Caldeweyher, S. Ehlert, S. Grimme, ChemRxiv, 2019, preprint.
     DOI: 10.26434/chemrxiv.8326202.v1
   for GFN-FF:
   * S. Spicher and S. Grimme, Angew. Chem. Int. Ed., 2020, 59, 15665-15673.
     DOI: 10.1002/anie.202004239
   
   for DFT-D4:
   * E. Caldeweyher, C. Bannwarth and S. Grimme, J. Chem. Phys., 2017,
     147, 034112. DOI: 10.1063/1.4993215
   * E. Caldeweyher, S. Ehlert, A. Hansen, H. Neugebauer, S. Spicher,
     C. Bannwarth and S. Grimme, J. Chem. Phys., 2019, 150, 154122.
     DOI: 10.1063/1.5090222
   * E. Caldeweyher, J.-M. Mewes, S. Ehlert and S. Grimme, Phys. Chem. Chem. Phys.
     2020, 22, 8499-8512. DOI: 10.1039/D0CP00502A
   
   for sTDA-xTB:
   * S. Grimme and C. Bannwarth, J. Chem. Phys., 2016, 145, 054103.
     DOI: 10.1063/1.4959605
   
   in the mass-spec context:
   * V. Asgeirsson, C. Bauer and S. Grimme, Chem. Sci., 2017, 8, 4879.
     DOI: 10.1039/c7sc00601b
   * J. Koopman and S. Grimme, ACS Omega 2019, 4, 12, 15120-15133.
     DOI: 10.1021/acsomega.9b02011
   
   for metadynamics refer to:
   * S. Grimme, J. Chem. Theory Comput., 2019, 155, 2847-2862
     DOI: 10.1021/acs.jctc.9b00143
   
   for SPH calculations refer to:
   * S. Spicher and S. Grimme, J. Chem. Theory Comput., 2021, 17, 1701-1714
     DOI: 10.1021/acs.jctc.0c01306
   
   with help from (in alphabetical order)
   P. Atkinson, C. Bannwarth, F. Bohle, G. Brandenburg, E. Caldeweyher
   M. Checinski, S. Dohm, S. Ehlert, S. Ehrlich, I. Gerasimov, J. Koopman
   C. Lavigne, S. Lehtola, F. März, M. Müller, F. Musil, H. Neugebauer
   J. Pisarek, C. Plett, P. Pracht, J. Seibert, P. Shushkov, S. Spicher
   M. Stahn, M. Steiner, T. Strunk, J. Stückrath, T. Rose, and J. Unsleber
   
 * started run on 2025/01/21 at 11:24:54.463     

           -------------------------------------------------
          |                Calculation Setup                |
           -------------------------------------------------

          program call               : xtb tmpcoord --gfnff --sp
          hostname                   : node25
          coordinate file            : tmpcoord
          omp threads                :                    28
          number of atoms            :                    62
          number of electrons        :                   174
          charge                     :                     0
          spin                       :                   0.0
          first test random number   :      0.59380955550531

   ID    Z sym.   atoms
    1    6 c      1-17, 19-34, 36
    2    8 o      18, 35
    3    1 h      37-62
 
          ==================== Thresholds ====================
          CN  :   150.00000
          rep :   500.00000
          disp:  2500.00000
          HB1 :   250.00000
          HB2 :   450.00000
 
          Pauling EN used:
          Z : 1  EN :  2.20
          Z : 6  EN :  2.55
          Z : 8  EN :  3.44
          electric field strengths (au): 0.000
 
           ------------------------------------------------- 
          |           Force Field Initialization            |
           ------------------------------------------------- 
 
          distances ...
          ----------------------------------------
          generating topology and atomic info file ...
          pair mat ...
          computing topology distances matrix with Floyd-Warshall algo ...
          making topology EEQ charges ...
          #fragments for EEQ constrain: 1
          ----------------------------------------
          generating topology and atomic info file ...
          pair mat ...
          computing topology distances matrix with Floyd-Warshall algo ...
          making topology EEQ charges ...
          #fragments for EEQ constrain: 1
          rings ...
          # BATM   700
          # H in HB   20
          doing iterative Hueckel for 1 subsystem(s) ...
 
  atom   neighbors  erfCN metchar sp-hybrid imet pi  qest     coordinates
    1  c       4    3.49   0.00         3    0    0  -0.067  -12.694661    1.040897    5.548750
    2  c       3    2.81   0.00         2    0    1   0.008  -11.121812    1.888176    3.351864
    3  c       3    2.82   0.00         2    0    1  -0.052  -11.690626    4.109718    2.070605
    4  c       3    2.81   0.00         2    0    1  -0.008  -10.262283    4.860128    0.014295
    5  c       3    2.82   0.00         2    0    1  -0.036   -8.234879    3.414618   -0.782210
    6  c       3    2.82   0.00         2    0    1  -0.004   -7.626989    1.184982    0.483509
    7  c       3    2.81   0.00         2    0    1  -0.012   -5.478131   -0.387202   -0.345609
    8  c       3    2.82   0.00         2    0    1  -0.025   -5.809200   -2.911841   -0.839195
    9  c       3    2.83   0.00         2    0    1  -0.015   -3.806163   -4.442346   -1.681832
   10  c       3    2.81   0.00         2    0    1  -0.034   -4.137222   -7.032321   -2.217105
   11  c       3    2.81   0.00         2    0    1  -0.028   -2.163293   -8.471708   -3.051916
   12  c       3    2.81   0.00         2    0    1  -0.034    0.228052   -7.378118   -3.401528
   13  c       3    2.81   0.00         2    0    1  -0.030    0.609387   -4.873263   -2.903799
   14  c       3    2.83   0.00         2    0    1  -0.001   -1.384009   -3.340528   -2.017744
   15  c       3    2.82   0.00         2    0    1  -0.007   -1.041631   -0.750740   -1.463663
   16  c       3    2.82   0.00         2    0    1  -0.007    1.472901    0.453285   -1.716270
   17  c       3    2.82   0.00         2    0    1   0.100    3.221360    0.134456    0.190193
   18  o       2    1.92   0.00         3    0    1  -0.446    2.546977   -1.277855    2.234177
   19  c       3    2.82   0.00         2    0    1  -0.012    5.628731    1.301615    0.034594
   20  c       3    2.82   0.00         2    0    1  -0.004    7.517829    0.908919    2.047808
   21  c       3    2.82   0.00         2    0    1  -0.036    8.658244    2.967749    3.222574
   22  c       3    2.81   0.00         2    0    1  -0.008   10.441030    2.584173    5.092004
   23  c       3    2.82   0.00         2    0    1  -0.052   11.111077    0.157322    5.803661
   24  c       3    2.81   0.00         2    0    1   0.008   10.010872   -1.924529    4.644176
   25  c       4    3.49   0.00         3    0    0  -0.067   10.714617   -4.557821    5.411924
   26  c       3    2.82   0.00         2    0    1  -0.037    8.213224   -1.524084    2.775409
   27  c       3    2.82   0.00         2    0    1  -0.025    6.182262    2.804718   -2.005039
   28  c       3    2.83   0.00         2    0    1  -0.015    4.443901    3.166447   -3.982562
   29  c       3    2.81   0.00         2    0    1  -0.034    5.010884    4.683265   -6.099428
   30  c       3    2.81   0.00         2    0    1  -0.028    3.296085    4.984575   -8.005650
   31  c       3    2.81   0.00         2    0    1  -0.034    0.941725    3.768809   -7.882917
   32  c       3    2.81   0.00         2    0    1  -0.030    0.335560    2.286148   -5.857558
   33  c       3    2.83   0.00         2    0    1  -0.001    2.055127    1.954949   -3.847201
   34  c       3    2.82   0.00         2    0    1   0.100   -3.044460    0.697266   -0.634515
   35  o       2    1.92   0.00         3    0    1  -0.446   -2.598020    3.164830   -0.055181
   36  c       3    2.82   0.00         2    0    1  -0.037   -9.090594    0.444939    2.537749
   37  h       1    0.97   0.00         0    0    0   0.034  -14.184314   -0.226020    4.897973
   38  h       1    0.97   0.00         0    0    0   0.034  -11.550421    0.022470    6.919269
   39  h       1    0.97   0.00         0    0    0   0.034  -13.583706    2.644179    6.477411
   40  h       1    0.97   0.00         0    0    0   0.037  -13.266427    5.253748    2.685036
   41  h       1    0.97   0.00         0    0    0   0.022  -10.730140    6.581701   -0.978028
   42  h       1    0.97   0.00         0    0    0   0.054   -7.162244    3.982348   -2.426575
   43  h       1    0.97   0.00         0    0    0   0.045   -7.663278   -3.740940   -0.618329
   44  h       1    0.97   0.00         0    0    0   0.049   -5.987998   -7.857055   -1.954990
   45  h       1    0.97   0.00         0    0    0   0.047   -2.429079  -10.455325   -3.456044
   46  h       1    0.97   0.00         0    0    0   0.048    1.767945   -8.537752   -4.075255
   47  h       1    0.97   0.00         0    0    0   0.044    2.445224   -4.026494   -3.185986
   48  h       1    0.97   0.00         0    0    0   0.227    3.917061   -1.274109    3.444113
   49  h       1    0.97   0.00         0    0    0   0.054    8.123742    4.858282    2.670934
   50  h       1    0.97   0.00         0    0    0   0.022   11.319599    4.186811    6.001495
   51  h       1    0.97   0.00         0    0    0   0.037   12.510770   -0.124850    7.263211
   52  h       1    0.97   0.00         0    0    0   0.034   12.653253   -4.630189    6.089613
   53  h       1    0.97   0.00         0    0    0   0.034   10.507712   -5.860923    3.835958
   54  h       1    0.97   0.00         0    0    0   0.034    9.483491   -5.200943    6.935214
   55  h       1    0.97   0.00         0    0    0   0.054    7.392763   -3.136282    1.820262
   56  h       1    0.97   0.00         0    0    0   0.045    8.014982    3.699813   -2.121058
   57  h       1    0.97   0.00         0    0    0   0.049    6.833643    5.602113   -6.184352
   58  h       1    0.97   0.00         0    0    0   0.047    3.741179    6.150802   -9.621281
   59  h       1    0.97   0.00         0    0    0   0.048   -0.389455    4.012739   -9.412056
   60  h       1    0.97   0.00         0    0    0   0.044   -1.470716    1.339223   -5.769145
   61  h       1    0.97   0.00         0    0    0   0.227   -4.139041    3.925615    0.567291
   62  h       1    0.97   0.00         0    0    0   0.054   -8.611360   -1.278591    3.523701
 
          #atoms :   62
          #bonds :   67
          #angl  :   110
          #tors  :   196
          #nmol  :   1
          #optfrag :   1
           ------------------------------------------------- 
          |                   G F N - F F                   |
          |          A general generic force-field          |
          |                  Version 1.0.3                  | 
           ------------------------------------------------- 
          nhb123   5328 499 0

 E+G (total)                   0 d,  0 h,  0 min,  0.004 sec
 distance/D3 list               ...        0 min,  0.000 sec (  0.557%)
 non bonded repulsion           ...        0 min,  0.000 sec (  7.032%)
 dCN                            ...        0 min,  0.000 sec (  4.109%)
 EEQ energy and q               ...        0 min,  0.001 sec ( 12.099%)
 D3                             ...        0 min,  0.001 sec ( 12.188%)
 EEQ gradient                   ...        0 min,  0.000 sec (  9.204%)
 bonds                          ...        0 min,  0.000 sec (  9.738%)
 bend and torsion               ...        0 min,  0.001 sec ( 13.781%)
 bonded ATM                     ...        0 min,  0.000 sec (  1.052%)
 HB/XB (incl list setup)        ...        0 min,  0.001 sec ( 25.245%)

         :::::::::::::::::::::::::::::::::::::::::::::::::::::
         ::                     SUMMARY                     ::
         :::::::::::::::::::::::::::::::::::::::::::::::::::::
         :: total energy             -12.890580595400 Eh    ::
         :: gradient norm              0.050345433741 Eh/a0 ::
         ::.................................................::
         :: bond energy              -13.631605316374 Eh    ::
         :: angle energy               0.002641342623 Eh    ::
         :: torsion energy             0.021314544967 Eh    ::
         :: repulsion energy           0.931618307726 Eh    ::
         :: electrostat energy        -0.135767504580 Eh    ::
         :: dispersion energy         -0.062891127643 Eh    ::
         :: HB energy                 -0.001221074776 Eh    ::
         :: XB energy                  0.000000000000 Eh    ::
         :: bonded atm energy         -0.014669767343 Eh    ::
         :: external energy            0.000000000000 Eh    ::
         :: add. restraining           0.000000000000 Eh    ::
         :: total charge              -0.000000000000 e     ::
         :::::::::::::::::::::::::::::::::::::::::::::::::::::

           -------------------------------------------------
          |                Property Printout                |
           -------------------------------------------------

           -------------------------------------------------
          | TOTAL ENERGY              -12.890580595400 Eh   |
          | GRADIENT NORM               0.050345433741 Eh/α |
           -------------------------------------------------

------------------------------------------------------------------------
 * finished run on 2025/01/21 at 11:24:54.518     
------------------------------------------------------------------------
 total:
 * wall-time:     0 d,  0 h,  0 min,  0.056 sec
 *  cpu-time:     0 d,  0 h,  0 min,  1.021 sec
 * ratio c/w:    18.359 speedup
 SCF:
 * wall-time:     0 d,  0 h,  0 min,  0.007 sec
 *  cpu-time:     0 d,  0 h,  0 min,  0.159 sec
 * ratio c/w:    23.734 speedup

 Calculating NCI flexibility... done.
     covalent flexibility measure :   0.011
 non-covalent flexibility measure :   1.000
 flexibility measure :   0.057
 t(MTD) / ps set by command line  :     0.5
 t(MTD) / ps    :     0.5
 Σ(t(MTD)) / ps :     7.0 (14 MTDs)
 
-------------------------------------
Starting a trial MTD to test settings
-------------------------------------
 Estimated runtime for one MTD (0.5 ps) on a single thread: 2 min 7 sec
 Estimated runtime for a batch of 14 MTDs on 28 threads: 1 min 4 sec
 
 list of Vbias parameters applied:
$metadyn    0.00300   1.300
$metadyn    0.00150   1.300
$metadyn    0.00075   1.300
$metadyn    0.00300   0.780
$metadyn    0.00150   0.780
$metadyn    0.00075   0.780
$metadyn    0.00300   0.468
$metadyn    0.00150   0.468
$metadyn    0.00075   0.468
$metadyn    0.00300   0.281
$metadyn    0.00150   0.281
$metadyn    0.00075   0.281
$metadyn    0.00100   0.100
$metadyn    0.00500   0.800
 
*******************************************************************************************
**                        N E W    I T E R A T I O N    C Y C L E                        **
*******************************************************************************************
 
========================================
            MTD Iteration  1
========================================
 
     ========================================
     |         Meta-MD (MTD) Sampling       |
     ========================================
 
Starting Meta-MD   7 with the settings:
     MD time /ps        :     0.5
     dt /fs             :     1.5
     dumpstep(trj) /fs  :     100
     dumpstep(Vbias)/ps :     1.0
     Vbias factor k /Eh :  0.1860
     Vbias exp α /bohr⁻²:    0.47
Starting Meta-MD   3 with the settings:
     MD time /ps        :     0.5
     dt /fs             :     1.5
     dumpstep(trj) /fs  :     100
     dumpstep(Vbias)/ps :     1.0
     Vbias factor k /Eh :  0.0465
     Vbias exp α /bohr⁻²:    1.30
Starting Meta-MD  11 with the settings:
     MD time /ps        :     0.5
     dt /fs             :     1.5
     dumpstep(trj) /fs  :     100
     dumpstep(Vbias)/ps :     1.0
     Vbias factor k /Eh :  0.0930
     Vbias exp α /bohr⁻²:    0.28
Starting Meta-MD   1 with the settings:
     MD time /ps        :     0.5
     dt /fs             :     1.5
     dumpstep(trj) /fs  :     100
     dumpstep(Vbias)/ps :     1.0
     Vbias factor k /Eh :  0.1860
     Vbias exp α /bohr⁻²:    1.30
Starting Meta-MD   2 with the settings:
     MD time /ps        :     0.5
     dt /fs             :     1.5
     dumpstep(trj) /fs  :     100
     dumpstep(Vbias)/ps :     1.0
     Vbias factor k /Eh :  0.0930
     Vbias exp α /bohr⁻²:    1.30
Starting Meta-MD   5 with the settings:
     MD time /ps        :     0.5
     dt /fs             :     1.5
     dumpstep(trj) /fs  :     100
     dumpstep(Vbias)/ps :     1.0
     Vbias factor k /Eh :  0.0930
     Vbias exp α /bohr⁻²:    0.78
Starting Meta-MD  14 with the settings:
     MD time /ps        :     0.5
     dt /fs             :     1.5
     dumpstep(trj) /fs  :     100
     dumpstep(Vbias)/ps :     1.0
     Vbias factor k /Eh :  0.3100
     Vbias exp α /bohr⁻²:    0.80
Starting Meta-MD  12 with the settings:
     MD time /ps        :     0.5
     dt /fs             :     1.5
     dumpstep(trj) /fs  :     100
     dumpstep(Vbias)/ps :     1.0
     Vbias factor k /Eh :  0.0465
     Vbias exp α /bohr⁻²:    0.28
Starting Meta-MD   9 with the settings:
     MD time /ps        :     0.5
     dt /fs             :     1.5
     dumpstep(trj) /fs  :     100
     dumpstep(Vbias)/ps :     1.0
     Vbias factor k /Eh :  0.0465
     Vbias exp α /bohr⁻²:    0.47
Starting Meta-MD  10 with the settings:
     MD time /ps        :     0.5
     dt /fs             :     1.5
     dumpstep(trj) /fs  :     100
     dumpstep(Vbias)/ps :     1.0
     Vbias factor k /Eh :  0.1860
     Vbias exp α /bohr⁻²:    0.28
Starting Meta-MD  13 with the settings:
     MD time /ps        :     0.5
     dt /fs             :     1.5
     dumpstep(trj) /fs  :     100
     dumpstep(Vbias)/ps :     1.0
     Vbias factor k /Eh :  0.0620
     Vbias exp α /bohr⁻²:    0.10
Starting Meta-MD   4 with the settings:
     MD time /ps        :     0.5
     dt /fs             :     1.5
     dumpstep(trj) /fs  :     100
     dumpstep(Vbias)/ps :     1.0
     Vbias factor k /Eh :  0.1860
     Vbias exp α /bohr⁻²:    0.78
Starting Meta-MD   6 with the settings:
     MD time /ps        :     0.5
     dt /fs             :     1.5
     dumpstep(trj) /fs  :     100
     dumpstep(Vbias)/ps :     1.0
     Vbias factor k /Eh :  0.0465
     Vbias exp α /bohr⁻²:    0.78
Starting Meta-MD   8 with the settings:
     MD time /ps        :     0.5
     dt /fs             :     1.5
     dumpstep(trj) /fs  :     100
     dumpstep(Vbias)/ps :     1.0
     Vbias factor k /Eh :  0.0930
     Vbias exp α /bohr⁻²:    0.47
*Meta-MTD 11 finished*
*Meta-MTD 2 finished*
*Meta-MTD 1 finished*
*Meta-MTD 9 finished*
*Meta-MTD 13 finished*
*Meta-MTD 8 finished*
*Meta-MTD 7 finished*
*Meta-MTD 12 finished*
*Meta-MTD 6 finished*
*Meta-MTD 4 finished*
*Meta-MTD 14 finished*
*Meta-MTD 5 finished*
*Meta-MTD 10 finished*
*Meta-MTD 3 finished*
 
-----------------------
Multilevel Optimization
-----------------------
 
 -------------------------
 1. crude pre-optimization
 -------------------------
 Optimizing all 70 structures from file "crest_rotamers_0.xyz" ...
 1 2 3 4 5 6 7 8 9 10 11 12 13 14 15 16 17 18 19 20 21 22 23 24 25 26 27 28 29 30 31 32 33 34 35 36 37 38 39 40 41 42 43 44 45 46 47 48 49 50 51 52 53 54 55 56 57 58 59 60 61 62 63 64 65 66 67 68 69 70
 done.
 running RMSDs...
 done.
 E lowest :   -94.21774
 67 structures remain within    12.00 kcal/mol window
 
 -------------------------------------
 2. optimization with tight thresholds
 -------------------------------------
 Optimizing all 68 structures from file "crest_rotamers_1.xyz" ...
 1 2 3 4 5 6 7 8 9 10 11 12 13 14 15 16 17 18 19 20 21 22 23 24 25 26 27 28 29 30 31 32 33 34 35 36 37 38 39 40 41 42 43 44 45 46 47 48 49 50 51 52 53 54 55 56 57 58 59 60 61 62 63 64 65 66 67 68
 done.
 running RMSDs...
 done.
 E lowest :   -94.21895
 33 structures remain within     6.00 kcal/mol window
 
 
========================================
            MTD Iteration  2
========================================
 
     ========================================
     |         Meta-MD (MTD) Sampling       |
     ========================================
 
Starting Meta-MD   2 with the settings:
     MD time /ps        :     0.5
     dt /fs             :     1.5
     dumpstep(trj) /fs  :     100
     dumpstep(Vbias)/ps :     1.0
     Vbias factor k /Eh :  0.0930
     Vbias exp α /bohr⁻²:    1.30
Starting Meta-MD   3 with the settings:
     MD time /ps        :     0.5
     dt /fs             :     1.5
     dumpstep(trj) /fs  :     100
     dumpstep(Vbias)/ps :     1.0
     Vbias factor k /Eh :  0.0465
     Vbias exp α /bohr⁻²:    1.30
Starting Meta-MD   4 with the settings:
     MD time /ps        :     0.5
     dt /fs             :     1.5
     dumpstep(trj) /fs  :     100
     dumpstep(Vbias)/ps :     1.0
     Vbias factor k /Eh :  0.1860
     Vbias exp α /bohr⁻²:    0.78
Starting Meta-MD   1 with the settings:
     MD time /ps        :     0.5
     dt /fs             :     1.5
     dumpstep(trj) /fs  :     100
     dumpstep(Vbias)/ps :     1.0
     Vbias factor k /Eh :  0.1860
     Vbias exp α /bohr⁻²:    1.30
Starting Meta-MD   5 with the settings:
     MD time /ps        :     0.5
     dt /fs             :     1.5
     dumpstep(trj) /fs  :     100
     dumpstep(Vbias)/ps :     1.0
     Vbias factor k /Eh :  0.0930
     Vbias exp α /bohr⁻²:    0.78
Starting Meta-MD   6 with the settings:
     MD time /ps        :     0.5
     dt /fs             :     1.5
     dumpstep(trj) /fs  :     100
     dumpstep(Vbias)/ps :     1.0
     Vbias factor k /Eh :  0.0465
     Vbias exp α /bohr⁻²:    0.78
Starting Meta-MD   7 with the settings:
     MD time /ps        :     0.5
     dt /fs             :     1.5
     dumpstep(trj) /fs  :     100
     dumpstep(Vbias)/ps :     1.0
     Vbias factor k /Eh :  0.1860
     Vbias exp α /bohr⁻²:    0.47
Starting Meta-MD   8 with the settings:
     MD time /ps        :     0.5
     dt /fs             :     1.5
     dumpstep(trj) /fs  :     100
     dumpstep(Vbias)/ps :     1.0
     Vbias factor k /Eh :  0.0930
     Vbias exp α /bohr⁻²:    0.47
Starting Meta-MD   9 with the settings:
     MD time /ps        :     0.5
     dt /fs             :     1.5
     dumpstep(trj) /fs  :     100
     dumpstep(Vbias)/ps :     1.0
     Vbias factor k /Eh :  0.0465
     Vbias exp α /bohr⁻²:    0.47
Starting Meta-MD  10 with the settings:
     MD time /ps        :     0.5
     dt /fs             :     1.5
     dumpstep(trj) /fs  :     100
     dumpstep(Vbias)/ps :     1.0
     Vbias factor k /Eh :  0.1860
     Vbias exp α /bohr⁻²:    0.28
Starting Meta-MD  11 with the settings:
     MD time /ps        :     0.5
     dt /fs             :     1.5
     dumpstep(trj) /fs  :     100
     dumpstep(Vbias)/ps :     1.0
     Vbias factor k /Eh :  0.0930
     Vbias exp α /bohr⁻²:    0.28
Starting Meta-MD  12 with the settings:
     MD time /ps        :     0.5
     dt /fs             :     1.5
     dumpstep(trj) /fs  :     100
     dumpstep(Vbias)/ps :     1.0
     Vbias factor k /Eh :  0.0465
     Vbias exp α /bohr⁻²:    0.28
*Meta-MTD 5 finished*
*Meta-MTD 6 finished*
*Meta-MTD 12 finished*
*Meta-MTD 2 finished*
*Meta-MTD 1 finished*
*Meta-MTD 3 finished*
*Meta-MTD 10 finished*
*Meta-MTD 4 finished*
*Meta-MTD 9 finished*
*Meta-MTD 11 finished*
*Meta-MTD 8 finished*
*Meta-MTD 7 finished*
 
-----------------------
Multilevel Optimization
-----------------------
 
 -------------------------
 1. crude pre-optimization
 -------------------------
 Optimizing all 60 structures from file "crest_rotamers_0.xyz" ...
 1 2 3 4 5 6 7 8 9 10 11 12 13 14 15 16 17 18 19 20 21 22 23 24 25 26 27 28 29 30 31 32 33 34 35 36 37 38 39 40 41 42 43 44 45 46 47 48 49 50 51 52 53 54 55 56 57 58 59 60
 done.
 running RMSDs...
 done.
 E lowest :   -94.21833
 53 structures remain within    12.00 kcal/mol window
 
 -------------------------------------
 2. optimization with tight thresholds
 -------------------------------------
 Optimizing all 54 structures from file "crest_rotamers_1.xyz" ...
 1 2 3 4 5 6 7 8 9 10 11 12 13 14 15 16 17 18 19 20 21 22 23 24 25 26 27 28 29 30 31 32 33 34 35 36 37 38 39 40 41 42 43 44 45 46 47 48 49 50 51 52 53 54
 done.
 running RMSDs...
 done.
 E lowest :   -94.21906
 29 structures remain within     6.00 kcal/mol window
 
 ...............................................
 A new lower conformer was found!
 Improved by    0.00011 Eh or    0.06728kcal/mol
 ...............................................
 
========================================
            MTD Iteration  3
========================================
 
     ========================================
     |         Meta-MD (MTD) Sampling       |
     ========================================
 
Starting Meta-MD   1 with the settings:
     MD time /ps        :     0.5
     dt /fs             :     1.5
     dumpstep(trj) /fs  :     100
     dumpstep(Vbias)/ps :     1.0
     Vbias factor k /Eh :  0.1860
     Vbias exp α /bohr⁻²:    1.30
Starting Meta-MD   2 with the settings:
     MD time /ps        :     0.5
     dt /fs             :     1.5
     dumpstep(trj) /fs  :     100
     dumpstep(Vbias)/ps :     1.0
     Vbias factor k /Eh :  0.0930
     Vbias exp α /bohr⁻²:    1.30
Starting Meta-MD   3 with the settings:
     MD time /ps        :     0.5
     dt /fs             :     1.5
     dumpstep(trj) /fs  :     100
     dumpstep(Vbias)/ps :     1.0
     Vbias factor k /Eh :  0.0465
     Vbias exp α /bohr⁻²:    1.30
Starting Meta-MD   4 with the settings:
     MD time /ps        :     0.5
     dt /fs             :     1.5
     dumpstep(trj) /fs  :     100
     dumpstep(Vbias)/ps :     1.0
     Vbias factor k /Eh :  0.1860
     Vbias exp α /bohr⁻²:    0.78
Starting Meta-MD   5 with the settings:
     MD time /ps        :     0.5
     dt /fs             :     1.5
     dumpstep(trj) /fs  :     100
     dumpstep(Vbias)/ps :     1.0
     Vbias factor k /Eh :  0.0930
     Vbias exp α /bohr⁻²:    0.78
Starting Meta-MD   6 with the settings:
     MD time /ps        :     0.5
     dt /fs             :     1.5
     dumpstep(trj) /fs  :     100
     dumpstep(Vbias)/ps :     1.0
     Vbias factor k /Eh :  0.0465
     Vbias exp α /bohr⁻²:    0.78
Starting Meta-MD   7 with the settings:
     MD time /ps        :     0.5
     dt /fs             :     1.5
     dumpstep(trj) /fs  :     100
     dumpstep(Vbias)/ps :     1.0
     Vbias factor k /Eh :  0.1860
     Vbias exp α /bohr⁻²:    0.47
Starting Meta-MD   8 with the settings:
     MD time /ps        :     0.5
     dt /fs             :     1.5
     dumpstep(trj) /fs  :     100
     dumpstep(Vbias)/ps :     1.0
     Vbias factor k /Eh :  0.0930
     Vbias exp α /bohr⁻²:    0.47
Starting Meta-MD   9 with the settings:
     MD time /ps        :     0.5
     dt /fs             :     1.5
     dumpstep(trj) /fs  :     100
     dumpstep(Vbias)/ps :     1.0
     Vbias factor k /Eh :  0.0465
     Vbias exp α /bohr⁻²:    0.47
Starting Meta-MD  10 with the settings:
     MD time /ps        :     0.5
     dt /fs             :     1.5
     dumpstep(trj) /fs  :     100
     dumpstep(Vbias)/ps :     1.0
     Vbias factor k /Eh :  0.1860
     Vbias exp α /bohr⁻²:    0.28
Starting Meta-MD  11 with the settings:
     MD time /ps        :     0.5
     dt /fs             :     1.5
     dumpstep(trj) /fs  :     100
     dumpstep(Vbias)/ps :     1.0
     Vbias factor k /Eh :  0.0930
     Vbias exp α /bohr⁻²:    0.28
Starting Meta-MD  12 with the settings:
     MD time /ps        :     0.5
     dt /fs             :     1.5
     dumpstep(trj) /fs  :     100
     dumpstep(Vbias)/ps :     1.0
     Vbias factor k /Eh :  0.0465
     Vbias exp α /bohr⁻²:    0.28
*Meta-MTD 10 finished*
*Meta-MTD 4 finished*
*Meta-MTD 1 finished*
*Meta-MTD 12 finished*
*Meta-MTD 8 finished*
*Meta-MTD 11 finished*
*Meta-MTD 2 finished*
*Meta-MTD 5 finished*
*Meta-MTD 3 finished*
*Meta-MTD 7 finished*
*Meta-MTD 6 finished*
*Meta-MTD 9 finished*
 
-----------------------
Multilevel Optimization
-----------------------
 
 -------------------------
 1. crude pre-optimization
 -------------------------
 Optimizing all 60 structures from file "crest_rotamers_0.xyz" ...
 1 2 3 4 5 6 7 8 9 10 11 12 13 14 15 16 17 18 19 20 21 22 23 24 25 26 27 28 29 30 31 32 33 34 35 36 37 38 39 40 41 42 43 44 45 46 47 48 49 50 51 52 53 54 55 56 57 58 59 60
 done.
 running RMSDs...
 done.
 E lowest :   -94.21847
 53 structures remain within    12.00 kcal/mol window
 
 -------------------------------------
 2. optimization with tight thresholds
 -------------------------------------
 Optimizing all 54 structures from file "crest_rotamers_1.xyz" ...
 1 2 3 4 5 6 7 8 9 10 11 12 13 14 15 16 17 18 19 20 21 22 23 24 25 26 27 28 29 30 31 32 33 34 35 36 37 38 39 40 41 42 43 44 45 46 47 48 49 50 51 52 53 54
 done.
 running RMSDs...
 done.
 E lowest :   -94.21907
 29 structures remain within     6.00 kcal/mol window
 
========================================
            MTD Iterations done         
========================================
 Collecting ensmbles.
 running RMSDs...
 done.
 E lowest :   -94.21907
 80 structures remain within     6.00 kcal/mol window
 
 -------------------------------
 Additional orientation sampling
 -------------------------------
 Optimizing all 116 structures from file "oh_ensemble.xyz" ...
 1 2 3 4 5 6 7 8 9 10 11 12 13 14 15 16 17 18 19 20 21 22 23 24 25 26 27 28 29 30 31 32 33 34 35 36 37 38 39 40 41 42 43 44 45 46 47 48 49 50 51 52 53 54 55 56 57 58 59 60 61 62 63 64 65 66 67 68 69 70 71 72 73 74 75 76 77 78 79 80 81 82 83 84 85 86 87 88 89 90 91 92 93 94 95 96 97 98 99 100 101 102 103 104 105 106 107 108 109 110 111 112 113 114 115 116
 done.
 running RMSDs...
 done.
 E lowest :   -94.21993
 157 structures remain within     6.00 kcal/mol window
 
-----------------------------------------------
Additional regular MDs on lowest 4 conformer(s)
-----------------------------------------------
Starting MD   1 with the settings:
     MD time /ps        :     0.2
     MD Temperature /K  :   400.0
     dt /fs             :     1.5
     dumpstep(trj) /fs  :     100
Starting MD   2 with the settings:
     MD time /ps        :     0.2
     MD Temperature /K  :   500.0
     dt /fs             :     1.5
     dumpstep(trj) /fs  :     100
Starting MD   3 with the settings:
     MD time /ps        :     0.2
     MD Temperature /K  :   400.0
     dt /fs             :     1.5
     dumpstep(trj) /fs  :     100
Starting MD   4 with the settings:
     MD time /ps        :     0.2
     MD Temperature /K  :   500.0
     dt /fs             :     1.5
     dumpstep(trj) /fs  :     100
Starting MD   5 with the settings:
     MD time /ps        :     0.2
     MD Temperature /K  :   400.0
     dt /fs             :     1.5
     dumpstep(trj) /fs  :     100
Starting MD   6 with the settings:
     MD time /ps        :     0.2
     MD Temperature /K  :   500.0
     dt /fs             :     1.5
     dumpstep(trj) /fs  :     100
Starting MD   7 with the settings:
     MD time /ps        :     0.2
     MD Temperature /K  :   400.0
     dt /fs             :     1.5
     dumpstep(trj) /fs  :     100
Starting MD   8 with the settings:
     MD time /ps        :     0.2
     MD Temperature /K  :   500.0
     dt /fs             :     1.5
     dumpstep(trj) /fs  :     100
*MD 3 finished*
*MD 2 finished*
*MD 6 finished*
*MD 5 finished*
*MD 7 finished*
*MD 8 finished*
*MD 1 finished*
*MD 4 finished*
 Appending file crest_rotamers_2.xyz with new structures
 
 -------------------------------------------
 Ensemble optimization with tight thresholds
 -------------------------------------------
 Optimizing all 173 structures from file "crest_rotamers_2.xyz" ...
 1 2 3 4 5 6 7 8 9 10 11 12 13 14 15 16 17 18 19 20 21 22 23 24 25 26 27 28 29 30 31 32 33 34 35 36 37 38 39 40 41 42 43 44 45 46 47 48 49 50 51 52 53 54 55 56 57 58 59 60 61 62 63 64 65 66 67 68 69 70 71 72 73 74 75 76 77 78 79 80 81 82 83 84 85 86 87 88 89 90 91 92 93 94 95 96 97 98 99 100 101 102 103 104 105 106 107 108 109 110 111 112 113 114 115 116 117 118 119 120 121 122 123 124 125 126 127 128 129 130 131 132 133 134 135 136 137 138 139 140 141 142 143 144 145 146 147 148 149 150 151 152 153 154 155 156 157 158 159 160 161 162 163 164 165 166 167 168 169 170 171 172 173
 done.
 running RMSDs...
 done.
 E lowest :   -94.21993
 160 structures remain within     6.00 kcal/mol window
 
 ...............................................
 A new lower conformer was found!
 Improved by    0.00088 Eh or    0.54975kcal/mol
 ...............................................
 
*******************************************************************************************
**                        N E W    I T E R A T I O N    C Y C L E                        **
*******************************************************************************************
 
========================================
            MTD Iteration  1
========================================
 
     ========================================
     |         Meta-MD (MTD) Sampling       |
     ========================================
 
Starting Meta-MD   1 with the settings:
     MD time /ps        :     0.5
     dt /fs             :     1.5
     dumpstep(trj) /fs  :     100
     dumpstep(Vbias)/ps :     1.0
     Vbias factor k /Eh :  0.1860
     Vbias exp α /bohr⁻²:    1.30
Starting Meta-MD   2 with the settings:
     MD time /ps        :     0.5
     dt /fs             :     1.5
     dumpstep(trj) /fs  :     100
     dumpstep(Vbias)/ps :     1.0
     Vbias factor k /Eh :  0.0930
     Vbias exp α /bohr⁻²:    1.30
Starting Meta-MD   3 with the settings:
     MD time /ps        :     0.5
     dt /fs             :     1.5
     dumpstep(trj) /fs  :     100
     dumpstep(Vbias)/ps :     1.0
     Vbias factor k /Eh :  0.0465
     Vbias exp α /bohr⁻²:    1.30
Starting Meta-MD   4 with the settings:
     MD time /ps        :     0.5
     dt /fs             :     1.5
     dumpstep(trj) /fs  :     100
     dumpstep(Vbias)/ps :     1.0
     Vbias factor k /Eh :  0.1860
     Vbias exp α /bohr⁻²:    0.78
Starting Meta-MD   5 with the settings:
     MD time /ps        :     0.5
     dt /fs             :     1.5
     dumpstep(trj) /fs  :     100
     dumpstep(Vbias)/ps :     1.0
     Vbias factor k /Eh :  0.0930
     Vbias exp α /bohr⁻²:    0.78
Starting Meta-MD   6 with the settings:
     MD time /ps        :     0.5
     dt /fs             :     1.5
     dumpstep(trj) /fs  :     100
     dumpstep(Vbias)/ps :     1.0
     Vbias factor k /Eh :  0.0465
     Vbias exp α /bohr⁻²:    0.78
Starting Meta-MD   7 with the settings:
     MD time /ps        :     0.5
     dt /fs             :     1.5
     dumpstep(trj) /fs  :     100
     dumpstep(Vbias)/ps :     1.0
     Vbias factor k /Eh :  0.1860
     Vbias exp α /bohr⁻²:    0.47
Starting Meta-MD   8 with the settings:
     MD time /ps        :     0.5
     dt /fs             :     1.5
     dumpstep(trj) /fs  :     100
     dumpstep(Vbias)/ps :     1.0
     Vbias factor k /Eh :  0.0930
     Vbias exp α /bohr⁻²:    0.47
Starting Meta-MD   9 with the settings:
     MD time /ps        :     0.5
     dt /fs             :     1.5
     dumpstep(trj) /fs  :     100
     dumpstep(Vbias)/ps :     1.0
     Vbias factor k /Eh :  0.0465
     Vbias exp α /bohr⁻²:    0.47
Starting Meta-MD  10 with the settings:
     MD time /ps        :     0.5
     dt /fs             :     1.5
     dumpstep(trj) /fs  :     100
     dumpstep(Vbias)/ps :     1.0
     Vbias factor k /Eh :  0.1860
     Vbias exp α /bohr⁻²:    0.28
Starting Meta-MD  12 with the settings:
     MD time /ps        :     0.5
     dt /fs             :     1.5
     dumpstep(trj) /fs  :     100
     dumpstep(Vbias)/ps :     1.0
     Vbias factor k /Eh :  0.0465
     Vbias exp α /bohr⁻²:    0.28
Starting Meta-MD  11 with the settings:
     MD time /ps        :     0.5
     dt /fs             :     1.5
     dumpstep(trj) /fs  :     100
     dumpstep(Vbias)/ps :     1.0
     Vbias factor k /Eh :  0.0930
     Vbias exp α /bohr⁻²:    0.28
*Meta-MTD 4 finished*
*Meta-MTD 5 finished*
*Meta-MTD 3 finished*
*Meta-MTD 8 finished*
*Meta-MTD 10 finished*
*Meta-MTD 7 finished*
*Meta-MTD 12 finished*
*Meta-MTD 1 finished*
*Meta-MTD 2 finished*
*Meta-MTD 6 finished*
*Meta-MTD 11 finished*
*Meta-MTD 9 finished*
 
-----------------------
Multilevel Optimization
-----------------------
 
 -------------------------
 1. crude pre-optimization
 -------------------------
 Optimizing all 60 structures from file "crest_rotamers_0.xyz" ...
 1 2 3 4 5 6 7 8 9 10 11 12 13 14 15 16 17 18 19 20 21 22 23 24 25 26 27 28 29 30 31 32 33 34 35 36 37 38 39 40 41 42 43 44 45 46 47 48 49 50 51 52 53 54 55 56 57 58 59 60
 done.
 running RMSDs...
 done.
 E lowest :   -94.21909
 51 structures remain within    12.00 kcal/mol window
 
 -------------------------------------
 2. optimization with tight thresholds
 -------------------------------------
 Optimizing all 52 structures from file "crest_rotamers_1.xyz" ...
 1 2 3 4 5 6 7 8 9 10 11 12 13 14 15 16 17 18 19 20 21 22 23 24 25 26 27 28 29 30 31 32 33 34 35 36 37 38 39 40 41 42 43 44 45 46 47 48 49 50 51 52
 done.
 running RMSDs...
 done.
 E lowest :   -94.21993
 25 structures remain within     6.00 kcal/mol window
 
========================================
            MTD Iterations done         
========================================
 Collecting ensmbles.
 running RMSDs...
 done.
 E lowest :   -94.21993
 25 structures remain within     6.00 kcal/mol window
 
 -------------------------------
 Additional orientation sampling
 -------------------------------
 Optimizing all 38 structures from file "oh_ensemble.xyz" ...
 1 2 3 4 5 6 7 8 9 10 11 12 13 14 15 16 17 18 19 20 21 22 23 24 25 26 27 28 29 30 31 32 33 34 35 36 37 38
 done.
 running RMSDs...
 done.
 E lowest :   -94.21993
 53 structures remain within     6.00 kcal/mol window
 
-----------------------------------------------
Additional regular MDs on lowest 4 conformer(s)
-----------------------------------------------
Starting MD   1 with the settings:
     MD time /ps        :     0.2
     MD Temperature /K  :   400.0
     dt /fs             :     1.5
     dumpstep(trj) /fs  :     100
Starting MD   2 with the settings:
     MD time /ps        :     0.2
     MD Temperature /K  :   500.0
     dt /fs             :     1.5
     dumpstep(trj) /fs  :     100
Starting MD   3 with the settings:
     MD time /ps        :     0.2
     MD Temperature /K  :   400.0
     dt /fs             :     1.5
     dumpstep(trj) /fs  :     100
Starting MD   4 with the settings:
     MD time /ps        :     0.2
     MD Temperature /K  :   500.0
     dt /fs             :     1.5
     dumpstep(trj) /fs  :     100
Starting MD   5 with the settings:
     MD time /ps        :     0.2
     MD Temperature /K  :   400.0
     dt /fs             :     1.5
     dumpstep(trj) /fs  :     100
Starting MD   6 with the settings:
     MD time /ps        :     0.2
     MD Temperature /K  :   500.0
     dt /fs             :     1.5
     dumpstep(trj) /fs  :     100
Starting MD   7 with the settings:
     MD time /ps        :     0.2
     MD Temperature /K  :   400.0
     dt /fs             :     1.5
     dumpstep(trj) /fs  :     100
Starting MD   8 with the settings:
     MD time /ps        :     0.2
     MD Temperature /K  :   500.0
     dt /fs             :     1.5
     dumpstep(trj) /fs  :     100
*MD 1 finished*
*MD 3 finished*
*MD 5 finished*
*MD 7 finished*
*MD 2 finished*
*MD 6 finished*
*MD 4 finished*
*MD 8 finished*
 Appending file crest_rotamers_2.xyz with new structures
 
 -------------------------------------------
 Ensemble optimization with tight thresholds
 -------------------------------------------
 Optimizing all 69 structures from file "crest_rotamers_2.xyz" ...
 1 2 3 4 5 6 7 8 9 10 11 12 13 14 15 16 17 18 19 20 21 22 23 24 25 26 27 28 29 30 31 32 33 34 35 36 37 38 39 40 41 42 43 44 45 46 47 48 49 50 51 52 53 54 55 56 57 58 59 60 61 62 63 64 65 66 67 68 69
 done.
 running RMSDs...
 done.
 E lowest :   -94.21993
 56 structures remain within     6.00 kcal/mol window
 
 
     ========================================
     |        Structure Crossing (GC)       |
     ========================================
 =============================
  # threads =          28
 =============================
 input  file name : crest_rotamers_4.xyz
number of atoms                :    62
number of points on xyz files  :    56
conformer energy window  /kcal :    6.00
CN per atom difference cut-off :  0.3000
RMSD threshold                 :  0.5000
max. # of generated structures : 25
 reading xyz file ...
 # in E window                 56
 generating pairs ...        1595
 generated pairs           :        1251
 number of clash discarded :         289
 average rmsd w.r.t input  : 2.68507
 sd of ensemble            : 0.91188
 number of new structures      :           2
 removed identical structures  :          48
 writing            2  TMPCONF* dirs ...
 --------------------------
 GC: loose pre-optimization
 --------------------------
 Starting optimization of generated structures
 2 jobs to do.
 1 2 
 done.
 Now appending opt.xyz file with new structures
 running RMSDs...
 done.
 E lowest :   -94.21984
 2 structures remain within    10.00 kcal/mol window
 --------------------------------------
 GC: optimization with tight thresholds
 --------------------------------------
 Optimizing all 2 structures from file "crest_rotamers_1.xyz" ...
 1 2
 done.
 running RMSDs...
 done.
 E lowest :   -94.21993
 
 
   ================================================
   |           Final Geometry Optimization        |
   ================================================
 ------------------------------------------------
 Ensemble optimization with very tight thresholds
 ------------------------------------------------
 Optimizing all 57 structures from file "crest_rotamers_5.xyz" ...
 1 2 3 4 5 6 7 8 9 10 11 12 13 14 15 16 17 18 19 20 21 22 23 24 25 26 27 28 29 30 31 32 33 34 35 36 37 38 39 40 41 42 43 44 45 46 47 48 49 50 51 52 53 54 55 56 57
 done.
 running RMSDs...
 done.
 E lowest :   -94.21993
 57 structures remain within     6.00 kcal/mol window
 
 input  file name : crest_rotamers_6.xyz
 output file name : crest_rotamers_7.xyz
 number of atoms                :   62
 number of points on xyz files  :   57
 RMSD threshold                 :   0.2500
 Bconst threshold               :   0.0100
 population threshold           :   0.0500
 conformer energy window  /kcal :   6.0000
 # fragment in coord            :     1
 # bonds in reference structure :    67
   => # of C=C bonds :    11
 number of reliable points      :    57
 reference state Etot :  -94.2199337800000
 number of doubles removed by rot/RMSD         :           0
 total number unique points considered further :          57
       Erel/kcal        Etot weight/tot  conformer     set   degen     origin
       1   0.000   -94.21993    0.03258    0.09700       1       3     input
       2   0.004   -94.21993    0.03235                                mtd8
       3   0.009   -94.21992    0.03208                                md4
       4   0.017   -94.21991    0.03165    0.06290       2       2     mtd1
       5   0.025   -94.21989    0.03125                                mtd6
       6   0.064   -94.21983    0.02926    0.08704       3       3     md7
       7   0.068   -94.21983    0.02905                                mtd2
       8   0.075   -94.21981    0.02873                                mtd4
       9   0.084   -94.21980    0.02825    0.02825       4       1     md8
      10   0.073   -94.21982    0.02880    0.02880       5       1     md5
      11   0.085   -94.21980    0.02822    0.02822       6       1     mtd2
      12   0.087   -94.21979    0.02812    0.02812       7       1     mtd5
      13   0.129   -94.21973    0.02621    0.02621       8       1     gc
      14   0.132   -94.21972    0.02608    0.02608       9       1     mtd7
      15   0.135   -94.21972    0.02596    0.02596      10       1     mtd7
      16   0.136   -94.21972    0.02591    0.05119      11       2     mtd1
      17   0.150   -94.21969    0.02528                                mtd1
      18   0.137   -94.21971    0.02584    0.02584      12       1     mtd7
      19   0.156   -94.21969    0.02506    0.02506      13       1     mtd3
      20   0.203   -94.21961    0.02313    0.02313      14       1     md6
      21   0.234   -94.21956    0.02194    0.02194      15       1     mtd9
      22   0.291   -94.21947    0.01995    0.01995      16       1     mtd3
      23   0.351   -94.21937    0.01802    0.01802      17       1     mtd6
      24   0.355   -94.21937    0.01790    0.01790      18       1     mtd10
      25   0.361   -94.21936    0.01772    0.01772      19       1     mtd10
      26   0.386   -94.21932    0.01700    0.01700      20       1     mtd4
      27   0.413   -94.21928    0.01623    0.01623      21       1     mtd11
      28   0.451   -94.21921    0.01522    0.01522      22       1     mtd6
      29   0.455   -94.21921    0.01512    0.01512      23       1     mtd11
      30   0.537   -94.21908    0.01318    0.01318      24       1     hor
      31   0.568   -94.21903    0.01249    0.01249      25       1     hor
      32   0.590   -94.21899    0.01205    0.01205      26       1     hor
      33   0.628   -94.21893    0.01130    0.01130      27       1     hor
      34   0.630   -94.21893    0.01126    0.01126      28       1     hor
      35   0.635   -94.21892    0.01117    0.01117      29       1     hor
      36   0.652   -94.21889    0.01085    0.01085      30       1     hor
      37   0.683   -94.21885    0.01030    0.01030      31       1     hor
      38   0.687   -94.21884    0.01022    0.03028      32       3     hor
      39   0.690   -94.21883    0.01017                                hor
      40   0.707   -94.21881    0.00989                                hor
      41   0.705   -94.21881    0.00993    0.01979      33       2     hor
      42   0.709   -94.21880    0.00986                                hor
      43   0.709   -94.21880    0.00985    0.01974      34       2     hor
      44   0.707   -94.21881    0.00989                                hor
      45   0.717   -94.21879    0.00972    0.00972      35       1     hor
      46   0.731   -94.21877    0.00949    0.00949      36       1     hor
      47   0.738   -94.21876    0.00938    0.00938      37       1     hor
      48   0.753   -94.21873    0.00915    0.02716      38       3     hor
      49   0.761   -94.21872    0.00903                                hor
      50   0.764   -94.21872    0.00898                                hor
      51   0.765   -94.21871    0.00896    0.01764      39       2     hor
      52   0.785   -94.21868    0.00867                                hor
      53   0.788   -94.21868    0.00863    0.00863      40       1     hor
      54   0.764   -94.21872    0.00898    0.00898      41       1     hor
      55   0.802   -94.21866    0.00843    0.00843      42       1     hor
      56   0.830   -94.21861    0.00803    0.00803      43       1     hor
      57   0.891   -94.21851    0.00726    0.00726      44       1     hor
T /K                                  :   298.15
E lowest                              :   -94.21993
ensemble average energy (kcal)        :    0.298
ensemble entropy (J/mol K, cal/mol K) :   32.652    7.804
ensemble free energy (kcal/mol)       :   -2.327
population of lowest in %             :    9.700
 number of unique conformers for further calc           44
 list of relative energies saved as "crest.energies"
 
 -----------------
 Wall Time Summary
 -----------------
             test MD wall time :         0h : 0m :31s
                 MTD wall time :         0h : 1m :53s
      multilevel OPT wall time :         0h : 2m :27s
                  MD wall time :         0h : 0m :46s
                  GC wall time :         0h : 0m : 3s
--------------------
Overall wall time  : 0h : 6m : 2s
 
 CREST terminated normally.
