 
       ==============================================
       |                                            |
       |                 C R E S T                  |
       |                                            |
       |  Conformer-Rotamer Ensemble Sampling Tool  |
       |          based on the GFN methods          |
       |             P.Pracht, S.Grimme             |
       |          Universitaet Bonn, MCTC           |
       ==============================================
       Version 2.11.2, Fr 17. Dec 12:10:44 CEST 2021
  Using the xTB program. Compatible with xTB version 6.4.0
 
   Cite work conducted with this code as

   P. Pracht, F. Bohle, S. Grimme, PCCP, 2020, 22, 7169-7192.

   and  S. Grimme, JCTC, 2019, 15, 2847-2862.
 
   with help from:
   C.Bannwarth, F.Bohle, S.Ehlert, S.Grimme,
   C. Plett, P.Pracht, S. Spicher
 
   This program is distributed in the hope that it will be useful,
   but WITHOUT ANY WARRANTY; without even the implied warranty of
   MERCHANTABILITY or FITNESS FOR A PARTICULAR PURPOSE.

 Command line input:
 > crest 00176_r_0.xyz -T 28 -gfn2 -chrg 0 -uhf 0 -rthr 0.25 -shake 1 --mdlen 0.5

  -T 28 (CPUs/Threads selected)
  -gfn2 : Use of GFN2-xTB requested.
  -chrg 0
  -uhf 0
  -rthr 0.25
  --mdlen 0.5 (MD length in ps)
 
 -------------------------
 xTB Geometry Optimization
 -------------------------
 Geometry successfully optimized.
 
------------------------------------------------
Generating MTD length from a flexibility measure
------------------------------------------------
      -----------------------------------------------------------      
     |                   =====================                   |     
     |                           x T B                           |     
     |                   =====================                   |     
     |                         S. Grimme                         |     
     |          Mulliken Center for Theoretical Chemistry        |     
     |                    University of Bonn                     |     
      -----------------------------------------------------------      

   * xtb version 6.4.1 (afa7bdf) compiled by 'ehlert@majestix' on 2021-06-10

   xtb is free software: you can redistribute it and/or modify it under
   the terms of the GNU Lesser General Public License as published by
   the Free Software Foundation, either version 3 of the License, or
   (at your option) any later version.
   
   xtb is distributed in the hope that it will be useful,
   but WITHOUT ANY WARRANTY; without even the implied warranty of
   MERCHANTABILITY or FITNESS FOR A PARTICULAR PURPOSE.  See the
   GNU Lesser General Public License for more details.
   
   Cite this work as:
   * C. Bannwarth, E. Caldeweyher, S. Ehlert, A. Hansen, P. Pracht,
     J. Seibert, S. Spicher, S. Grimme, WIREs Comput. Mol. Sci., 2020, 11,
     e01493. DOI: 10.1002/wcms.1493
   
   for GFN2-xTB:
   * C. Bannwarth, S. Ehlert and S. Grimme., J. Chem. Theory Comput., 2019,
     15, 1652-1671. DOI: 10.1021/acs.jctc.8b01176
   for GFN1-xTB:
   * S. Grimme, C. Bannwarth, P. Shushkov, J. Chem. Theory Comput., 2017,
     13, 1989-2009. DOI: 10.1021/acs.jctc.7b00118
   for GFN0-xTB:
   * P. Pracht, E. Caldeweyher, S. Ehlert, S. Grimme, ChemRxiv, 2019, preprint.
     DOI: 10.26434/chemrxiv.8326202.v1
   for GFN-FF:
   * S. Spicher and S. Grimme, Angew. Chem. Int. Ed., 2020, 59, 15665-15673.
     DOI: 10.1002/anie.202004239
   
   for DFT-D4:
   * E. Caldeweyher, C. Bannwarth and S. Grimme, J. Chem. Phys., 2017,
     147, 034112. DOI: 10.1063/1.4993215
   * E. Caldeweyher, S. Ehlert, A. Hansen, H. Neugebauer, S. Spicher,
     C. Bannwarth and S. Grimme, J. Chem. Phys., 2019, 150, 154122.
     DOI: 10.1063/1.5090222
   * E. Caldeweyher, J.-M. Mewes, S. Ehlert and S. Grimme, Phys. Chem. Chem. Phys.
     2020, 22, 8499-8512. DOI: 10.1039/D0CP00502A
   
   for sTDA-xTB:
   * S. Grimme and C. Bannwarth, J. Chem. Phys., 2016, 145, 054103.
     DOI: 10.1063/1.4959605
   
   in the mass-spec context:
   * V. Asgeirsson, C. Bauer and S. Grimme, Chem. Sci., 2017, 8, 4879.
     DOI: 10.1039/c7sc00601b
   * J. Koopman and S. Grimme, ACS Omega 2019, 4, 12, 15120-15133.
     DOI: 10.1021/acsomega.9b02011
   
   for metadynamics refer to:
   * S. Grimme, J. Chem. Theory Comput., 2019, 155, 2847-2862
     DOI: 10.1021/acs.jctc.9b00143
   
   for SPH calculations refer to:
   * S. Spicher and S. Grimme, J. Chem. Theory Comput., 2021, 17, 1701-1714
     DOI: 10.1021/acs.jctc.0c01306
   
   with help from (in alphabetical order)
   P. Atkinson, C. Bannwarth, F. Bohle, G. Brandenburg, E. Caldeweyher
   M. Checinski, S. Dohm, S. Ehlert, S. Ehrlich, I. Gerasimov, J. Koopman
   C. Lavigne, S. Lehtola, F. März, M. Müller, F. Musil, H. Neugebauer
   J. Pisarek, C. Plett, P. Pracht, J. Seibert, P. Shushkov, S. Spicher
   M. Stahn, M. Steiner, T. Strunk, J. Stückrath, T. Rose, and J. Unsleber
   
 * started run on 2024/12/09 at 16:34:09.219     

           -------------------------------------------------
          |                Calculation Setup                |
           -------------------------------------------------

          program call               : xtb tmpcoord --gfn0 --sp
          hostname                   : node66
          coordinate file            : tmpcoord
          omp threads                :                    28
          number of atoms            :                    62
          number of electrons        :                   190
          charge                     :                     0
          spin                       :                   0.0
          first test random number   :      0.28746763730177

   ID    Z sym.   atoms
    1    8 o      1, 10, 23, 31
    2    6 c      2-9, 11-22, 24-30, 32-40
    3    1 h      41-62
########################################################################
[WARNING] Please study the warnings concerning your input carefully
-1- prog_main_parseArguments: The use of '--gfn0' is discouraged, please use '--gfn 0' next time
########################################################################

           -------------------------------------------------
          |                 G F N 0 - x T B                 |
           -------------------------------------------------

        Reference                      10.26434/chemrxiv.8326202.v1
      * Hamiltonian:
        H0-scaling (s, p, d)           2.000000    2.486800    2.270000
        zeta-weighting                 1.000000
      * Dispersion:
        s8                             2.850000
        a1                             0.800000
        a2                             4.600000
        s9                             0.000000
      * Repulsion:
        kExp                           1.500000
        rExp                           1.000000
      * Coulomb:
        alpha                          0.000000
        third order                    atomic
        anisotropic                    false
      * Polar bond correction:
        rad-shift                      0.053700
        strength                      -0.012900
        en-exp                         3.484700
        en-scale                       0.509700


          ...................................................
          :                      SETUP                      :
          :.................................................:
          :  # basis functions                 204          :
          :  # atomic orbitals                 204          :
          :  # shells                          124          :
          :  # electrons                       190          :
          :  electronic temp.          300.0000000     K    :
          :  accuracy                    1.0000000          :
          :  -> integral cutoff          0.2500000E+02      :
          :  -> integral neglect         0.1000000E-07      :
          ...................................................
  Checking positiv definite overlap ...  done.
 

         #    Occupation            Energy/Eh            Energy/eV
      -------------------------------------------------------------
         1        2.0000           -0.6949756             -18.9112
       ...           ...                  ...                  ...
        89        2.0000           -0.4222905             -11.4911
        90        2.0000           -0.4125250             -11.2254
        91        2.0000           -0.4123589             -11.2209
        92        2.0000           -0.4009760             -10.9111
        93        2.0000           -0.4009001             -10.9090
        94        2.0000           -0.3932221             -10.7001
        95        2.0000           -0.3911765             -10.6445 (HOMO)
        96                         -0.3010261              -8.1913 (LUMO)
        97                         -0.2998419              -8.1591
        98                         -0.2786809              -7.5833
        99                         -0.2785518              -7.5798
       100                         -0.2651118              -7.2141
       ...                                ...                  ...
       204                          0.6802939              18.5117
      -------------------------------------------------------------
                  HL-Gap            0.0901504 Eh            2.4531 eV
             Fermi-level            0.0000000 Eh            0.0000 eV

 EHT (total)                   0 d,  0 h,  0 min,  0.080 sec
 EHT setup                      ...        0 min,  0.001 sec (  1.208%)
 Coordination number            ...        0 min,  0.001 sec (  1.036%)
 EEQ model density              ...        0 min,  0.001 sec (  0.724%)
 D4 Dispersion                  ...        0 min,  0.003 sec (  3.269%)
 Integral evaluation            ...        0 min,  0.001 sec (  1.394%)
 Cholesky factorization         ...        0 min,  0.010 sec ( 12.087%)
 Zeroth order Hamiltonian       ...        0 min,  0.061 sec ( 76.136%)
 Gradient calculation           ...        0 min,  0.003 sec (  3.259%)

         :::::::::::::::::::::::::::::::::::::::::::::::::::::
         ::                     SUMMARY                     ::
         :::::::::::::::::::::::::::::::::::::::::::::::::::::
         :: total energy            -100.976562847256 Eh    ::
         :: gradient norm              0.054500700083 Eh/a0 ::
         :: HOMO-LUMO gap              2.453117328396 eV    ::
         ::.................................................::
         :: H0 energy               -102.475765224053 Eh    ::
         :: repulsion energy           1.749510792565 Eh    ::
         :: electrostat energy        -0.131789491832 Eh    ::
         :: -> Gsolv                   0.000000000000 Eh    ::
         ::    -> Gsasa                0.000000000000 Eh    ::
         ::    -> Gshift               0.000000000000 Eh    ::
         :: dispersion energy         -0.044888246962 Eh    ::
         :: short-range corr.         -0.073630676975 Eh    ::
         :: add. restraining           0.000000000000 Eh    ::
         :: total charge               0.000000000000 e     ::
         :::::::::::::::::::::::::::::::::::::::::::::::::::::

           -------------------------------------------------
          |                Property Printout                |
           -------------------------------------------------

    * Orbital Energies and Occupations

         #    Occupation            Energy/Eh            Energy/eV
      -------------------------------------------------------------
         1        2.0000           -0.6949756             -18.9112
       ...           ...                  ...                  ...
        83        2.0000           -0.4483804             -12.2011
        84        2.0000           -0.4482464             -12.1974
        85        2.0000           -0.4451731             -12.1138
        86        2.0000           -0.4440930             -12.0844
        87        2.0000           -0.4369553             -11.8902
        88        2.0000           -0.4224804             -11.4963
        89        2.0000           -0.4222905             -11.4911
        90        2.0000           -0.4125250             -11.2254
        91        2.0000           -0.4123589             -11.2209
        92        2.0000           -0.4009760             -10.9111
        93        2.0000           -0.4009001             -10.9090
        94        2.0000           -0.3932221             -10.7001
        95        2.0000           -0.3911765             -10.6445 (HOMO)
        96                         -0.3010261              -8.1913 (LUMO)
        97                         -0.2998419              -8.1591
        98                         -0.2786809              -7.5833
        99                         -0.2785518              -7.5798
       100                         -0.2651118              -7.2141
       101                         -0.2645758              -7.1995
       102                         -0.2481455              -6.7524
       103                         -0.2478246              -6.7436
       104                         -0.2322018              -6.3185
       105                         -0.2298625              -6.2549
       106                         -0.2102994              -5.7225
       ...                                ...                  ...
       204                          0.6802939              18.5117
      -------------------------------------------------------------
                  HL-Gap            0.0901504 Eh            2.4531 eV
             Fermi-level            0.0000000 Eh            0.0000 eV

     #   Z          covCN         q      C6AA      α(0)
     1   8 o        1.660    -0.525    23.261     6.524
     2   6 c        2.850     0.226    24.550     8.095
     3   6 c        2.972    -0.042    30.591     9.044
     4   6 c        2.983     0.062    28.036     8.658
     5   6 c        2.924    -0.152    33.639     9.481
     6   6 c        2.910    -0.141    33.325     9.436
     7   6 c        3.096     0.046    28.294     8.692
     8   6 c        2.981    -0.214    35.461     9.738
     9   6 c        3.064     0.134    26.342     8.391
    10   8 o        1.721    -0.371    20.105     6.067
    11   6 c        3.122     0.277    23.382     7.896
    12   6 c        2.913    -0.230    35.998     9.807
    13   6 c        2.924    -0.177    34.359     9.582
    14   6 c        2.985     0.071    27.824     8.626
    15   6 c        2.919    -0.128    32.953     9.384
    16   6 c        2.915    -0.084    31.723     9.207
    17   6 c        2.916    -0.087    31.809     9.219
    18   6 c        2.918    -0.113    32.518     9.322
    19   6 c        2.989     0.022    28.985     8.804
    20   6 c        2.976    -0.004    29.611     8.898
    21   6 c        2.976    -0.004    29.615     8.899
    22   6 c        2.850     0.225    24.573     8.099
    23   8 o        1.659    -0.530    23.369     6.539
    24   6 c        2.971    -0.042    30.584     9.043
    25   6 c        2.983     0.061    28.050     8.661
    26   6 c        2.924    -0.152    33.640     9.482
    27   6 c        2.910    -0.142    33.346     9.439
    28   6 c        3.096     0.046    28.295     8.692
    29   6 c        2.981    -0.214    35.475     9.740
    30   6 c        3.064     0.134    26.345     8.391
    31   8 o        1.721    -0.369    20.079     6.063
    32   6 c        3.121     0.277    23.398     7.899
    33   6 c        2.913    -0.227    35.919     9.797
    34   6 c        2.925    -0.176    34.348     9.581
    35   6 c        2.985     0.071    27.818     8.625
    36   6 c        2.919    -0.128    32.944     9.383
    37   6 c        2.915    -0.084    31.710     9.205
    38   6 c        2.916    -0.086    31.787     9.216
    39   6 c        2.918    -0.111    32.465     9.314
    40   6 c        2.989     0.024    28.936     8.796
    41   1 h        0.805     0.301     0.719     1.332
    42   1 h        0.925     0.132     1.522     1.929
    43   1 h        0.926     0.119     1.625     1.993
    44   1 h        0.926     0.123     1.587     1.970
    45   1 h        0.926     0.072     2.060     2.244
    46   1 h        0.926     0.144     1.430     1.870
    47   1 h        0.926     0.125     1.572     1.961
    48   1 h        0.926     0.105     1.741     2.064
    49   1 h        0.926     0.098     1.802     2.099
    50   1 h        0.926     0.099     1.798     2.097
    51   1 h        0.926     0.114     1.661     2.016
    52   1 h        0.805     0.302     0.714     1.327
    53   1 h        0.925     0.122     1.601     1.978
    54   1 h        0.926     0.116     1.642     2.004
    55   1 h        0.926     0.123     1.592     1.973
    56   1 h        0.926     0.072     2.059     2.244
    57   1 h        0.926     0.149     1.400     1.850
    58   1 h        0.926     0.125     1.577     1.964
    59   1 h        0.926     0.105     1.740     2.063
    60   1 h        0.926     0.099     1.796     2.096
    61   1 h        0.926     0.100     1.784     2.089
    62   1 h        0.926     0.117     1.640     2.003

 Mol. C6AA /au·bohr⁶  :      59766.752684
 Mol. C8AA /au·bohr⁸  :    1552665.439796
 Mol. α(0) /au        :        392.898524


Wiberg/Mayer (AO) data.
largest (>0.10) Wiberg bond orders for each atom

 ---------------------------------------------------------------------------
     #   Z sym  total        # sym  WBO       # sym  WBO       # sym  WBO
 ---------------------------------------------------------------------------
     1   8 o    2.304 --     2 c    1.132    41 h    0.966
     2   6 c    3.940 --    20 c    1.414     3 c    1.214     1 o    1.132
     3   6 c    3.975 --    13 c    1.517     2 c    1.214     4 c    1.030
     4   6 c    3.974 --    12 c    1.428     5 c    1.328     3 c    1.030
     5   6 c    3.980 --     6 c    1.493     4 c    1.328    42 h    0.969
     6   6 c    3.987 --     5 c    1.493     7 c    1.334    43 h    0.968
                            12 c    0.105
     7   6 c    3.972 --     6 c    1.334    11 c    1.248     8 c    1.198
     8   6 c    3.962 --     9 c    1.629     7 c    1.198    44 h    0.969
     9   6 c    3.949 --     8 c    1.629    10 o    1.209    45 h    0.969
    10   8 o    2.638 --     9 c    1.209    11 c    1.160
    11   6 c    3.947 --    12 c    1.360     7 c    1.248    10 o    1.160
    12   6 c    3.982 --     4 c    1.428    11 c    1.360    46 h    0.965
                             6 c    0.105
    13   6 c    3.981 --     3 c    1.517    14 c    1.275    47 h    0.965
    14   6 c    3.978 --    15 c    1.279    13 c    1.275    19 c    1.239
    15   6 c    3.980 --    16 c    1.553    14 c    1.279    48 h    0.969
                            18 c    0.115
    16   6 c    3.975 --    15 c    1.553    17 c    1.317    49 h    0.973
    17   6 c    3.983 --    18 c    1.558    16 c    1.317    50 h    0.972
    18   6 c    3.987 --    17 c    1.558    19 c    1.270    51 h    0.966
                            15 c    0.115
    19   6 c    3.977 --    18 c    1.270    20 c    1.260    14 c    1.239
    20   6 c    3.966 --     2 c    1.414    19 c    1.260    21 c    0.995
    21   6 c    3.966 --    22 c    1.415    40 c    1.260    20 c    0.995
    22   6 c    3.940 --    21 c    1.415    24 c    1.214    23 o    1.130
    23   8 o    2.303 --    22 c    1.130    52 h    0.967
    24   6 c    3.975 --    34 c    1.517    22 c    1.214    25 c    1.031
    25   6 c    3.974 --    33 c    1.428    26 c    1.328    24 c    1.031
    26   6 c    3.980 --    27 c    1.494    25 c    1.328    53 h    0.969
    27   6 c    3.987 --    26 c    1.494    28 c    1.334    54 h    0.968
                            33 c    0.105
    28   6 c    3.972 --    27 c    1.334    32 c    1.248    29 c    1.198
    29   6 c    3.962 --    30 c    1.629    28 c    1.198    55 h    0.969
    30   6 c    3.949 --    29 c    1.629    31 o    1.209    56 h    0.969
    31   8 o    2.638 --    30 c    1.209    32 c    1.160
    32   6 c    3.947 --    33 c    1.360    28 c    1.248    31 o    1.160
    33   6 c    3.982 --    25 c    1.428    32 c    1.360    57 h    0.965
                            27 c    0.105
    34   6 c    3.981 --    24 c    1.517    35 c    1.275    58 h    0.965
    35   6 c    3.978 --    36 c    1.279    34 c    1.275    40 c    1.239
    36   6 c    3.980 --    37 c    1.553    35 c    1.279    59 h    0.969
                            39 c    0.115
    37   6 c    3.975 --    36 c    1.553    38 c    1.317    60 h    0.973
    38   6 c    3.983 --    39 c    1.558    37 c    1.317    61 h    0.972
    39   6 c    3.987 --    38 c    1.558    40 c    1.271    62 h    0.966
                            36 c    0.115
    40   6 c    3.977 --    39 c    1.271    21 c    1.260    35 c    1.239
    41   1 h    0.986 --     1 o    0.966
    42   1 h    0.981 --     5 c    0.969
    43   1 h    0.983 --     6 c    0.968
    44   1 h    0.984 --     8 c    0.969
    45   1 h    0.997 --     9 c    0.969
    46   1 h    0.981 --    12 c    0.965
    47   1 h    0.975 --    13 c    0.965
    48   1 h    0.978 --    15 c    0.969
    49   1 h    0.983 --    16 c    0.973
    50   1 h    0.984 --    17 c    0.972
    51   1 h    0.980 --    18 c    0.966
    52   1 h    0.986 --    23 o    0.967
    53   1 h    0.982 --    26 c    0.969
    54   1 h    0.983 --    27 c    0.968
    55   1 h    0.984 --    29 c    0.969
    56   1 h    0.997 --    30 c    0.969
    57   1 h    0.981 --    33 c    0.965
    58   1 h    0.974 --    34 c    0.965
    59   1 h    0.978 --    36 c    0.969
    60   1 h    0.983 --    37 c    0.973
    61   1 h    0.984 --    38 c    0.972
    62   1 h    0.980 --    39 c    0.966
 ---------------------------------------------------------------------------

Topologies differ in total number of bonds
Writing topology from bond orders to xtbtopo.mol

 dipole moment from electron density (au)
     X       Y       Z   
  -0.3400   1.7646  -1.3432  total (Debye):    5.703


           -------------------------------------------------
          | TOTAL ENERGY             -100.976562847256 Eh   |
          | GRADIENT NORM               0.054500700083 Eh/α |
          | HOMO-LUMO GAP               2.453117328396 eV   |
           -------------------------------------------------

------------------------------------------------------------------------
 * finished run on 2024/12/09 at 16:34:09.508     
------------------------------------------------------------------------
 total:
 * wall-time:     0 d,  0 h,  0 min,  0.289 sec
 *  cpu-time:     0 d,  0 h,  0 min,  7.181 sec
 * ratio c/w:    24.884 speedup
 SCF:
 * wall-time:     0 d,  0 h,  0 min,  0.081 sec
 *  cpu-time:     0 d,  0 h,  0 min,  2.057 sec
 * ratio c/w:    25.488 speedup

 Calculating WBOs... done.
      -----------------------------------------------------------      
     |                   =====================                   |     
     |                           x T B                           |     
     |                   =====================                   |     
     |                         S. Grimme                         |     
     |          Mulliken Center for Theoretical Chemistry        |     
     |                    University of Bonn                     |     
      -----------------------------------------------------------      

   * xtb version 6.4.1 (afa7bdf) compiled by 'ehlert@majestix' on 2021-06-10

   xtb is free software: you can redistribute it and/or modify it under
   the terms of the GNU Lesser General Public License as published by
   the Free Software Foundation, either version 3 of the License, or
   (at your option) any later version.
   
   xtb is distributed in the hope that it will be useful,
   but WITHOUT ANY WARRANTY; without even the implied warranty of
   MERCHANTABILITY or FITNESS FOR A PARTICULAR PURPOSE.  See the
   GNU Lesser General Public License for more details.
   
   Cite this work as:
   * C. Bannwarth, E. Caldeweyher, S. Ehlert, A. Hansen, P. Pracht,
     J. Seibert, S. Spicher, S. Grimme, WIREs Comput. Mol. Sci., 2020, 11,
     e01493. DOI: 10.1002/wcms.1493
   
   for GFN2-xTB:
   * C. Bannwarth, S. Ehlert and S. Grimme., J. Chem. Theory Comput., 2019,
     15, 1652-1671. DOI: 10.1021/acs.jctc.8b01176
   for GFN1-xTB:
   * S. Grimme, C. Bannwarth, P. Shushkov, J. Chem. Theory Comput., 2017,
     13, 1989-2009. DOI: 10.1021/acs.jctc.7b00118
   for GFN0-xTB:
   * P. Pracht, E. Caldeweyher, S. Ehlert, S. Grimme, ChemRxiv, 2019, preprint.
     DOI: 10.26434/chemrxiv.8326202.v1
   for GFN-FF:
   * S. Spicher and S. Grimme, Angew. Chem. Int. Ed., 2020, 59, 15665-15673.
     DOI: 10.1002/anie.202004239
   
   for DFT-D4:
   * E. Caldeweyher, C. Bannwarth and S. Grimme, J. Chem. Phys., 2017,
     147, 034112. DOI: 10.1063/1.4993215
   * E. Caldeweyher, S. Ehlert, A. Hansen, H. Neugebauer, S. Spicher,
     C. Bannwarth and S. Grimme, J. Chem. Phys., 2019, 150, 154122.
     DOI: 10.1063/1.5090222
   * E. Caldeweyher, J.-M. Mewes, S. Ehlert and S. Grimme, Phys. Chem. Chem. Phys.
     2020, 22, 8499-8512. DOI: 10.1039/D0CP00502A
   
   for sTDA-xTB:
   * S. Grimme and C. Bannwarth, J. Chem. Phys., 2016, 145, 054103.
     DOI: 10.1063/1.4959605
   
   in the mass-spec context:
   * V. Asgeirsson, C. Bauer and S. Grimme, Chem. Sci., 2017, 8, 4879.
     DOI: 10.1039/c7sc00601b
   * J. Koopman and S. Grimme, ACS Omega 2019, 4, 12, 15120-15133.
     DOI: 10.1021/acsomega.9b02011
   
   for metadynamics refer to:
   * S. Grimme, J. Chem. Theory Comput., 2019, 155, 2847-2862
     DOI: 10.1021/acs.jctc.9b00143
   
   for SPH calculations refer to:
   * S. Spicher and S. Grimme, J. Chem. Theory Comput., 2021, 17, 1701-1714
     DOI: 10.1021/acs.jctc.0c01306
   
   with help from (in alphabetical order)
   P. Atkinson, C. Bannwarth, F. Bohle, G. Brandenburg, E. Caldeweyher
   M. Checinski, S. Dohm, S. Ehlert, S. Ehrlich, I. Gerasimov, J. Koopman
   C. Lavigne, S. Lehtola, F. März, M. Müller, F. Musil, H. Neugebauer
   J. Pisarek, C. Plett, P. Pracht, J. Seibert, P. Shushkov, S. Spicher
   M. Stahn, M. Steiner, T. Strunk, J. Stückrath, T. Rose, and J. Unsleber
   
 * started run on 2024/12/09 at 16:34:09.553     

           -------------------------------------------------
          |                Calculation Setup                |
           -------------------------------------------------

          program call               : xtb tmpcoord --gfnff --sp
          hostname                   : node66
          coordinate file            : tmpcoord
          omp threads                :                    28
          number of atoms            :                    62
          number of electrons        :                   190
          charge                     :                     0
          spin                       :                   0.0
          first test random number   :      0.21446266315380

   ID    Z sym.   atoms
    1    8 o      1, 10, 23, 31
    2    6 c      2-9, 11-22, 24-30, 32-40
    3    1 h      41-62
 
          ==================== Thresholds ====================
          CN  :   150.00000
          rep :   500.00000
          disp:  2500.00000
          HB1 :   250.00000
          HB2 :   450.00000
 
          Pauling EN used:
          Z : 1  EN :  2.20
          Z : 6  EN :  2.55
          Z : 8  EN :  3.44
          electric field strengths (au): 0.000
 
           ------------------------------------------------- 
          |           Force Field Initialization            |
           ------------------------------------------------- 
 
          distances ...
          ----------------------------------------
          generating topology and atomic info file ...
          pair mat ...
          computing topology distances matrix with Floyd-Warshall algo ...
          making topology EEQ charges ...
          #fragments for EEQ constrain: 1
          ----------------------------------------
          generating topology and atomic info file ...
          pair mat ...
          computing topology distances matrix with Floyd-Warshall algo ...
          making topology EEQ charges ...
          #fragments for EEQ constrain: 1
          rings ...
          # BATM   708
          # H in HB   22
          doing iterative Hueckel for 1 subsystem(s) ...
 
  atom   neighbors  erfCN metchar sp-hybrid imet pi  qest     coordinates
    1  o       2    1.92   0.00         3    0    1  -0.457   -2.263262    1.077333   -2.637114
    2  c       3    2.82   0.00         2    0    1   0.110   -3.027671   -0.080158   -0.471349
    3  c       3    2.82   0.00         2    0    1  -0.018   -5.497768    0.271891    0.508796
    4  c       3    2.82   0.00         2    0    1   0.005   -7.285723    2.002525   -0.751004
    5  c       3    2.82   0.00         2    0    1  -0.035   -6.585018    4.521199   -1.234197
    6  c       3    2.81   0.00         2    0    1   0.002   -8.202051    6.200341   -2.389778
    7  c       3    2.92   0.00         2    0    1  -0.025  -10.590461    5.350752   -3.097608
    8  c       3    2.87   0.00         2    0    1  -0.034  -12.745090    6.447901   -4.299603
    9  c       3    3.03   0.00         2    0    1   0.067  -14.496392    4.589567   -4.424016
   10  o       2    1.94   0.00         3    0    1  -0.354  -13.668516    2.390427   -3.411850
   11  c       3    3.03   0.00         2    0    1   0.116  -11.285861    2.826757   -2.592847
   12  c       3    2.81   0.00         2    0    1  -0.030   -9.668200    1.136184   -1.424805
   13  c       3    2.82   0.00         2    0    1  -0.019   -6.218306   -1.030415    2.633410
   14  c       3    2.83   0.00         2    0    1  -0.025   -4.555556   -2.677256    3.892160
   15  c       3    2.81   0.00         2    0    1  -0.024   -5.276756   -4.007142    6.086755
   16  c       3    2.81   0.00         2    0    1  -0.015   -3.623407   -5.598839    7.269045
   17  c       3    2.81   0.00         2    0    1  -0.045   -1.173549   -5.930263    6.306233
   18  c       3    2.81   0.00         2    0    1  -0.031   -0.415692   -4.667546    4.185167
   19  c       3    2.83   0.00         2    0    1   0.014   -2.077222   -3.007958    2.921582
   20  c       3    2.82   0.00         2    0    1   0.001   -1.355289   -1.688768    0.715183
   21  c       3    2.82   0.00         2    0    1   0.001    1.213285   -1.998924   -0.358763
   22  c       3    2.82   0.00         2    0    1   0.110    3.064629   -0.283960    0.291775
   23  o       2    1.92   0.00         3    0    1  -0.457    2.432197    1.639103    1.880377
   24  c       3    2.82   0.00         2    0    1  -0.018    5.541570   -0.516924   -0.705958
   25  c       3    2.82   0.00         2    0    1   0.005    7.552663    1.261893    0.050138
   26  c       3    2.82   0.00         2    0    1  -0.035    8.080715    1.651291    2.626965
   27  c       3    2.81   0.00         2    0    1   0.002    9.974299    3.250841    3.417140
   28  c       3    2.92   0.00         2    0    1  -0.025   11.387024    4.513515    1.590592
   29  c       3    2.86   0.00         2    0    1  -0.034   13.441513    6.265231    1.618644
   30  c       3    3.03   0.00         2    0    1   0.067   13.967310    6.762663   -0.833380
   31  o       2    1.94   0.00         3    0    1  -0.354   12.437576    5.492323   -2.443386
   32  c       3    3.03   0.00         2    0    1   0.116   10.852720    4.108333   -0.990129
   33  c       3    2.81   0.00         2    0    1  -0.030    8.955434    2.496202   -1.790985
   34  c       3    2.82   0.00         2    0    1  -0.019    6.059655   -2.429178   -2.380954
   35  c       3    2.83   0.00         2    0    1  -0.025    4.211344   -4.200472   -3.092872
   36  c       3    2.81   0.00         2    0    1  -0.024    4.735162   -6.180198   -4.799083
   37  c       3    2.81   0.00         2    0    1  -0.015    2.905281   -7.881372   -5.448953
   38  c       3    2.81   0.00         2    0    1  -0.045    0.470459   -7.679680   -4.414880
   39  c       3    2.81   0.00         2    0    1  -0.031   -0.096907   -5.785076   -2.754767
   40  c       3    2.83   0.00         2    0    1   0.014    1.748707   -3.993656   -2.051290
   41  h       1    0.97   0.00         0    0    0   0.245   -3.626770    2.105021   -3.287591
   42  h       1    0.97   0.00         0    0    0   0.065   -4.748997    5.164720   -0.609160
   43  h       1    0.97   0.00         0    0    0   0.033   -7.642776    8.131708   -2.731521
   44  h       1    0.98   0.00         0    0    0   0.063  -12.935109    8.349075   -4.964549
   45  h       1    0.98   0.00         0    0    0   0.061  -16.380407    4.579197   -5.173798
   46  h       1    0.97   0.00         0    0    0   0.071  -10.228539   -0.790262   -1.068380
   47  h       1    0.97   0.00         0    0    0   0.055   -8.097402   -0.756271    3.385836
   48  h       1    0.97   0.00         0    0    0   0.057   -7.166841   -3.740160    6.814375
   49  h       1    0.97   0.00         0    0    0   0.045   -4.187118   -6.612250    8.949224
   50  h       1    0.97   0.00         0    0    0   0.060    0.111494   -7.198088    7.260148
   51  h       1    0.97   0.00         0    0    0   0.042    1.467037   -4.924717    3.439353
   52  h       1    0.97   0.00         0    0    0   0.245    3.874773    2.738104    2.100524
   53  h       1    0.97   0.00         0    0    0   0.065    7.011172    0.604305    4.018400
   54  h       1    0.97   0.00         0    0    0   0.033   10.368240    3.512770    5.401108
   55  h       1    0.98   0.00         0    0    0   0.063   14.374369    7.025629    3.244860
   56  h       1    0.98   0.00         0    0    0   0.061   15.361665    7.966130   -1.681486
   57  h       1    0.97   0.00         0    0    0   0.071    8.566913    2.219753   -3.772036
   58  h       1    0.97   0.00         0    0    0   0.055    7.947178   -2.609762   -3.140524
   59  h       1    0.97   0.00         0    0    0   0.057    6.616027   -6.322509   -5.583457
   60  h       1    0.97   0.00         0    0    0   0.045    3.317138   -9.391655   -6.759331
   61  h       1    0.97   0.00         0    0    0   0.060   -0.956053   -9.040675   -4.945156
   62  h       1    0.97   0.00         0    0    0   0.042   -1.968840   -5.628741   -1.956336
 
          #atoms :   62
          #bonds :   69
          #angl  :   112
          #tors  :   212
          #nmol  :   1
          #optfrag :   1
           ------------------------------------------------- 
          |                   G F N - F F                   |
          |          A general generic force-field          |
          |                  Version 1.0.3                  | 
           ------------------------------------------------- 
          nhb123   4661 487 0

 E+G (total)                   0 d,  0 h,  0 min,  0.004 sec
 distance/D3 list               ...        0 min,  0.000 sec (  0.675%)
 non bonded repulsion           ...        0 min,  0.000 sec (  7.221%)
 dCN                            ...        0 min,  0.000 sec (  4.415%)
 EEQ energy and q               ...        0 min,  0.000 sec ( 12.212%)
 D3                             ...        0 min,  0.000 sec ( 12.491%)
 EEQ gradient                   ...        0 min,  0.000 sec (  8.620%)
 bonds                          ...        0 min,  0.000 sec (  9.611%)
 bend and torsion               ...        0 min,  0.001 sec ( 13.636%)
 bonded ATM                     ...        0 min,  0.000 sec (  1.666%)
 HB/XB (incl list setup)        ...        0 min,  0.001 sec ( 24.053%)

         :::::::::::::::::::::::::::::::::::::::::::::::::::::
         ::                     SUMMARY                     ::
         :::::::::::::::::::::::::::::::::::::::::::::::::::::
         :: total energy             -13.507944970337 Eh    ::
         :: gradient norm              0.084613853315 Eh/a0 ::
         ::.................................................::
         :: bond energy              -14.295772929955 Eh    ::
         :: angle energy               0.020821382956 Eh    ::
         :: torsion energy             0.020197561761 Eh    ::
         :: repulsion energy           1.037174040157 Eh    ::
         :: electrostat energy        -0.216631018683 Eh    ::
         :: dispersion energy         -0.064806652121 Eh    ::
         :: HB energy                 -0.001195351512 Eh    ::
         :: XB energy                  0.000000000000 Eh    ::
         :: bonded atm energy         -0.007732002940 Eh    ::
         :: external energy            0.000000000000 Eh    ::
         :: add. restraining           0.000000000000 Eh    ::
         :: total charge               0.000000000000 e     ::
         :::::::::::::::::::::::::::::::::::::::::::::::::::::

           -------------------------------------------------
          |                Property Printout                |
           -------------------------------------------------

           -------------------------------------------------
          | TOTAL ENERGY              -13.507944970337 Eh   |
          | GRADIENT NORM               0.084613853315 Eh/α |
           -------------------------------------------------

------------------------------------------------------------------------
 * finished run on 2024/12/09 at 16:34:09.612     
------------------------------------------------------------------------
 total:
 * wall-time:     0 d,  0 h,  0 min,  0.059 sec
 *  cpu-time:     0 d,  0 h,  0 min,  1.110 sec
 * ratio c/w:    18.971 speedup
 SCF:
 * wall-time:     0 d,  0 h,  0 min,  0.007 sec
 *  cpu-time:     0 d,  0 h,  0 min,  0.157 sec
 * ratio c/w:    23.343 speedup

 Calculating NCI flexibility... done.
     covalent flexibility measure :   0.028
 non-covalent flexibility measure :   1.000
 flexibility measure :   0.098
 t(MTD) / ps set by command line  :     0.5
 t(MTD) / ps    :     0.5
 Σ(t(MTD)) / ps :     7.0 (14 MTDs)
 
-------------------------------------
Starting a trial MTD to test settings
-------------------------------------
 Estimated runtime for one MTD (0.5 ps) on a single thread: 2 min 19 sec
 Estimated runtime for a batch of 14 MTDs on 28 threads: 1 min 10 sec
 
 list of Vbias parameters applied:
$metadyn    0.00300   1.300
$metadyn    0.00150   1.300
$metadyn    0.00075   1.300
$metadyn    0.00300   0.780
$metadyn    0.00150   0.780
$metadyn    0.00075   0.780
$metadyn    0.00300   0.468
$metadyn    0.00150   0.468
$metadyn    0.00075   0.468
$metadyn    0.00300   0.281
$metadyn    0.00150   0.281
$metadyn    0.00075   0.281
$metadyn    0.00100   0.100
$metadyn    0.00500   0.800
 
*******************************************************************************************
**                        N E W    I T E R A T I O N    C Y C L E                        **
*******************************************************************************************
 
========================================
            MTD Iteration  1
========================================
 
     ========================================
     |         Meta-MD (MTD) Sampling       |
     ========================================
 
Starting Meta-MD   1 with the settings:
     MD time /ps        :     0.5
     dt /fs             :     1.5
     dumpstep(trj) /fs  :     100
     dumpstep(Vbias)/ps :     1.0
     Vbias factor k /Eh :  0.1860
     Vbias exp α /bohr⁻²:    1.30
Starting Meta-MD   5 with the settings:
     MD time /ps        :     0.5
     dt /fs             :     1.5
     dumpstep(trj) /fs  :     100
     dumpstep(Vbias)/ps :     1.0
     Vbias factor k /Eh :  0.0930
     Vbias exp α /bohr⁻²:    0.78
Starting Meta-MD   3 with the settings:
     MD time /ps        :     0.5
     dt /fs             :     1.5
     dumpstep(trj) /fs  :     100
     dumpstep(Vbias)/ps :     1.0
     Vbias factor k /Eh :  0.0465
     Vbias exp α /bohr⁻²:    1.30
Starting Meta-MD  14 with the settings:
     MD time /ps        :     0.5
     dt /fs             :     1.5
     dumpstep(trj) /fs  :     100
     dumpstep(Vbias)/ps :     1.0
     Vbias factor k /Eh :  0.3100
     Vbias exp α /bohr⁻²:    0.80
Starting Meta-MD   2 with the settings:
     MD time /ps        :     0.5
     dt /fs             :     1.5
     dumpstep(trj) /fs  :     100
     dumpstep(Vbias)/ps :     1.0
     Vbias factor k /Eh :  0.0930
     Vbias exp α /bohr⁻²:    1.30
Starting Meta-MD   7 with the settings:
     MD time /ps        :     0.5
     dt /fs             :     1.5
     dumpstep(trj) /fs  :     100
     dumpstep(Vbias)/ps :     1.0
     Vbias factor k /Eh :  0.1860
     Vbias exp α /bohr⁻²:    0.47
Starting Meta-MD   4 with the settings:
     MD time /ps        :     0.5
     dt /fs             :     1.5
     dumpstep(trj) /fs  :     100
     dumpstep(Vbias)/ps :     1.0
     Vbias factor k /Eh :  0.1860
     Vbias exp α /bohr⁻²:    0.78
Starting Meta-MD   8 with the settings:
     MD time /ps        :     0.5
     dt /fs             :     1.5
     dumpstep(trj) /fs  :     100
     dumpstep(Vbias)/ps :     1.0
     Vbias factor k /Eh :  0.0930
     Vbias exp α /bohr⁻²:    0.47
Starting Meta-MD   9 with the settings:
     MD time /ps        :     0.5
     dt /fs             :     1.5
     dumpstep(trj) /fs  :     100
     dumpstep(Vbias)/ps :     1.0
     Vbias factor k /Eh :  0.0465
     Vbias exp α /bohr⁻²:    0.47
Starting Meta-MD  12 with the settings:
     MD time /ps        :     0.5
     dt /fs             :     1.5
     dumpstep(trj) /fs  :     100
     dumpstep(Vbias)/ps :     1.0
     Vbias factor k /Eh :  0.0465
     Vbias exp α /bohr⁻²:    0.28
Starting Meta-MD  13 with the settings:
     MD time /ps        :     0.5
     dt /fs             :     1.5
     dumpstep(trj) /fs  :     100
     dumpstep(Vbias)/ps :     1.0
     Vbias factor k /Eh :  0.0620
     Vbias exp α /bohr⁻²:    0.10
Starting Meta-MD   6 with the settings:
     MD time /ps        :     0.5
     dt /fs             :     1.5
     dumpstep(trj) /fs  :     100
     dumpstep(Vbias)/ps :     1.0
     Vbias factor k /Eh :  0.0465
     Vbias exp α /bohr⁻²:    0.78
Starting Meta-MD  10 with the settings:
     MD time /ps        :     0.5
     dt /fs             :     1.5
     dumpstep(trj) /fs  :     100
     dumpstep(Vbias)/ps :     1.0
     Vbias factor k /Eh :  0.1860
     Vbias exp α /bohr⁻²:    0.28
Starting Meta-MD  11 with the settings:
     MD time /ps        :     0.5
     dt /fs             :     1.5
     dumpstep(trj) /fs  :     100
     dumpstep(Vbias)/ps :     1.0
     Vbias factor k /Eh :  0.0930
     Vbias exp α /bohr⁻²:    0.28
*Meta-MTD 6 finished*
*Meta-MTD 9 finished*
*Meta-MTD 12 finished*
*Meta-MTD 3 finished*
*Meta-MTD 13 finished*
*Meta-MTD 2 finished*
*Meta-MTD 8 finished*
*Meta-MTD 10 finished*
*Meta-MTD 4 finished*
*Meta-MTD 7 finished*
*Meta-MTD 14 finished*
*Meta-MTD 1 finished*
*Meta-MTD 5 finished*
*Meta-MTD 11 finished*
 
-----------------------
Multilevel Optimization
-----------------------
 
 -------------------------
 1. crude pre-optimization
 -------------------------
 Optimizing all 70 structures from file "crest_rotamers_0.xyz" ...
 1 2 3 4 5 6 7 8 9 10 11 12 13 14 15 16 17 18 19 20 21 22 23 24 25 26 27 28 29 30 31 32 33 34 35 36 37 38 39 40 41 42 43 44 45 46 47 48 49 50 51 52 53 54 55 56 57 58 59 60 61 62 63 64 65 66 67 68 69 70
 done.
 running RMSDs...
 done.
 E lowest :  -104.60624
 55 structures remain within    12.00 kcal/mol window
 
 -------------------------------------
 2. optimization with tight thresholds
 -------------------------------------
 Optimizing all 56 structures from file "crest_rotamers_1.xyz" ...
 1 2 3 4 5 6 7 8 9 10 11 12 13 14 15 16 17 18 19 20 21 22 23 24 25 26 27 28 29 30 31 32 33 34 35 36 37 38 39 40 41 42 43 44 45 46 47 48 49 50 51 52 53 54 55 56
 done.
 running RMSDs...
 done.
 E lowest :  -104.60739
 17 structures remain within     6.00 kcal/mol window
 
 
========================================
            MTD Iteration  2
========================================
 
     ========================================
     |         Meta-MD (MTD) Sampling       |
     ========================================
 
Starting Meta-MD   1 with the settings:
     MD time /ps        :     0.5
     dt /fs             :     1.5
     dumpstep(trj) /fs  :     100
     dumpstep(Vbias)/ps :     1.0
     Vbias factor k /Eh :  0.1860
     Vbias exp α /bohr⁻²:    1.30
Starting Meta-MD   2 with the settings:
     MD time /ps        :     0.5
     dt /fs             :     1.5
     dumpstep(trj) /fs  :     100
     dumpstep(Vbias)/ps :     1.0
     Vbias factor k /Eh :  0.0930
     Vbias exp α /bohr⁻²:    1.30
Starting Meta-MD   3 with the settings:
     MD time /ps        :     0.5
     dt /fs             :     1.5
     dumpstep(trj) /fs  :     100
     dumpstep(Vbias)/ps :     1.0
     Vbias factor k /Eh :  0.0465
     Vbias exp α /bohr⁻²:    1.30
Starting Meta-MD   4 with the settings:
     MD time /ps        :     0.5
     dt /fs             :     1.5
     dumpstep(trj) /fs  :     100
     dumpstep(Vbias)/ps :     1.0
     Vbias factor k /Eh :  0.1860
     Vbias exp α /bohr⁻²:    0.78
Starting Meta-MD   5 with the settings:
     MD time /ps        :     0.5
     dt /fs             :     1.5
     dumpstep(trj) /fs  :     100
     dumpstep(Vbias)/ps :     1.0
     Vbias factor k /Eh :  0.0930
     Vbias exp α /bohr⁻²:    0.78
Starting Meta-MD   6 with the settings:
     MD time /ps        :     0.5
     dt /fs             :     1.5
     dumpstep(trj) /fs  :     100
     dumpstep(Vbias)/ps :     1.0
     Vbias factor k /Eh :  0.0465
     Vbias exp α /bohr⁻²:    0.78
Starting Meta-MD   7 with the settings:
     MD time /ps        :     0.5
     dt /fs             :     1.5
     dumpstep(trj) /fs  :     100
     dumpstep(Vbias)/ps :     1.0
     Vbias factor k /Eh :  0.1860
     Vbias exp α /bohr⁻²:    0.47
Starting Meta-MD   8 with the settings:
     MD time /ps        :     0.5
     dt /fs             :     1.5
     dumpstep(trj) /fs  :     100
     dumpstep(Vbias)/ps :     1.0
     Vbias factor k /Eh :  0.0930
     Vbias exp α /bohr⁻²:    0.47
Starting Meta-MD   9 with the settings:
     MD time /ps        :     0.5
     dt /fs             :     1.5
     dumpstep(trj) /fs  :     100
     dumpstep(Vbias)/ps :     1.0
     Vbias factor k /Eh :  0.0465
     Vbias exp α /bohr⁻²:    0.47
Starting Meta-MD  10 with the settings:
     MD time /ps        :     0.5
     dt /fs             :     1.5
     dumpstep(trj) /fs  :     100
     dumpstep(Vbias)/ps :     1.0
     Vbias factor k /Eh :  0.1860
     Vbias exp α /bohr⁻²:    0.28
Starting Meta-MD  11 with the settings:
     MD time /ps        :     0.5
     dt /fs             :     1.5
     dumpstep(trj) /fs  :     100
     dumpstep(Vbias)/ps :     1.0
     Vbias factor k /Eh :  0.0930
     Vbias exp α /bohr⁻²:    0.28
Starting Meta-MD  12 with the settings:
     MD time /ps        :     0.5
     dt /fs             :     1.5
     dumpstep(trj) /fs  :     100
     dumpstep(Vbias)/ps :     1.0
     Vbias factor k /Eh :  0.0465
     Vbias exp α /bohr⁻²:    0.28
*Meta-MTD 1 finished*
*Meta-MTD 2 finished*
*Meta-MTD 4 finished*
*Meta-MTD 10 finished*
*Meta-MTD 11 finished*
*Meta-MTD 6 finished*
*Meta-MTD 5 finished*
*Meta-MTD 12 finished*
*Meta-MTD 3 finished*
*Meta-MTD 8 finished*
*Meta-MTD 9 finished*
*Meta-MTD 7 finished*
 
-----------------------
Multilevel Optimization
-----------------------
 
 -------------------------
 1. crude pre-optimization
 -------------------------
 Optimizing all 60 structures from file "crest_rotamers_0.xyz" ...
 1 2 3 4 5 6 7 8 9 10 11 12 13 14 15 16 17 18 19 20 21 22 23 24 25 26 27 28 29 30 31 32 33 34 35 36 37 38 39 40 41 42 43 44 45 46 47 48 49 50 51 52 53 54 55 56 57 58 59 60
 done.
 running RMSDs...
 done.
 E lowest :  -104.60676
 49 structures remain within    12.00 kcal/mol window
 
 -------------------------------------
 2. optimization with tight thresholds
 -------------------------------------
 Optimizing all 50 structures from file "crest_rotamers_1.xyz" ...
 1 2 3 4 5 6 7 8 9 10 11 12 13 14 15 16 17 18 19 20 21 22 23 24 25 26 27 28 29 30 31 32 33 34 35 36 37 38 39 40 41 42 43 44 45 46 47 48 49 50
 done.
 running RMSDs...
 done.
 E lowest :  -104.60740
 12 structures remain within     6.00 kcal/mol window
 
========================================
            MTD Iterations done         
========================================
 Collecting ensmbles.
 running RMSDs...
 done.
 E lowest :  -104.60740
 28 structures remain within     6.00 kcal/mol window
 
 -------------------------------
 Additional orientation sampling
 -------------------------------
 Optimizing all 56 structures from file "oh_ensemble.xyz" ...
 1 2 3 4 5 6 7 8 9 10 11 12 13 14 15 16 17 18 19 20 21 22 23 24 25 26 27 28 29 30 31 32 33 34 35 36 37 38 39 40 41 42 43 44 45 46 47 48 49 50 51 52 53 54 55 56
 done.
 running RMSDs...
 done.
 E lowest :  -104.60839
 62 structures remain within     6.00 kcal/mol window
 
-----------------------------------------------
Additional regular MDs on lowest 4 conformer(s)
-----------------------------------------------
Starting MD   1 with the settings:
     MD time /ps        :     0.2
     MD Temperature /K  :   400.0
     dt /fs             :     1.5
     dumpstep(trj) /fs  :     100
Starting MD   2 with the settings:
     MD time /ps        :     0.2
     MD Temperature /K  :   500.0
     dt /fs             :     1.5
     dumpstep(trj) /fs  :     100
Starting MD   3 with the settings:
     MD time /ps        :     0.2
     MD Temperature /K  :   400.0
     dt /fs             :     1.5
     dumpstep(trj) /fs  :     100
Starting MD   5 with the settings:
     MD time /ps        :     0.2
     MD Temperature /K  :   400.0
     dt /fs             :     1.5
     dumpstep(trj) /fs  :     100
Starting MD   4 with the settings:
     MD time /ps        :     0.2
     MD Temperature /K  :   500.0
     dt /fs             :     1.5
     dumpstep(trj) /fs  :     100
Starting MD   6 with the settings:
     MD time /ps        :     0.2
     MD Temperature /K  :   500.0
     dt /fs             :     1.5
     dumpstep(trj) /fs  :     100
Starting MD   8 with the settings:
     MD time /ps        :     0.2
     MD Temperature /K  :   500.0
     dt /fs             :     1.5
     dumpstep(trj) /fs  :     100
Starting MD   7 with the settings:
     MD time /ps        :     0.2
     MD Temperature /K  :   400.0
     dt /fs             :     1.5
     dumpstep(trj) /fs  :     100
*MD 7 finished*
*MD 4 finished*
*MD 1 finished*
*MD 2 finished*
*MD 5 finished*
*MD 3 finished*
*MD 6 finished*
*MD 8 finished*
 Appending file crest_rotamers_2.xyz with new structures
 
 -------------------------------------------
 Ensemble optimization with tight thresholds
 -------------------------------------------
 Optimizing all 78 structures from file "crest_rotamers_2.xyz" ...
 1 2 3 4 5 6 7 8 9 10 11 12 13 14 15 16 17 18 19 20 21 22 23 24 25 26 27 28 29 30 31 32 33 34 35 36 37 38 39 40 41 42 43 44 45 46 47 48 49 50 51 52 53 54 55 56 57 58 59 60 61 62 63 64 65 66 67 68 69 70 71 72 73 74 75 76 77 78
 done.
 running RMSDs...
 done.
 E lowest :  -104.60840
 64 structures remain within     6.00 kcal/mol window
 
 ...............................................
 A new lower conformer was found!
 Improved by    0.00100 Eh or    0.62994kcal/mol
 ...............................................
 
*******************************************************************************************
**                        N E W    I T E R A T I O N    C Y C L E                        **
*******************************************************************************************
 
========================================
            MTD Iteration  1
========================================
 
     ========================================
     |         Meta-MD (MTD) Sampling       |
     ========================================
 
Starting Meta-MD   1 with the settings:
     MD time /ps        :     0.5
     dt /fs             :     1.5
     dumpstep(trj) /fs  :     100
     dumpstep(Vbias)/ps :     1.0
     Vbias factor k /Eh :  0.1860
     Vbias exp α /bohr⁻²:    1.30
Starting Meta-MD   2 with the settings:
     MD time /ps        :     0.5
     dt /fs             :     1.5
     dumpstep(trj) /fs  :     100
     dumpstep(Vbias)/ps :     1.0
     Vbias factor k /Eh :  0.0930
     Vbias exp α /bohr⁻²:    1.30
Starting Meta-MD   3 with the settings:
     MD time /ps        :     0.5
     dt /fs             :     1.5
     dumpstep(trj) /fs  :     100
     dumpstep(Vbias)/ps :     1.0
     Vbias factor k /Eh :  0.0465
     Vbias exp α /bohr⁻²:    1.30
Starting Meta-MD   4 with the settings:
     MD time /ps        :     0.5
     dt /fs             :     1.5
     dumpstep(trj) /fs  :     100
     dumpstep(Vbias)/ps :     1.0
     Vbias factor k /Eh :  0.1860
     Vbias exp α /bohr⁻²:    0.78
Starting Meta-MD   5 with the settings:
     MD time /ps        :     0.5
     dt /fs             :     1.5
     dumpstep(trj) /fs  :     100
     dumpstep(Vbias)/ps :     1.0
     Vbias factor k /Eh :  0.0930
     Vbias exp α /bohr⁻²:    0.78
Starting Meta-MD   6 with the settings:
     MD time /ps        :     0.5
     dt /fs             :     1.5
     dumpstep(trj) /fs  :     100
     dumpstep(Vbias)/ps :     1.0
     Vbias factor k /Eh :  0.0465
     Vbias exp α /bohr⁻²:    0.78
Starting Meta-MD   7 with the settings:
     MD time /ps        :     0.5
     dt /fs             :     1.5
     dumpstep(trj) /fs  :     100
     dumpstep(Vbias)/ps :     1.0
     Vbias factor k /Eh :  0.1860
     Vbias exp α /bohr⁻²:    0.47
Starting Meta-MD   8 with the settings:
     MD time /ps        :     0.5
     dt /fs             :     1.5
     dumpstep(trj) /fs  :     100
     dumpstep(Vbias)/ps :     1.0
     Vbias factor k /Eh :  0.0930
     Vbias exp α /bohr⁻²:    0.47
Starting Meta-MD   9 with the settings:
     MD time /ps        :     0.5
     dt /fs             :     1.5
     dumpstep(trj) /fs  :     100
     dumpstep(Vbias)/ps :     1.0
     Vbias factor k /Eh :  0.0465
     Vbias exp α /bohr⁻²:    0.47
Starting Meta-MD  10 with the settings:
     MD time /ps        :     0.5
     dt /fs             :     1.5
     dumpstep(trj) /fs  :     100
     dumpstep(Vbias)/ps :     1.0
     Vbias factor k /Eh :  0.1860
     Vbias exp α /bohr⁻²:    0.28
Starting Meta-MD  11 with the settings:
     MD time /ps        :     0.5
     dt /fs             :     1.5
     dumpstep(trj) /fs  :     100
     dumpstep(Vbias)/ps :     1.0
     Vbias factor k /Eh :  0.0930
     Vbias exp α /bohr⁻²:    0.28
Starting Meta-MD  12 with the settings:
     MD time /ps        :     0.5
     dt /fs             :     1.5
     dumpstep(trj) /fs  :     100
     dumpstep(Vbias)/ps :     1.0
     Vbias factor k /Eh :  0.0465
     Vbias exp α /bohr⁻²:    0.28
*Meta-MTD 12 finished*
*Meta-MTD 9 finished*
*Meta-MTD 11 finished*
*Meta-MTD 3 finished*
*Meta-MTD 7 finished*
*Meta-MTD 4 finished*
*Meta-MTD 5 finished*
*Meta-MTD 8 finished*
*Meta-MTD 2 finished*
*Meta-MTD 1 finished*
*Meta-MTD 6 finished*
*Meta-MTD 10 finished*
 
-----------------------
Multilevel Optimization
-----------------------
 
 -------------------------
 1. crude pre-optimization
 -------------------------
 Optimizing all 60 structures from file "crest_rotamers_0.xyz" ...
 1 2 3 4 5 6 7 8 9 10 11 12 13 14 15 16 17 18 19 20 21 22 23 24 25 26 27 28 29 30 31 32 33 34 35 36 37 38 39 40 41 42 43 44 45 46 47 48 49 50 51 52 53 54 55 56 57 58 59 60
 done.
 running RMSDs...
 done.
 E lowest :  -104.60787
 52 structures remain within    12.00 kcal/mol window
 
 -------------------------------------
 2. optimization with tight thresholds
 -------------------------------------
 Optimizing all 53 structures from file "crest_rotamers_1.xyz" ...
 1 2 3 4 5 6 7 8 9 10 11 12 13 14 15 16 17 18 19 20 21 22 23 24 25 26 27 28 29 30 31 32 33 34 35 36 37 38 39 40 41 42 43 44 45 46 47 48 49 50 51 52 53
 done.
 running RMSDs...
 done.
 E lowest :  -104.60866
 17 structures remain within     6.00 kcal/mol window
 
 ...............................................
 A new lower conformer was found!
 Improved by    0.00026 Eh or    0.16434kcal/mol
 ...............................................
 
========================================
            MTD Iteration  2
========================================
 
     ========================================
     |         Meta-MD (MTD) Sampling       |
     ========================================
 
Starting Meta-MD   1 with the settings:
     MD time /ps        :     0.5
     dt /fs             :     1.5
     dumpstep(trj) /fs  :     100
     dumpstep(Vbias)/ps :     1.0
     Vbias factor k /Eh :  0.1860
     Vbias exp α /bohr⁻²:    1.30
Starting Meta-MD   2 with the settings:
     MD time /ps        :     0.5
     dt /fs             :     1.5
     dumpstep(trj) /fs  :     100
     dumpstep(Vbias)/ps :     1.0
     Vbias factor k /Eh :  0.0930
     Vbias exp α /bohr⁻²:    1.30
Starting Meta-MD   3 with the settings:
     MD time /ps        :     0.5
     dt /fs             :     1.5
     dumpstep(trj) /fs  :     100
     dumpstep(Vbias)/ps :     1.0
     Vbias factor k /Eh :  0.0465
     Vbias exp α /bohr⁻²:    1.30
Starting Meta-MD   4 with the settings:
     MD time /ps        :     0.5
     dt /fs             :     1.5
     dumpstep(trj) /fs  :     100
     dumpstep(Vbias)/ps :     1.0
     Vbias factor k /Eh :  0.1860
     Vbias exp α /bohr⁻²:    0.78
Starting Meta-MD   5 with the settings:
     MD time /ps        :     0.5
     dt /fs             :     1.5
     dumpstep(trj) /fs  :     100
     dumpstep(Vbias)/ps :     1.0
     Vbias factor k /Eh :  0.0930
     Vbias exp α /bohr⁻²:    0.78
Starting Meta-MD   6 with the settings:
     MD time /ps        :     0.5
     dt /fs             :     1.5
     dumpstep(trj) /fs  :     100
     dumpstep(Vbias)/ps :     1.0
     Vbias factor k /Eh :  0.0465
     Vbias exp α /bohr⁻²:    0.78
Starting Meta-MD   7 with the settings:
     MD time /ps        :     0.5
     dt /fs             :     1.5
     dumpstep(trj) /fs  :     100
     dumpstep(Vbias)/ps :     1.0
     Vbias factor k /Eh :  0.1860
     Vbias exp α /bohr⁻²:    0.47
Starting Meta-MD   8 with the settings:
     MD time /ps        :     0.5
     dt /fs             :     1.5
     dumpstep(trj) /fs  :     100
     dumpstep(Vbias)/ps :     1.0
     Vbias factor k /Eh :  0.0930
     Vbias exp α /bohr⁻²:    0.47
Starting Meta-MD   9 with the settings:
     MD time /ps        :     0.5
     dt /fs             :     1.5
     dumpstep(trj) /fs  :     100
     dumpstep(Vbias)/ps :     1.0
     Vbias factor k /Eh :  0.0465
     Vbias exp α /bohr⁻²:    0.47
Starting Meta-MD  10 with the settings:
     MD time /ps        :     0.5
     dt /fs             :     1.5
     dumpstep(trj) /fs  :     100
     dumpstep(Vbias)/ps :     1.0
     Vbias factor k /Eh :  0.1860
     Vbias exp α /bohr⁻²:    0.28
Starting Meta-MD  11 with the settings:
     MD time /ps        :     0.5
     dt /fs             :     1.5
     dumpstep(trj) /fs  :     100
     dumpstep(Vbias)/ps :     1.0
     Vbias factor k /Eh :  0.0930
     Vbias exp α /bohr⁻²:    0.28
Starting Meta-MD  12 with the settings:
     MD time /ps        :     0.5
     dt /fs             :     1.5
     dumpstep(trj) /fs  :     100
     dumpstep(Vbias)/ps :     1.0
     Vbias factor k /Eh :  0.0465
     Vbias exp α /bohr⁻²:    0.28
*Meta-MTD 10 finished*
*Meta-MTD 11 finished*
*Meta-MTD 6 finished*
*Meta-MTD 7 finished*
*Meta-MTD 2 finished*
*Meta-MTD 3 finished*
*Meta-MTD 1 finished*
*Meta-MTD 4 finished*
*Meta-MTD 12 finished*
*Meta-MTD 9 finished*
*Meta-MTD 8 finished*
*Meta-MTD 5 finished*
 
-----------------------
Multilevel Optimization
-----------------------
 
 -------------------------
 1. crude pre-optimization
 -------------------------
 Optimizing all 60 structures from file "crest_rotamers_0.xyz" ...
 1 2 3 4 5 6 7 8 9 10 11 12 13 14 15 16 17 18 19 20 21 22 23 24 25 26 27 28 29 30 31 32 33 34 35 36 37 38 39 40 41 42 43 44 45 46 47 48 49 50 51 52 53 54 55 56 57 58 59 60
 done.
 running RMSDs...
 done.
 E lowest :  -104.60806
 49 structures remain within    12.00 kcal/mol window
 
 -------------------------------------
 2. optimization with tight thresholds
 -------------------------------------
 Optimizing all 50 structures from file "crest_rotamers_1.xyz" ...
 1 2 3 4 5 6 7 8 9 10 11 12 13 14 15 16 17 18 19 20 21 22 23 24 25 26 27 28 29 30 31 32 33 34 35 36 37 38 39 40 41 42 43 44 45 46 47 48 49 50
 done.
 running RMSDs...
 done.
 E lowest :  -104.60866
 16 structures remain within     6.00 kcal/mol window
 
========================================
            MTD Iterations done         
========================================
 Collecting ensmbles.
 running RMSDs...
 done.
 E lowest :  -104.60866
 27 structures remain within     6.00 kcal/mol window
 
 -------------------------------
 Additional orientation sampling
 -------------------------------
 Optimizing all 50 structures from file "oh_ensemble.xyz" ...
 1 2 3 4 5 6 7 8 9 10 11 12 13 14 15 16 17 18 19 20 21 22 23 24 25 26 27 28 29 30 31 32 33 34 35 36 37 38 39 40 41 42 43 44 45 46 47 48 49 50
 done.
 running RMSDs...
 done.
 E lowest :  -104.60866
 57 structures remain within     6.00 kcal/mol window
 
-----------------------------------------------
Additional regular MDs on lowest 4 conformer(s)
-----------------------------------------------
Starting MD   1 with the settings:
     MD time /ps        :     0.2
     MD Temperature /K  :   400.0
     dt /fs             :     1.5
     dumpstep(trj) /fs  :     100
Starting MD   2 with the settings:
     MD time /ps        :     0.2
     MD Temperature /K  :   500.0
     dt /fs             :     1.5
     dumpstep(trj) /fs  :     100
Starting MD   3 with the settings:
     MD time /ps        :     0.2
     MD Temperature /K  :   400.0
     dt /fs             :     1.5
     dumpstep(trj) /fs  :     100
Starting MD   4 with the settings:
     MD time /ps        :     0.2
     MD Temperature /K  :   500.0
     dt /fs             :     1.5
     dumpstep(trj) /fs  :     100
Starting MD   5 with the settings:
     MD time /ps        :     0.2
     MD Temperature /K  :   400.0
     dt /fs             :     1.5
     dumpstep(trj) /fs  :     100
Starting MD   6 with the settings:
     MD time /ps        :     0.2
     MD Temperature /K  :   500.0
     dt /fs             :     1.5
     dumpstep(trj) /fs  :     100
Starting MD   7 with the settings:
     MD time /ps        :     0.2
     MD Temperature /K  :   400.0
     dt /fs             :     1.5
     dumpstep(trj) /fs  :     100
Starting MD   8 with the settings:
     MD time /ps        :     0.2
     MD Temperature /K  :   500.0
     dt /fs             :     1.5
     dumpstep(trj) /fs  :     100
*MD 3 finished*
*MD 7 finished*
*MD 2 finished*
*MD 5 finished*
*MD 1 finished*
*MD 8 finished*
*MD 6 finished*
*MD 4 finished*
 Appending file crest_rotamers_2.xyz with new structures
 
 -------------------------------------------
 Ensemble optimization with tight thresholds
 -------------------------------------------
 Optimizing all 73 structures from file "crest_rotamers_2.xyz" ...
 1 2 3 4 5 6 7 8 9 10 11 12 13 14 15 16 17 18 19 20 21 22 23 24 25 26 27 28 29 30 31 32 33 34 35 36 37 38 39 40 41 42 43 44 45 46 47 48 49 50 51 52 53 54 55 56 57 58 59 60 61 62 63 64 65 66 67 68 69 70 71 72 73
 done.
 running RMSDs...
 done.
 E lowest :  -104.60866
 56 structures remain within     6.00 kcal/mol window
 
 
     ========================================
     |        Structure Crossing (GC)       |
     ========================================
 =============================
  # threads =          28
 =============================
 input  file name : crest_rotamers_4.xyz
number of atoms                :    62
number of points on xyz files  :    56
conformer energy window  /kcal :    6.00
CN per atom difference cut-off :  0.3000
RMSD threshold                 :  0.5000
max. # of generated structures : 25
 reading xyz file ...
 # in E window                 56
 generating pairs ...        1595
 generated pairs           :        1256
 number of clash discarded :         284
 average rmsd w.r.t input  : 2.59352
 sd of ensemble            : 0.81139
 number of new structures      :           1
 removed identical structures  :          49
 writing            1  TMPCONF* dirs ...
 --------------------------
 GC: loose pre-optimization
 --------------------------
 Starting optimization of generated structures
 1 jobs to do.
 1 
 done.
 Now appending opt.xyz file with new structures
 running RMSDs...
 done.
 E lowest :  -104.60862
 1 structures remain within    10.00 kcal/mol window
 --------------------------------------
 GC: optimization with tight thresholds
 --------------------------------------
 Optimizing all 1 structures from file "crest_rotamers_1.xyz" ...
 1
 done.
 running RMSDs...
 done.
 E lowest :  -104.60866
 
 
   ================================================
   |           Final Geometry Optimization        |
   ================================================
 ------------------------------------------------
 Ensemble optimization with very tight thresholds
 ------------------------------------------------
 Optimizing all 56 structures from file "crest_rotamers_5.xyz" ...
 1 2 3 4 5 6 7 8 9 10 11 12 13 14 15 16 17 18 19 20 21 22 23 24 25 26 27 28 29 30 31 32 33 34 35 36 37 38 39 40 41 42 43 44 45 46 47 48 49 50 51 52 53 54 55 56
 done.
 running RMSDs...
 done.
 E lowest :  -104.60866
 56 structures remain within     6.00 kcal/mol window
 
 input  file name : crest_rotamers_6.xyz
 output file name : crest_rotamers_7.xyz
 number of atoms                :   62
 number of points on xyz files  :   56
 RMSD threshold                 :   0.2500
 Bconst threshold               :   0.0100
 population threshold           :   0.0500
 conformer energy window  /kcal :   6.0000
 # fragment in coord            :     1
 # bonds in reference structure :    69
   => # of C=C bonds :    12
 number of reliable points      :    56
 reference state Etot :  -104.608662400000
 number of doubles removed by rot/RMSD         :           0
 total number unique points considered further :          56
       Erel/kcal        Etot weight/tot  conformer     set   degen     origin
       1   0.000  -104.60866    0.04537    0.04537       1       1     mtd12
       2   0.058  -104.60857    0.04117    0.04117       2       1     md4
       3   0.061  -104.60857    0.04097    0.04097       3       1     md6
       4   0.111  -104.60849    0.03761    0.03761       4       1     md8
       5   0.123  -104.60847    0.03687    0.03687       5       1     mtd5
       6   0.125  -104.60846    0.03674    0.03674       6       1     mtd10
       7   0.162  -104.60840    0.03452    0.06895       7       2     mtd12
       8   0.164  -104.60840    0.03444                                mtd10
       9   0.219  -104.60831    0.03139    0.03139       8       1     mtd2
      10   0.234  -104.60829    0.03059    0.03059       9       1     mtd4
      11   0.261  -104.60825    0.02920    0.02920      10       1     mtd1
      12   0.285  -104.60821    0.02807    0.02807      11       1     mtd3
      13   0.300  -104.60818    0.02737    0.02737      12       1     mtd1
      14   0.327  -104.60814    0.02615    0.02615      13       1     mtd7
      15   0.332  -104.60813    0.02594    0.02594      14       1     mtd8
      16   0.357  -104.60809    0.02486    0.02486      15       1     mtd5
      17   0.383  -104.60805    0.02377    0.02377      16       1     mtd5
      18   0.385  -104.60805    0.02371    0.02371      17       1     mtd11
      19   0.421  -104.60799    0.02230    0.02230      18       1     mtd11
      20   0.428  -104.60798    0.02205    0.04382      19       2     hor
      21   0.435  -104.60797    0.02177                                mtd12
      22   0.449  -104.60795    0.02127    0.02127      20       1     mtd11
      23   0.477  -104.60790    0.02028    0.02028      21       1     mtd10
      24   0.479  -104.60790    0.02022    0.02022      22       1     mtd7
      25   0.603  -104.60770    0.01642    0.01642      23       1     mtd4
      26   0.797  -104.60739    0.01182    0.01182      24       1     hor
      27   0.798  -104.60739    0.01182    0.01182      25       1     hor
      28   0.825  -104.60735    0.01129    0.01129      26       1     hor
      29   0.847  -104.60731    0.01088    0.01088      27       1     hor
      30   0.851  -104.60731    0.01080    0.01080      28       1     hor
      31   0.854  -104.60730    0.01074    0.01074      29       1     hor
      32   0.856  -104.60730    0.01071    0.01071      30       1     hor
      33   0.861  -104.60729    0.01063    0.01063      31       1     hor
      34   0.869  -104.60728    0.01049    0.01049      32       1     hor
      35   0.878  -104.60726    0.01033    0.01033      33       1     hor
      36   0.897  -104.60723    0.01000    0.01000      34       1     hor
      37   0.905  -104.60722    0.00986    0.00986      35       1     hor
      38   0.936  -104.60717    0.00935    0.00935      36       1     hor
      39   0.942  -104.60716    0.00927    0.00927      37       1     hor
      40   0.945  -104.60716    0.00922    0.00922      38       1     hor
      41   0.960  -104.60713    0.00899    0.00899      39       1     hor
      42   0.965  -104.60712    0.00891    0.00891      40       1     hor
      43   0.979  -104.60710    0.00871    0.01738      41       2     hor
      44   0.982  -104.60710    0.00867                                hor
      45   0.983  -104.60710    0.00865    0.00865      42       1     hor
      46   0.988  -104.60709    0.00858    0.00858      43       1     hor
      47   1.008  -104.60706    0.00829    0.00829      44       1     hor
      48   1.026  -104.60703    0.00804    0.00804      45       1     hor
      49   1.028  -104.60702    0.00802    0.00802      46       1     hor
      50   1.066  -104.60696    0.00751    0.00751      47       1     hor
      51   1.092  -104.60692    0.00719    0.00719      48       1     hor
      52   1.096  -104.60692    0.00714    0.00714      49       1     hor
      53   1.145  -104.60684    0.00658    0.00658      50       1     hor
      54   1.179  -104.60678    0.00621    0.00621      51       1     hor
      55   1.372  -104.60648    0.00449    0.00449      52       1     hor
      56   1.479  -104.60631    0.00375    0.00375      53       1     mtd12
T /K                                  :   298.15
E lowest                              :  -104.60866
ensemble average energy (kcal)        :    0.441
ensemble entropy (J/mol K, cal/mol K) :   31.903    7.625
ensemble free energy (kcal/mol)       :   -2.273
population of lowest in %             :    4.537
 number of unique conformers for further calc           53
 list of relative energies saved as "crest.energies"
 
 -----------------
 Wall Time Summary
 -----------------
             test MD wall time :         0h : 0m :34s
                 MTD wall time :         0h : 2m : 5s
      multilevel OPT wall time :         0h : 3m : 7s
                  MD wall time :         0h : 0m :48s
                  GC wall time :         0h : 0m : 1s
--------------------
Overall wall time  : 0h : 6m :40s
 
 CREST terminated normally.
