 
       ==============================================
       |                                            |
       |                 C R E S T                  |
       |                                            |
       |  Conformer-Rotamer Ensemble Sampling Tool  |
       |          based on the GFN methods          |
       |             P.Pracht, S.Grimme             |
       |          Universitaet Bonn, MCTC           |
       ==============================================
       Version 2.11.2, Fr 17. Dec 12:10:44 CEST 2021
  Using the xTB program. Compatible with xTB version 6.4.0
 
   Cite work conducted with this code as

   P. Pracht, F. Bohle, S. Grimme, PCCP, 2020, 22, 7169-7192.

   and  S. Grimme, JCTC, 2019, 15, 2847-2862.
 
   with help from:
   C.Bannwarth, F.Bohle, S.Ehlert, S.Grimme,
   C. Plett, P.Pracht, S. Spicher
 
   This program is distributed in the hope that it will be useful,
   but WITHOUT ANY WARRANTY; without even the implied warranty of
   MERCHANTABILITY or FITNESS FOR A PARTICULAR PURPOSE.

 Command line input:
 > crest 01150_r_0.xyz -T 28 -gfn2 -chrg -2 -uhf 0 -rthr 0.25 -shake 1 --mdlen 0.5

  -T 28 (CPUs/Threads selected)
  -gfn2 : Use of GFN2-xTB requested.
  -chrg -2
  -uhf 0
  -rthr 0.25
  --mdlen 0.5 (MD length in ps)
 
 -------------------------
 xTB Geometry Optimization
 -------------------------
 Geometry successfully optimized.
 
------------------------------------------------
Generating MTD length from a flexibility measure
------------------------------------------------
      -----------------------------------------------------------      
     |                   =====================                   |     
     |                           x T B                           |     
     |                   =====================                   |     
     |                         S. Grimme                         |     
     |          Mulliken Center for Theoretical Chemistry        |     
     |                    University of Bonn                     |     
      -----------------------------------------------------------      

   * xtb version 6.4.1 (afa7bdf) compiled by 'ehlert@majestix' on 2021-06-10

   xtb is free software: you can redistribute it and/or modify it under
   the terms of the GNU Lesser General Public License as published by
   the Free Software Foundation, either version 3 of the License, or
   (at your option) any later version.
   
   xtb is distributed in the hope that it will be useful,
   but WITHOUT ANY WARRANTY; without even the implied warranty of
   MERCHANTABILITY or FITNESS FOR A PARTICULAR PURPOSE.  See the
   GNU Lesser General Public License for more details.
   
   Cite this work as:
   * C. Bannwarth, E. Caldeweyher, S. Ehlert, A. Hansen, P. Pracht,
     J. Seibert, S. Spicher, S. Grimme, WIREs Comput. Mol. Sci., 2020, 11,
     e01493. DOI: 10.1002/wcms.1493
   
   for GFN2-xTB:
   * C. Bannwarth, S. Ehlert and S. Grimme., J. Chem. Theory Comput., 2019,
     15, 1652-1671. DOI: 10.1021/acs.jctc.8b01176
   for GFN1-xTB:
   * S. Grimme, C. Bannwarth, P. Shushkov, J. Chem. Theory Comput., 2017,
     13, 1989-2009. DOI: 10.1021/acs.jctc.7b00118
   for GFN0-xTB:
   * P. Pracht, E. Caldeweyher, S. Ehlert, S. Grimme, ChemRxiv, 2019, preprint.
     DOI: 10.26434/chemrxiv.8326202.v1
   for GFN-FF:
   * S. Spicher and S. Grimme, Angew. Chem. Int. Ed., 2020, 59, 15665-15673.
     DOI: 10.1002/anie.202004239
   
   for DFT-D4:
   * E. Caldeweyher, C. Bannwarth and S. Grimme, J. Chem. Phys., 2017,
     147, 034112. DOI: 10.1063/1.4993215
   * E. Caldeweyher, S. Ehlert, A. Hansen, H. Neugebauer, S. Spicher,
     C. Bannwarth and S. Grimme, J. Chem. Phys., 2019, 150, 154122.
     DOI: 10.1063/1.5090222
   * E. Caldeweyher, J.-M. Mewes, S. Ehlert and S. Grimme, Phys. Chem. Chem. Phys.
     2020, 22, 8499-8512. DOI: 10.1039/D0CP00502A
   
   for sTDA-xTB:
   * S. Grimme and C. Bannwarth, J. Chem. Phys., 2016, 145, 054103.
     DOI: 10.1063/1.4959605
   
   in the mass-spec context:
   * V. Asgeirsson, C. Bauer and S. Grimme, Chem. Sci., 2017, 8, 4879.
     DOI: 10.1039/c7sc00601b
   * J. Koopman and S. Grimme, ACS Omega 2019, 4, 12, 15120-15133.
     DOI: 10.1021/acsomega.9b02011
   
   for metadynamics refer to:
   * S. Grimme, J. Chem. Theory Comput., 2019, 155, 2847-2862
     DOI: 10.1021/acs.jctc.9b00143
   
   for SPH calculations refer to:
   * S. Spicher and S. Grimme, J. Chem. Theory Comput., 2021, 17, 1701-1714
     DOI: 10.1021/acs.jctc.0c01306
   
   with help from (in alphabetical order)
   P. Atkinson, C. Bannwarth, F. Bohle, G. Brandenburg, E. Caldeweyher
   M. Checinski, S. Dohm, S. Ehlert, S. Ehrlich, I. Gerasimov, J. Koopman
   C. Lavigne, S. Lehtola, F. März, M. Müller, F. Musil, H. Neugebauer
   J. Pisarek, C. Plett, P. Pracht, J. Seibert, P. Shushkov, S. Spicher
   M. Stahn, M. Steiner, T. Strunk, J. Stückrath, T. Rose, and J. Unsleber
   
 * started run on 2024/07/31 at 10:50:20.594     

           -------------------------------------------------
          |                Calculation Setup                |
           -------------------------------------------------

          program call               : xtb tmpcoord --gfn0 --sp
          hostname                   : node1
          coordinate file            : tmpcoord
          omp threads                :                    28
          number of atoms            :                    54
          number of electrons        :                   158
          charge                     :                    -2
          spin                       :                   0.0
          first test random number   :      0.68390853336650

   ID    Z sym.   atoms
    1    8 o      1, 26
    2    6 c      2-8, 10-17, 19-25, 27-32
    3    7 n      9, 18
    4    1 h      33-54
########################################################################
[WARNING] Please study the warnings concerning your input carefully
-1- prog_main_parseArguments: The use of '--gfn0' is discouraged, please use '--gfn 0' next time
########################################################################

           -------------------------------------------------
          |                 G F N 0 - x T B                 |
           -------------------------------------------------

        Reference                      10.26434/chemrxiv.8326202.v1
      * Hamiltonian:
        H0-scaling (s, p, d)           2.000000    2.486800    2.270000
        zeta-weighting                 1.000000
      * Dispersion:
        s8                             2.850000
        a1                             0.800000
        a2                             4.600000
        s9                             0.000000
      * Repulsion:
        kExp                           1.500000
        rExp                           1.000000
      * Coulomb:
        alpha                          0.000000
        third order                    atomic
        anisotropic                    false
      * Polar bond correction:
        rad-shift                      0.053700
        strength                      -0.012900
        en-exp                         3.484700
        en-scale                       0.509700


          ...................................................
          :                      SETUP                      :
          :.................................................:
          :  # basis functions                 172          :
          :  # atomic orbitals                 172          :
          :  # shells                          108          :
          :  # electrons                       158          :
          :  electronic temp.          300.0000000     K    :
          :  accuracy                    1.0000000          :
          :  -> integral cutoff          0.2500000E+02      :
          :  -> integral neglect         0.1000000E-07      :
          ...................................................
  Checking positiv definite overlap ...  done.
 

         #    Occupation            Energy/Eh            Energy/eV
      -------------------------------------------------------------
         1        2.0000           -0.7045265             -19.1711
       ...           ...                  ...                  ...
        73        2.0000           -0.4336399             -11.7999
        74        2.0000           -0.4309807             -11.7276
        75        2.0000           -0.4220634             -11.4849
        76        2.0000           -0.4056517             -11.0383
        77        2.0000           -0.4055450             -11.0354
        78        2.0000           -0.3939870             -10.7209
        79        2.0000           -0.3906696             -10.6307 (HOMO)
        80                         -0.3100602              -8.4372 (LUMO)
        81                         -0.3037236              -8.2647
        82                         -0.2730222              -7.4293
        83                         -0.2671585              -7.2698
        84                         -0.2669490              -7.2641
       ...                                ...                  ...
       172                          0.6614204              17.9982
      -------------------------------------------------------------
                  HL-Gap            0.0806094 Eh            2.1935 eV
             Fermi-level            0.0000000 Eh            0.0000 eV

 EHT (total)                   0 d,  0 h,  0 min,  0.035 sec
 EHT setup                      ...        0 min,  0.001 sec (  2.130%)
 Coordination number            ...        0 min,  0.001 sec (  2.177%)
 EEQ model density              ...        0 min,  0.001 sec (  1.765%)
 D4 Dispersion                  ...        0 min,  0.002 sec (  6.981%)
 Integral evaluation            ...        0 min,  0.001 sec (  3.072%)
 Cholesky factorization         ...        0 min,  0.008 sec ( 22.843%)
 Zeroth order Hamiltonian       ...        0 min,  0.018 sec ( 52.155%)
 Gradient calculation           ...        0 min,  0.002 sec (  6.929%)

         :::::::::::::::::::::::::::::::::::::::::::::::::::::
         ::                     SUMMARY                     ::
         :::::::::::::::::::::::::::::::::::::::::::::::::::::
         :: total energy             -86.527697786208 Eh    ::
         :: gradient norm              0.056483260622 Eh/a0 ::
         :: HOMO-LUMO gap              2.193492525846 eV    ::
         ::.................................................::
         :: H0 energy                -85.318686080188 Eh    ::
         :: repulsion energy           1.414216723794 Eh    ::
         :: electrostat energy        -2.509984424005 Eh    ::
         :: -> Gsolv                   0.000000000000 Eh    ::
         ::    -> Gsasa                0.000000000000 Eh    ::
         ::    -> Gshift               0.000000000000 Eh    ::
         :: dispersion energy         -0.039108537160 Eh    ::
         :: short-range corr.         -0.074135468648 Eh    ::
         :: add. restraining           0.000000000000 Eh    ::
         :: total charge              -2.000000000000 e     ::
         :::::::::::::::::::::::::::::::::::::::::::::::::::::

           -------------------------------------------------
          |                Property Printout                |
           -------------------------------------------------

    * Orbital Energies and Occupations

         #    Occupation            Energy/Eh            Energy/eV
      -------------------------------------------------------------
         1        2.0000           -0.7045265             -19.1711
       ...           ...                  ...                  ...
        67        2.0000           -0.4540237             -12.3546
        68        2.0000           -0.4434758             -12.0676
        69        2.0000           -0.4377341             -11.9114
        70        2.0000           -0.4375001             -11.9050
        71        2.0000           -0.4369941             -11.8912
        72        2.0000           -0.4369732             -11.8906
        73        2.0000           -0.4336399             -11.7999
        74        2.0000           -0.4309807             -11.7276
        75        2.0000           -0.4220634             -11.4849
        76        2.0000           -0.4056517             -11.0383
        77        2.0000           -0.4055450             -11.0354
        78        2.0000           -0.3939870             -10.7209
        79        2.0000           -0.3906696             -10.6307 (HOMO)
        80                         -0.3100602              -8.4372 (LUMO)
        81                         -0.3037236              -8.2647
        82                         -0.2730222              -7.4293
        83                         -0.2671585              -7.2698
        84                         -0.2669490              -7.2641
        85                         -0.2610310              -7.1030
        86                         -0.2500141              -6.8032
        87                         -0.2499391              -6.8012
        88                         -0.2264746              -6.1627
        89                         -0.2242994              -6.1035
        90                         -0.1482749              -4.0348
       ...                                ...                  ...
       172                          0.6614204              17.9982
      -------------------------------------------------------------
                  HL-Gap            0.0806094 Eh            2.1935 eV
             Fermi-level            0.0000000 Eh            0.0000 eV

     #   Z          covCN         q      C6AA      α(0)
     1   8 o        0.857    -0.663    27.634     7.054
     2   6 c        2.832     0.412    21.201     7.521
     3   6 c        2.913    -0.214    35.493     9.738
     4   6 c        2.912    -0.119    32.681     9.345
     5   6 c        2.913    -0.137    33.208     9.420
     6   6 c        2.920    -0.114    32.548     9.326
     7   6 c        2.969    -0.081    31.629     9.196
     8   6 c        2.869     0.305    23.039     7.843
     9   7 n        1.832    -0.793    45.068     9.985
    10   6 c        3.829     0.322    17.735     6.066
    11   6 c        2.979     0.025    28.900     8.791
    12   6 c        2.924    -0.160    33.850     9.511
    13   6 c        2.919    -0.096    32.052     9.255
    14   6 c        2.920    -0.104    32.264     9.285
    15   6 c        2.920    -0.122    32.775     9.359
    16   6 c        2.926    -0.058    31.027     9.106
    17   6 c        3.829     0.322    17.733     6.065
    18   7 n        1.832    -0.793    45.070     9.985
    19   6 c        2.869     0.305    23.038     7.843
    20   6 c        2.969    -0.081    31.632     9.197
    21   6 c        2.920    -0.114    32.548     9.326
    22   6 c        2.913    -0.137    33.207     9.420
    23   6 c        2.912    -0.119    32.682     9.345
    24   6 c        2.913    -0.214    35.493     9.738
    25   6 c        2.833     0.412    21.201     7.521
    26   8 o        0.857    -0.663    27.634     7.054
    27   6 c        2.979     0.025    28.897     8.790
    28   6 c        2.925    -0.058    31.024     9.106
    29   6 c        2.920    -0.122    32.775     9.359
    30   6 c        2.920    -0.104    32.265     9.285
    31   6 c        2.919    -0.096    32.051     9.255
    32   6 c        2.924    -0.160    33.851     9.511
    33   1 h        0.925     0.077     2.013     2.219
    34   1 h        0.925     0.026     2.644     2.543
    35   1 h        0.925     0.035     2.514     2.479
    36   1 h        0.925     0.126     1.565     1.957
    37   1 h        0.923     0.058     2.220     2.330
    38   1 h        0.921    -0.034     3.724     3.018
    39   1 h        0.925     0.051     2.308     2.376
    40   1 h        0.925     0.028     2.620     2.531
    41   1 h        0.925     0.030     2.591     2.517
    42   1 h        0.925     0.051     2.303     2.373
    43   1 h        0.926     0.149     1.401     1.851
    44   1 h        0.921    -0.034     3.724     3.018
    45   1 h        0.923     0.059     2.217     2.328
    46   1 h        0.925     0.126     1.568     1.958
    47   1 h        0.925     0.035     2.514     2.480
    48   1 h        0.925     0.026     2.644     2.543
    49   1 h        0.925     0.077     2.013     2.219
    50   1 h        0.926     0.148     1.402     1.851
    51   1 h        0.925     0.051     2.304     2.374
    52   1 h        0.925     0.030     2.591     2.517
    53   1 h        0.925     0.028     2.620     2.531
    54   1 h        0.925     0.051     2.308     2.376

 Mol. C6AA /au·bohr⁶  :      43939.796933
 Mol. C8AA /au·bohr⁸  :    1092807.924675
 Mol. α(0) /au        :        333.987596


Wiberg/Mayer (AO) data.
largest (>0.10) Wiberg bond orders for each atom

 ---------------------------------------------------------------------------
     #   Z sym  total        # sym  WBO       # sym  WBO       # sym  WBO
 ---------------------------------------------------------------------------
     1   8 o    1.716 --     2 c    1.395
     2   6 c    3.937 --     1 o    1.395     3 c    1.221     7 c    1.183
     3   6 c    3.972 --     4 c    1.546     2 c    1.221    33 h    0.968
     4   6 c    3.984 --     3 c    1.546     5 c    1.341    34 h    0.971
     5   6 c    3.977 --     6 c    1.496     4 c    1.341    35 h    0.972
     6   6 c    3.987 --     5 c    1.496     7 c    1.344    36 h    0.967
     7   6 c    3.962 --     6 c    1.344     2 c    1.183     8 c    1.182
     8   6 c    3.919 --     9 n    1.653     7 c    1.182    37 h    0.943
     9   7 n    2.882 --     8 c    1.653    10 c    0.992
    10   6 c    3.951 --    11 c    0.995     9 n    0.992    38 h    0.955
                            17 c    0.887
    11   6 c    3.972 --    12 c    1.414    16 c    1.402    10 c    0.995
                            14 c    0.110
    12   6 c    3.984 --    13 c    1.441    11 c    1.414    39 h    0.970
                            15 c    0.111
    13   6 c    3.987 --    12 c    1.441    14 c    1.441    40 h    0.972
                            16 c    0.111
    14   6 c    3.986 --    13 c    1.441    15 c    1.433    41 h    0.973
                            11 c    0.110
    15   6 c    3.988 --    16 c    1.450    14 c    1.433    42 h    0.972
                            12 c    0.111
    16   6 c    3.987 --    15 c    1.450    11 c    1.402    43 h    0.968
                            13 c    0.111
    17   6 c    3.951 --    27 c    0.995    18 n    0.992    44 h    0.955
                            10 c    0.887
    18   7 n    2.882 --    19 c    1.653    17 c    0.992
    19   6 c    3.919 --    18 n    1.653    20 c    1.182    45 h    0.943
    20   6 c    3.962 --    21 c    1.344    25 c    1.183    19 c    1.182
    21   6 c    3.987 --    22 c    1.496    20 c    1.344    46 h    0.967
    22   6 c    3.977 --    21 c    1.496    23 c    1.340    47 h    0.972
    23   6 c    3.984 --    24 c    1.546    22 c    1.340    48 h    0.971
    24   6 c    3.972 --    23 c    1.546    25 c    1.221    49 h    0.968
    25   6 c    3.937 --    26 o    1.395    24 c    1.221    20 c    1.183
    26   8 o    1.716 --    25 c    1.395
    27   6 c    3.972 --    32 c    1.414    28 c    1.402    17 c    0.995
                            30 c    0.110
    28   6 c    3.987 --    29 c    1.450    27 c    1.402    50 h    0.968
                            31 c    0.111
    29   6 c    3.988 --    28 c    1.450    30 c    1.433    51 h    0.972
                            32 c    0.111
    30   6 c    3.986 --    31 c    1.441    29 c    1.433    52 h    0.973
                            27 c    0.110
    31   6 c    3.987 --    32 c    1.441    30 c    1.441    53 h    0.972
                            28 c    0.111
    32   6 c    3.984 --    31 c    1.441    27 c    1.414    54 h    0.970
                            29 c    0.111
    33   1 h    0.987 --     3 c    0.968
    34   1 h    0.983 --     4 c    0.971
    35   1 h    0.983 --     5 c    0.972
    36   1 h    0.987 --     6 c    0.967
    37   1 h    0.987 --     8 c    0.943
    38   1 h    0.964 --    10 c    0.955
    39   1 h    0.980 --    12 c    0.970
    40   1 h    0.983 --    13 c    0.972
    41   1 h    0.983 --    14 c    0.973
    42   1 h    0.984 --    15 c    0.972
    43   1 h    0.991 --    16 c    0.968
    44   1 h    0.964 --    17 c    0.955
    45   1 h    0.987 --    19 c    0.943
    46   1 h    0.987 --    21 c    0.967
    47   1 h    0.983 --    22 c    0.972
    48   1 h    0.983 --    23 c    0.971
    49   1 h    0.987 --    24 c    0.968
    50   1 h    0.991 --    28 c    0.968
    51   1 h    0.984 --    29 c    0.972
    52   1 h    0.983 --    30 c    0.973
    53   1 h    0.983 --    31 c    0.972
    54   1 h    0.980 --    32 c    0.970
 ---------------------------------------------------------------------------

Topologies differ in total number of bonds
Writing topology from bond orders to xtbtopo.mol

 dipole moment from electron density (au)
     X       Y       Z   
  -0.0894   0.8147  -0.1325  total (Debye):    2.110


           -------------------------------------------------
          | TOTAL ENERGY              -86.527697786208 Eh   |
          | GRADIENT NORM               0.056483260622 Eh/α |
          | HOMO-LUMO GAP               2.193492525846 eV   |
           -------------------------------------------------

------------------------------------------------------------------------
 * finished run on 2024/07/31 at 10:50:20.673     
------------------------------------------------------------------------
 total:
 * wall-time:     0 d,  0 h,  0 min,  0.079 sec
 *  cpu-time:     0 d,  0 h,  0 min,  1.617 sec
 * ratio c/w:    20.541 speedup
 SCF:
 * wall-time:     0 d,  0 h,  0 min,  0.036 sec
 *  cpu-time:     0 d,  0 h,  0 min,  0.858 sec
 * ratio c/w:    23.977 speedup

 Calculating WBOs... done.
      -----------------------------------------------------------      
     |                   =====================                   |     
     |                           x T B                           |     
     |                   =====================                   |     
     |                         S. Grimme                         |     
     |          Mulliken Center for Theoretical Chemistry        |     
     |                    University of Bonn                     |     
      -----------------------------------------------------------      

   * xtb version 6.4.1 (afa7bdf) compiled by 'ehlert@majestix' on 2021-06-10

   xtb is free software: you can redistribute it and/or modify it under
   the terms of the GNU Lesser General Public License as published by
   the Free Software Foundation, either version 3 of the License, or
   (at your option) any later version.
   
   xtb is distributed in the hope that it will be useful,
   but WITHOUT ANY WARRANTY; without even the implied warranty of
   MERCHANTABILITY or FITNESS FOR A PARTICULAR PURPOSE.  See the
   GNU Lesser General Public License for more details.
   
   Cite this work as:
   * C. Bannwarth, E. Caldeweyher, S. Ehlert, A. Hansen, P. Pracht,
     J. Seibert, S. Spicher, S. Grimme, WIREs Comput. Mol. Sci., 2020, 11,
     e01493. DOI: 10.1002/wcms.1493
   
   for GFN2-xTB:
   * C. Bannwarth, S. Ehlert and S. Grimme., J. Chem. Theory Comput., 2019,
     15, 1652-1671. DOI: 10.1021/acs.jctc.8b01176
   for GFN1-xTB:
   * S. Grimme, C. Bannwarth, P. Shushkov, J. Chem. Theory Comput., 2017,
     13, 1989-2009. DOI: 10.1021/acs.jctc.7b00118
   for GFN0-xTB:
   * P. Pracht, E. Caldeweyher, S. Ehlert, S. Grimme, ChemRxiv, 2019, preprint.
     DOI: 10.26434/chemrxiv.8326202.v1
   for GFN-FF:
   * S. Spicher and S. Grimme, Angew. Chem. Int. Ed., 2020, 59, 15665-15673.
     DOI: 10.1002/anie.202004239
   
   for DFT-D4:
   * E. Caldeweyher, C. Bannwarth and S. Grimme, J. Chem. Phys., 2017,
     147, 034112. DOI: 10.1063/1.4993215
   * E. Caldeweyher, S. Ehlert, A. Hansen, H. Neugebauer, S. Spicher,
     C. Bannwarth and S. Grimme, J. Chem. Phys., 2019, 150, 154122.
     DOI: 10.1063/1.5090222
   * E. Caldeweyher, J.-M. Mewes, S. Ehlert and S. Grimme, Phys. Chem. Chem. Phys.
     2020, 22, 8499-8512. DOI: 10.1039/D0CP00502A
   
   for sTDA-xTB:
   * S. Grimme and C. Bannwarth, J. Chem. Phys., 2016, 145, 054103.
     DOI: 10.1063/1.4959605
   
   in the mass-spec context:
   * V. Asgeirsson, C. Bauer and S. Grimme, Chem. Sci., 2017, 8, 4879.
     DOI: 10.1039/c7sc00601b
   * J. Koopman and S. Grimme, ACS Omega 2019, 4, 12, 15120-15133.
     DOI: 10.1021/acsomega.9b02011
   
   for metadynamics refer to:
   * S. Grimme, J. Chem. Theory Comput., 2019, 155, 2847-2862
     DOI: 10.1021/acs.jctc.9b00143
   
   for SPH calculations refer to:
   * S. Spicher and S. Grimme, J. Chem. Theory Comput., 2021, 17, 1701-1714
     DOI: 10.1021/acs.jctc.0c01306
   
   with help from (in alphabetical order)
   P. Atkinson, C. Bannwarth, F. Bohle, G. Brandenburg, E. Caldeweyher
   M. Checinski, S. Dohm, S. Ehlert, S. Ehrlich, I. Gerasimov, J. Koopman
   C. Lavigne, S. Lehtola, F. März, M. Müller, F. Musil, H. Neugebauer
   J. Pisarek, C. Plett, P. Pracht, J. Seibert, P. Shushkov, S. Spicher
   M. Stahn, M. Steiner, T. Strunk, J. Stückrath, T. Rose, and J. Unsleber
   
 * started run on 2024/07/31 at 10:50:20.714     

           -------------------------------------------------
          |                Calculation Setup                |
           -------------------------------------------------

          program call               : xtb tmpcoord --gfnff --sp
          hostname                   : node1
          coordinate file            : tmpcoord
          omp threads                :                    28
          number of atoms            :                    54
          number of electrons        :                   158
          charge                     :                    -2
          spin                       :                   0.0
          first test random number   :      0.73411018885642

   ID    Z sym.   atoms
    1    8 o      1, 26
    2    6 c      2-8, 10-17, 19-25, 27-32
    3    7 n      9, 18
    4    1 h      33-54
 
          ==================== Thresholds ====================
          CN  :   150.00000
          rep :   500.00000
          disp:  2500.00000
          HB1 :   250.00000
          HB2 :   450.00000
 
          Pauling EN used:
          Z : 1  EN :  2.20
          Z : 6  EN :  2.55
          Z : 7  EN :  3.04
          Z : 8  EN :  3.44
          electric field strengths (au): 0.000
 
           ------------------------------------------------- 
          |           Force Field Initialization            |
           ------------------------------------------------- 
 
          distances ...
          ----------------------------------------
          generating topology and atomic info file ...
          pair mat ...
          computing topology distances matrix with Floyd-Warshall algo ...
          making topology EEQ charges ...
          #fragments for EEQ constrain: 1
          ----------------------------------------
          generating topology and atomic info file ...
          pair mat ...
          computing topology distances matrix with Floyd-Warshall algo ...
          making topology EEQ charges ...
          #fragments for EEQ constrain: 1
          rings ...
          # BATM   546
          # H in HB   0
          doing iterative Hueckel for 4 subsystem(s) ...
 
  atom   neighbors  erfCN metchar sp-hybrid imet pi  qest     coordinates
    1  o       1    0.98   0.00         2    0    1  -0.471    5.918389   -2.928597   -8.034200
    2  c       3    2.80   0.00         2    0    1   0.110    5.441350   -0.618393   -7.794976
    3  c       3    2.81   0.00         2    0    1  -0.045    6.117167    1.174241   -9.723593
    4  c       3    2.81   0.00         2    0    1  -0.044    5.654976    3.704498   -9.507783
    5  c       3    2.81   0.00         2    0    1  -0.053    4.476809    4.693209   -7.359053
    6  c       3    2.81   0.00         2    0    1  -0.029    3.779335    3.065143   -5.455597
    7  c       3    2.81   0.00         2    0    1  -0.019    4.212504    0.470106   -5.603193
    8  c       3    2.83   0.00         2    0    1   0.057    3.437642   -1.167152   -3.599014
    9  n       2    1.94   0.00         2    0    1  -0.236    2.462408   -0.412028   -1.523260
   10  c       4    3.51   0.00         3    0    0   0.063    1.733548   -2.259108    0.297216
   11  c       3    2.82   0.00         2    0    1  -0.005    2.695609   -1.561174    2.872052
   12  c       3    2.82   0.00         2    0    1  -0.010    3.642237   -3.371183    4.515575
   13  c       3    2.81   0.00         2    0    1  -0.033    4.410982   -2.705541    6.925171
   14  c       3    2.81   0.00         2    0    1  -0.078    4.224509   -0.221860    7.720849
   15  c       3    2.81   0.00         2    0    1  -0.033    3.281591    1.594400    6.088520
   16  c       3    2.82   0.00         2    0    1  -0.010    2.528601    0.933068    3.678294
   17  c       4    3.51   0.00         3    0    0   0.063   -1.243609   -2.526523    0.503529
   18  n       2    1.94   0.00         2    0    1  -0.236   -2.380267   -0.370764    1.651948
   19  c       3    2.83   0.00         2    0    1   0.057   -3.250322   -0.590029    3.893554
   20  c       3    2.81   0.00         2    0    1  -0.019   -4.398860    1.418330    5.288179
   21  c       3    2.81   0.00         2    0    1  -0.029   -4.483089    3.859810    4.300563
   22  c       3    2.81   0.00         2    0    1  -0.053   -5.557168    5.839689    5.599458
   23  c       3    2.81   0.00         2    0    1  -0.044   -6.593689    5.379756    7.986351
   24  c       3    2.81   0.00         2    0    1  -0.045   -6.551548    3.014776    9.019410
   25  c       3    2.80   0.00         2    0    1   0.110   -5.462970    0.870732    7.751359
   26  o       1    0.98   0.00         2    0    1  -0.471   -5.477111   -1.285387    8.737510
   27  c       3    2.82   0.00         2    0    1  -0.005   -2.238163   -2.902232   -2.125599
   28  c       3    2.82   0.00         2    0    1  -0.010   -2.542009   -0.821813   -3.699888
   29  c       3    2.81   0.00         2    0    1  -0.033   -3.331840   -1.138202   -6.167690
   30  c       3    2.81   0.00         2    0    1  -0.078   -3.841837   -3.533246   -7.092869
   31  c       3    2.81   0.00         2    0    1  -0.033   -3.557692   -5.611331   -5.531612
   32  c       3    2.82   0.00         2    0    1  -0.010   -2.752219   -5.295949   -3.063472
   33  h       1    0.97   0.00         0    0    0  -0.004    7.033296    0.430911  -11.402254
   34  h       1    0.97   0.00         0    0    0  -0.021    6.208719    4.978234  -11.027279
   35  h       1    0.97   0.00         0    0    0  -0.012    4.121276    6.706280   -7.213062
   36  h       1    0.97   0.00         0    0    0  -0.011    2.857563    3.760317   -3.768707
   37  h       1    0.97   0.01         0    0    0  -0.006    3.767560   -3.193045   -3.964134
   38  h       1    0.97   0.01         0    0    0   0.026    2.421736   -4.178288   -0.227132
   39  h       1    0.97   0.00         0    0    0  -0.017    3.770760   -5.321973    3.908931
   40  h       1    0.97   0.00         0    0    0  -0.038    5.142556   -4.135817    8.194768
   41  h       1    0.97   0.00         0    0    0  -0.025    4.801228    0.292549    9.615706
   42  h       1    0.97   0.00         0    0    0  -0.038    3.110324    3.533124    6.713079
   43  h       1    0.97   0.00         0    0    0  -0.017    1.781512    2.312933    2.381894
   44  h       1    0.97   0.01         0    0    0   0.026   -1.560059   -4.268283    1.642706
   45  h       1    0.97   0.01         0    0    0  -0.006   -3.181540   -2.411549    4.905677
   46  h       1    0.97   0.00         0    0    0  -0.011   -3.658185    4.145518    2.452041
   47  h       1    0.97   0.00         0    0    0  -0.012   -5.602462    7.727489    4.802970
   48  h       1    0.97   0.00         0    0    0  -0.021   -7.445192    6.936370    9.030326
   49  h       1    0.97   0.00         0    0    0  -0.004   -7.362501    2.683059   10.874779
   50  h       1    0.97   0.00         0    0    0  -0.017   -2.126080    1.022193   -2.945200
   51  h       1    0.97   0.00         0    0    0  -0.038   -3.528309    0.487802   -7.390657
   52  h       1    0.97   0.00         0    0    0  -0.025   -4.446938   -3.783963   -9.031629
   53  h       1    0.97   0.00         0    0    0  -0.038   -3.948711   -7.490168   -6.245515
   54  h       1    0.97   0.00         0    0    0  -0.017   -2.511437   -6.930374   -1.854858
 
          #atoms :   54
          #bonds :   57
          #angl  :   92
          #tors  :   161
          #nmol  :   1
          #optfrag :   1
           ------------------------------------------------- 
          |                   G F N - F F                   |
          |          A general generic force-field          |
          |                  Version 1.0.3                  | 
           ------------------------------------------------- 
          nhb123   0 0 0

 E+G (total)                   0 d,  0 h,  0 min,  0.003 sec
 distance/D3 list               ...        0 min,  0.000 sec (  0.803%)
 non bonded repulsion           ...        0 min,  0.000 sec (  8.405%)
 dCN                            ...        0 min,  0.000 sec (  3.334%)
 EEQ energy and q               ...        0 min,  0.000 sec ( 15.834%)
 D3                             ...        0 min,  0.000 sec ( 15.472%)
 EEQ gradient                   ...        0 min,  0.000 sec ( 11.956%)
 bonds                          ...        0 min,  0.000 sec ( 14.789%)
 bend and torsion               ...        0 min,  0.001 sec ( 18.512%)
 bonded ATM                     ...        0 min,  0.000 sec (  1.564%)
 HB/XB (incl list setup)        ...        0 min,  0.000 sec (  2.471%)

         :::::::::::::::::::::::::::::::::::::::::::::::::::::
         ::                     SUMMARY                     ::
         :::::::::::::::::::::::::::::::::::::::::::::::::::::
         :: total energy             -13.416822102688 Eh    ::
         :: gradient norm              0.069574515626 Eh/a0 ::
         ::.................................................::
         :: bond energy              -11.687158318054 Eh    ::
         :: angle energy               0.006708346621 Eh    ::
         :: torsion energy             0.003292531025 Eh    ::
         :: repulsion energy           0.770406901040 Eh    ::
         :: electrostat energy        -2.443060152483 Eh    ::
         :: dispersion energy         -0.056622903411 Eh    ::
         :: HB energy                  0.000000000000 Eh    ::
         :: XB energy                  0.000000000000 Eh    ::
         :: bonded atm energy         -0.010388507427 Eh    ::
         :: external energy            0.000000000000 Eh    ::
         :: add. restraining           0.000000000000 Eh    ::
         :: total charge              -2.000000000000 e     ::
         :::::::::::::::::::::::::::::::::::::::::::::::::::::

           -------------------------------------------------
          |                Property Printout                |
           -------------------------------------------------

           -------------------------------------------------
          | TOTAL ENERGY              -13.416822102688 Eh   |
          | GRADIENT NORM               0.069574515626 Eh/α |
           -------------------------------------------------

------------------------------------------------------------------------
 * finished run on 2024/07/31 at 10:50:20.747     
------------------------------------------------------------------------
 total:
 * wall-time:     0 d,  0 h,  0 min,  0.034 sec
 *  cpu-time:     0 d,  0 h,  0 min,  0.453 sec
 * ratio c/w:    13.504 speedup
 SCF:
 * wall-time:     0 d,  0 h,  0 min,  0.005 sec
 *  cpu-time:     0 d,  0 h,  0 min,  0.116 sec
 * ratio c/w:    23.199 speedup

 Calculating NCI flexibility... done.
     covalent flexibility measure :   0.246
 non-covalent flexibility measure :   1.000
 flexibility measure :   0.371
 t(MTD) / ps set by command line  :     0.5
 t(MTD) / ps    :     0.5
 Σ(t(MTD)) / ps :     7.0 (14 MTDs)
 
-------------------------------------
Starting a trial MTD to test settings
-------------------------------------
 Estimated runtime for one MTD (0.5 ps) on a single thread: 1 min 41 sec
 Estimated runtime for a batch of 14 MTDs on 28 threads: 50 sec
 
 list of Vbias parameters applied:
$metadyn    0.00300   1.300
$metadyn    0.00150   1.300
$metadyn    0.00075   1.300
$metadyn    0.00300   0.780
$metadyn    0.00150   0.780
$metadyn    0.00075   0.780
$metadyn    0.00300   0.468
$metadyn    0.00150   0.468
$metadyn    0.00075   0.468
$metadyn    0.00300   0.281
$metadyn    0.00150   0.281
$metadyn    0.00075   0.281
$metadyn    0.00100   0.100
$metadyn    0.00500   0.800
 
*******************************************************************************************
**                        N E W    I T E R A T I O N    C Y C L E                        **
*******************************************************************************************
 
========================================
            MTD Iteration  1
========================================
 
     ========================================
     |         Meta-MD (MTD) Sampling       |
     ========================================
 
Starting Meta-MD   1 with the settings:
     MD time /ps        :     0.5
     dt /fs             :     1.5
     dumpstep(trj) /fs  :     100
     dumpstep(Vbias)/ps :     1.0
     Vbias factor k /Eh :  0.1620
     Vbias exp α /bohr⁻²:    1.30
Starting Meta-MD   2 with the settings:
     MD time /ps        :     0.5
     dt /fs             :     1.5
     dumpstep(trj) /fs  :     100
     dumpstep(Vbias)/ps :     1.0
     Vbias factor k /Eh :  0.0810
     Vbias exp α /bohr⁻²:    1.30
Starting Meta-MD  10 with the settings:
     MD time /ps        :     0.5
     dt /fs             :     1.5
     dumpstep(trj) /fs  :     100
     dumpstep(Vbias)/ps :     1.0
     Vbias factor k /Eh :  0.1620
     Vbias exp α /bohr⁻²:    0.28
Starting Meta-MD   5 with the settings:
     MD time /ps        :     0.5
     dt /fs             :     1.5
     dumpstep(trj) /fs  :     100
     dumpstep(Vbias)/ps :     1.0
     Vbias factor k /Eh :  0.0810
     Vbias exp α /bohr⁻²:    0.78
Starting Meta-MD   8 with the settings:
     MD time /ps        :     0.5
     dt /fs             :     1.5
     dumpstep(trj) /fs  :     100
     dumpstep(Vbias)/ps :     1.0
     Vbias factor k /Eh :  0.0810
     Vbias exp α /bohr⁻²:    0.47
Starting Meta-MD  14 with the settings:
     MD time /ps        :     0.5
     dt /fs             :     1.5
     dumpstep(trj) /fs  :     100
     dumpstep(Vbias)/ps :     1.0
     Vbias factor k /Eh :  0.2700
     Vbias exp α /bohr⁻²:    0.80
Starting Meta-MD  12 with the settings:
     MD time /ps        :     0.5
     dt /fs             :     1.5
     dumpstep(trj) /fs  :     100
     dumpstep(Vbias)/ps :     1.0
     Vbias factor k /Eh :  0.0405
     Vbias exp α /bohr⁻²:    0.28
Starting Meta-MD  13 with the settings:
     MD time /ps        :     0.5
     dt /fs             :     1.5
     dumpstep(trj) /fs  :     100
     dumpstep(Vbias)/ps :     1.0
     Vbias factor k /Eh :  0.0540
     Vbias exp α /bohr⁻²:    0.10
Starting Meta-MD  11 with the settings:
     MD time /ps        :     0.5
     dt /fs             :     1.5
     dumpstep(trj) /fs  :     100
     dumpstep(Vbias)/ps :     1.0
     Vbias factor k /Eh :  0.0810
     Vbias exp α /bohr⁻²:    0.28
Starting Meta-MD   6 with the settings:
     MD time /ps        :     0.5
     dt /fs             :     1.5
     dumpstep(trj) /fs  :     100
     dumpstep(Vbias)/ps :     1.0
     Vbias factor k /Eh :  0.0405
     Vbias exp α /bohr⁻²:    0.78
Starting Meta-MD   9 with the settings:
     MD time /ps        :     0.5
     dt /fs             :     1.5
     dumpstep(trj) /fs  :     100
     dumpstep(Vbias)/ps :     1.0
     Vbias factor k /Eh :  0.0405
     Vbias exp α /bohr⁻²:    0.47
Starting Meta-MD   3 with the settings:
     MD time /ps        :     0.5
     dt /fs             :     1.5
     dumpstep(trj) /fs  :     100
     dumpstep(Vbias)/ps :     1.0
     Vbias factor k /Eh :  0.0405
     Vbias exp α /bohr⁻²:    1.30
Starting Meta-MD   7 with the settings:
     MD time /ps        :     0.5
     dt /fs             :     1.5
     dumpstep(trj) /fs  :     100
     dumpstep(Vbias)/ps :     1.0
     Vbias factor k /Eh :  0.1620
     Vbias exp α /bohr⁻²:    0.47
Starting Meta-MD   4 with the settings:
     MD time /ps        :     0.5
     dt /fs             :     1.5
     dumpstep(trj) /fs  :     100
     dumpstep(Vbias)/ps :     1.0
     Vbias factor k /Eh :  0.1620
     Vbias exp α /bohr⁻²:    0.78
*Meta-MTD 11 finished*
*Meta-MTD 9 finished*
*Meta-MTD 2 finished*
*Meta-MTD 10 finished*
*Meta-MTD 1 finished*
*Meta-MTD 8 finished*
*Meta-MTD 13 finished*
*Meta-MTD 14 finished*
*Meta-MTD 12 finished*
*Meta-MTD 3 finished*
*Meta-MTD 7 finished*
*Meta-MTD 5 finished*
*Meta-MTD 4 finished*
*Meta-MTD 6 finished*
 
-----------------------
Multilevel Optimization
-----------------------
 
 -------------------------
 1. crude pre-optimization
 -------------------------
 Optimizing all 70 structures from file "crest_rotamers_0.xyz" ...
 1 2 3 4 5 6 7 8 9 10 11 12 13 14 15 16 17 18 19 20 21 22 23 24 25 26 27 28 29 30 31 32 33 34 35 36 37 38 39 40 41 42 43 44 45 46 47 48 49 50 51 52 53 54 55 56 57 58 59 60 61 62 63 64 65 66 67 68 69 70
 done.
 running RMSDs...
 done.
 E lowest :   -85.47628
 58 structures remain within    12.00 kcal/mol window
 
 -------------------------------------
 2. optimization with tight thresholds
 -------------------------------------
 Optimizing all 59 structures from file "crest_rotamers_1.xyz" ...
 1 2 3 4 5 6 7 8 9 10 11 12 13 14 15 16 17 18 19 20 21 22 23 24 25 26 27 28 29 30 31 32 33 34 35 36 37 38 39 40 41 42 43 44 45 46 47 48 49 50 51 52 53 54 55 56 57 58 59
 done.
 running RMSDs...
 done.
 E lowest :   -85.48419
 4 structures remain within     6.00 kcal/mol window
 
 
========================================
            MTD Iteration  2
========================================
 
     ========================================
     |         Meta-MD (MTD) Sampling       |
     ========================================
 
Starting Meta-MD   1 with the settings:
     MD time /ps        :     0.5
     dt /fs             :     1.5
     dumpstep(trj) /fs  :     100
     dumpstep(Vbias)/ps :     1.0
     Vbias factor k /Eh :  0.1620
     Vbias exp α /bohr⁻²:    1.30
Starting Meta-MD   2 with the settings:
     MD time /ps        :     0.5
     dt /fs             :     1.5
     dumpstep(trj) /fs  :     100
     dumpstep(Vbias)/ps :     1.0
     Vbias factor k /Eh :  0.0810
     Vbias exp α /bohr⁻²:    1.30
Starting Meta-MD   3 with the settings:
     MD time /ps        :     0.5
     dt /fs             :     1.5
     dumpstep(trj) /fs  :     100
     dumpstep(Vbias)/ps :     1.0
     Vbias factor k /Eh :  0.0405
     Vbias exp α /bohr⁻²:    1.30
Starting Meta-MD   4 with the settings:
     MD time /ps        :     0.5
     dt /fs             :     1.5
     dumpstep(trj) /fs  :     100
     dumpstep(Vbias)/ps :     1.0
     Vbias factor k /Eh :  0.1620
     Vbias exp α /bohr⁻²:    0.78
Starting Meta-MD   5 with the settings:
     MD time /ps        :     0.5
     dt /fs             :     1.5
     dumpstep(trj) /fs  :     100
     dumpstep(Vbias)/ps :     1.0
     Vbias factor k /Eh :  0.0810
     Vbias exp α /bohr⁻²:    0.78
Starting Meta-MD   6 with the settings:
     MD time /ps        :     0.5
     dt /fs             :     1.5
     dumpstep(trj) /fs  :     100
     dumpstep(Vbias)/ps :     1.0
     Vbias factor k /Eh :  0.0405
     Vbias exp α /bohr⁻²:    0.78
Starting Meta-MD   7 with the settings:
     MD time /ps        :     0.5
     dt /fs             :     1.5
     dumpstep(trj) /fs  :     100
     dumpstep(Vbias)/ps :     1.0
     Vbias factor k /Eh :  0.1620
     Vbias exp α /bohr⁻²:    0.47
Starting Meta-MD   8 with the settings:
     MD time /ps        :     0.5
     dt /fs             :     1.5
     dumpstep(trj) /fs  :     100
     dumpstep(Vbias)/ps :     1.0
     Vbias factor k /Eh :  0.0810
     Vbias exp α /bohr⁻²:    0.47
Starting Meta-MD   9 with the settings:
     MD time /ps        :     0.5
     dt /fs             :     1.5
     dumpstep(trj) /fs  :     100
     dumpstep(Vbias)/ps :     1.0
     Vbias factor k /Eh :  0.0405
     Vbias exp α /bohr⁻²:    0.47
Starting Meta-MD  10 with the settings:
     MD time /ps        :     0.5
     dt /fs             :     1.5
     dumpstep(trj) /fs  :     100
     dumpstep(Vbias)/ps :     1.0
     Vbias factor k /Eh :  0.1620
     Vbias exp α /bohr⁻²:    0.28
Starting Meta-MD  11 with the settings:
     MD time /ps        :     0.5
     dt /fs             :     1.5
     dumpstep(trj) /fs  :     100
     dumpstep(Vbias)/ps :     1.0
     Vbias factor k /Eh :  0.0810
     Vbias exp α /bohr⁻²:    0.28
Starting Meta-MD  12 with the settings:
     MD time /ps        :     0.5
     dt /fs             :     1.5
     dumpstep(trj) /fs  :     100
     dumpstep(Vbias)/ps :     1.0
     Vbias factor k /Eh :  0.0405
     Vbias exp α /bohr⁻²:    0.28
*Meta-MTD 9 finished*
*Meta-MTD 3 finished*
*Meta-MTD 6 finished*
*Meta-MTD 7 finished*
*Meta-MTD 12 finished*
*Meta-MTD 5 finished*
*Meta-MTD 11 finished*
*Meta-MTD 2 finished*
*Meta-MTD 8 finished*
*Meta-MTD 1 finished*
*Meta-MTD 10 finished*
*Meta-MTD 4 finished*
 
-----------------------
Multilevel Optimization
-----------------------
 
 -------------------------
 1. crude pre-optimization
 -------------------------
 Optimizing all 60 structures from file "crest_rotamers_0.xyz" ...
 1 2 3 4 5 6 7 8 9 10 11 12 13 14 15 16 17 18 19 20 21 22 23 24 25 26 27 28 29 30 31 32 33 34 35 36 37 38 39 40 41 42 43 44 45 46 47 48 49 50 51 52 53 54 55 56 57 58 59 60
 done.
 running RMSDs...
 done.
 E lowest :   -85.48331
 50 structures remain within    12.00 kcal/mol window
 
 -------------------------------------
 2. optimization with tight thresholds
 -------------------------------------
 Optimizing all 51 structures from file "crest_rotamers_1.xyz" ...
 1 2 3 4 5 6 7 8 9 10 11 12 13 14 15 16 17 18 19 20 21 22 23 24 25 26 27 28 29 30 31 32 33 34 35 36 37 38 39 40 41 42 43 44 45 46 47 48 49 50 51
 done.
 running RMSDs...
 done.
 E lowest :   -85.48424
 5 structures remain within     6.00 kcal/mol window
 
========================================
            MTD Iterations done         
========================================
 Collecting ensmbles.
 running RMSDs...
 done.
 E lowest :   -85.48424
 7 structures remain within     6.00 kcal/mol window
 
-----------------------------------------------
Additional regular MDs on lowest 4 conformer(s)
-----------------------------------------------
Starting MD   1 with the settings:
     MD time /ps        :     0.2
     MD Temperature /K  :   400.0
     dt /fs             :     1.5
     dumpstep(trj) /fs  :     100
Starting MD   2 with the settings:
     MD time /ps        :     0.2
     MD Temperature /K  :   500.0
     dt /fs             :     1.5
     dumpstep(trj) /fs  :     100
Starting MD   3 with the settings:
     MD time /ps        :     0.2
     MD Temperature /K  :   400.0
     dt /fs             :     1.5
     dumpstep(trj) /fs  :     100
Starting MD   4 with the settings:
     MD time /ps        :     0.2
     MD Temperature /K  :   500.0
     dt /fs             :     1.5
     dumpstep(trj) /fs  :     100
Starting MD   5 with the settings:
     MD time /ps        :     0.2
     MD Temperature /K  :   400.0
     dt /fs             :     1.5
     dumpstep(trj) /fs  :     100
Starting MD   6 with the settings:
     MD time /ps        :     0.2
     MD Temperature /K  :   500.0
     dt /fs             :     1.5
     dumpstep(trj) /fs  :     100
Starting MD   7 with the settings:
     MD time /ps        :     0.2
     MD Temperature /K  :   400.0
     dt /fs             :     1.5
     dumpstep(trj) /fs  :     100
Starting MD   8 with the settings:
     MD time /ps        :     0.2
     MD Temperature /K  :   500.0
     dt /fs             :     1.5
     dumpstep(trj) /fs  :     100
*MD 7 finished*
*MD 1 finished*
*MD 6 finished*
*MD 3 finished*
*MD 4 finished*
*MD 8 finished*
*MD 5 finished*
*MD 2 finished*
 Appending file crest_rotamers_1.xyz with new structures
 
 -------------------------------------------
 Ensemble optimization with tight thresholds
 -------------------------------------------
 Optimizing all 23 structures from file "crest_rotamers_1.xyz" ...
 1 2 3 4 5 6 7 8 9 10 11 12 13 14 15 16 17 18 19 20 21 22 23
 done.
 running RMSDs...
 done.
 E lowest :   -85.48424
 7 structures remain within     6.00 kcal/mol window
 
 
     ========================================
     |        Structure Crossing (GC)       |
     ========================================
 =============================
  # threads =          28
 =============================
 input  file name : crest_rotamers_3.xyz
number of atoms                :    54
number of points on xyz files  :     7
conformer energy window  /kcal :    6.00
CN per atom difference cut-off :  0.3000
RMSD threshold                 :  0.5000
max. # of generated structures : 25
 reading xyz file ...
 # in E window                  7
 generating pairs ...          27
 generated pairs           :           9
 number of clash discarded :          12
 average rmsd w.r.t input  : 2.52977
 sd of ensemble            : 0.76374
 number of new structures      :           8
 removed identical structures  :           1
 writing            8  TMPCONF* dirs ...
 --------------------------
 GC: loose pre-optimization
 --------------------------
 Starting optimization of generated structures
 8 jobs to do.
 1 2 3 4 5 6 7 8 
 done.
 Now appending opt.xyz file with new structures
 running RMSDs...
 done.
 E lowest :   -85.48404
 7 structures remain within    10.00 kcal/mol window
 --------------------------------------
 GC: optimization with tight thresholds
 --------------------------------------
 Optimizing all 7 structures from file "crest_rotamers_1.xyz" ...
 1 2 3 4 5 6 7
 done.
 running RMSDs...
 done.
 E lowest :   -85.48424
 
 
   ================================================
   |           Final Geometry Optimization        |
   ================================================
 ------------------------------------------------
 Ensemble optimization with very tight thresholds
 ------------------------------------------------
 Optimizing all 9 structures from file "crest_rotamers_4.xyz" ...
 1 2 3 4 5 6 7 8 9
 done.
 running RMSDs...
 done.
 E lowest :   -85.48424
 7 structures remain within     6.00 kcal/mol window
 
 input  file name : crest_rotamers_5.xyz
 output file name : crest_rotamers_6.xyz
 number of atoms                :   54
 number of points on xyz files  :   9
 RMSD threshold                 :   0.2500
 Bconst threshold               :   0.0100
 population threshold           :   0.0500
 conformer energy window  /kcal :   6.0000
 # fragment in coord            :     1
 # bonds in reference structure :    57
   => # of C=C bonds :     8
 number of reliable points      :     9
 reference state Etot :  -85.4842395200000
 number of doubles removed by rot/RMSD         :           2
 total number unique points considered further :           7
       Erel/kcal        Etot weight/tot  conformer     set   degen     origin
       1   0.000   -85.48424    0.25146    0.75291       1       3     mtd4
       2   0.000   -85.48424    0.25140                                mtd9
       3   0.003   -85.48423    0.25005                                gc
       4   0.011   -85.48422    0.24677    0.24677       2       1     gc
       5   4.612   -85.47689    0.00011    0.00021       3       2     md7
       6   4.613   -85.47689    0.00011                                mtd4
       7   4.624   -85.47687    0.00010    0.00010       4       1     mtd10
T /K                                  :   298.15
E lowest                              :   -85.48424
ensemble average energy (kcal)        :    0.005
ensemble entropy (J/mol K, cal/mol K) :   11.549    2.760
ensemble free energy (kcal/mol)       :   -0.823
population of lowest in %             :   75.291
 number of unique conformers for further calc            4
 list of relative energies saved as "crest.energies"
 
 -----------------
 Wall Time Summary
 -----------------
             test MD wall time :         0h : 0m :25s
                 MTD wall time :         0h : 0m :45s
      multilevel OPT wall time :         0h : 1m : 4s
                  MD wall time :         0h : 0m :20s
                  GC wall time :         0h : 0m : 7s
--------------------
Overall wall time  : 0h : 2m :51s
 
 CREST terminated normally.
