 
       ==============================================
       |                                            |
       |                 C R E S T                  |
       |                                            |
       |  Conformer-Rotamer Ensemble Sampling Tool  |
       |          based on the GFN methods          |
       |             P.Pracht, S.Grimme             |
       |          Universitaet Bonn, MCTC           |
       ==============================================
       Version 2.11.2, Fr 17. Dec 12:10:44 CEST 2021
  Using the xTB program. Compatible with xTB version 6.4.0
 
   Cite work conducted with this code as

   P. Pracht, F. Bohle, S. Grimme, PCCP, 2020, 22, 7169-7192.

   and  S. Grimme, JCTC, 2019, 15, 2847-2862.
 
   with help from:
   C.Bannwarth, F.Bohle, S.Ehlert, S.Grimme,
   C. Plett, P.Pracht, S. Spicher
 
   This program is distributed in the hope that it will be useful,
   but WITHOUT ANY WARRANTY; without even the implied warranty of
   MERCHANTABILITY or FITNESS FOR A PARTICULAR PURPOSE.

 Command line input:
 > crest 00230_r_0.xyz -T 28 -gfn2 -chrg 0 -uhf 0 -rthr 0.25 -shake 1 --mdlen 0.5

  -T 28 (CPUs/Threads selected)
  -gfn2 : Use of GFN2-xTB requested.
  -chrg 0
  -uhf 0
  -rthr 0.25
  --mdlen 0.5 (MD length in ps)
 
 -------------------------
 xTB Geometry Optimization
 -------------------------
 Geometry successfully optimized.
 
------------------------------------------------
Generating MTD length from a flexibility measure
------------------------------------------------
      -----------------------------------------------------------      
     |                   =====================                   |     
     |                           x T B                           |     
     |                   =====================                   |     
     |                         S. Grimme                         |     
     |          Mulliken Center for Theoretical Chemistry        |     
     |                    University of Bonn                     |     
      -----------------------------------------------------------      

   * xtb version 6.4.1 (afa7bdf) compiled by 'ehlert@majestix' on 2021-06-10

   xtb is free software: you can redistribute it and/or modify it under
   the terms of the GNU Lesser General Public License as published by
   the Free Software Foundation, either version 3 of the License, or
   (at your option) any later version.
   
   xtb is distributed in the hope that it will be useful,
   but WITHOUT ANY WARRANTY; without even the implied warranty of
   MERCHANTABILITY or FITNESS FOR A PARTICULAR PURPOSE.  See the
   GNU Lesser General Public License for more details.
   
   Cite this work as:
   * C. Bannwarth, E. Caldeweyher, S. Ehlert, A. Hansen, P. Pracht,
     J. Seibert, S. Spicher, S. Grimme, WIREs Comput. Mol. Sci., 2020, 11,
     e01493. DOI: 10.1002/wcms.1493
   
   for GFN2-xTB:
   * C. Bannwarth, S. Ehlert and S. Grimme., J. Chem. Theory Comput., 2019,
     15, 1652-1671. DOI: 10.1021/acs.jctc.8b01176
   for GFN1-xTB:
   * S. Grimme, C. Bannwarth, P. Shushkov, J. Chem. Theory Comput., 2017,
     13, 1989-2009. DOI: 10.1021/acs.jctc.7b00118
   for GFN0-xTB:
   * P. Pracht, E. Caldeweyher, S. Ehlert, S. Grimme, ChemRxiv, 2019, preprint.
     DOI: 10.26434/chemrxiv.8326202.v1
   for GFN-FF:
   * S. Spicher and S. Grimme, Angew. Chem. Int. Ed., 2020, 59, 15665-15673.
     DOI: 10.1002/anie.202004239
   
   for DFT-D4:
   * E. Caldeweyher, C. Bannwarth and S. Grimme, J. Chem. Phys., 2017,
     147, 034112. DOI: 10.1063/1.4993215
   * E. Caldeweyher, S. Ehlert, A. Hansen, H. Neugebauer, S. Spicher,
     C. Bannwarth and S. Grimme, J. Chem. Phys., 2019, 150, 154122.
     DOI: 10.1063/1.5090222
   * E. Caldeweyher, J.-M. Mewes, S. Ehlert and S. Grimme, Phys. Chem. Chem. Phys.
     2020, 22, 8499-8512. DOI: 10.1039/D0CP00502A
   
   for sTDA-xTB:
   * S. Grimme and C. Bannwarth, J. Chem. Phys., 2016, 145, 054103.
     DOI: 10.1063/1.4959605
   
   in the mass-spec context:
   * V. Asgeirsson, C. Bauer and S. Grimme, Chem. Sci., 2017, 8, 4879.
     DOI: 10.1039/c7sc00601b
   * J. Koopman and S. Grimme, ACS Omega 2019, 4, 12, 15120-15133.
     DOI: 10.1021/acsomega.9b02011
   
   for metadynamics refer to:
   * S. Grimme, J. Chem. Theory Comput., 2019, 155, 2847-2862
     DOI: 10.1021/acs.jctc.9b00143
   
   for SPH calculations refer to:
   * S. Spicher and S. Grimme, J. Chem. Theory Comput., 2021, 17, 1701-1714
     DOI: 10.1021/acs.jctc.0c01306
   
   with help from (in alphabetical order)
   P. Atkinson, C. Bannwarth, F. Bohle, G. Brandenburg, E. Caldeweyher
   M. Checinski, S. Dohm, S. Ehlert, S. Ehrlich, I. Gerasimov, J. Koopman
   C. Lavigne, S. Lehtola, F. März, M. Müller, F. Musil, H. Neugebauer
   J. Pisarek, C. Plett, P. Pracht, J. Seibert, P. Shushkov, S. Spicher
   M. Stahn, M. Steiner, T. Strunk, J. Stückrath, T. Rose, and J. Unsleber
   
 * started run on 2025/01/21 at 11:31:38.387     

           -------------------------------------------------
          |                Calculation Setup                |
           -------------------------------------------------

          program call               : xtb tmpcoord --gfn0 --sp
          hostname                   : node9
          coordinate file            : tmpcoord
          omp threads                :                    28
          number of atoms            :                    72
          number of electrons        :                   210
          charge                     :                     0
          spin                       :                   0.0
          first test random number   :      0.64018147364977

   ID    Z sym.   atoms
    1    6 c      1, 3-17, 19-23, 25-27, 29-37, 39, 41, 42
    2    8 o      2, 18, 24, 28, 38, 40
    3    1 h      43-72
########################################################################
[WARNING] Please study the warnings concerning your input carefully
-1- prog_main_parseArguments: The use of '--gfn0' is discouraged, please use '--gfn 0' next time
########################################################################

           -------------------------------------------------
          |                 G F N 0 - x T B                 |
           -------------------------------------------------

        Reference                      10.26434/chemrxiv.8326202.v1
      * Hamiltonian:
        H0-scaling (s, p, d)           2.000000    2.486800    2.270000
        zeta-weighting                 1.000000
      * Dispersion:
        s8                             2.850000
        a1                             0.800000
        a2                             4.600000
        s9                             0.000000
      * Repulsion:
        kExp                           1.500000
        rExp                           1.000000
      * Coulomb:
        alpha                          0.000000
        third order                    atomic
        anisotropic                    false
      * Polar bond correction:
        rad-shift                      0.053700
        strength                      -0.012900
        en-exp                         3.484700
        en-scale                       0.509700


          ...................................................
          :                      SETUP                      :
          :.................................................:
          :  # basis functions                 228          :
          :  # atomic orbitals                 228          :
          :  # shells                          144          :
          :  # electrons                       210          :
          :  electronic temp.          300.0000000     K    :
          :  accuracy                    1.0000000          :
          :  -> integral cutoff          0.2500000E+02      :
          :  -> integral neglect         0.1000000E-07      :
          ...................................................
  Checking positiv definite overlap ...  done.
 

         #    Occupation            Energy/Eh            Energy/eV
      -------------------------------------------------------------
         1        2.0000           -0.6953600             -18.9217
       ...           ...                  ...                  ...
        99        2.0000           -0.4177966             -11.3688
       100        2.0000           -0.4015802             -10.9276
       101        2.0000           -0.3999354             -10.8828
       102        2.0000           -0.3976075             -10.8195
       103        2.0000           -0.3890216             -10.5858
       104        2.0000           -0.3869004             -10.5281
       105        2.0000           -0.3855860             -10.4923 (HOMO)
       106                         -0.3012109              -8.1964 (LUMO)
       107                         -0.2968951              -8.0789
       108                         -0.2687879              -7.3141
       109                         -0.2685654              -7.3080
       110                         -0.2568460              -6.9891
       ...                                ...                  ...
       228                          0.6544538              17.8086
      -------------------------------------------------------------
                  HL-Gap            0.0843751 Eh            2.2960 eV
             Fermi-level            0.0000000 Eh            0.0000 eV

 EHT (total)                   0 d,  0 h,  0 min,  0.048 sec
 EHT setup                      ...        0 min,  0.002 sec (  3.166%)
 Coordination number            ...        0 min,  0.001 sec (  2.988%)
 EEQ model density              ...        0 min,  0.001 sec (  1.588%)
 D4 Dispersion                  ...        0 min,  0.003 sec (  5.904%)
 Integral evaluation            ...        0 min,  0.001 sec (  2.673%)
 Cholesky factorization         ...        0 min,  0.011 sec ( 23.153%)
 Zeroth order Hamiltonian       ...        0 min,  0.025 sec ( 51.751%)
 Gradient calculation           ...        0 min,  0.003 sec (  7.240%)

         :::::::::::::::::::::::::::::::::::::::::::::::::::::
         ::                     SUMMARY                     ::
         :::::::::::::::::::::::::::::::::::::::::::::::::::::
         :: total energy            -112.015895859152 Eh    ::
         :: gradient norm              0.077194771387 Eh/a0 ::
         :: HOMO-LUMO gap              2.295962470188 eV    ::
         ::.................................................::
         :: H0 energy               -113.454287956966 Eh    ::
         :: repulsion energy           1.783390921097 Eh    ::
         :: electrostat energy        -0.168516359529 Eh    ::
         :: -> Gsolv                   0.000000000000 Eh    ::
         ::    -> Gsasa                0.000000000000 Eh    ::
         ::    -> Gshift               0.000000000000 Eh    ::
         :: dispersion energy         -0.050636737370 Eh    ::
         :: short-range corr.         -0.125845726384 Eh    ::
         :: add. restraining           0.000000000000 Eh    ::
         :: total charge               0.000000000000 e     ::
         :::::::::::::::::::::::::::::::::::::::::::::::::::::

           -------------------------------------------------
          |                Property Printout                |
           -------------------------------------------------

    * Orbital Energies and Occupations

         #    Occupation            Energy/Eh            Energy/eV
      -------------------------------------------------------------
         1        2.0000           -0.6953600             -18.9217
       ...           ...                  ...                  ...
        93        2.0000           -0.4457685             -12.1300
        94        2.0000           -0.4443816             -12.0922
        95        2.0000           -0.4429427             -12.0531
        96        2.0000           -0.4392464             -11.9525
        97        2.0000           -0.4347887             -11.8312
        98        2.0000           -0.4184286             -11.3860
        99        2.0000           -0.4177966             -11.3688
       100        2.0000           -0.4015802             -10.9276
       101        2.0000           -0.3999354             -10.8828
       102        2.0000           -0.3976075             -10.8195
       103        2.0000           -0.3890216             -10.5858
       104        2.0000           -0.3869004             -10.5281
       105        2.0000           -0.3855860             -10.4923 (HOMO)
       106                         -0.3012109              -8.1964 (LUMO)
       107                         -0.2968951              -8.0789
       108                         -0.2687879              -7.3141
       109                         -0.2685654              -7.3080
       110                         -0.2568460              -6.9891
       111                         -0.2559645              -6.9651
       112                         -0.2443738              -6.6497
       113                         -0.2438727              -6.6361
       114                         -0.2350600              -6.3963
       115                         -0.2252274              -6.1288
       116                         -0.1843292              -5.0159
       ...                                ...                  ...
       228                          0.6544538              17.8086
      -------------------------------------------------------------
                  HL-Gap            0.0843751 Eh            2.2960 eV
             Fermi-level            0.0000000 Eh            0.0000 eV

     #   Z          covCN         q      C6AA      α(0)
     1   6 c        3.645    -0.085    25.081     7.276
     2   8 o        1.706    -0.362    19.956     6.044
     3   6 c        2.867     0.278    23.547     7.929
     4   6 c        2.914    -0.186    34.630     9.619
     5   6 c        2.926    -0.124    32.837     9.368
     6   6 c        2.975    -0.019    29.998     8.956
     7   6 c        2.969    -0.008    29.714     8.913
     8   6 c        2.925    -0.186    34.628     9.620
     9   6 c        2.984     0.068    27.884     8.635
    10   6 c        2.919    -0.130    33.001     9.391
    11   6 c        2.915    -0.087    31.791     9.217
    12   6 c        2.917    -0.088    31.820     9.221
    13   6 c        2.918    -0.119    32.676     9.344
    14   6 c        2.988     0.023    28.959     8.800
    15   6 c        2.974    -0.059    31.044     9.111
    16   6 c        2.973    -0.038    30.484     9.028
    17   6 c        2.850     0.230    24.465     8.081
    18   8 o        1.659    -0.544    23.667     6.581
    19   6 c        2.970     0.025    28.912     8.792
    20   6 c        2.976     0.020    29.033     8.811
    21   6 c        2.925    -0.110    32.429     9.309
    22   6 c        2.918    -0.167    34.079     9.543
    23   6 c        2.865     0.279    23.529     7.926
    24   8 o        1.705    -0.360    19.922     6.039
    25   6 c        3.643    -0.081    24.996     7.265
    26   6 c        2.915    -0.262    37.045     9.949
    27   6 c        2.868     0.235    24.378     8.068
    28   8 o        1.705    -0.354    19.806     6.021
    29   6 c        3.642    -0.080    24.982     7.264
    30   6 c        2.924    -0.180    34.442     9.594
    31   6 c        2.985     0.066    27.942     8.644
    32   6 c        2.920    -0.127    32.913     9.378
    33   6 c        2.915    -0.086    31.783     9.215
    34   6 c        2.917    -0.089    31.867     9.228
    35   6 c        2.918    -0.115    32.586     9.331
    36   6 c        2.988     0.034    28.676     8.757
    37   6 c        2.849     0.217    24.722     8.123
    38   8 o        1.660    -0.532    23.399     6.543
    39   6 c        2.866     0.213    24.797     8.137
    40   8 o        1.705    -0.350    19.734     6.010
    41   6 c        3.642    -0.084    25.077     7.277
    42   6 c        2.917    -0.241    36.364     9.858
    43   1 h        0.924     0.081     1.974     2.197
    44   1 h        0.924     0.080     1.978     2.199
    45   1 h        0.925     0.100     1.782     2.088
    46   1 h        0.926     0.111     1.687     2.031
    47   1 h        0.926     0.112     1.678     2.026
    48   1 h        0.926     0.123     1.592     1.973
    49   1 h        0.926     0.101     1.773     2.082
    50   1 h        0.926     0.095     1.830     2.116
    51   1 h        0.926     0.097     1.810     2.104
    52   1 h        0.926     0.121     1.607     1.982
    53   1 h        0.805     0.330     0.637     1.253
    54   1 h        0.926     0.147     1.413     1.859
    55   1 h        0.926     0.136     1.491     1.910
    56   1 h        0.925     0.100     1.789     2.092
    57   1 h        0.924     0.078     2.001     2.212
    58   1 h        0.924     0.080     1.981     2.201
    59   1 h        0.926     0.123     1.589     1.972
    60   1 h        0.925     0.098     1.808     2.103
    61   1 h        0.924     0.082     1.960     2.189
    62   1 h        0.924     0.075     2.031     2.229
    63   1 h        0.926     0.139     1.468     1.894
    64   1 h        0.926     0.103     1.760     2.075
    65   1 h        0.926     0.095     1.829     2.115
    66   1 h        0.926     0.097     1.816     2.107
    67   1 h        0.926     0.120     1.617     1.989
    68   1 h        0.805     0.318     0.668     1.284
    69   1 h        0.924     0.084     1.936     2.176
    70   1 h        0.924     0.086     1.919     2.166
    71   1 h        0.925     0.111     1.686     2.031
    72   1 h        0.926     0.144     1.435     1.873

 Mol. C6AA /au·bohr⁶  :      68599.447947
 Mol. C8AA /au·bohr⁸  :    1718636.207005
 Mol. α(0) /au        :        414.745226


Wiberg/Mayer (AO) data.
largest (>0.10) Wiberg bond orders for each atom

 ---------------------------------------------------------------------------
     #   Z sym  total        # sym  WBO       # sym  WBO       # sym  WBO
 ---------------------------------------------------------------------------
     1   6 c    3.950 --     2 o    0.988    45 h    0.981    44 h    0.979
                            43 h    0.978
     2   8 o    2.341 --     3 c    1.123     1 c    0.988
     3   6 c    3.941 --     4 c    1.347    42 c    1.336     2 o    1.123
     4   6 c    3.966 --     5 c    1.426     3 c    1.347    46 h    0.969
     5   6 c    3.983 --     4 c    1.426     6 c    1.421    47 h    0.969
     6   6 c    3.964 --     5 c    1.421    39 c    1.267     7 c    1.026
     7   6 c    3.975 --     8 c    1.518    37 c    1.213     6 c    1.026
     8   6 c    3.981 --     7 c    1.518     9 c    1.271    48 h    0.965
     9   6 c    3.978 --    10 c    1.280     8 c    1.271    14 c    1.242
    10   6 c    3.979 --    11 c    1.551     9 c    1.280    49 h    0.969
                            13 c    0.115
    11   6 c    3.975 --    10 c    1.551    12 c    1.319    50 h    0.973
    12   6 c    3.982 --    13 c    1.555    11 c    1.319    51 h    0.973
    13   6 c    3.987 --    12 c    1.555    14 c    1.274    52 h    0.966
                            10 c    0.115
    14   6 c    3.977 --    13 c    1.274    15 c    1.252     9 c    1.242
    15   6 c    3.966 --    37 c    1.406    14 c    1.252    16 c    1.003
    16   6 c    3.964 --    17 c    1.417    36 c    1.250    15 c    1.003
    17   6 c    3.941 --    16 c    1.417    19 c    1.211    18 o    1.132
    18   8 o    2.310 --    17 c    1.132    53 h    0.967
    19   6 c    3.976 --    30 c    1.521    17 c    1.211    20 c    1.030
    20   6 c    3.963 --    21 c    1.399    27 c    1.289    19 c    1.030
    21   6 c    3.983 --    22 c    1.452    20 c    1.399    54 h    0.968
    22   6 c    3.968 --    21 c    1.452    23 c    1.330    55 h    0.968
    23   6 c    3.941 --    26 c    1.358    22 c    1.330    24 o    1.118
    24   8 o    2.336 --    23 c    1.118    25 c    0.990
    25   6 c    3.950 --    24 o    0.990    56 h    0.980    57 h    0.978
                            58 h    0.978
    26   6 c    3.961 --    27 c    1.367    23 c    1.358    59 h    0.963
    27   6 c    3.939 --    26 c    1.367    20 c    1.289    28 o    1.117
    28   8 o    2.348 --    27 c    1.117    29 c    0.990
    29   6 c    3.950 --    28 o    0.990    60 h    0.980    61 h    0.978
                            62 h    0.977
    30   6 c    3.981 --    19 c    1.521    31 c    1.269    63 h    0.965
    31   6 c    3.978 --    32 c    1.282    30 c    1.269    36 c    1.242
    32   6 c    3.979 --    33 c    1.549    31 c    1.282    64 h    0.969
                            35 c    0.115
    33   6 c    3.975 --    32 c    1.549    34 c    1.321    65 h    0.972
    34   6 c    3.981 --    35 c    1.553    33 c    1.321    66 h    0.972
    35   6 c    3.987 --    34 c    1.553    36 c    1.275    67 h    0.966
                            32 c    0.115
    36   6 c    3.976 --    35 c    1.275    16 c    1.250    31 c    1.242
    37   6 c    3.940 --    15 c    1.406     7 c    1.213    38 o    1.130
    38   8 o    2.303 --    37 c    1.130    68 h    0.968
    39   6 c    3.939 --    42 c    1.391     6 c    1.267    40 o    1.112
    40   8 o    2.350 --    39 c    1.112    41 c    0.988
    41   6 c    3.950 --    40 o    0.988    71 h    0.981    70 h    0.979
                            69 h    0.978
    42   6 c    3.960 --    39 c    1.391     3 c    1.336    72 h    0.964
    43   1 h    0.986 --     1 c    0.978
    44   1 h    0.986 --     1 c    0.979
    45   1 h    1.004 --     1 c    0.981
    46   1 h    0.976 --     4 c    0.969
    47   1 h    0.980 --     5 c    0.969
    48   1 h    0.975 --     8 c    0.965
    49   1 h    0.978 --    10 c    0.969
    50   1 h    0.983 --    11 c    0.973
    51   1 h    0.984 --    12 c    0.973
    52   1 h    0.980 --    13 c    0.966
    53   1 h    0.988 --    18 o    0.967
    54   1 h    0.988 --    21 c    0.968
    55   1 h    0.985 --    22 c    0.968
    56   1 h    1.004 --    25 c    0.980
    57   1 h    0.986 --    25 c    0.978
    58   1 h    0.986 --    25 c    0.978
    59   1 h    0.967 --    26 c    0.963
    60   1 h    1.004 --    29 c    0.980
    61   1 h    0.986 --    29 c    0.978
    62   1 h    0.986 --    29 c    0.977
    63   1 h    0.983 --    30 c    0.965
    64   1 h    0.978 --    32 c    0.969
    65   1 h    0.983 --    33 c    0.972
    66   1 h    0.983 --    34 c    0.972
    67   1 h    0.980 --    35 c    0.966
    68   1 h    0.995 --    38 o    0.968
    69   1 h    0.986 --    41 c    0.978
    70   1 h    0.986 --    41 c    0.979
    71   1 h    1.004 --    41 c    0.981
    72   1 h    0.979 --    42 c    0.964
 ---------------------------------------------------------------------------

Topologies differ in total number of bonds
Writing topology from bond orders to xtbtopo.mol

 dipole moment from electron density (au)
     X       Y       Z   
  -0.3599   0.8818  -2.0997  total (Debye):    5.860


           -------------------------------------------------
          | TOTAL ENERGY             -112.015895859152 Eh   |
          | GRADIENT NORM               0.077194771387 Eh/α |
          | HOMO-LUMO GAP               2.295962470188 eV   |
           -------------------------------------------------

------------------------------------------------------------------------
 * finished run on 2025/01/21 at 11:31:38.483     
------------------------------------------------------------------------
 total:
 * wall-time:     0 d,  0 h,  0 min,  0.096 sec
 *  cpu-time:     0 d,  0 h,  0 min,  1.989 sec
 * ratio c/w:    20.641 speedup
 SCF:
 * wall-time:     0 d,  0 h,  0 min,  0.049 sec
 *  cpu-time:     0 d,  0 h,  0 min,  1.174 sec
 * ratio c/w:    23.916 speedup

 Calculating WBOs... done.
      -----------------------------------------------------------      
     |                   =====================                   |     
     |                           x T B                           |     
     |                   =====================                   |     
     |                         S. Grimme                         |     
     |          Mulliken Center for Theoretical Chemistry        |     
     |                    University of Bonn                     |     
      -----------------------------------------------------------      

   * xtb version 6.4.1 (afa7bdf) compiled by 'ehlert@majestix' on 2021-06-10

   xtb is free software: you can redistribute it and/or modify it under
   the terms of the GNU Lesser General Public License as published by
   the Free Software Foundation, either version 3 of the License, or
   (at your option) any later version.
   
   xtb is distributed in the hope that it will be useful,
   but WITHOUT ANY WARRANTY; without even the implied warranty of
   MERCHANTABILITY or FITNESS FOR A PARTICULAR PURPOSE.  See the
   GNU Lesser General Public License for more details.
   
   Cite this work as:
   * C. Bannwarth, E. Caldeweyher, S. Ehlert, A. Hansen, P. Pracht,
     J. Seibert, S. Spicher, S. Grimme, WIREs Comput. Mol. Sci., 2020, 11,
     e01493. DOI: 10.1002/wcms.1493
   
   for GFN2-xTB:
   * C. Bannwarth, S. Ehlert and S. Grimme., J. Chem. Theory Comput., 2019,
     15, 1652-1671. DOI: 10.1021/acs.jctc.8b01176
   for GFN1-xTB:
   * S. Grimme, C. Bannwarth, P. Shushkov, J. Chem. Theory Comput., 2017,
     13, 1989-2009. DOI: 10.1021/acs.jctc.7b00118
   for GFN0-xTB:
   * P. Pracht, E. Caldeweyher, S. Ehlert, S. Grimme, ChemRxiv, 2019, preprint.
     DOI: 10.26434/chemrxiv.8326202.v1
   for GFN-FF:
   * S. Spicher and S. Grimme, Angew. Chem. Int. Ed., 2020, 59, 15665-15673.
     DOI: 10.1002/anie.202004239
   
   for DFT-D4:
   * E. Caldeweyher, C. Bannwarth and S. Grimme, J. Chem. Phys., 2017,
     147, 034112. DOI: 10.1063/1.4993215
   * E. Caldeweyher, S. Ehlert, A. Hansen, H. Neugebauer, S. Spicher,
     C. Bannwarth and S. Grimme, J. Chem. Phys., 2019, 150, 154122.
     DOI: 10.1063/1.5090222
   * E. Caldeweyher, J.-M. Mewes, S. Ehlert and S. Grimme, Phys. Chem. Chem. Phys.
     2020, 22, 8499-8512. DOI: 10.1039/D0CP00502A
   
   for sTDA-xTB:
   * S. Grimme and C. Bannwarth, J. Chem. Phys., 2016, 145, 054103.
     DOI: 10.1063/1.4959605
   
   in the mass-spec context:
   * V. Asgeirsson, C. Bauer and S. Grimme, Chem. Sci., 2017, 8, 4879.
     DOI: 10.1039/c7sc00601b
   * J. Koopman and S. Grimme, ACS Omega 2019, 4, 12, 15120-15133.
     DOI: 10.1021/acsomega.9b02011
   
   for metadynamics refer to:
   * S. Grimme, J. Chem. Theory Comput., 2019, 155, 2847-2862
     DOI: 10.1021/acs.jctc.9b00143
   
   for SPH calculations refer to:
   * S. Spicher and S. Grimme, J. Chem. Theory Comput., 2021, 17, 1701-1714
     DOI: 10.1021/acs.jctc.0c01306
   
   with help from (in alphabetical order)
   P. Atkinson, C. Bannwarth, F. Bohle, G. Brandenburg, E. Caldeweyher
   M. Checinski, S. Dohm, S. Ehlert, S. Ehrlich, I. Gerasimov, J. Koopman
   C. Lavigne, S. Lehtola, F. März, M. Müller, F. Musil, H. Neugebauer
   J. Pisarek, C. Plett, P. Pracht, J. Seibert, P. Shushkov, S. Spicher
   M. Stahn, M. Steiner, T. Strunk, J. Stückrath, T. Rose, and J. Unsleber
   
 * started run on 2025/01/21 at 11:31:38.529     

           -------------------------------------------------
          |                Calculation Setup                |
           -------------------------------------------------

          program call               : xtb tmpcoord --gfnff --sp
          hostname                   : node9
          coordinate file            : tmpcoord
          omp threads                :                    28
          number of atoms            :                    72
          number of electrons        :                   210
          charge                     :                     0
          spin                       :                   0.0
          first test random number   :      0.59128000273313

   ID    Z sym.   atoms
    1    6 c      1, 3-17, 19-23, 25-27, 29-37, 39, 41, 42
    2    8 o      2, 18, 24, 28, 38, 40
    3    1 h      43-72
 
          ==================== Thresholds ====================
          CN  :   150.00000
          rep :   500.00000
          disp:  2500.00000
          HB1 :   250.00000
          HB2 :   450.00000
 
          Pauling EN used:
          Z : 1  EN :  2.20
          Z : 6  EN :  2.55
          Z : 8  EN :  3.44
          electric field strengths (au): 0.000
 
           ------------------------------------------------- 
          |           Force Field Initialization            |
           ------------------------------------------------- 
 
          distances ...
          ----------------------------------------
          generating topology and atomic info file ...
          pair mat ...
          computing topology distances matrix with Floyd-Warshall algo ...
          making topology EEQ charges ...
          #fragments for EEQ constrain: 1
          ----------------------------------------
          generating topology and atomic info file ...
          pair mat ...
          computing topology distances matrix with Floyd-Warshall algo ...
          making topology EEQ charges ...
          #fragments for EEQ constrain: 1
          rings ...
          # BATM   748
          # H in HB   18
          doing iterative Hueckel for 1 subsystem(s) ...
 
  atom   neighbors  erfCN metchar sp-hybrid imet pi  qest     coordinates
    1  c       4    3.50   0.00         3    0    0   0.068  -16.356254   -1.083379   -4.241938
    2  o       2    1.92   0.00         3    0    1  -0.345  -13.967946   -0.257947   -5.069996
    3  c       3    2.83   0.00         2    0    1   0.080  -12.073697   -0.058187   -3.341818
    4  c       3    2.81   0.00         2    0    1  -0.005  -12.290716   -0.619686   -0.788894
    5  c       3    2.82   0.00         2    0    1  -0.024  -10.206569   -0.331183    0.767099
    6  c       3    2.82   0.00         2    0    1  -0.009   -7.895974    0.482367   -0.151093
    7  c       3    2.81   0.00         2    0    1   0.011   -5.730435    0.841872    1.573191
    8  c       3    2.82   0.00         2    0    1  -0.039   -5.972699    2.391136    3.638049
    9  c       3    2.83   0.00         2    0    1   0.007   -3.943149    2.842445    5.295471
   10  c       3    2.81   0.00         2    0    1  -0.029   -4.176538    4.459969    7.400764
   11  c       3    2.81   0.00         2    0    1  -0.038   -2.162147    4.904358    8.953399
   12  c       3    2.81   0.00         2    0    1  -0.025    0.177445    3.756513    8.460239
   13  c       3    2.81   0.00         2    0    1  -0.026    0.464003    2.172785    6.440548
   14  c       3    2.83   0.00         2    0    1  -0.004   -1.586011    1.658578    4.814634
   15  c       3    2.82   0.00         2    0    1   0.011   -1.359246    0.005501    2.720847
   16  c       3    2.82   0.00         2    0    1   0.011    1.071596   -1.292979    2.197987
   17  c       3    2.82   0.00         2    0    1   0.087    2.548498   -0.487459    0.205943
   18  o       2    1.92   0.00         3    0    1  -0.419    1.821071    1.448227   -1.319676
   19  c       3    2.81   0.00         2    0    1   0.011    4.944604   -1.601794   -0.254103
   20  c       3    2.82   0.00         2    0    1  -0.009    6.528732   -0.656929   -2.340716
   21  c       3    2.82   0.00         2    0    1  -0.024    5.586252   -0.490983   -4.783050
   22  c       3    2.81   0.00         2    0    1  -0.005    7.057163    0.369363   -6.753971
   23  c       3    2.83   0.00         2    0    1   0.080    9.541885    1.106744   -6.306841
   24  o       2    1.92   0.00         3    0    1  -0.345   10.866667    1.930818   -8.362278
   25  c       4    3.50   0.00         3    0    0   0.068   13.392587    2.681462   -8.039162
   26  c       3    2.81   0.00         2    0    1  -0.003   10.519329    0.974466   -3.871843
   27  c       3    2.83   0.00         2    0    1   0.091    9.030591    0.097068   -1.893304
   28  o       2    1.92   0.00         3    0    1  -0.326    9.854272   -0.053491    0.546859
   29  c       4    3.50   0.00         3    0    0   0.031   12.285192    0.822367    1.146690
   30  c       3    2.82   0.00         2    0    1  -0.039    5.748958   -3.533210    1.271555
   31  c       3    2.83   0.00         2    0    1   0.007    4.259522   -4.452075    3.274464
   32  c       3    2.81   0.00         2    0    1  -0.029    5.069318   -6.461802    4.824543
   33  c       3    2.81   0.00         2    0    1  -0.038    3.592210   -7.319803    6.761817
   34  c       3    2.81   0.00         2    0    1  -0.025    1.232432   -6.204988    7.226170
   35  c       3    2.81   0.00         2    0    1  -0.026    0.393810   -4.250693    5.759198
   36  c       3    2.83   0.00         2    0    1  -0.004    1.879823   -3.315549    3.753752
   37  c       3    2.82   0.00         2    0    1   0.087   -3.395591   -0.397469    1.136075
   38  o       2    1.92   0.00         3    0    1  -0.419   -3.096085   -2.068007   -0.795342
   39  c       3    2.83   0.00         2    0    1   0.091   -7.691235    1.066913   -2.740844
   40  o       2    1.92   0.00         3    0    1  -0.326   -5.381006    1.909240   -3.524301
   41  c       4    3.50   0.00         3    0    0   0.031   -5.056675    2.596161   -6.071433
   42  c       3    2.81   0.00         2    0    1  -0.003   -9.767638    0.790831   -4.303330
   43  h       1    0.97   0.00         0    0    0   0.034  -16.267926   -2.993108   -3.451662
   44  h       1    0.97   0.00         0    0    0   0.034  -17.159844    0.205514   -2.837584
   45  h       1    0.97   0.00         0    0    0   0.034  -17.552121   -1.095612   -5.916112
   46  h       1    0.97   0.00         0    0    0   0.044  -14.046520   -1.271080    0.010331
   47  h       1    0.97   0.00         0    0    0   0.066  -10.369692   -0.769534    2.753277
   48  h       1    0.97   0.00         0    0    0   0.063   -7.755276    3.327036    3.981330
   49  h       1    0.97   0.00         0    0    0   0.048   -5.982447    5.346129    7.755901
   50  h       1    0.97   0.00         0    0    0   0.066   -2.352522    6.146812   10.561943
   51  h       1    0.97   0.00         0    0    0   0.044    1.758686    4.138225    9.693445
   52  h       1    0.97   0.00         0    0    0   0.050    2.265199    1.292947    6.060625
   53  h       1    0.97   0.00         0    0    0   0.226    0.125823    1.956937   -0.862184
   54  h       1    0.97   0.00         0    0    0   0.066    3.662569   -1.065868   -5.131755
   55  h       1    0.97   0.00         0    0    0   0.044    6.328503    0.488402   -8.652117
   56  h       1    0.97   0.00         0    0    0   0.034   14.053624    3.235471   -9.907794
   57  h       1    0.97   0.00         0    0    0   0.034   14.567534    1.128509   -7.337040
   58  h       1    0.97   0.00         0    0    0   0.034   13.552600    4.298468   -6.756635
   59  h       1    0.97   0.00         0    0    0   0.048   12.436301    1.557026   -3.511879
   60  h       1    0.97   0.00         0    0    0   0.049   12.472824    0.577100    3.181820
   61  h       1    0.97   0.00         0    0    0   0.049   12.516742    2.825900    0.680632
   62  h       1    0.97   0.00         0    0    0   0.049   13.757623   -0.279437    0.194564
   63  h       1    0.97   0.00         0    0    0   0.063    7.566934   -4.391418    0.925882
   64  h       1    0.97   0.00         0    0    0   0.048    6.887123   -7.313407    4.445926
   65  h       1    0.97   0.00         0    0    0   0.066    4.225202   -8.861087    7.942214
   66  h       1    0.97   0.00         0    0    0   0.044    0.076452   -6.907033    8.756246
   67  h       1    0.97   0.00         0    0    0   0.050   -1.427990   -3.402454    6.118401
   68  h       1    0.97   0.00         0    0    0   0.226   -4.621411   -2.124620   -1.790033
   69  h       1    0.97   0.00         0    0    0   0.049   -5.385541    0.993392   -7.336786
   70  h       1    0.97   0.00         0    0    0   0.049   -6.305512    4.157259   -6.598283
   71  h       1    0.97   0.00         0    0    0   0.049   -3.095933    3.198568   -6.232292
   72  h       1    0.97   0.00         0    0    0   0.048   -9.687542    1.229958   -6.289296
 
          #atoms :   72
          #bonds :   77
          #angl  :   126
          #tors  :   204
          #nmol  :   1
          #optfrag :   1
           ------------------------------------------------- 
          |                   G F N - F F                   |
          |          A general generic force-field          |
          |                  Version 1.0.3                  | 
           ------------------------------------------------- 
          nhb123   5545 488 0

 E+G (total)                   0 d,  0 h,  0 min,  0.004 sec
 distance/D3 list               ...        0 min,  0.000 sec (  0.710%)
 non bonded repulsion           ...        0 min,  0.000 sec (  6.946%)
 dCN                            ...        0 min,  0.000 sec (  6.188%)
 EEQ energy and q               ...        0 min,  0.000 sec ( 11.009%)
 D3                             ...        0 min,  0.001 sec ( 13.001%)
 EEQ gradient                   ...        0 min,  0.000 sec (  8.354%)
 bonds                          ...        0 min,  0.000 sec (  9.667%)
 bend and torsion               ...        0 min,  0.000 sec ( 12.116%)
 bonded ATM                     ...        0 min,  0.000 sec (  1.240%)
 HB/XB (incl list setup)        ...        0 min,  0.001 sec ( 25.479%)

         :::::::::::::::::::::::::::::::::::::::::::::::::::::
         ::                     SUMMARY                     ::
         :::::::::::::::::::::::::::::::::::::::::::::::::::::
         :: total energy             -14.312691783437 Eh    ::
         :: gradient norm              0.077527494848 Eh/a0 ::
         ::.................................................::
         :: bond energy              -14.979366383162 Eh    ::
         :: angle energy               0.031471293431 Eh    ::
         :: torsion energy             0.021795563048 Eh    ::
         :: repulsion energy           1.008786197482 Eh    ::
         :: electrostat energy        -0.311268580538 Eh    ::
         :: dispersion energy         -0.072199075696 Eh    ::
         :: HB energy                 -0.001580307316 Eh    ::
         :: XB energy                  0.000000000000 Eh    ::
         :: bonded atm energy         -0.010330490685 Eh    ::
         :: external energy            0.000000000000 Eh    ::
         :: add. restraining           0.000000000000 Eh    ::
         :: total charge              -0.000000000000 e     ::
         :::::::::::::::::::::::::::::::::::::::::::::::::::::

           -------------------------------------------------
          |                Property Printout                |
           -------------------------------------------------

           -------------------------------------------------
          | TOTAL ENERGY              -14.312691783437 Eh   |
          | GRADIENT NORM               0.077527494848 Eh/α |
           -------------------------------------------------

------------------------------------------------------------------------
 * finished run on 2025/01/21 at 11:31:38.692     
------------------------------------------------------------------------
 total:
 * wall-time:     0 d,  0 h,  0 min,  0.163 sec
 *  cpu-time:     0 d,  0 h,  0 min,  3.628 sec
 * ratio c/w:    22.276 speedup
 SCF:
 * wall-time:     0 d,  0 h,  0 min,  0.006 sec
 *  cpu-time:     0 d,  0 h,  0 min,  0.150 sec
 * ratio c/w:    23.345 speedup

 Calculating NCI flexibility... done.
     covalent flexibility measure :   0.102
 non-covalent flexibility measure :   1.000
 flexibility measure :   0.210
 t(MTD) / ps set by command line  :     0.5
 t(MTD) / ps    :     0.5
 Σ(t(MTD)) / ps :     7.0 (14 MTDs)
 
-------------------------------------
Starting a trial MTD to test settings
-------------------------------------
 Estimated runtime for one MTD (0.5 ps) on a single thread: 2 min 48 sec
 Estimated runtime for a batch of 14 MTDs on 28 threads: 1 min 24 sec
 
 list of Vbias parameters applied:
$metadyn    0.00300   1.300
$metadyn    0.00150   1.300
$metadyn    0.00075   1.300
$metadyn    0.00300   0.780
$metadyn    0.00150   0.780
$metadyn    0.00075   0.780
$metadyn    0.00300   0.468
$metadyn    0.00150   0.468
$metadyn    0.00075   0.468
$metadyn    0.00300   0.281
$metadyn    0.00150   0.281
$metadyn    0.00075   0.281
$metadyn    0.00100   0.100
$metadyn    0.00500   0.800
 
*******************************************************************************************
**                        N E W    I T E R A T I O N    C Y C L E                        **
*******************************************************************************************
 
========================================
            MTD Iteration  1
========================================
 
     ========================================
     |         Meta-MD (MTD) Sampling       |
     ========================================
 
Starting Meta-MD  14 with the settings:
     MD time /ps        :     0.5
     dt /fs             :     1.5
     dumpstep(trj) /fs  :     100
     dumpstep(Vbias)/ps :     1.0
     Vbias factor k /Eh :  0.3600
     Vbias exp α /bohr⁻²:    0.80
Starting Meta-MD  12 with the settings:
     MD time /ps        :     0.5
     dt /fs             :     1.5
     dumpstep(trj) /fs  :     100
     dumpstep(Vbias)/ps :     1.0
     Vbias factor k /Eh :  0.0540
     Vbias exp α /bohr⁻²:    0.28
Starting Meta-MD   2 with the settings:
     MD time /ps        :     0.5
     dt /fs             :     1.5
     dumpstep(trj) /fs  :     100
     dumpstep(Vbias)/ps :     1.0
     Vbias factor k /Eh :  0.1080
     Vbias exp α /bohr⁻²:    1.30
Starting Meta-MD   5 with the settings:
     MD time /ps        :     0.5
     dt /fs             :     1.5
     dumpstep(trj) /fs  :     100
     dumpstep(Vbias)/ps :     1.0
     Vbias factor k /Eh :  0.1080
     Vbias exp α /bohr⁻²:    0.78
Starting Meta-MD  13 with the settings:
     MD time /ps        :     0.5
     dt /fs             :     1.5
     dumpstep(trj) /fs  :     100
     dumpstep(Vbias)/ps :     1.0
     Vbias factor k /Eh :  0.0720
     Vbias exp α /bohr⁻²:    0.10
Starting Meta-MD   6 with the settings:
     MD time /ps        :     0.5
     dt /fs             :     1.5
     dumpstep(trj) /fs  :     100
     dumpstep(Vbias)/ps :     1.0
     Vbias factor k /Eh :  0.0540
     Vbias exp α /bohr⁻²:    0.78
Starting Meta-MD   3 with the settings:
     MD time /ps        :     0.5
     dt /fs             :     1.5
     dumpstep(trj) /fs  :     100
     dumpstep(Vbias)/ps :     1.0
     Vbias factor k /Eh :  0.0540
     Vbias exp α /bohr⁻²:    1.30
Starting Meta-MD  10 with the settings:
     MD time /ps        :     0.5
     dt /fs             :     1.5
     dumpstep(trj) /fs  :     100
     dumpstep(Vbias)/ps :     1.0
     Vbias factor k /Eh :  0.2160
     Vbias exp α /bohr⁻²:    0.28
Starting Meta-MD   4 with the settings:
     MD time /ps        :     0.5
     dt /fs             :     1.5
     dumpstep(trj) /fs  :     100
     dumpstep(Vbias)/ps :     1.0
     Vbias factor k /Eh :  0.2160
     Vbias exp α /bohr⁻²:    0.78
Starting Meta-MD   1 with the settings:
     MD time /ps        :     0.5
     dt /fs             :     1.5
     dumpstep(trj) /fs  :     100
     dumpstep(Vbias)/ps :     1.0
     Vbias factor k /Eh :  0.2160
     Vbias exp α /bohr⁻²:    1.30
Starting Meta-MD   7 with the settings:
     MD time /ps        :     0.5
     dt /fs             :     1.5
     dumpstep(trj) /fs  :     100
     dumpstep(Vbias)/ps :     1.0
     Vbias factor k /Eh :  0.2160
     Vbias exp α /bohr⁻²:    0.47
Starting Meta-MD   8 with the settings:
     MD time /ps        :     0.5
     dt /fs             :     1.5
     dumpstep(trj) /fs  :     100
     dumpstep(Vbias)/ps :     1.0
     Vbias factor k /Eh :  0.1080
     Vbias exp α /bohr⁻²:    0.47
Starting Meta-MD   9 with the settings:
     MD time /ps        :     0.5
     dt /fs             :     1.5
     dumpstep(trj) /fs  :     100
     dumpstep(Vbias)/ps :     1.0
     Vbias factor k /Eh :  0.0540
     Vbias exp α /bohr⁻²:    0.47
Starting Meta-MD  11 with the settings:
     MD time /ps        :     0.5
     dt /fs             :     1.5
     dumpstep(trj) /fs  :     100
     dumpstep(Vbias)/ps :     1.0
     Vbias factor k /Eh :  0.1080
     Vbias exp α /bohr⁻²:    0.28
*Meta-MTD 9 finished*
*Meta-MTD 3 finished*
*Meta-MTD 1 finished*
*Meta-MTD 8 finished*
*Meta-MTD 14 finished*
*Meta-MTD 10 finished*
*Meta-MTD 6 finished*
*Meta-MTD 2 finished*
*Meta-MTD 4 finished*
*Meta-MTD 13 finished*
*Meta-MTD 5 finished*
*Meta-MTD 11 finished*
*Meta-MTD 7 finished*
*Meta-MTD 12 finished*
 
-----------------------
Multilevel Optimization
-----------------------
 
 -------------------------
 1. crude pre-optimization
 -------------------------
 Optimizing all 70 structures from file "crest_rotamers_0.xyz" ...
 1 2 3 4 5 6 7 8 9 10 11 12 13 14 15 16 17 18 19 20 21 22 23 24 25 26 27 28 29 30 31 32 33 34 35 36 37 38 39 40 41 42 43 44 45 46 47 48 49 50 51 52 53 54 55 56 57 58 59 60 61 62 63 64 65 66 67 68 69 70
 done.
 running RMSDs...
 done.
 E lowest :  -116.80885
 62 structures remain within    12.00 kcal/mol window
 
 -------------------------------------
 2. optimization with tight thresholds
 -------------------------------------
 Optimizing all 63 structures from file "crest_rotamers_1.xyz" ...
 1 2 3 4 5 6 7 8 9 10 11 12 13 14 15 16 17 18 19 20 21 22 23 24 25 26 27 28 29 30 31 32 33 34 35 36 37 38 39 40 41 42 43 44 45 46 47 48 49 50 51 52 53 54 55 56 57 58 59 60 61 62 63
 done.
 running RMSDs...
 done.
 E lowest :  -116.81062
 41 structures remain within     6.00 kcal/mol window
 
 
========================================
            MTD Iteration  2
========================================
 
     ========================================
     |         Meta-MD (MTD) Sampling       |
     ========================================
 
Starting Meta-MD   1 with the settings:
     MD time /ps        :     0.5
     dt /fs             :     1.5
     dumpstep(trj) /fs  :     100
     dumpstep(Vbias)/ps :     1.0
     Vbias factor k /Eh :  0.2160
     Vbias exp α /bohr⁻²:    1.30
Starting Meta-MD   4 with the settings:
     MD time /ps        :     0.5
     dt /fs             :     1.5
     dumpstep(trj) /fs  :     100
     dumpstep(Vbias)/ps :     1.0
     Vbias factor k /Eh :  0.2160
     Vbias exp α /bohr⁻²:    0.78
Starting Meta-MD   2 with the settings:
     MD time /ps        :     0.5
     dt /fs             :     1.5
     dumpstep(trj) /fs  :     100
     dumpstep(Vbias)/ps :     1.0
     Vbias factor k /Eh :  0.1080
     Vbias exp α /bohr⁻²:    1.30
Starting Meta-MD   5 with the settings:
     MD time /ps        :     0.5
     dt /fs             :     1.5
     dumpstep(trj) /fs  :     100
     dumpstep(Vbias)/ps :     1.0
     Vbias factor k /Eh :  0.1080
     Vbias exp α /bohr⁻²:    0.78
Starting Meta-MD   3 with the settings:
     MD time /ps        :     0.5
     dt /fs             :     1.5
     dumpstep(trj) /fs  :     100
     dumpstep(Vbias)/ps :     1.0
     Vbias factor k /Eh :  0.0540
     Vbias exp α /bohr⁻²:    1.30
Starting Meta-MD   6 with the settings:
     MD time /ps        :     0.5
     dt /fs             :     1.5
     dumpstep(trj) /fs  :     100
     dumpstep(Vbias)/ps :     1.0
     Vbias factor k /Eh :  0.0540
     Vbias exp α /bohr⁻²:    0.78
Starting Meta-MD   7 with the settings:
     MD time /ps        :     0.5
     dt /fs             :     1.5
     dumpstep(trj) /fs  :     100
     dumpstep(Vbias)/ps :     1.0
     Vbias factor k /Eh :  0.2160
     Vbias exp α /bohr⁻²:    0.47
Starting Meta-MD   8 with the settings:
     MD time /ps        :     0.5
     dt /fs             :     1.5
     dumpstep(trj) /fs  :     100
     dumpstep(Vbias)/ps :     1.0
     Vbias factor k /Eh :  0.1080
     Vbias exp α /bohr⁻²:    0.47
Starting Meta-MD  10 with the settings:
     MD time /ps        :     0.5
     dt /fs             :     1.5
     dumpstep(trj) /fs  :     100
     dumpstep(Vbias)/ps :     1.0
     Vbias factor k /Eh :  0.2160
     Vbias exp α /bohr⁻²:    0.28
Starting Meta-MD  11 with the settings:
     MD time /ps        :     0.5
     dt /fs             :     1.5
     dumpstep(trj) /fs  :     100
     dumpstep(Vbias)/ps :     1.0
     Vbias factor k /Eh :  0.1080
     Vbias exp α /bohr⁻²:    0.28
Starting Meta-MD  12 with the settings:
     MD time /ps        :     0.5
     dt /fs             :     1.5
     dumpstep(trj) /fs  :     100
     dumpstep(Vbias)/ps :     1.0
     Vbias factor k /Eh :  0.0540
     Vbias exp α /bohr⁻²:    0.28
Starting Meta-MD   9 with the settings:
     MD time /ps        :     0.5
     dt /fs             :     1.5
     dumpstep(trj) /fs  :     100
     dumpstep(Vbias)/ps :     1.0
     Vbias factor k /Eh :  0.0540
     Vbias exp α /bohr⁻²:    0.47
*Meta-MTD 3 finished*
*Meta-MTD 9 finished*
*Meta-MTD 5 finished*
*Meta-MTD 8 finished*
*Meta-MTD 6 finished*
*Meta-MTD 7 finished*
*Meta-MTD 1 finished*
*Meta-MTD 11 finished*
*Meta-MTD 4 finished*
*Meta-MTD 10 finished*
*Meta-MTD 2 finished*
*Meta-MTD 12 finished*
 
-----------------------
Multilevel Optimization
-----------------------
 
 -------------------------
 1. crude pre-optimization
 -------------------------
 Optimizing all 60 structures from file "crest_rotamers_0.xyz" ...
 1 2 3 4 5 6 7 8 9 10 11 12 13 14 15 16 17 18 19 20 21 22 23 24 25 26 27 28 29 30 31 32 33 34 35 36 37 38 39 40 41 42 43 44 45 46 47 48 49 50 51 52 53 54 55 56 57 58 59 60
 done.
 running RMSDs...
 done.
 E lowest :  -116.81002
 49 structures remain within    12.00 kcal/mol window
 
 -------------------------------------
 2. optimization with tight thresholds
 -------------------------------------
 Optimizing all 50 structures from file "crest_rotamers_1.xyz" ...
 1 2 3 4 5 6 7 8 9 10 11 12 13 14 15 16 17 18 19 20 21 22 23 24 25 26 27 28 29 30 31 32 33 34 35 36 37 38 39 40 41 42 43 44 45 46 47 48 49 50
 done.
 running RMSDs...
 done.
 E lowest :  -116.81063
 28 structures remain within     6.00 kcal/mol window
 
========================================
            MTD Iterations done         
========================================
 Collecting ensmbles.
 running RMSDs...
 done.
 E lowest :  -116.81063
 68 structures remain within     6.00 kcal/mol window
 
 -------------------------------
 Additional orientation sampling
 -------------------------------
 Optimizing all 88 structures from file "oh_ensemble.xyz" ...
 1 2 3 4 5 6 7 8 9 10 11 12 13 14 15 16 17 18 19 20 21 22 23 24 25 26 27 28 29 30 31 32 33 34 35 36 37 38 39 40 41 42 43 44 45 46 47 48 49 50 51 52 53 54 55 56 57 58 59 60 61 62 63 64 65 66 67 68 69 70 71 72 73 74 75 76 77 78 79 80 81 82 83 84 85 86 87 88
 done.
 running RMSDs...
 done.
 E lowest :  -116.81114
 147 structures remain within     6.00 kcal/mol window
 
-----------------------------------------------
Additional regular MDs on lowest 4 conformer(s)
-----------------------------------------------
Starting MD   1 with the settings:
     MD time /ps        :     0.2
     MD Temperature /K  :   400.0
     dt /fs             :     1.5
     dumpstep(trj) /fs  :     100
Starting MD   2 with the settings:
     MD time /ps        :     0.2
     MD Temperature /K  :   500.0
     dt /fs             :     1.5
     dumpstep(trj) /fs  :     100
Starting MD   3 with the settings:
     MD time /ps        :     0.2
     MD Temperature /K  :   400.0
     dt /fs             :     1.5
     dumpstep(trj) /fs  :     100
Starting MD   4 with the settings:
     MD time /ps        :     0.2
     MD Temperature /K  :   500.0
     dt /fs             :     1.5
     dumpstep(trj) /fs  :     100
Starting MD   5 with the settings:
     MD time /ps        :     0.2
     MD Temperature /K  :   400.0
     dt /fs             :     1.5
     dumpstep(trj) /fs  :     100
Starting MD   6 with the settings:
     MD time /ps        :     0.2
     MD Temperature /K  :   500.0
     dt /fs             :     1.5
     dumpstep(trj) /fs  :     100
Starting MD   7 with the settings:
     MD time /ps        :     0.2
     MD Temperature /K  :   400.0
     dt /fs             :     1.5
     dumpstep(trj) /fs  :     100
Starting MD   8 with the settings:
     MD time /ps        :     0.2
     MD Temperature /K  :   500.0
     dt /fs             :     1.5
     dumpstep(trj) /fs  :     100
*MD 5 finished*
*MD 6 finished*
*MD 3 finished*
*MD 1 finished*
*MD 8 finished*
*MD 2 finished*
*MD 7 finished*
*MD 4 finished*
 Appending file crest_rotamers_2.xyz with new structures
 
 -------------------------------------------
 Ensemble optimization with tight thresholds
 -------------------------------------------
 Optimizing all 163 structures from file "crest_rotamers_2.xyz" ...
 1 2 3 4 5 6 7 8 9 10 11 12 13 14 15 16 17 18 19 20 21 22 23 24 25 26 27 28 29 30 31 32 33 34 35 36 37 38 39 40 41 42 43 44 45 46 47 48 49 50 51 52 53 54 55 56 57 58 59 60 61 62 63 64 65 66 67 68 69 70 71 72 73 74 75 76 77 78 79 80 81 82 83 84 85 86 87 88 89 90 91 92 93 94 95 96 97 98 99 100 101 102 103 104 105 106 107 108 109 110 111 112 113 114 115 116 117 118 119 120 121 122 123 124 125 126 127 128 129 130 131 132 133 134 135 136 137 138 139 140 141 142 143 144 145 146 147 148 149 150 151 152 153 154 155 156 157 158 159 160 161 162 163
 done.
 running RMSDs...
 done.
 E lowest :  -116.81114
 151 structures remain within     6.00 kcal/mol window
 
 ...............................................
 A new lower conformer was found!
 Improved by    0.00052 Eh or    0.32411kcal/mol
 ...............................................
 
*******************************************************************************************
**                        N E W    I T E R A T I O N    C Y C L E                        **
*******************************************************************************************
 
========================================
            MTD Iteration  1
========================================
 
     ========================================
     |         Meta-MD (MTD) Sampling       |
     ========================================
 
Starting Meta-MD   1 with the settings:
     MD time /ps        :     0.5
     dt /fs             :     1.5
     dumpstep(trj) /fs  :     100
     dumpstep(Vbias)/ps :     1.0
     Vbias factor k /Eh :  0.2160
     Vbias exp α /bohr⁻²:    1.30
Starting Meta-MD   2 with the settings:
     MD time /ps        :     0.5
     dt /fs             :     1.5
     dumpstep(trj) /fs  :     100
     dumpstep(Vbias)/ps :     1.0
     Vbias factor k /Eh :  0.1080
     Vbias exp α /bohr⁻²:    1.30
Starting Meta-MD   3 with the settings:
     MD time /ps        :     0.5
     dt /fs             :     1.5
     dumpstep(trj) /fs  :     100
     dumpstep(Vbias)/ps :     1.0
     Vbias factor k /Eh :  0.0540
     Vbias exp α /bohr⁻²:    1.30
Starting Meta-MD   4 with the settings:
     MD time /ps        :     0.5
     dt /fs             :     1.5
     dumpstep(trj) /fs  :     100
     dumpstep(Vbias)/ps :     1.0
     Vbias factor k /Eh :  0.2160
     Vbias exp α /bohr⁻²:    0.78
Starting Meta-MD   5 with the settings:
     MD time /ps        :     0.5
     dt /fs             :     1.5
     dumpstep(trj) /fs  :     100
     dumpstep(Vbias)/ps :     1.0
     Vbias factor k /Eh :  0.1080
     Vbias exp α /bohr⁻²:    0.78
Starting Meta-MD   6 with the settings:
     MD time /ps        :     0.5
     dt /fs             :     1.5
     dumpstep(trj) /fs  :     100
     dumpstep(Vbias)/ps :     1.0
     Vbias factor k /Eh :  0.0540
     Vbias exp α /bohr⁻²:    0.78
Starting Meta-MD   7 with the settings:
     MD time /ps        :     0.5
     dt /fs             :     1.5
     dumpstep(trj) /fs  :     100
     dumpstep(Vbias)/ps :     1.0
     Vbias factor k /Eh :  0.2160
     Vbias exp α /bohr⁻²:    0.47
Starting Meta-MD   8 with the settings:
     MD time /ps        :     0.5
     dt /fs             :     1.5
     dumpstep(trj) /fs  :     100
     dumpstep(Vbias)/ps :     1.0
     Vbias factor k /Eh :  0.1080
     Vbias exp α /bohr⁻²:    0.47
Starting Meta-MD   9 with the settings:
     MD time /ps        :     0.5
     dt /fs             :     1.5
     dumpstep(trj) /fs  :     100
     dumpstep(Vbias)/ps :     1.0
     Vbias factor k /Eh :  0.0540
     Vbias exp α /bohr⁻²:    0.47
Starting Meta-MD  10 with the settings:
     MD time /ps        :     0.5
     dt /fs             :     1.5
     dumpstep(trj) /fs  :     100
     dumpstep(Vbias)/ps :     1.0
     Vbias factor k /Eh :  0.2160
     Vbias exp α /bohr⁻²:    0.28
Starting Meta-MD  11 with the settings:
     MD time /ps        :     0.5
     dt /fs             :     1.5
     dumpstep(trj) /fs  :     100
     dumpstep(Vbias)/ps :     1.0
     Vbias factor k /Eh :  0.1080
     Vbias exp α /bohr⁻²:    0.28
Starting Meta-MD  12 with the settings:
     MD time /ps        :     0.5
     dt /fs             :     1.5
     dumpstep(trj) /fs  :     100
     dumpstep(Vbias)/ps :     1.0
     Vbias factor k /Eh :  0.0540
     Vbias exp α /bohr⁻²:    0.28
*Meta-MTD 4 finished*
*Meta-MTD 10 finished*
*Meta-MTD 5 finished*
*Meta-MTD 2 finished*
*Meta-MTD 8 finished*
*Meta-MTD 6 finished*
*Meta-MTD 3 finished*
*Meta-MTD 7 finished*
*Meta-MTD 11 finished*
*Meta-MTD 9 finished*
*Meta-MTD 1 finished*
*Meta-MTD 12 finished*
 
-----------------------
Multilevel Optimization
-----------------------
 
 -------------------------
 1. crude pre-optimization
 -------------------------
 Optimizing all 60 structures from file "crest_rotamers_0.xyz" ...
 1 2 3 4 5 6 7 8 9 10 11 12 13 14 15 16 17 18 19 20 21 22 23 24 25 26 27 28 29 30 31 32 33 34 35 36 37 38 39 40 41 42 43 44 45 46 47 48 49 50 51 52 53 54 55 56 57 58 59 60
 done.
 running RMSDs...
 done.
 E lowest :  -116.81022
 59 structures remain within    12.00 kcal/mol window
 
 -------------------------------------
 2. optimization with tight thresholds
 -------------------------------------
 Optimizing all 60 structures from file "crest_rotamers_1.xyz" ...
 1 2 3 4 5 6 7 8 9 10 11 12 13 14 15 16 17 18 19 20 21 22 23 24 25 26 27 28 29 30 31 32 33 34 35 36 37 38 39 40 41 42 43 44 45 46 47 48 49 50 51 52 53 54 55 56 57 58 59 60
 done.
 running RMSDs...
 done.
 E lowest :  -116.81114
 34 structures remain within     6.00 kcal/mol window
 
========================================
            MTD Iterations done         
========================================
 Collecting ensmbles.
 running RMSDs...
 done.
 E lowest :  -116.81114
 34 structures remain within     6.00 kcal/mol window
 
 -------------------------------
 Additional orientation sampling
 -------------------------------
 Optimizing all 44 structures from file "oh_ensemble.xyz" ...
 1 2 3 4 5 6 7 8 9 10 11 12 13 14 15 16 17 18 19 20 21 22 23 24 25 26 27 28 29 30 31 32 33 34 35 36 37 38 39 40 41 42 43 44
 done.
 running RMSDs...
 done.
 E lowest :  -116.81114
 76 structures remain within     6.00 kcal/mol window
 
-----------------------------------------------
Additional regular MDs on lowest 4 conformer(s)
-----------------------------------------------
Starting MD   1 with the settings:
     MD time /ps        :     0.2
     MD Temperature /K  :   400.0
     dt /fs             :     1.5
     dumpstep(trj) /fs  :     100
Starting MD   2 with the settings:
     MD time /ps        :     0.2
     MD Temperature /K  :   500.0
     dt /fs             :     1.5
     dumpstep(trj) /fs  :     100
Starting MD   3 with the settings:
     MD time /ps        :     0.2
     MD Temperature /K  :   400.0
     dt /fs             :     1.5
     dumpstep(trj) /fs  :     100
Starting MD   4 with the settings:
     MD time /ps        :     0.2
     MD Temperature /K  :   500.0
     dt /fs             :     1.5
     dumpstep(trj) /fs  :     100
Starting MD   5 with the settings:
     MD time /ps        :     0.2
     MD Temperature /K  :   400.0
     dt /fs             :     1.5
     dumpstep(trj) /fs  :     100
Starting MD   6 with the settings:
     MD time /ps        :     0.2
     MD Temperature /K  :   500.0
     dt /fs             :     1.5
     dumpstep(trj) /fs  :     100
Starting MD   7 with the settings:
     MD time /ps        :     0.2
     MD Temperature /K  :   400.0
     dt /fs             :     1.5
     dumpstep(trj) /fs  :     100
Starting MD   8 with the settings:
     MD time /ps        :     0.2
     MD Temperature /K  :   500.0
     dt /fs             :     1.5
     dumpstep(trj) /fs  :     100
*MD 6 finished*
*MD 5 finished*
*MD 7 finished*
*MD 4 finished*
*MD 3 finished*
*MD 1 finished*
*MD 2 finished*
*MD 8 finished*
 Appending file crest_rotamers_2.xyz with new structures
 
 -------------------------------------------
 Ensemble optimization with tight thresholds
 -------------------------------------------
 Optimizing all 92 structures from file "crest_rotamers_2.xyz" ...
 1 2 3 4 5 6 7 8 9 10 11 12 13 14 15 16 17 18 19 20 21 22 23 24 25 26 27 28 29 30 31 32 33 34 35 36 37 38 39 40 41 42 43 44 45 46 47 48 49 50 51 52 53 54 55 56 57 58 59 60 61 62 63 64 65 66 67 68 69 70 71 72 73 74 75 76 77 78 79 80 81 82 83 84 85 86 87 88 89 90 91 92
 done.
 running RMSDs...
 done.
 E lowest :  -116.81114
 77 structures remain within     6.00 kcal/mol window
 
 
     ========================================
     |        Structure Crossing (GC)       |
     ========================================
 =============================
  # threads =          28
 =============================
 input  file name : crest_rotamers_4.xyz
number of atoms                :    72
number of points on xyz files  :    77
conformer energy window  /kcal :    6.00
CN per atom difference cut-off :  0.3000
RMSD threshold                 :  0.5000
max. # of generated structures : 25
 reading xyz file ...
 # in E window                 77
 generating pairs ...        3002
 generated pairs           :         926
 number of clash discarded :        2000
 average rmsd w.r.t input  : 2.16452
 sd of ensemble            : 1.17880
 number of new structures      :          21
 removed identical structures  :          29
 writing           21  TMPCONF* dirs ...
 --------------------------
 GC: loose pre-optimization
 --------------------------
 Starting optimization of generated structures
 21 jobs to do.
 1 2 3 4 5 6 7 8 9 10 11 12 13 14 15 16 17 18 19 20 21 
 done.
 Now appending opt.xyz file with new structures
 running RMSDs...
 done.
 E lowest :  -116.80951
 21 structures remain within    10.00 kcal/mol window
 --------------------------------------
 GC: optimization with tight thresholds
 --------------------------------------
 Optimizing all 21 structures from file "crest_rotamers_1.xyz" ...
 1 2 3 4 5 6 7 8 9 10 11 12 13 14 15 16 17 18 19 20 21
 done.
 running RMSDs...
 done.
 E lowest :  -116.81114
 
 
   ================================================
   |           Final Geometry Optimization        |
   ================================================
 ------------------------------------------------
 Ensemble optimization with very tight thresholds
 ------------------------------------------------
 Optimizing all 96 structures from file "crest_rotamers_5.xyz" ...
 1 2 3 4 5 6 7 8 9 10 11 12 13 14 15 16 17 18 19 20 21 22 23 24 25 26 27 28 29 30 31 32 33 34 35 36 37 38 39 40 41 42 43 44 45 46 47 48 49 50 51 52 53 54 55 56 57 58 59 60 61 62 63 64 65 66 67 68 69 70 71 72 73 74 75 76 77 78 79 80 81 82 83 84 85 86 87 88 89 90 91 92 93 94 95 96
 done.
 running RMSDs...
 done.
 E lowest :  -116.81114
 96 structures remain within     6.00 kcal/mol window
 
 input  file name : crest_rotamers_6.xyz
 output file name : crest_rotamers_7.xyz
 number of atoms                :   72
 number of points on xyz files  :   96
 RMSD threshold                 :   0.2500
 Bconst threshold               :   0.0100
 population threshold           :   0.0500
 conformer energy window  /kcal :   6.0000
 # fragment in coord            :     1
 # bonds in reference structure :    77
   => # of C=C bonds :    11
 number of reliable points      :    96
 reference state Etot :  -116.811141220000
 number of doubles removed by rot/RMSD         :           0
 total number unique points considered further :          96
       Erel/kcal        Etot weight/tot  conformer     set   degen     origin
       1   0.000  -116.81114    0.03307    0.16421       1       5     input
       2   0.002  -116.81114    0.03294                                mtd12
       3   0.004  -116.81113    0.03284                                md3
       4   0.006  -116.81113    0.03276                                md6
       5   0.009  -116.81113    0.03260                                mtd8
       6   0.008  -116.81113    0.03260    0.03260       2       1     md2
       7   0.009  -116.81113    0.03257    0.03257       3       1     mtd11
       8   0.016  -116.81112    0.03222    0.03222       4       1     md7
       9   0.017  -116.81111    0.03213    0.03213       5       1     mtd2
      10   0.025  -116.81110    0.03170    0.03170       6       1     md7
      11   0.030  -116.81109    0.03144    0.09344       7       3     mtd11
      12   0.031  -116.81109    0.03137                                mtd4
      13   0.046  -116.81107    0.03063                                mtd10
      14   0.035  -116.81108    0.03116    0.03116       8       1     md8
      15   0.057  -116.81105    0.03004    0.03004       9       1     mtd1
      16   0.092  -116.81099    0.02833    0.05639      10       2     mtd7
      17   0.097  -116.81099    0.02806                                mtd5
      18   0.212  -116.81080    0.02313    0.04601      11       2     mtd10
      19   0.219  -116.81079    0.02288                                mtd1
      20   0.221  -116.81079    0.02278    0.04552      12       2     mtd5
      21   0.222  -116.81079    0.02274                                mtd1
      22   0.321  -116.81063    0.01926    0.07700      13       4     hor
      23   0.321  -116.81063    0.01926                                hor
      24   0.321  -116.81063    0.01925                                hor
      25   0.322  -116.81063    0.01923                                hor
      26   0.324  -116.81062    0.01914    0.03826      14       2     hor
      27   0.325  -116.81062    0.01913                                hor
      28   0.399  -116.81051    0.01688    0.01688      15       1     hor
      29   0.567  -116.81024    0.01272    0.02535      16       2     mtd8
      30   0.571  -116.81023    0.01263                                mtd8
      31   0.623  -116.81015    0.01157    0.01157      17       1     hor
      32   0.715  -116.81000    0.00991    0.00991      18       1     mtd10
      33   0.767  -116.80992    0.00907    0.00907      19       1     mtd10
      34   0.883  -116.80973    0.00745    0.00745      20       1     mtd3
      35   0.906  -116.80970    0.00717    0.04984      21       7     hor
      36   0.906  -116.80970    0.00717                                hor
      37   0.911  -116.80969    0.00712                                gc
      38   0.911  -116.80969    0.00712                                gc
      39   0.913  -116.80969    0.00709                                gc
      40   0.913  -116.80969    0.00709                                gc
      41   0.914  -116.80968    0.00708                                gc
      42   0.915  -116.80968    0.00707    0.03530      22       5     gc
      43   0.915  -116.80968    0.00707                                gc
      44   0.915  -116.80968    0.00707                                gc
      45   0.916  -116.80968    0.00705                                gc
      46   0.918  -116.80968    0.00703                                gc
      47   0.920  -116.80967    0.00700    0.00700      23       1     hor
      48   0.971  -116.80959    0.00643    0.00643      24       1     mtd3
      49   1.013  -116.80953    0.00600    0.00600      25       1     hor
      50   1.177  -116.80926    0.00454    0.00908      26       2     hor
      51   1.178  -116.80926    0.00454                                hor
      52   1.213  -116.80921    0.00427    0.00427      27       1     mtd1
      53   1.310  -116.80905    0.00363    0.00363      28       1     gc
      54   1.376  -116.80895    0.00325    0.00325      29       1     mtd4
      55   1.425  -116.80887    0.00299    0.00595      30       2     hor
      56   1.431  -116.80886    0.00296                                hor
      57   1.426  -116.80887    0.00299    0.00299      31       1     hor
      58   1.439  -116.80885    0.00292    0.00292      32       1     hor
      59   1.449  -116.80883    0.00287    0.00287      33       1     mtd6
      60   1.537  -116.80869    0.00248    0.00248      34       1     hor
      61   1.691  -116.80845    0.00191    0.00191      35       1     hor
      62   1.768  -116.80832    0.00168    0.00168      36       1     hor
      63   1.771  -116.80832    0.00167    0.00167      37       1     hor
      64   1.774  -116.80831    0.00166    0.00663      38       4     gc
      65   1.775  -116.80831    0.00166                                gc
      66   1.775  -116.80831    0.00166                                gc
      67   1.775  -116.80831    0.00166                                gc
      68   1.854  -116.80819    0.00145    0.00145      39       1     hor
      69   1.903  -116.80811    0.00134    0.00662      40       5     hor
      70   1.905  -116.80810    0.00133                                hor
      71   1.908  -116.80810    0.00132                                hor
      72   1.911  -116.80810    0.00132                                hor
      73   1.913  -116.80809    0.00131                                hor
      74   1.916  -116.80809    0.00131    0.00131      41       1     hor
      75   1.942  -116.80805    0.00125    0.00125      42       1     hor
      76   1.950  -116.80803    0.00123    0.00491      43       4     gc
      77   1.953  -116.80803    0.00123                                gc
      78   1.954  -116.80803    0.00123                                gc
      79   1.954  -116.80803    0.00123                                gc
      80   1.999  -116.80796    0.00114    0.00114      44       1     mtd4
      81   2.026  -116.80791    0.00108    0.00108      45       1     hor
      82   2.059  -116.80786    0.00103    0.00103      46       1     mtd4
      83   2.119  -116.80776    0.00093    0.00093      47       1     hor
      84   2.494  -116.80717    0.00049    0.00049      48       1     hor
      85   2.535  -116.80710    0.00046    0.00137      49       3     hor
      86   2.540  -116.80709    0.00046                                hor
      87   2.544  -116.80709    0.00045                                hor
      88   2.672  -116.80688    0.00037    0.00037      50       1     hor
      89   3.176  -116.80608    0.00016    0.00016      51       1     hor
      90   3.188  -116.80606    0.00015    0.00015      52       1     hor
      91   3.350  -116.80580    0.00012    0.00012      53       1     mtd7
      92   3.425  -116.80568    0.00010    0.00010      54       1     mtd7
      93   3.471  -116.80561    0.00009    0.00009      55       1     mtd7
      94   4.764  -116.80355    0.00001    0.00001      56       1     hor
      95   4.780  -116.80352    0.00001    0.00001      57       1     hor
      96   4.800  -116.80349    0.00001    0.00001      58       1     hor
T /K                                  :   298.15
E lowest                              :  -116.81114
ensemble average energy (kcal)        :    0.334
ensemble entropy (J/mol K, cal/mol K) :   33.033    7.895
ensemble free energy (kcal/mol)       :   -2.354
population of lowest in %             :   16.421
 number of unique conformers for further calc           58
 list of relative energies saved as "crest.energies"
 
 -----------------
 Wall Time Summary
 -----------------
             test MD wall time :         0h : 0m :41s
                 MTD wall time :         0h : 1m :58s
      multilevel OPT wall time :         0h : 3m :49s
                  MD wall time :         0h : 1m : 2s
                  GC wall time :         0h : 0m :52s
--------------------
Overall wall time  : 0h : 8m :33s
 
 CREST terminated normally.
