 
       ==============================================
       |                                            |
       |                 C R E S T                  |
       |                                            |
       |  Conformer-Rotamer Ensemble Sampling Tool  |
       |          based on the GFN methods          |
       |             P.Pracht, S.Grimme             |
       |          Universitaet Bonn, MCTC           |
       ==============================================
       Version 2.11.2, Fr 17. Dec 12:10:44 CEST 2021
  Using the xTB program. Compatible with xTB version 6.4.0
 
   Cite work conducted with this code as

   P. Pracht, F. Bohle, S. Grimme, PCCP, 2020, 22, 7169-7192.

   and  S. Grimme, JCTC, 2019, 15, 2847-2862.
 
   with help from:
   C.Bannwarth, F.Bohle, S.Ehlert, S.Grimme,
   C. Plett, P.Pracht, S. Spicher
 
   This program is distributed in the hope that it will be useful,
   but WITHOUT ANY WARRANTY; without even the implied warranty of
   MERCHANTABILITY or FITNESS FOR A PARTICULAR PURPOSE.

 Command line input:
 > crest 00196_r_0.xyz -T 28 -gfn2 -chrg 0 -uhf 0 -rthr 0.25 -shake 1 --mdlen 0.5

  -T 28 (CPUs/Threads selected)
  -gfn2 : Use of GFN2-xTB requested.
  -chrg 0
  -uhf 0
  -rthr 0.25
  --mdlen 0.5 (MD length in ps)
 
 -------------------------
 xTB Geometry Optimization
 -------------------------
 Geometry successfully optimized.
 
------------------------------------------------
Generating MTD length from a flexibility measure
------------------------------------------------
      -----------------------------------------------------------      
     |                   =====================                   |     
     |                           x T B                           |     
     |                   =====================                   |     
     |                         S. Grimme                         |     
     |          Mulliken Center for Theoretical Chemistry        |     
     |                    University of Bonn                     |     
      -----------------------------------------------------------      

   * xtb version 6.4.1 (afa7bdf) compiled by 'ehlert@majestix' on 2021-06-10

   xtb is free software: you can redistribute it and/or modify it under
   the terms of the GNU Lesser General Public License as published by
   the Free Software Foundation, either version 3 of the License, or
   (at your option) any later version.
   
   xtb is distributed in the hope that it will be useful,
   but WITHOUT ANY WARRANTY; without even the implied warranty of
   MERCHANTABILITY or FITNESS FOR A PARTICULAR PURPOSE.  See the
   GNU Lesser General Public License for more details.
   
   Cite this work as:
   * C. Bannwarth, E. Caldeweyher, S. Ehlert, A. Hansen, P. Pracht,
     J. Seibert, S. Spicher, S. Grimme, WIREs Comput. Mol. Sci., 2020, 11,
     e01493. DOI: 10.1002/wcms.1493
   
   for GFN2-xTB:
   * C. Bannwarth, S. Ehlert and S. Grimme., J. Chem. Theory Comput., 2019,
     15, 1652-1671. DOI: 10.1021/acs.jctc.8b01176
   for GFN1-xTB:
   * S. Grimme, C. Bannwarth, P. Shushkov, J. Chem. Theory Comput., 2017,
     13, 1989-2009. DOI: 10.1021/acs.jctc.7b00118
   for GFN0-xTB:
   * P. Pracht, E. Caldeweyher, S. Ehlert, S. Grimme, ChemRxiv, 2019, preprint.
     DOI: 10.26434/chemrxiv.8326202.v1
   for GFN-FF:
   * S. Spicher and S. Grimme, Angew. Chem. Int. Ed., 2020, 59, 15665-15673.
     DOI: 10.1002/anie.202004239
   
   for DFT-D4:
   * E. Caldeweyher, C. Bannwarth and S. Grimme, J. Chem. Phys., 2017,
     147, 034112. DOI: 10.1063/1.4993215
   * E. Caldeweyher, S. Ehlert, A. Hansen, H. Neugebauer, S. Spicher,
     C. Bannwarth and S. Grimme, J. Chem. Phys., 2019, 150, 154122.
     DOI: 10.1063/1.5090222
   * E. Caldeweyher, J.-M. Mewes, S. Ehlert and S. Grimme, Phys. Chem. Chem. Phys.
     2020, 22, 8499-8512. DOI: 10.1039/D0CP00502A
   
   for sTDA-xTB:
   * S. Grimme and C. Bannwarth, J. Chem. Phys., 2016, 145, 054103.
     DOI: 10.1063/1.4959605
   
   in the mass-spec context:
   * V. Asgeirsson, C. Bauer and S. Grimme, Chem. Sci., 2017, 8, 4879.
     DOI: 10.1039/c7sc00601b
   * J. Koopman and S. Grimme, ACS Omega 2019, 4, 12, 15120-15133.
     DOI: 10.1021/acsomega.9b02011
   
   for metadynamics refer to:
   * S. Grimme, J. Chem. Theory Comput., 2019, 155, 2847-2862
     DOI: 10.1021/acs.jctc.9b00143
   
   for SPH calculations refer to:
   * S. Spicher and S. Grimme, J. Chem. Theory Comput., 2021, 17, 1701-1714
     DOI: 10.1021/acs.jctc.0c01306
   
   with help from (in alphabetical order)
   P. Atkinson, C. Bannwarth, F. Bohle, G. Brandenburg, E. Caldeweyher
   M. Checinski, S. Dohm, S. Ehlert, S. Ehrlich, I. Gerasimov, J. Koopman
   C. Lavigne, S. Lehtola, F. März, M. Müller, F. Musil, H. Neugebauer
   J. Pisarek, C. Plett, P. Pracht, J. Seibert, P. Shushkov, S. Spicher
   M. Stahn, M. Steiner, T. Strunk, J. Stückrath, T. Rose, and J. Unsleber
   
 * started run on 2025/01/21 at 11:18:15.723     

           -------------------------------------------------
          |                Calculation Setup                |
           -------------------------------------------------

          program call               : xtb tmpcoord --gfn0 --sp
          hostname                   : node27
          coordinate file            : tmpcoord
          omp threads                :                    28
          number of atoms            :                    64
          number of electrons        :                   182
          charge                     :                     0
          spin                       :                   0.0
          first test random number   :      0.94040593641554

   ID    Z sym.   atoms
    1    6 c      1-18, 20-36, 38
    2    8 o      19, 37
    3    1 h      39-64
########################################################################
[WARNING] Please study the warnings concerning your input carefully
-1- prog_main_parseArguments: The use of '--gfn0' is discouraged, please use '--gfn 0' next time
########################################################################

           -------------------------------------------------
          |                 G F N 0 - x T B                 |
           -------------------------------------------------

        Reference                      10.26434/chemrxiv.8326202.v1
      * Hamiltonian:
        H0-scaling (s, p, d)           2.000000    2.486800    2.270000
        zeta-weighting                 1.000000
      * Dispersion:
        s8                             2.850000
        a1                             0.800000
        a2                             4.600000
        s9                             0.000000
      * Repulsion:
        kExp                           1.500000
        rExp                           1.000000
      * Coulomb:
        alpha                          0.000000
        third order                    atomic
        anisotropic                    false
      * Polar bond correction:
        rad-shift                      0.053700
        strength                      -0.012900
        en-exp                         3.484700
        en-scale                       0.509700


          ...................................................
          :                      SETUP                      :
          :.................................................:
          :  # basis functions                 204          :
          :  # atomic orbitals                 204          :
          :  # shells                          128          :
          :  # electrons                       182          :
          :  electronic temp.          300.0000000     K    :
          :  accuracy                    1.0000000          :
          :  -> integral cutoff          0.2500000E+02      :
          :  -> integral neglect         0.1000000E-07      :
          ...................................................
  Checking positiv definite overlap ...  done.
 

         #    Occupation            Energy/Eh            Energy/eV
      -------------------------------------------------------------
         1        2.0000           -0.6947404             -18.9048
       ...           ...                  ...                  ...
        85        2.0000           -0.4344070             -11.8208
        86        2.0000           -0.4213973             -11.4668
        87        2.0000           -0.4209870             -11.4556
        88        2.0000           -0.4121192             -11.2143
        89        2.0000           -0.4110948             -11.1865
        90        2.0000           -0.3944655             -10.7340
        91        2.0000           -0.3906255             -10.6295 (HOMO)
        92                         -0.3030425              -8.2462 (LUMO)
        93                         -0.3013347              -8.1997
        94                         -0.2942438              -8.0068
        95                         -0.2932863              -7.9807
        96                         -0.2731371              -7.4324
       ...                                ...                  ...
       204                          0.6559440              17.8491
      -------------------------------------------------------------
                  HL-Gap            0.0875830 Eh            2.3833 eV
             Fermi-level            0.0000000 Eh            0.0000 eV

 EHT (total)                   0 d,  0 h,  0 min,  0.048 sec
 EHT setup                      ...        0 min,  0.001 sec (  1.978%)
 Coordination number            ...        0 min,  0.001 sec (  1.770%)
 EEQ model density              ...        0 min,  0.001 sec (  1.390%)
 D4 Dispersion                  ...        0 min,  0.003 sec (  5.441%)
 Integral evaluation            ...        0 min,  0.001 sec (  2.263%)
 Cholesky factorization         ...        0 min,  0.009 sec ( 18.393%)
 Zeroth order Hamiltonian       ...        0 min,  0.031 sec ( 63.021%)
 Gradient calculation           ...        0 min,  0.002 sec (  4.317%)

         :::::::::::::::::::::::::::::::::::::::::::::::::::::
         ::                     SUMMARY                     ::
         :::::::::::::::::::::::::::::::::::::::::::::::::::::
         :: total energy             -96.675196720967 Eh    ::
         :: gradient norm              0.043335950106 Eh/a0 ::
         :: HOMO-LUMO gap              2.383255287358 eV    ::
         ::.................................................::
         :: H0 energy                -98.284662774837 Eh    ::
         :: repulsion energy           1.798031993550 Eh    ::
         :: electrostat energy        -0.118519160785 Eh    ::
         :: -> Gsolv                   0.000000000000 Eh    ::
         ::    -> Gsasa                0.000000000000 Eh    ::
         ::    -> Gshift               0.000000000000 Eh    ::
         :: dispersion energy         -0.044831937488 Eh    ::
         :: short-range corr.         -0.025214841407 Eh    ::
         :: add. restraining           0.000000000000 Eh    ::
         :: total charge               0.000000000000 e     ::
         :::::::::::::::::::::::::::::::::::::::::::::::::::::

           -------------------------------------------------
          |                Property Printout                |
           -------------------------------------------------

    * Orbital Energies and Occupations

         #    Occupation            Energy/Eh            Energy/eV
      -------------------------------------------------------------
         1        2.0000           -0.6947404             -18.9048
       ...           ...                  ...                  ...
        79        2.0000           -0.4536770             -12.3452
        80        2.0000           -0.4494534             -12.2302
        81        2.0000           -0.4468048             -12.1582
        82        2.0000           -0.4431867             -12.0597
        83        2.0000           -0.4399737             -11.9723
        84        2.0000           -0.4375344             -11.9059
        85        2.0000           -0.4344070             -11.8208
        86        2.0000           -0.4213973             -11.4668
        87        2.0000           -0.4209870             -11.4556
        88        2.0000           -0.4121192             -11.2143
        89        2.0000           -0.4110948             -11.1865
        90        2.0000           -0.3944655             -10.7340
        91        2.0000           -0.3906255             -10.6295 (HOMO)
        92                         -0.3030425              -8.2462 (LUMO)
        93                         -0.3013347              -8.1997
        94                         -0.2942438              -8.0068
        95                         -0.2932863              -7.9807
        96                         -0.2731371              -7.4324
        97                         -0.2724829              -7.4146
        98                         -0.2576620              -7.0113
        99                         -0.2559039              -6.9635
       100                         -0.2346152              -6.3842
       101                         -0.2311278              -6.2893
       102                         -0.2204549              -5.9989
       ...                                ...                  ...
       204                          0.6559440              17.8491
      -------------------------------------------------------------
                  HL-Gap            0.0875830 Eh            2.3833 eV
             Fermi-level            0.0000000 Eh            0.0000 eV

     #   Z          covCN         q      C6AA      α(0)
     1   6 c        2.837    -0.341    39.768    10.302
     2   6 c        2.896    -0.083    31.712     9.204
     3   6 c        2.969     0.094    27.304     8.544
     4   6 c        2.924    -0.117    32.643     9.340
     5   6 c        2.916    -0.090    31.880     9.230
     6   6 c        2.924    -0.122    32.767     9.358
     7   6 c        2.975     0.063    28.002     8.653
     8   6 c        2.970    -0.050    30.798     9.075
     9   6 c        2.924    -0.182    34.501     9.602
    10   6 c        2.984     0.069    27.872     8.633
    11   6 c        2.919    -0.132    33.051     9.398
    12   6 c        2.915    -0.086    31.790     9.217
    13   6 c        2.916    -0.089    31.858     9.226
    14   6 c        2.917    -0.117    32.641     9.339
    15   6 c        2.988     0.014    29.161     8.831
    16   6 c        2.974    -0.060    31.063     9.114
    17   6 c        2.974    -0.037    30.458     9.024
    18   6 c        2.850     0.222    24.623     8.107
    19   8 o        1.659    -0.554    23.896     6.613
    20   6 c        2.971    -0.010    29.769     8.922
    21   6 c        2.975     0.096    27.244     8.535
    22   6 c        2.924    -0.101    32.196     9.276
    23   6 c        2.917    -0.094    32.001     9.247
    24   6 c        2.924    -0.114    32.550     9.327
    25   6 c        2.969     0.089    27.409     8.561
    26   6 c        2.896    -0.081    31.645     9.194
    27   6 c        2.837    -0.342    39.772    10.302
    28   6 c        2.935    -0.175    34.295     9.574
    29   6 c        2.925    -0.196    34.949     9.664
    30   6 c        2.985     0.069    27.874     8.633
    31   6 c        2.919    -0.130    32.996     9.390
    32   6 c        2.915    -0.086    31.775     9.214
    33   6 c        2.917    -0.091    31.923     9.236
    34   6 c        2.918    -0.111    32.467     9.314
    35   6 c        2.989     0.047    28.370     8.710
    36   6 c        2.849     0.217    24.720     8.123
    37   8 o        1.659    -0.537    23.512     6.559
    38   6 c        2.932    -0.195    34.915     9.660
    39   1 h        0.926     0.152     1.375     1.834
    40   1 h        0.926     0.153     1.372     1.832
    41   1 h        0.925     0.104     1.748     2.068
    42   1 h        0.926     0.099     1.793     2.094
    43   1 h        0.926     0.096     1.822     2.111
    44   1 h        0.926     0.105     1.742     2.064
    45   1 h        0.926     0.119     1.621     1.991
    46   1 h        0.926     0.100     1.782     2.087
    47   1 h        0.926     0.094     1.840     2.121
    48   1 h        0.926     0.095     1.831     2.116
    49   1 h        0.926     0.113     1.672     2.022
    50   1 h        0.805     0.314     0.680     1.295
    51   1 h        0.926     0.133     1.513     1.923
    52   1 h        0.926     0.100     1.788     2.091
    53   1 h        0.926     0.100     1.789     2.092
    54   1 h        0.925     0.103     1.759     2.074
    55   1 h        0.926     0.153     1.372     1.832
    56   1 h        0.926     0.152     1.376     1.834
    57   1 h        0.925     0.112     1.677     2.025
    58   1 h        0.926     0.119     1.619     1.990
    59   1 h        0.926     0.101     1.778     2.085
    60   1 h        0.926     0.094     1.837     2.120
    61   1 h        0.926     0.096     1.824     2.112
    62   1 h        0.926     0.118     1.632     1.998
    63   1 h        0.805     0.301     0.717     1.330
    64   1 h        0.925     0.117     1.634     1.999

 Mol. C6AA /au·bohr⁶  :      59325.434861
 Mol. C8AA /au·bohr⁸  :    1535819.824551
 Mol. α(0) /au        :        393.390455


Wiberg/Mayer (AO) data.
largest (>0.10) Wiberg bond orders for each atom

 ---------------------------------------------------------------------------
     #   Z sym  total        # sym  WBO       # sym  WBO       # sym  WBO
 ---------------------------------------------------------------------------
     1   6 c    3.991 --     2 c    1.908    39 h    0.980    40 h    0.974
     2   6 c    3.984 --     1 c    1.908     3 c    1.085    41 h    0.968
     3   6 c    3.978 --    38 c    1.379     4 c    1.375     2 c    1.085
     4   6 c    3.985 --     5 c    1.449     3 c    1.375    42 h    0.968
     5   6 c    3.987 --     4 c    1.449     6 c    1.439    43 h    0.972
                            38 c    0.101
     6   6 c    3.984 --     5 c    1.439     7 c    1.383    44 h    0.970
     7   6 c    3.975 --    38 c    1.399     6 c    1.383     8 c    1.029
     8   6 c    3.975 --     9 c    1.519    36 c    1.214     7 c    1.029
     9   6 c    3.985 --     8 c    1.519    10 c    1.273    45 h    0.965
    10   6 c    3.978 --    11 c    1.279     9 c    1.273    15 c    1.240
    11   6 c    3.980 --    12 c    1.553    10 c    1.279    46 h    0.969
                            14 c    0.115
    12   6 c    3.975 --    11 c    1.553    13 c    1.317    47 h    0.973
    13   6 c    3.983 --    14 c    1.558    12 c    1.317    48 h    0.973
    14   6 c    3.987 --    13 c    1.558    15 c    1.271    49 h    0.966
                            11 c    0.115
    15   6 c    3.977 --    14 c    1.271    16 c    1.255    10 c    1.240
    16   6 c    3.966 --    36 c    1.406    15 c    1.255    17 c    0.995
    17   6 c    3.965 --    18 c    1.418    35 c    1.255    16 c    0.995
    18   6 c    3.942 --    17 c    1.418    20 c    1.212    19 o    1.131
    19   8 o    2.312 --    18 c    1.131    50 h    0.967
    20   6 c    3.976 --    29 c    1.518    18 c    1.212    21 c    1.036
    21   6 c    3.976 --    28 c    1.402    22 c    1.383    20 c    1.036
    22   6 c    3.984 --    23 c    1.438    21 c    1.383    51 h    0.969
    23   6 c    3.987 --    24 c    1.452    22 c    1.438    52 h    0.972
                            28 c    0.102
    24   6 c    3.984 --    23 c    1.452    25 c    1.371    53 h    0.968
    25   6 c    3.978 --    28 c    1.386    24 c    1.371    26 c    1.086
    26   6 c    3.984 --    27 c    1.908    25 c    1.086    54 h    0.968
    27   6 c    3.992 --    26 c    1.908    56 h    0.980    55 h    0.974
    28   6 c    3.982 --    21 c    1.402    25 c    1.386    57 h    0.966
                            23 c    0.102
    29   6 c    3.985 --    20 c    1.518    30 c    1.271    58 h    0.965
    30   6 c    3.978 --    31 c    1.281    29 c    1.271    35 c    1.241
    31   6 c    3.979 --    32 c    1.550    30 c    1.281    59 h    0.969
                            34 c    0.115
    32   6 c    3.975 --    31 c    1.550    33 c    1.320    60 h    0.973
    33   6 c    3.982 --    34 c    1.554    32 c    1.320    61 h    0.972
    34   6 c    3.987 --    33 c    1.554    35 c    1.274    62 h    0.966
                            31 c    0.115
    35   6 c    3.977 --    34 c    1.274    17 c    1.255    30 c    1.241
    36   6 c    3.941 --    16 c    1.406     8 c    1.214    37 o    1.136
    37   8 o    2.310 --    36 c    1.136    63 h    0.967
    38   6 c    3.983 --     7 c    1.399     3 c    1.379    64 h    0.965
                             5 c    0.101
    39   1 h    0.988 --     1 c    0.980
    40   1 h    0.982 --     1 c    0.974
    41   1 h    0.979 --     2 c    0.968
    42   1 h    0.978 --     4 c    0.968
    43   1 h    0.983 --     5 c    0.972
    44   1 h    0.980 --     6 c    0.970
    45   1 h    0.974 --     9 c    0.965
    46   1 h    0.978 --    11 c    0.969
    47   1 h    0.983 --    12 c    0.973
    48   1 h    0.984 --    13 c    0.973
    49   1 h    0.981 --    14 c    0.966
    50   1 h    0.987 --    19 o    0.967
    51   1 h    0.992 --    22 c    0.969
    52   1 h    0.983 --    23 c    0.972
    53   1 h    0.977 --    24 c    0.968
    54   1 h    0.979 --    26 c    0.968
    55   1 h    0.982 --    27 c    0.974
    56   1 h    0.988 --    27 c    0.980
    57   1 h    0.974 --    28 c    0.966
    58   1 h    0.973 --    29 c    0.965
    59   1 h    0.978 --    31 c    0.969
    60   1 h    0.983 --    32 c    0.973
    61   1 h    0.983 --    33 c    0.972
    62   1 h    0.981 --    34 c    0.966
    63   1 h    0.986 --    37 o    0.967
    64   1 h    0.976 --    38 c    0.965
 ---------------------------------------------------------------------------

Topologies differ in total number of bonds
Writing topology from bond orders to xtbtopo.mol

 dipole moment from electron density (au)
     X       Y       Z   
   1.2797   0.8568   0.6523  total (Debye):    4.251


           -------------------------------------------------
          | TOTAL ENERGY              -96.675196720967 Eh   |
          | GRADIENT NORM               0.043335950106 Eh/α |
          | HOMO-LUMO GAP               2.383255287358 eV   |
           -------------------------------------------------

------------------------------------------------------------------------
 * finished run on 2025/01/21 at 11:18:15.845     
------------------------------------------------------------------------
 total:
 * wall-time:     0 d,  0 h,  0 min,  0.122 sec
 *  cpu-time:     0 d,  0 h,  0 min,  2.725 sec
 * ratio c/w:    22.420 speedup
 SCF:
 * wall-time:     0 d,  0 h,  0 min,  0.049 sec
 *  cpu-time:     0 d,  0 h,  0 min,  1.197 sec
 * ratio c/w:    24.358 speedup

 Calculating WBOs... done.
      -----------------------------------------------------------      
     |                   =====================                   |     
     |                           x T B                           |     
     |                   =====================                   |     
     |                         S. Grimme                         |     
     |          Mulliken Center for Theoretical Chemistry        |     
     |                    University of Bonn                     |     
      -----------------------------------------------------------      

   * xtb version 6.4.1 (afa7bdf) compiled by 'ehlert@majestix' on 2021-06-10

   xtb is free software: you can redistribute it and/or modify it under
   the terms of the GNU Lesser General Public License as published by
   the Free Software Foundation, either version 3 of the License, or
   (at your option) any later version.
   
   xtb is distributed in the hope that it will be useful,
   but WITHOUT ANY WARRANTY; without even the implied warranty of
   MERCHANTABILITY or FITNESS FOR A PARTICULAR PURPOSE.  See the
   GNU Lesser General Public License for more details.
   
   Cite this work as:
   * C. Bannwarth, E. Caldeweyher, S. Ehlert, A. Hansen, P. Pracht,
     J. Seibert, S. Spicher, S. Grimme, WIREs Comput. Mol. Sci., 2020, 11,
     e01493. DOI: 10.1002/wcms.1493
   
   for GFN2-xTB:
   * C. Bannwarth, S. Ehlert and S. Grimme., J. Chem. Theory Comput., 2019,
     15, 1652-1671. DOI: 10.1021/acs.jctc.8b01176
   for GFN1-xTB:
   * S. Grimme, C. Bannwarth, P. Shushkov, J. Chem. Theory Comput., 2017,
     13, 1989-2009. DOI: 10.1021/acs.jctc.7b00118
   for GFN0-xTB:
   * P. Pracht, E. Caldeweyher, S. Ehlert, S. Grimme, ChemRxiv, 2019, preprint.
     DOI: 10.26434/chemrxiv.8326202.v1
   for GFN-FF:
   * S. Spicher and S. Grimme, Angew. Chem. Int. Ed., 2020, 59, 15665-15673.
     DOI: 10.1002/anie.202004239
   
   for DFT-D4:
   * E. Caldeweyher, C. Bannwarth and S. Grimme, J. Chem. Phys., 2017,
     147, 034112. DOI: 10.1063/1.4993215
   * E. Caldeweyher, S. Ehlert, A. Hansen, H. Neugebauer, S. Spicher,
     C. Bannwarth and S. Grimme, J. Chem. Phys., 2019, 150, 154122.
     DOI: 10.1063/1.5090222
   * E. Caldeweyher, J.-M. Mewes, S. Ehlert and S. Grimme, Phys. Chem. Chem. Phys.
     2020, 22, 8499-8512. DOI: 10.1039/D0CP00502A
   
   for sTDA-xTB:
   * S. Grimme and C. Bannwarth, J. Chem. Phys., 2016, 145, 054103.
     DOI: 10.1063/1.4959605
   
   in the mass-spec context:
   * V. Asgeirsson, C. Bauer and S. Grimme, Chem. Sci., 2017, 8, 4879.
     DOI: 10.1039/c7sc00601b
   * J. Koopman and S. Grimme, ACS Omega 2019, 4, 12, 15120-15133.
     DOI: 10.1021/acsomega.9b02011
   
   for metadynamics refer to:
   * S. Grimme, J. Chem. Theory Comput., 2019, 155, 2847-2862
     DOI: 10.1021/acs.jctc.9b00143
   
   for SPH calculations refer to:
   * S. Spicher and S. Grimme, J. Chem. Theory Comput., 2021, 17, 1701-1714
     DOI: 10.1021/acs.jctc.0c01306
   
   with help from (in alphabetical order)
   P. Atkinson, C. Bannwarth, F. Bohle, G. Brandenburg, E. Caldeweyher
   M. Checinski, S. Dohm, S. Ehlert, S. Ehrlich, I. Gerasimov, J. Koopman
   C. Lavigne, S. Lehtola, F. März, M. Müller, F. Musil, H. Neugebauer
   J. Pisarek, C. Plett, P. Pracht, J. Seibert, P. Shushkov, S. Spicher
   M. Stahn, M. Steiner, T. Strunk, J. Stückrath, T. Rose, and J. Unsleber
   
 * started run on 2025/01/21 at 11:18:15.887     

           -------------------------------------------------
          |                Calculation Setup                |
           -------------------------------------------------

          program call               : xtb tmpcoord --gfnff --sp
          hostname                   : node27
          coordinate file            : tmpcoord
          omp threads                :                    28
          number of atoms            :                    64
          number of electrons        :                   182
          charge                     :                     0
          spin                       :                   0.0
          first test random number   :      0.18048139165198

   ID    Z sym.   atoms
    1    6 c      1-18, 20-36, 38
    2    8 o      19, 37
    3    1 h      39-64
 
          ==================== Thresholds ====================
          CN  :   150.00000
          rep :   500.00000
          disp:  2500.00000
          HB1 :   250.00000
          HB2 :   450.00000
 
          Pauling EN used:
          Z : 1  EN :  2.20
          Z : 6  EN :  2.55
          Z : 8  EN :  3.44
          electric field strengths (au): 0.000
 
           ------------------------------------------------- 
          |           Force Field Initialization            |
           ------------------------------------------------- 
 
          distances ...
          ----------------------------------------
          generating topology and atomic info file ...
          pair mat ...
          computing topology distances matrix with Floyd-Warshall algo ...
          making topology EEQ charges ...
          #fragments for EEQ constrain: 1
          ----------------------------------------
          generating topology and atomic info file ...
          pair mat ...
          computing topology distances matrix with Floyd-Warshall algo ...
          making topology EEQ charges ...
          #fragments for EEQ constrain: 1
          rings ...
          # BATM   708
          # H in HB   26
          doing iterative Hueckel for 1 subsystem(s) ...
 
  atom   neighbors  erfCN metchar sp-hybrid imet pi  qest     coordinates
    1  c       3    2.79   0.00         2    0    1  -0.065   14.154997    3.907812   -3.320958
    2  c       3    2.79   0.00         2    0    1  -0.044   11.886914    2.927446   -2.891469
    3  c       3    2.81   0.00         2    0    1   0.012   10.848861    2.228159   -0.435175
    4  c       3    2.82   0.00         2    0    1  -0.051   11.954171    2.947566    1.847464
    5  c       3    2.81   0.00         2    0    1  -0.007   10.910973    2.199292    4.121946
    6  c       3    2.82   0.00         2    0    1  -0.037    8.747634    0.733429    4.174858
    7  c       3    2.82   0.00         2    0    1  -0.003    7.590465    0.013259    1.923945
    8  c       3    2.81   0.00         2    0    1  -0.012    5.289601   -1.561582    1.973171
    9  c       3    2.82   0.00         2    0    1  -0.024    5.254343   -3.780833    3.315279
   10  c       3    2.83   0.00         2    0    1  -0.018    3.107970   -5.347635    3.371421
   11  c       3    2.81   0.00         2    0    1  -0.027    3.070364   -7.642284    4.726932
   12  c       3    2.81   0.00         2    0    1  -0.031    0.964056   -9.135066    4.734209
   13  c       3    2.81   0.00         2    0    1  -0.033   -1.195155   -8.402118    3.378068
   14  c       3    2.81   0.00         2    0    1  -0.033   -1.220778   -6.190167    2.045859
   15  c       3    2.83   0.00         2    0    1   0.001    0.920312   -4.599561    2.011379
   16  c       3    2.82   0.00         2    0    1  -0.003    0.947159   -2.288280    0.662567
   17  c       3    2.82   0.00         2    0    1  -0.003   -1.327637   -1.420845   -0.739076
   18  c       3    2.82   0.00         2    0    1   0.097   -3.227643   -0.196207    0.556367
   19  o       2    1.92   0.00         3    0    1  -0.449   -3.051108    0.237644    3.086569
   20  c       3    2.81   0.00         2    0    1  -0.012   -5.409604    0.691674   -0.727050
   21  c       3    2.82   0.00         2    0    1  -0.003   -7.440760    1.990522    0.660999
   22  c       3    2.82   0.00         2    0    1  -0.037   -8.386268    1.023226    2.916545
   23  c       3    2.81   0.00         2    0    1  -0.007  -10.317772    2.266542    4.164636
   24  c       3    2.82   0.00         2    0    1  -0.051  -11.334688    4.465354    3.192820
   25  c       3    2.81   0.00         2    0    1   0.012  -10.428192    5.468234    0.928619
   26  c       3    2.79   0.00         2    0    1  -0.044  -11.429045    7.777240   -0.196002
   27  c       3    2.79   0.00         2    0    1  -0.065  -13.467110    9.041097    0.538250
   28  c       3    2.83   0.00         2    0    1  -0.037   -8.474166    4.203703   -0.303329
   29  c       3    2.82   0.00         2    0    1  -0.024   -5.582876    0.331655   -3.288902
   30  c       3    2.83   0.00         2    0    1  -0.018   -3.682103   -0.915592   -4.670044
   31  c       3    2.81   0.00         2    0    1  -0.027   -3.873014   -1.299284   -7.299677
   32  c       3    2.81   0.00         2    0    1  -0.031   -2.009181   -2.531678   -8.595008
   33  c       3    2.81   0.00         2    0    1  -0.033    0.122012   -3.445712   -7.310144
   34  c       3    2.81   0.00         2    0    1  -0.033    0.363616   -3.103321   -4.760811
   35  c       3    2.83   0.00         2    0    1   0.001   -1.516828   -1.820789   -3.376019
   36  c       3    2.82   0.00         2    0    1   0.097    3.088859   -0.794521    0.648198
   37  o       2    1.92   0.00         3    0    1  -0.449    2.986453    1.446496   -0.605177
   38  c       3    2.82   0.00         2    0    1  -0.037    8.651589    0.773640   -0.358178
   39  h       1    0.97   0.00         0    0    0   0.047   14.774243    4.354342   -5.206412
   40  h       1    0.97   0.00         0    0    0   0.047   15.489359    4.290557   -1.833464
   41  h       1    0.97   0.00         0    0    0   0.037   10.651189    2.548202   -4.479457
   42  h       1    0.97   0.00         0    0    0   0.038   13.631218    4.105624    1.844376
   43  h       1    0.97   0.00         0    0    0   0.023   11.790584    2.766158    5.874561
   44  h       1    0.97   0.00         0    0    0   0.055    7.929261    0.160302    5.954420
   45  h       1    0.97   0.00         0    0    0   0.045    6.931405   -4.367584    4.322334
   46  h       1    0.97   0.00         0    0    0   0.045    4.745554   -8.194880    5.756363
   47  h       1    0.97   0.00         0    0    0   0.048    0.947143  -10.890573    5.775202
   48  h       1    0.97   0.00         0    0    0   0.048   -2.841833   -9.607776    3.392955
   49  h       1    0.97   0.00         0    0    0   0.045   -2.876622   -5.629148    0.991800
   50  h       1    0.97   0.00         0    0    0   0.232   -1.431767   -0.371324    3.675618
   51  h       1    0.97   0.00         0    0    0   0.055   -7.615801   -0.700961    3.682942
   52  h       1    0.97   0.00         0    0    0   0.023  -11.037169    1.508784    5.919314
   53  h       1    0.97   0.00         0    0    0   0.038  -12.825590    5.418364    4.205958
   54  h       1    0.97   0.00         0    0    0   0.037  -10.370241    8.461548   -1.810771
   55  h       1    0.97   0.00         0    0    0   0.047  -14.622936    8.453205    2.106452
   56  h       1    0.97   0.00         0    0    0   0.047  -14.068408   10.731598   -0.421440
   57  h       1    0.97   0.00         0    0    0   0.055   -7.724398    4.975614   -2.040573
   58  h       1    0.97   0.00         0    0    0   0.045   -7.242223    0.987642   -4.282468
   59  h       1    0.97   0.00         0    0    0   0.045   -5.527580   -0.597570   -8.270467
   60  h       1    0.97   0.00         0    0    0   0.048   -2.165951   -2.817683  -10.610326
   61  h       1    0.97   0.00         0    0    0   0.048    1.574011   -4.430139   -8.355425
   62  h       1    0.97   0.00         0    0    0   0.045    2.000336   -3.820180   -3.772450
   63  h       1    0.97   0.00         0    0    0   0.232    4.588240    2.313029   -0.443076
   64  h       1    0.97   0.00         0    0    0   0.055    7.811361    0.155847   -2.118662
 
          #atoms :   64
          #bonds :   69
          #angl  :   110
          #tors  :   204
          #nmol  :   1
          #optfrag :   1
           ------------------------------------------------- 
          |                   G F N - F F                   |
          |          A general generic force-field          |
          |                  Version 1.0.3                  | 
           ------------------------------------------------- 
          nhb123   6307 604 0

 E+G (total)                   0 d,  0 h,  0 min,  0.004 sec
 distance/D3 list               ...        0 min,  0.000 sec (  0.638%)
 non bonded repulsion           ...        0 min,  0.000 sec (  6.582%)
 dCN                            ...        0 min,  0.000 sec (  4.764%)
 EEQ energy and q               ...        0 min,  0.000 sec ( 11.531%)
 D3                             ...        0 min,  0.000 sec ( 12.335%)
 EEQ gradient                   ...        0 min,  0.000 sec (  8.751%)
 bonds                          ...        0 min,  0.000 sec (  9.069%)
 bend and torsion               ...        0 min,  0.000 sec ( 12.571%)
 bonded ATM                     ...        0 min,  0.000 sec (  2.009%)
 HB/XB (incl list setup)        ...        0 min,  0.001 sec ( 26.054%)

         :::::::::::::::::::::::::::::::::::::::::::::::::::::
         ::                     SUMMARY                     ::
         :::::::::::::::::::::::::::::::::::::::::::::::::::::
         :: total energy             -13.525389831601 Eh    ::
         :: gradient norm              0.053229984785 Eh/a0 ::
         ::.................................................::
         :: bond energy              -14.308194355059 Eh    ::
         :: angle energy               0.006133071544 Eh    ::
         :: torsion energy             0.018998652637 Eh    ::
         :: repulsion energy           0.977390083099 Eh    ::
         :: electrostat energy        -0.138744321954 Eh    ::
         :: dispersion energy         -0.065235175237 Eh    ::
         :: HB energy                 -0.001529843243 Eh    ::
         :: XB energy                  0.000000000000 Eh    ::
         :: bonded atm energy         -0.014207943387 Eh    ::
         :: external energy            0.000000000000 Eh    ::
         :: add. restraining           0.000000000000 Eh    ::
         :: total charge              -0.000000000000 e     ::
         :::::::::::::::::::::::::::::::::::::::::::::::::::::

           -------------------------------------------------
          |                Property Printout                |
           -------------------------------------------------

           -------------------------------------------------
          | TOTAL ENERGY              -13.525389831601 Eh   |
          | GRADIENT NORM               0.053229984785 Eh/α |
           -------------------------------------------------

------------------------------------------------------------------------
 * finished run on 2025/01/21 at 11:18:15.944     
------------------------------------------------------------------------
 total:
 * wall-time:     0 d,  0 h,  0 min,  0.057 sec
 *  cpu-time:     0 d,  0 h,  0 min,  0.955 sec
 * ratio c/w:    16.786 speedup
 SCF:
 * wall-time:     0 d,  0 h,  0 min,  0.007 sec
 *  cpu-time:     0 d,  0 h,  0 min,  0.154 sec
 * ratio c/w:    23.656 speedup

 Calculating NCI flexibility... done.
     covalent flexibility measure :   0.041
 non-covalent flexibility measure :   1.000
 flexibility measure :   0.122
 t(MTD) / ps set by command line  :     0.5
 t(MTD) / ps    :     0.5
 Σ(t(MTD)) / ps :     7.0 (14 MTDs)
 
-------------------------------------
Starting a trial MTD to test settings
-------------------------------------
 Estimated runtime for one MTD (0.5 ps) on a single thread: 2 min 17 sec
 Estimated runtime for a batch of 14 MTDs on 28 threads: 1 min 9 sec
 
 list of Vbias parameters applied:
$metadyn    0.00300   1.300
$metadyn    0.00150   1.300
$metadyn    0.00075   1.300
$metadyn    0.00300   0.780
$metadyn    0.00150   0.780
$metadyn    0.00075   0.780
$metadyn    0.00300   0.468
$metadyn    0.00150   0.468
$metadyn    0.00075   0.468
$metadyn    0.00300   0.281
$metadyn    0.00150   0.281
$metadyn    0.00075   0.281
$metadyn    0.00100   0.100
$metadyn    0.00500   0.800
 
*******************************************************************************************
**                        N E W    I T E R A T I O N    C Y C L E                        **
*******************************************************************************************
 
========================================
            MTD Iteration  1
========================================
 
     ========================================
     |         Meta-MD (MTD) Sampling       |
     ========================================
 
Starting Meta-MD   1 with the settings:
     MD time /ps        :     0.5
     dt /fs             :     1.5
     dumpstep(trj) /fs  :     100
     dumpstep(Vbias)/ps :     1.0
     Vbias factor k /Eh :  0.1920
     Vbias exp α /bohr⁻²:    1.30
Starting Meta-MD   5 with the settings:
     MD time /ps        :     0.5
     dt /fs             :     1.5
     dumpstep(trj) /fs  :     100
     dumpstep(Vbias)/ps :     1.0
     Vbias factor k /Eh :  0.0960
     Vbias exp α /bohr⁻²:    0.78
Starting Meta-MD   4 with the settings:
     MD time /ps        :     0.5
     dt /fs             :     1.5
     dumpstep(trj) /fs  :     100
     dumpstep(Vbias)/ps :     1.0
     Vbias factor k /Eh :  0.1920
     Vbias exp α /bohr⁻²:    0.78
Starting Meta-MD   2 with the settings:
     MD time /ps        :     0.5
     dt /fs             :     1.5
     dumpstep(trj) /fs  :     100
     dumpstep(Vbias)/ps :     1.0
     Vbias factor k /Eh :  0.0960
     Vbias exp α /bohr⁻²:    1.30
Starting Meta-MD  14 with the settings:
     MD time /ps        :     0.5
     dt /fs             :     1.5
     dumpstep(trj) /fs  :     100
     dumpstep(Vbias)/ps :     1.0
     Vbias factor k /Eh :  0.3200
     Vbias exp α /bohr⁻²:    0.80
Starting Meta-MD   7 with the settings:
     MD time /ps        :     0.5
     dt /fs             :     1.5
     dumpstep(trj) /fs  :     100
     dumpstep(Vbias)/ps :     1.0
     Vbias factor k /Eh :  0.1920
     Vbias exp α /bohr⁻²:    0.47
Starting Meta-MD   8 with the settings:
     MD time /ps        :     0.5
     dt /fs             :     1.5
     dumpstep(trj) /fs  :     100
     dumpstep(Vbias)/ps :     1.0
     Vbias factor k /Eh :  0.0960
     Vbias exp α /bohr⁻²:    0.47
Starting Meta-MD   9 with the settings:
     MD time /ps        :     0.5
     dt /fs             :     1.5
     dumpstep(trj) /fs  :     100
     dumpstep(Vbias)/ps :     1.0
     Vbias factor k /Eh :  0.0480
     Vbias exp α /bohr⁻²:    0.47
Starting Meta-MD  10 with the settings:
     MD time /ps        :     0.5
     dt /fs             :     1.5
     dumpstep(trj) /fs  :     100
     dumpstep(Vbias)/ps :     1.0
     Vbias factor k /Eh :  0.1920
     Vbias exp α /bohr⁻²:    0.28
Starting Meta-MD  11 with the settings:
     MD time /ps        :     0.5
     dt /fs             :     1.5
     dumpstep(trj) /fs  :     100
     dumpstep(Vbias)/ps :     1.0
     Vbias factor k /Eh :  0.0960
     Vbias exp α /bohr⁻²:    0.28
Starting Meta-MD  12 with the settings:
     MD time /ps        :     0.5
     dt /fs             :     1.5
     dumpstep(trj) /fs  :     100
     dumpstep(Vbias)/ps :     1.0
     Vbias factor k /Eh :  0.0480
     Vbias exp α /bohr⁻²:    0.28
Starting Meta-MD  13 with the settings:
     MD time /ps        :     0.5
     dt /fs             :     1.5
     dumpstep(trj) /fs  :     100
     dumpstep(Vbias)/ps :     1.0
     Vbias factor k /Eh :  0.0640
     Vbias exp α /bohr⁻²:    0.10
Starting Meta-MD   3 with the settings:
     MD time /ps        :     0.5
     dt /fs             :     1.5
     dumpstep(trj) /fs  :     100
     dumpstep(Vbias)/ps :     1.0
     Vbias factor k /Eh :  0.0480
     Vbias exp α /bohr⁻²:    1.30
Starting Meta-MD   6 with the settings:
     MD time /ps        :     0.5
     dt /fs             :     1.5
     dumpstep(trj) /fs  :     100
     dumpstep(Vbias)/ps :     1.0
     Vbias factor k /Eh :  0.0480
     Vbias exp α /bohr⁻²:    0.78
*Meta-MTD 5 finished*
*Meta-MTD 12 finished*
*Meta-MTD 13 finished*
*Meta-MTD 9 finished*
*Meta-MTD 2 finished*
*Meta-MTD 3 finished*
*Meta-MTD 6 finished*
*Meta-MTD 7 finished*
*Meta-MTD 8 finished*
*Meta-MTD 4 finished*
*Meta-MTD 11 finished*
*Meta-MTD 1 finished*
*Meta-MTD 14 finished*
*Meta-MTD 10 finished*
 
-----------------------
Multilevel Optimization
-----------------------
 
 -------------------------
 1. crude pre-optimization
 -------------------------
 Optimizing all 70 structures from file "crest_rotamers_0.xyz" ...
 1 2 3 4 5 6 7 8 9 10 11 12 13 14 15 16 17 18 19 20 21 22 23 24 25 26 27 28 29 30 31 32 33 34 35 36 37 38 39 40 41 42 43 44 45 46 47 48 49 50 51 52 53 54 55 56 57 58 59 60 61 62 63 64 65 66 67 68 69 70
 done.
 running RMSDs...
 done.
 E lowest :   -98.43496
 62 structures remain within    12.00 kcal/mol window
 
 -------------------------------------
 2. optimization with tight thresholds
 -------------------------------------
 Optimizing all 63 structures from file "crest_rotamers_1.xyz" ...
 1 2 3 4 5 6 7 8 9 10 11 12 13 14 15 16 17 18 19 20 21 22 23 24 25 26 27 28 29 30 31 32 33 34 35 36 37 38 39 40 41 42 43 44 45 46 47 48 49 50 51 52 53 54 55 56 57 58 59 60 61 62 63
 done.
 running RMSDs...
 done.
 E lowest :   -98.43650
 20 structures remain within     6.00 kcal/mol window
 
 
========================================
            MTD Iteration  2
========================================
 
     ========================================
     |         Meta-MD (MTD) Sampling       |
     ========================================
 
Starting Meta-MD   1 with the settings:
     MD time /ps        :     0.5
     dt /fs             :     1.5
     dumpstep(trj) /fs  :     100
     dumpstep(Vbias)/ps :     1.0
     Vbias factor k /Eh :  0.1920
     Vbias exp α /bohr⁻²:    1.30
Starting Meta-MD   2 with the settings:
     MD time /ps        :     0.5
     dt /fs             :     1.5
     dumpstep(trj) /fs  :     100
     dumpstep(Vbias)/ps :     1.0
     Vbias factor k /Eh :  0.0960
     Vbias exp α /bohr⁻²:    1.30
Starting Meta-MD   3 with the settings:
     MD time /ps        :     0.5
     dt /fs             :     1.5
     dumpstep(trj) /fs  :     100
     dumpstep(Vbias)/ps :     1.0
     Vbias factor k /Eh :  0.0480
     Vbias exp α /bohr⁻²:    1.30
Starting Meta-MD   4 with the settings:
     MD time /ps        :     0.5
     dt /fs             :     1.5
     dumpstep(trj) /fs  :     100
     dumpstep(Vbias)/ps :     1.0
     Vbias factor k /Eh :  0.1920
     Vbias exp α /bohr⁻²:    0.78
Starting Meta-MD   5 with the settings:
     MD time /ps        :     0.5
     dt /fs             :     1.5
     dumpstep(trj) /fs  :     100
     dumpstep(Vbias)/ps :     1.0
     Vbias factor k /Eh :  0.0960
     Vbias exp α /bohr⁻²:    0.78
Starting Meta-MD   6 with the settings:
     MD time /ps        :     0.5
     dt /fs             :     1.5
     dumpstep(trj) /fs  :     100
     dumpstep(Vbias)/ps :     1.0
     Vbias factor k /Eh :  0.0480
     Vbias exp α /bohr⁻²:    0.78
Starting Meta-MD   7 with the settings:
     MD time /ps        :     0.5
     dt /fs             :     1.5
     dumpstep(trj) /fs  :     100
     dumpstep(Vbias)/ps :     1.0
     Vbias factor k /Eh :  0.1920
     Vbias exp α /bohr⁻²:    0.47
Starting Meta-MD   8 with the settings:
     MD time /ps        :     0.5
     dt /fs             :     1.5
     dumpstep(trj) /fs  :     100
     dumpstep(Vbias)/ps :     1.0
     Vbias factor k /Eh :  0.0960
     Vbias exp α /bohr⁻²:    0.47
Starting Meta-MD   9 with the settings:
     MD time /ps        :     0.5
     dt /fs             :     1.5
     dumpstep(trj) /fs  :     100
     dumpstep(Vbias)/ps :     1.0
     Vbias factor k /Eh :  0.0480
     Vbias exp α /bohr⁻²:    0.47
Starting Meta-MD  10 with the settings:
     MD time /ps        :     0.5
     dt /fs             :     1.5
     dumpstep(trj) /fs  :     100
     dumpstep(Vbias)/ps :     1.0
     Vbias factor k /Eh :  0.1920
     Vbias exp α /bohr⁻²:    0.28
Starting Meta-MD  11 with the settings:
     MD time /ps        :     0.5
     dt /fs             :     1.5
     dumpstep(trj) /fs  :     100
     dumpstep(Vbias)/ps :     1.0
     Vbias factor k /Eh :  0.0960
     Vbias exp α /bohr⁻²:    0.28
Starting Meta-MD  12 with the settings:
     MD time /ps        :     0.5
     dt /fs             :     1.5
     dumpstep(trj) /fs  :     100
     dumpstep(Vbias)/ps :     1.0
     Vbias factor k /Eh :  0.0480
     Vbias exp α /bohr⁻²:    0.28
*Meta-MTD 7 finished*
*Meta-MTD 1 finished*
*Meta-MTD 10 finished*
*Meta-MTD 6 finished*
*Meta-MTD 2 finished*
*Meta-MTD 11 finished*
*Meta-MTD 5 finished*
*Meta-MTD 3 finished*
*Meta-MTD 4 finished*
*Meta-MTD 8 finished*
*Meta-MTD 9 finished*
*Meta-MTD 12 finished*
 
-----------------------
Multilevel Optimization
-----------------------
 
 -------------------------
 1. crude pre-optimization
 -------------------------
 Optimizing all 60 structures from file "crest_rotamers_0.xyz" ...
 1 2 3 4 5 6 7 8 9 10 11 12 13 14 15 16 17 18 19 20 21 22 23 24 25 26 27 28 29 30 31 32 33 34 35 36 37 38 39 40 41 42 43 44 45 46 47 48 49 50 51 52 53 54 55 56 57 58 59 60
 done.
 running RMSDs...
 done.
 E lowest :   -98.43599
 53 structures remain within    12.00 kcal/mol window
 
 -------------------------------------
 2. optimization with tight thresholds
 -------------------------------------
 Optimizing all 54 structures from file "crest_rotamers_1.xyz" ...
 1 2 3 4 5 6 7 8 9 10 11 12 13 14 15 16 17 18 19 20 21 22 23 24 25 26 27 28 29 30 31 32 33 34 35 36 37 38 39 40 41 42 43 44 45 46 47 48 49 50 51 52 53 54
 done.
 running RMSDs...
 done.
 E lowest :   -98.43664
 22 structures remain within     6.00 kcal/mol window
 
 ...............................................
 A new lower conformer was found!
 Improved by    0.00014 Eh or    0.08480kcal/mol
 ...............................................
 
========================================
            MTD Iteration  3
========================================
 
     ========================================
     |         Meta-MD (MTD) Sampling       |
     ========================================
 
Starting Meta-MD   1 with the settings:
     MD time /ps        :     0.5
     dt /fs             :     1.5
     dumpstep(trj) /fs  :     100
     dumpstep(Vbias)/ps :     1.0
     Vbias factor k /Eh :  0.1920
     Vbias exp α /bohr⁻²:    1.30
Starting Meta-MD   6 with the settings:
     MD time /ps        :     0.5
     dt /fs             :     1.5
     dumpstep(trj) /fs  :     100
     dumpstep(Vbias)/ps :     1.0
     Vbias factor k /Eh :  0.0480
     Vbias exp α /bohr⁻²:    0.78
Starting Meta-MD   7 with the settings:
     MD time /ps        :     0.5
     dt /fs             :     1.5
     dumpstep(trj) /fs  :     100
     dumpstep(Vbias)/ps :     1.0
     Vbias factor k /Eh :  0.1920
     Vbias exp α /bohr⁻²:    0.47
Starting Meta-MD   2 with the settings:
     MD time /ps        :     0.5
     dt /fs             :     1.5
     dumpstep(trj) /fs  :     100
     dumpstep(Vbias)/ps :     1.0
     Vbias factor k /Eh :  0.0960
     Vbias exp α /bohr⁻²:    1.30
Starting Meta-MD   5 with the settings:
     MD time /ps        :     0.5
     dt /fs             :     1.5
     dumpstep(trj) /fs  :     100
     dumpstep(Vbias)/ps :     1.0
     Vbias factor k /Eh :  0.0960
     Vbias exp α /bohr⁻²:    0.78
Starting Meta-MD   8 with the settings:
     MD time /ps        :     0.5
     dt /fs             :     1.5
     dumpstep(trj) /fs  :     100
     dumpstep(Vbias)/ps :     1.0
     Vbias factor k /Eh :  0.0960
     Vbias exp α /bohr⁻²:    0.47
Starting Meta-MD   3 with the settings:
     MD time /ps        :     0.5
     dt /fs             :     1.5
     dumpstep(trj) /fs  :     100
     dumpstep(Vbias)/ps :     1.0
     Vbias factor k /Eh :  0.0480
     Vbias exp α /bohr⁻²:    1.30
Starting Meta-MD   9 with the settings:
     MD time /ps        :     0.5
     dt /fs             :     1.5
     dumpstep(trj) /fs  :     100
     dumpstep(Vbias)/ps :     1.0
     Vbias factor k /Eh :  0.0480
     Vbias exp α /bohr⁻²:    0.47
Starting Meta-MD   4 with the settings:
     MD time /ps        :     0.5
     dt /fs             :     1.5
     dumpstep(trj) /fs  :     100
     dumpstep(Vbias)/ps :     1.0
     Vbias factor k /Eh :  0.1920
     Vbias exp α /bohr⁻²:    0.78
Starting Meta-MD  10 with the settings:
     MD time /ps        :     0.5
     dt /fs             :     1.5
     dumpstep(trj) /fs  :     100
     dumpstep(Vbias)/ps :     1.0
     Vbias factor k /Eh :  0.1920
     Vbias exp α /bohr⁻²:    0.28
Starting Meta-MD  11 with the settings:
     MD time /ps        :     0.5
     dt /fs             :     1.5
     dumpstep(trj) /fs  :     100
     dumpstep(Vbias)/ps :     1.0
     Vbias factor k /Eh :  0.0960
     Vbias exp α /bohr⁻²:    0.28
Starting Meta-MD  12 with the settings:
     MD time /ps        :     0.5
     dt /fs             :     1.5
     dumpstep(trj) /fs  :     100
     dumpstep(Vbias)/ps :     1.0
     Vbias factor k /Eh :  0.0480
     Vbias exp α /bohr⁻²:    0.28
*Meta-MTD 5 finished*
*Meta-MTD 11 finished*
*Meta-MTD 1 finished*
*Meta-MTD 2 finished*
*Meta-MTD 8 finished*
*Meta-MTD 7 finished*
*Meta-MTD 3 finished*
*Meta-MTD 10 finished*
*Meta-MTD 9 finished*
*Meta-MTD 12 finished*
*Meta-MTD 6 finished*
*Meta-MTD 4 finished*
 
-----------------------
Multilevel Optimization
-----------------------
 
 -------------------------
 1. crude pre-optimization
 -------------------------
 Optimizing all 60 structures from file "crest_rotamers_0.xyz" ...
 1 2 3 4 5 6 7 8 9 10 11 12 13 14 15 16 17 18 19 20 21 22 23 24 25 26 27 28 29 30 31 32 33 34 35 36 37 38 39 40 41 42 43 44 45 46 47 48 49 50 51 52 53 54 55 56 57 58 59 60
 done.
 running RMSDs...
 done.
 E lowest :   -98.43592
 52 structures remain within    12.00 kcal/mol window
 
 -------------------------------------
 2. optimization with tight thresholds
 -------------------------------------
 Optimizing all 53 structures from file "crest_rotamers_1.xyz" ...
 1 2 3 4 5 6 7 8 9 10 11 12 13 14 15 16 17 18 19 20 21 22 23 24 25 26 27 28 29 30 31 32 33 34 35 36 37 38 39 40 41 42 43 44 45 46 47 48 49 50 51 52 53
 done.
 running RMSDs...
 done.
 E lowest :   -98.43665
 13 structures remain within     6.00 kcal/mol window
 
========================================
            MTD Iterations done         
========================================
 Collecting ensmbles.
 running RMSDs...
 done.
 E lowest :   -98.43665
 49 structures remain within     6.00 kcal/mol window
 
 -------------------------------
 Additional orientation sampling
 -------------------------------
 Optimizing all 92 structures from file "oh_ensemble.xyz" ...
 1 2 3 4 5 6 7 8 9 10 11 12 13 14 15 16 17 18 19 20 21 22 23 24 25 26 27 28 29 30 31 32 33 34 35 36 37 38 39 40 41 42 43 44 45 46 47 48 49 50 51 52 53 54 55 56 57 58 59 60 61 62 63 64 65 66 67 68 69 70 71 72 73 74 75 76 77 78 79 80 81 82 83 84 85 86 87 88 89 90 91 92
 done.
 running RMSDs...
 done.
 E lowest :   -98.43675
 120 structures remain within     6.00 kcal/mol window
 
-----------------------------------------------
Additional regular MDs on lowest 4 conformer(s)
-----------------------------------------------
Starting MD   1 with the settings:
     MD time /ps        :     0.2
     MD Temperature /K  :   400.0
     dt /fs             :     1.5
     dumpstep(trj) /fs  :     100
Starting MD   2 with the settings:
     MD time /ps        :     0.2
     MD Temperature /K  :   500.0
     dt /fs             :     1.5
     dumpstep(trj) /fs  :     100
Starting MD   3 with the settings:
     MD time /ps        :     0.2
     MD Temperature /K  :   400.0
     dt /fs             :     1.5
     dumpstep(trj) /fs  :     100
Starting MD   5 with the settings:
     MD time /ps        :     0.2
     MD Temperature /K  :   400.0
     dt /fs             :     1.5
     dumpstep(trj) /fs  :     100
Starting MD   4 with the settings:
     MD time /ps        :     0.2
     MD Temperature /K  :   500.0
     dt /fs             :     1.5
     dumpstep(trj) /fs  :     100
Starting MD   6 with the settings:
     MD time /ps        :     0.2
     MD Temperature /K  :   500.0
     dt /fs             :     1.5
     dumpstep(trj) /fs  :     100
Starting MD   8 with the settings:
     MD time /ps        :     0.2
     MD Temperature /K  :   500.0
     dt /fs             :     1.5
     dumpstep(trj) /fs  :     100
Starting MD   7 with the settings:
     MD time /ps        :     0.2
     MD Temperature /K  :   400.0
     dt /fs             :     1.5
     dumpstep(trj) /fs  :     100
*MD 3 finished*
*MD 4 finished*
*MD 8 finished*
*MD 6 finished*
*MD 1 finished*
*MD 5 finished*
*MD 2 finished*
*MD 7 finished*
 Appending file crest_rotamers_2.xyz with new structures
 
 -------------------------------------------
 Ensemble optimization with tight thresholds
 -------------------------------------------
 Optimizing all 136 structures from file "crest_rotamers_2.xyz" ...
 1 2 3 4 5 6 7 8 9 10 11 12 13 14 15 16 17 18 19 20 21 22 23 24 25 26 27 28 29 30 31 32 33 34 35 36 37 38 39 40 41 42 43 44 45 46 47 48 49 50 51 52 53 54 55 56 57 58 59 60 61 62 63 64 65 66 67 68 69 70 71 72 73 74 75 76 77 78 79 80 81 82 83 84 85 86 87 88 89 90 91 92 93 94 95 96 97 98 99 100 101 102 103 104 105 106 107 108 109 110 111 112 113 114 115 116 117 118 119 120 121 122 123 124 125 126 127 128 129 130 131 132 133 134 135 136
 done.
 running RMSDs...
 done.
 E lowest :   -98.43675
 120 structures remain within     6.00 kcal/mol window
 
 ...............................................
 A new lower conformer was found!
 Improved by    0.00012 Eh or    0.07331kcal/mol
 ...............................................
 
*******************************************************************************************
**                        N E W    I T E R A T I O N    C Y C L E                        **
*******************************************************************************************
 
========================================
            MTD Iteration  1
========================================
 
     ========================================
     |         Meta-MD (MTD) Sampling       |
     ========================================
 
Starting Meta-MD   1 with the settings:
     MD time /ps        :     0.5
     dt /fs             :     1.5
     dumpstep(trj) /fs  :     100
     dumpstep(Vbias)/ps :     1.0
     Vbias factor k /Eh :  0.1920
     Vbias exp α /bohr⁻²:    1.30
Starting Meta-MD   2 with the settings:
     MD time /ps        :     0.5
     dt /fs             :     1.5
     dumpstep(trj) /fs  :     100
     dumpstep(Vbias)/ps :     1.0
     Vbias factor k /Eh :  0.0960
     Vbias exp α /bohr⁻²:    1.30
Starting Meta-MD   3 with the settings:
     MD time /ps        :     0.5
     dt /fs             :     1.5
     dumpstep(trj) /fs  :     100
     dumpstep(Vbias)/ps :     1.0
     Vbias factor k /Eh :  0.0480
     Vbias exp α /bohr⁻²:    1.30
Starting Meta-MD   4 with the settings:
     MD time /ps        :     0.5
     dt /fs             :     1.5
     dumpstep(trj) /fs  :     100
     dumpstep(Vbias)/ps :     1.0
     Vbias factor k /Eh :  0.1920
     Vbias exp α /bohr⁻²:    0.78
Starting Meta-MD   5 with the settings:
     MD time /ps        :     0.5
     dt /fs             :     1.5
     dumpstep(trj) /fs  :     100
     dumpstep(Vbias)/ps :     1.0
     Vbias factor k /Eh :  0.0960
     Vbias exp α /bohr⁻²:    0.78
Starting Meta-MD   6 with the settings:
     MD time /ps        :     0.5
     dt /fs             :     1.5
     dumpstep(trj) /fs  :     100
     dumpstep(Vbias)/ps :     1.0
     Vbias factor k /Eh :  0.0480
     Vbias exp α /bohr⁻²:    0.78
Starting Meta-MD   7 with the settings:
     MD time /ps        :     0.5
     dt /fs             :     1.5
     dumpstep(trj) /fs  :     100
     dumpstep(Vbias)/ps :     1.0
     Vbias factor k /Eh :  0.1920
     Vbias exp α /bohr⁻²:    0.47
Starting Meta-MD   8 with the settings:
     MD time /ps        :     0.5
     dt /fs             :     1.5
     dumpstep(trj) /fs  :     100
     dumpstep(Vbias)/ps :     1.0
     Vbias factor k /Eh :  0.0960
     Vbias exp α /bohr⁻²:    0.47
Starting Meta-MD   9 with the settings:
     MD time /ps        :     0.5
     dt /fs             :     1.5
     dumpstep(trj) /fs  :     100
     dumpstep(Vbias)/ps :     1.0
     Vbias factor k /Eh :  0.0480
     Vbias exp α /bohr⁻²:    0.47
Starting Meta-MD  10 with the settings:
     MD time /ps        :     0.5
     dt /fs             :     1.5
     dumpstep(trj) /fs  :     100
     dumpstep(Vbias)/ps :     1.0
     Vbias factor k /Eh :  0.1920
     Vbias exp α /bohr⁻²:    0.28
Starting Meta-MD  11 with the settings:
     MD time /ps        :     0.5
     dt /fs             :     1.5
     dumpstep(trj) /fs  :     100
     dumpstep(Vbias)/ps :     1.0
     Vbias factor k /Eh :  0.0960
     Vbias exp α /bohr⁻²:    0.28
Starting Meta-MD  12 with the settings:
     MD time /ps        :     0.5
     dt /fs             :     1.5
     dumpstep(trj) /fs  :     100
     dumpstep(Vbias)/ps :     1.0
     Vbias factor k /Eh :  0.0480
     Vbias exp α /bohr⁻²:    0.28
*Meta-MTD 3 finished*
*Meta-MTD 12 finished*
*Meta-MTD 4 finished*
*Meta-MTD 1 finished*
*Meta-MTD 11 finished*
*Meta-MTD 2 finished*
*Meta-MTD 7 finished*
*Meta-MTD 6 finished*
*Meta-MTD 8 finished*
*Meta-MTD 9 finished*
*Meta-MTD 10 finished*
*Meta-MTD 5 finished*
 
-----------------------
Multilevel Optimization
-----------------------
 
 -------------------------
 1. crude pre-optimization
 -------------------------
 Optimizing all 60 structures from file "crest_rotamers_0.xyz" ...
 1 2 3 4 5 6 7 8 9 10 11 12 13 14 15 16 17 18 19 20 21 22 23 24 25 26 27 28 29 30 31 32 33 34 35 36 37 38 39 40 41 42 43 44 45 46 47 48 49 50 51 52 53 54 55 56 57 58 59 60
 done.
 running RMSDs...
 done.
 E lowest :   -98.43596
 53 structures remain within    12.00 kcal/mol window
 
 -------------------------------------
 2. optimization with tight thresholds
 -------------------------------------
 Optimizing all 54 structures from file "crest_rotamers_1.xyz" ...
 1 2 3 4 5 6 7 8 9 10 11 12 13 14 15 16 17 18 19 20 21 22 23 24 25 26 27 28 29 30 31 32 33 34 35 36 37 38 39 40 41 42 43 44 45 46 47 48 49 50 51 52 53 54
 done.
 running RMSDs...
 done.
 E lowest :   -98.43675
 20 structures remain within     6.00 kcal/mol window
 
========================================
            MTD Iterations done         
========================================
 Collecting ensmbles.
 running RMSDs...
 done.
 E lowest :   -98.43675
 20 structures remain within     6.00 kcal/mol window
 
 -------------------------------
 Additional orientation sampling
 -------------------------------
 Optimizing all 36 structures from file "oh_ensemble.xyz" ...
 1 2 3 4 5 6 7 8 9 10 11 12 13 14 15 16 17 18 19 20 21 22 23 24 25 26 27 28 29 30 31 32 33 34 35 36
 done.
 running RMSDs...
 done.
 E lowest :   -98.43675
 52 structures remain within     6.00 kcal/mol window
 
-----------------------------------------------
Additional regular MDs on lowest 4 conformer(s)
-----------------------------------------------
Starting MD   1 with the settings:
     MD time /ps        :     0.2
     MD Temperature /K  :   400.0
     dt /fs             :     1.5
     dumpstep(trj) /fs  :     100
Starting MD   2 with the settings:
     MD time /ps        :     0.2
     MD Temperature /K  :   500.0
     dt /fs             :     1.5
     dumpstep(trj) /fs  :     100
Starting MD   3 with the settings:
     MD time /ps        :     0.2
     MD Temperature /K  :   400.0
     dt /fs             :     1.5
     dumpstep(trj) /fs  :     100
Starting MD   4 with the settings:
     MD time /ps        :     0.2
     MD Temperature /K  :   500.0
     dt /fs             :     1.5
     dumpstep(trj) /fs  :     100
Starting MD   5 with the settings:
     MD time /ps        :     0.2
     MD Temperature /K  :   400.0
     dt /fs             :     1.5
     dumpstep(trj) /fs  :     100
Starting MD   6 with the settings:
     MD time /ps        :     0.2
     MD Temperature /K  :   500.0
     dt /fs             :     1.5
     dumpstep(trj) /fs  :     100
Starting MD   7 with the settings:
     MD time /ps        :     0.2
     MD Temperature /K  :   400.0
     dt /fs             :     1.5
     dumpstep(trj) /fs  :     100
Starting MD   8 with the settings:
     MD time /ps        :     0.2
     MD Temperature /K  :   500.0
     dt /fs             :     1.5
     dumpstep(trj) /fs  :     100
*MD 4 finished*
*MD 5 finished*
*MD 2 finished*
*MD 7 finished*
*MD 8 finished*
*MD 6 finished*
*MD 1 finished*
*MD 3 finished*
 Appending file crest_rotamers_2.xyz with new structures
 
 -------------------------------------------
 Ensemble optimization with tight thresholds
 -------------------------------------------
 Optimizing all 68 structures from file "crest_rotamers_2.xyz" ...
 1 2 3 4 5 6 7 8 9 10 11 12 13 14 15 16 17 18 19 20 21 22 23 24 25 26 27 28 29 30 31 32 33 34 35 36 37 38 39 40 41 42 43 44 45 46 47 48 49 50 51 52 53 54 55 56 57 58 59 60 61 62 63 64 65 66 67 68
 done.
 running RMSDs...
 done.
 E lowest :   -98.43675
 52 structures remain within     6.00 kcal/mol window
 
 
     ========================================
     |        Structure Crossing (GC)       |
     ========================================
 =============================
  # threads =          28
 =============================
 input  file name : crest_rotamers_4.xyz
number of atoms                :    64
number of points on xyz files  :    52
conformer energy window  /kcal :    6.00
CN per atom difference cut-off :  0.3000
RMSD threshold                 :  0.5000
max. # of generated structures : 25
 reading xyz file ...
 # in E window                 52
 generating pairs ...        1377
 generated pairs           :        1064
 number of clash discarded :         262
 average rmsd w.r.t input  : 3.20498
 sd of ensemble            : 1.17729
 number of new structures      :           3
 removed identical structures  :          47
 writing            3  TMPCONF* dirs ...
 --------------------------
 GC: loose pre-optimization
 --------------------------
 Starting optimization of generated structures
 3 jobs to do.
 1 2 3 
 done.
 Now appending opt.xyz file with new structures
 running RMSDs...
 done.
 E lowest :   -98.43579
 3 structures remain within    10.00 kcal/mol window
 --------------------------------------
 GC: optimization with tight thresholds
 --------------------------------------
 Optimizing all 3 structures from file "crest_rotamers_1.xyz" ...
 1 2 3
 done.
 running RMSDs...
 done.
 E lowest :   -98.43675
 
 
   ================================================
   |           Final Geometry Optimization        |
   ================================================
 ------------------------------------------------
 Ensemble optimization with very tight thresholds
 ------------------------------------------------
 Optimizing all 54 structures from file "crest_rotamers_5.xyz" ...
 1 2 3 4 5 6 7 8 9 10 11 12 13 14 15 16 17 18 19 20 21 22 23 24 25 26 27 28 29 30 31 32 33 34 35 36 37 38 39 40 41 42 43 44 45 46 47 48 49 50 51 52 53 54
 done.
 running RMSDs...
 done.
 E lowest :   -98.43675
 52 structures remain within     6.00 kcal/mol window
 
 input  file name : crest_rotamers_6.xyz
 output file name : crest_rotamers_7.xyz
 number of atoms                :   64
 number of points on xyz files  :   54
 RMSD threshold                 :   0.2500
 Bconst threshold               :   0.0100
 population threshold           :   0.0500
 conformer energy window  /kcal :   6.0000
 # fragment in coord            :     1
 # bonds in reference structure :    69
   => # of C=C bonds :    14
 number of reliable points      :    54
 reference state Etot :  -98.4367536300000
 number of doubles removed by rot/RMSD         :           2
 total number unique points considered further :          52
       Erel/kcal        Etot weight/tot  conformer     set   degen     origin
       1   0.000   -98.43675    0.04553    0.04553       1       1     input
       2   0.008   -98.43674    0.04495    0.04495       2       1     md3
       3   0.056   -98.43666    0.04145    0.04145       3       1     mtd5
       4   0.059   -98.43666    0.04119    0.04119       4       1     md7
       5   0.065   -98.43665    0.04080    0.08129       5       2     mtd10
       6   0.070   -98.43664    0.04049                                mtd1
       7   0.091   -98.43661    0.03905    0.03905       6       1     gc
       8   0.152   -98.43651    0.03523    0.07024       7       2     mtd4
       9   0.156   -98.43651    0.03501                                mtd3
      10   0.158   -98.43650    0.03488    0.03488       8       1     mtd10
      11   0.161   -98.43650    0.03471    0.03471       9       1     mtd8
      12   0.180   -98.43647    0.03363    0.03363      10       1     mtd7
      13   0.209   -98.43642    0.03200    0.03200      11       1     mtd12
      14   0.214   -98.43641    0.03172    0.03172      12       1     mtd11
      15   0.263   -98.43633    0.02920    0.02920      13       1     mtd5
      16   0.269   -98.43633    0.02895    0.02895      14       1     mtd8
      17   0.272   -98.43632    0.02876    0.02876      15       1     mtd7
      18   0.287   -98.43630    0.02808    0.02808      16       1     mtd11
      19   0.474   -98.43600    0.02046    0.02046      17       1     mtd1
      20   0.509   -98.43594    0.01930    0.01930      18       1     hor
      21   0.676   -98.43568    0.01457    0.01457      19       1     hor
      22   0.682   -98.43567    0.01442    0.01442      20       1     hor
      23   0.685   -98.43566    0.01435    0.01435      21       1     gc
      24   0.768   -98.43553    0.01247    0.01247      22       1     hor
      25   0.828   -98.43543    0.01127    0.01127      23       1     hor
      26   0.829   -98.43543    0.01125    0.01125      24       1     hor
      27   0.841   -98.43541    0.01102    0.01102      25       1     hor
      28   0.846   -98.43540    0.01093    0.01093      26       1     hor
      29   0.847   -98.43540    0.01091    0.01091      27       1     hor
      30   0.860   -98.43538    0.01067    0.01067      28       1     hor
      31   0.862   -98.43538    0.01064    0.01064      29       1     hor
      32   0.894   -98.43533    0.01008    0.01008      30       1     hor
      33   0.900   -98.43532    0.00998    0.00998      31       1     hor
      34   0.900   -98.43532    0.00998    0.00998      32       1     hor
      35   0.902   -98.43532    0.00996    0.00996      33       1     hor
      36   0.925   -98.43528    0.00957    0.00957      34       1     hor
      37   0.927   -98.43528    0.00954    0.00954      35       1     hor
      38   0.954   -98.43523    0.00911    0.00911      36       1     hor
      39   0.959   -98.43522    0.00903    0.00903      37       1     hor
      40   0.971   -98.43521    0.00885    0.00885      38       1     hor
      41   0.984   -98.43518    0.00866    0.01728      39       2     hor
      42   0.987   -98.43518    0.00863                                hor
      43   0.988   -98.43518    0.00861    0.00861      40       1     hor
      44   0.986   -98.43518    0.00863    0.00863      41       1     hor
      45   0.989   -98.43518    0.00859    0.00859      42       1     hor
      46   1.014   -98.43514    0.00824    0.00824      43       1     hor
      47   1.024   -98.43512    0.00810    0.00810      44       1     hor
      48   1.034   -98.43511    0.00796    0.00796      45       1     hor
      49   1.088   -98.43502    0.00727    0.00727      46       1     hor
      50   1.094   -98.43501    0.00720    0.00720      47       1     hor
      51   1.097   -98.43501    0.00716    0.00716      48       1     hor
      52   1.111   -98.43498    0.00700    0.00700      49       1     hor
T /K                                  :   298.15
E lowest                              :   -98.43675
ensemble average energy (kcal)        :    0.389
ensemble entropy (J/mol K, cal/mol K) :   31.137    7.442
ensemble free energy (kcal/mol)       :   -2.219
population of lowest in %             :    4.553
 number of unique conformers for further calc           49
 list of relative energies saved as "crest.energies"
 
 -----------------
 Wall Time Summary
 -----------------
             test MD wall time :         0h : 0m :34s
                 MTD wall time :         0h : 2m : 2s
      multilevel OPT wall time :         0h : 2m :38s
                  MD wall time :         0h : 0m :47s
                  GC wall time :         0h : 0m : 4s
--------------------
Overall wall time  : 0h : 6m :20s
 
 CREST terminated normally.
