 
       ==============================================
       |                                            |
       |                 C R E S T                  |
       |                                            |
       |  Conformer-Rotamer Ensemble Sampling Tool  |
       |          based on the GFN methods          |
       |             P.Pracht, S.Grimme             |
       |          Universitaet Bonn, MCTC           |
       ==============================================
       Version 2.11.2, Fr 17. Dec 12:10:44 CEST 2021
  Using the xTB program. Compatible with xTB version 6.4.0
 
   Cite work conducted with this code as

   P. Pracht, F. Bohle, S. Grimme, PCCP, 2020, 22, 7169-7192.

   and  S. Grimme, JCTC, 2019, 15, 2847-2862.
 
   with help from:
   C.Bannwarth, F.Bohle, S.Ehlert, S.Grimme,
   C. Plett, P.Pracht, S. Spicher
 
   This program is distributed in the hope that it will be useful,
   but WITHOUT ANY WARRANTY; without even the implied warranty of
   MERCHANTABILITY or FITNESS FOR A PARTICULAR PURPOSE.

 Command line input:
 > crest 00223_r_0.xyz -T 28 -gfn2 -chrg 0 -uhf 0 -rthr 0.25 -shake 1 --mdlen 0.5

  -T 28 (CPUs/Threads selected)
  -gfn2 : Use of GFN2-xTB requested.
  -chrg 0
  -uhf 0
  -rthr 0.25
  --mdlen 0.5 (MD length in ps)
 
 -------------------------
 xTB Geometry Optimization
 -------------------------
 Geometry successfully optimized.
 
------------------------------------------------
Generating MTD length from a flexibility measure
------------------------------------------------
      -----------------------------------------------------------      
     |                   =====================                   |     
     |                           x T B                           |     
     |                   =====================                   |     
     |                         S. Grimme                         |     
     |          Mulliken Center for Theoretical Chemistry        |     
     |                    University of Bonn                     |     
      -----------------------------------------------------------      

   * xtb version 6.4.1 (afa7bdf) compiled by 'ehlert@majestix' on 2021-06-10

   xtb is free software: you can redistribute it and/or modify it under
   the terms of the GNU Lesser General Public License as published by
   the Free Software Foundation, either version 3 of the License, or
   (at your option) any later version.
   
   xtb is distributed in the hope that it will be useful,
   but WITHOUT ANY WARRANTY; without even the implied warranty of
   MERCHANTABILITY or FITNESS FOR A PARTICULAR PURPOSE.  See the
   GNU Lesser General Public License for more details.
   
   Cite this work as:
   * C. Bannwarth, E. Caldeweyher, S. Ehlert, A. Hansen, P. Pracht,
     J. Seibert, S. Spicher, S. Grimme, WIREs Comput. Mol. Sci., 2020, 11,
     e01493. DOI: 10.1002/wcms.1493
   
   for GFN2-xTB:
   * C. Bannwarth, S. Ehlert and S. Grimme., J. Chem. Theory Comput., 2019,
     15, 1652-1671. DOI: 10.1021/acs.jctc.8b01176
   for GFN1-xTB:
   * S. Grimme, C. Bannwarth, P. Shushkov, J. Chem. Theory Comput., 2017,
     13, 1989-2009. DOI: 10.1021/acs.jctc.7b00118
   for GFN0-xTB:
   * P. Pracht, E. Caldeweyher, S. Ehlert, S. Grimme, ChemRxiv, 2019, preprint.
     DOI: 10.26434/chemrxiv.8326202.v1
   for GFN-FF:
   * S. Spicher and S. Grimme, Angew. Chem. Int. Ed., 2020, 59, 15665-15673.
     DOI: 10.1002/anie.202004239
   
   for DFT-D4:
   * E. Caldeweyher, C. Bannwarth and S. Grimme, J. Chem. Phys., 2017,
     147, 034112. DOI: 10.1063/1.4993215
   * E. Caldeweyher, S. Ehlert, A. Hansen, H. Neugebauer, S. Spicher,
     C. Bannwarth and S. Grimme, J. Chem. Phys., 2019, 150, 154122.
     DOI: 10.1063/1.5090222
   * E. Caldeweyher, J.-M. Mewes, S. Ehlert and S. Grimme, Phys. Chem. Chem. Phys.
     2020, 22, 8499-8512. DOI: 10.1039/D0CP00502A
   
   for sTDA-xTB:
   * S. Grimme and C. Bannwarth, J. Chem. Phys., 2016, 145, 054103.
     DOI: 10.1063/1.4959605
   
   in the mass-spec context:
   * V. Asgeirsson, C. Bauer and S. Grimme, Chem. Sci., 2017, 8, 4879.
     DOI: 10.1039/c7sc00601b
   * J. Koopman and S. Grimme, ACS Omega 2019, 4, 12, 15120-15133.
     DOI: 10.1021/acsomega.9b02011
   
   for metadynamics refer to:
   * S. Grimme, J. Chem. Theory Comput., 2019, 155, 2847-2862
     DOI: 10.1021/acs.jctc.9b00143
   
   for SPH calculations refer to:
   * S. Spicher and S. Grimme, J. Chem. Theory Comput., 2021, 17, 1701-1714
     DOI: 10.1021/acs.jctc.0c01306
   
   with help from (in alphabetical order)
   P. Atkinson, C. Bannwarth, F. Bohle, G. Brandenburg, E. Caldeweyher
   M. Checinski, S. Dohm, S. Ehlert, S. Ehrlich, I. Gerasimov, J. Koopman
   C. Lavigne, S. Lehtola, F. März, M. Müller, F. Musil, H. Neugebauer
   J. Pisarek, C. Plett, P. Pracht, J. Seibert, P. Shushkov, S. Spicher
   M. Stahn, M. Steiner, T. Strunk, J. Stückrath, T. Rose, and J. Unsleber
   
 * started run on 2025/01/21 at 11:20:07.439     

           -------------------------------------------------
          |                Calculation Setup                |
           -------------------------------------------------

          program call               : xtb tmpcoord --gfn0 --sp
          hostname                   : node88
          coordinate file            : tmpcoord
          omp threads                :                    28
          number of atoms            :                    68
          number of electrons        :                   206
          charge                     :                     0
          spin                       :                   0.0
          first test random number   :      0.59624593503815

   ID    Z sym.   atoms
    1    8 o      1, 10, 13, 24, 32, 35
    2    6 c      2-9, 11, 12, 14-23, 25-31, 33, 34, 36-42
    3    1 h      43-68
########################################################################
[WARNING] Please study the warnings concerning your input carefully
-1- prog_main_parseArguments: The use of '--gfn0' is discouraged, please use '--gfn 0' next time
########################################################################

           -------------------------------------------------
          |                 G F N 0 - x T B                 |
           -------------------------------------------------

        Reference                      10.26434/chemrxiv.8326202.v1
      * Hamiltonian:
        H0-scaling (s, p, d)           2.000000    2.486800    2.270000
        zeta-weighting                 1.000000
      * Dispersion:
        s8                             2.850000
        a1                             0.800000
        a2                             4.600000
        s9                             0.000000
      * Repulsion:
        kExp                           1.500000
        rExp                           1.000000
      * Coulomb:
        alpha                          0.000000
        third order                    atomic
        anisotropic                    false
      * Polar bond correction:
        rad-shift                      0.053700
        strength                      -0.012900
        en-exp                         3.484700
        en-scale                       0.509700


          ...................................................
          :                      SETUP                      :
          :.................................................:
          :  # basis functions                 220          :
          :  # atomic orbitals                 220          :
          :  # shells                          136          :
          :  # electrons                       206          :
          :  electronic temp.          300.0000000     K    :
          :  accuracy                    1.0000000          :
          :  -> integral cutoff          0.2500000E+02      :
          :  -> integral neglect         0.1000000E-07      :
          ...................................................
  Checking positiv definite overlap ...  done.
 

         #    Occupation            Energy/Eh            Energy/eV
      -------------------------------------------------------------
         1        2.0000           -0.6955712             -18.9275
       ...           ...                  ...                  ...
        97        2.0000           -0.4156978             -11.3117
        98        2.0000           -0.4034075             -10.9773
        99        2.0000           -0.4021689             -10.9436
       100        2.0000           -0.3971706             -10.8076
       101        2.0000           -0.3873579             -10.5405
       102        2.0000           -0.3829095             -10.4195
       103        2.0000           -0.3827284             -10.4146 (HOMO)
       104                         -0.3024540              -8.2302 (LUMO)
       105                         -0.2969169              -8.0795
       106                         -0.2712103              -7.3800
       107                         -0.2705044              -7.3608
       108                         -0.2538681              -6.9081
       ...                                ...                  ...
       220                          0.6545543              17.8113
      -------------------------------------------------------------
                  HL-Gap            0.0802744 Eh            2.1844 eV
             Fermi-level            0.0000000 Eh            0.0000 eV

 EHT (total)                   0 d,  0 h,  0 min,  0.047 sec
 EHT setup                      ...        0 min,  0.001 sec (  2.995%)
 Coordination number            ...        0 min,  0.001 sec (  1.909%)
 EEQ model density              ...        0 min,  0.001 sec (  1.447%)
 D4 Dispersion                  ...        0 min,  0.003 sec (  5.776%)
 Integral evaluation            ...        0 min,  0.001 sec (  2.679%)
 Cholesky factorization         ...        0 min,  0.009 sec ( 18.955%)
 Zeroth order Hamiltonian       ...        0 min,  0.027 sec ( 58.235%)
 Gradient calculation           ...        0 min,  0.003 sec (  6.338%)

         :::::::::::::::::::::::::::::::::::::::::::::::::::::
         ::                     SUMMARY                     ::
         :::::::::::::::::::::::::::::::::::::::::::::::::::::
         :: total energy            -109.763148659732 Eh    ::
         :: gradient norm              0.067133630282 Eh/a0 ::
         :: HOMO-LUMO gap              2.184377654529 eV    ::
         ::.................................................::
         :: H0 energy               -111.153843219566 Eh    ::
         :: repulsion energy           1.729844164794 Eh    ::
         :: electrostat energy        -0.161958450159 Eh    ::
         :: -> Gsolv                   0.000000000000 Eh    ::
         ::    -> Gsasa                0.000000000000 Eh    ::
         ::    -> Gshift               0.000000000000 Eh    ::
         :: dispersion energy         -0.050641748715 Eh    ::
         :: short-range corr.         -0.126549406086 Eh    ::
         :: add. restraining           0.000000000000 Eh    ::
         :: total charge               0.000000000000 e     ::
         :::::::::::::::::::::::::::::::::::::::::::::::::::::

           -------------------------------------------------
          |                Property Printout                |
           -------------------------------------------------

    * Orbital Energies and Occupations

         #    Occupation            Energy/Eh            Energy/eV
      -------------------------------------------------------------
         1        2.0000           -0.6955712             -18.9275
       ...           ...                  ...                  ...
        91        2.0000           -0.4461842             -12.1413
        92        2.0000           -0.4441304             -12.0854
        93        2.0000           -0.4418324             -12.0229
        94        2.0000           -0.4296941             -11.6926
        95        2.0000           -0.4264296             -11.6037
        96        2.0000           -0.4184944             -11.3878
        97        2.0000           -0.4156978             -11.3117
        98        2.0000           -0.4034075             -10.9773
        99        2.0000           -0.4021689             -10.9436
       100        2.0000           -0.3971706             -10.8076
       101        2.0000           -0.3873579             -10.5405
       102        2.0000           -0.3829095             -10.4195
       103        2.0000           -0.3827284             -10.4146 (HOMO)
       104                         -0.3024540              -8.2302 (LUMO)
       105                         -0.2969169              -8.0795
       106                         -0.2712103              -7.3800
       107                         -0.2705044              -7.3608
       108                         -0.2538681              -6.9081
       109                         -0.2523245              -6.8661
       110                         -0.2491999              -6.7811
       111                         -0.2486306              -6.7656
       112                         -0.2361783              -6.4267
       113                         -0.2256776              -6.1410
       114                         -0.1854999              -5.0477
       ...                                ...                  ...
       220                          0.6545543              17.8113
      -------------------------------------------------------------
                  HL-Gap            0.0802744 Eh            2.1844 eV
             Fermi-level            0.0000000 Eh            0.0000 eV

     #   Z          covCN         q      C6AA      α(0)
     1   8 o        1.659    -0.553    23.880     6.610
     2   6 c        2.849     0.233    24.419     8.073
     3   6 c        2.971     0.028    28.831     8.780
     4   6 c        2.976     0.024    28.929     8.795
     5   6 c        2.924    -0.112    32.502     9.320
     6   6 c        2.918    -0.100    32.149     9.269
     7   6 c        2.919    -0.160    33.868     9.513
     8   6 c        2.882     0.196    25.147     8.195
     9   6 c        2.890     0.148    26.149     8.357
    10   8 o        1.704    -0.358    19.868     6.031
    11   6 c        3.716     0.041    22.369     6.836
    12   6 c        3.712     0.039    22.409     6.843
    13   8 o        1.704    -0.367    20.041     6.057
    14   6 c        2.924    -0.181    34.491     9.601
    15   6 c        2.985     0.066    27.926     8.642
    16   6 c        2.920    -0.127    32.901     9.376
    17   6 c        2.915    -0.086    31.775     9.214
    18   6 c        2.917    -0.089    31.852     9.226
    19   6 c        2.918    -0.116    32.605     9.334
    20   6 c        2.988     0.032    28.726     8.764
    21   6 c        2.973    -0.040    30.542     9.037
    22   6 c        2.973    -0.055    30.922     9.093
    23   6 c        2.850     0.208    24.898     8.152
    24   8 o        1.660    -0.524    23.242     6.521
    25   6 c        2.971    -0.001    29.555     8.890
    26   6 c        2.976    -0.019    29.991     8.955
    27   6 c        2.922    -0.135    33.141     9.411
    28   6 c        2.918    -0.095    32.014     9.249
    29   6 c        2.919    -0.164    33.980     9.529
    30   6 c        2.883     0.199    25.090     8.186
    31   6 c        2.888     0.139    26.327     8.386
    32   8 o        1.704    -0.357    19.866     6.030
    33   6 c        3.713     0.039    22.419     6.845
    34   6 c        3.714     0.039    22.414     6.844
    35   8 o        1.704    -0.368    20.056     6.059
    36   6 c        2.924    -0.186    34.633     9.620
    37   6 c        2.985     0.069    27.858     8.631
    38   6 c        2.919    -0.130    32.997     9.390
    39   6 c        2.915    -0.086    31.788     9.216
    40   6 c        2.917    -0.088    31.838     9.224
    41   6 c        2.918    -0.121    32.734     9.353
    42   6 c        2.988     0.022    28.971     8.802
    43   1 h        0.805     0.348     0.594     1.210
    44   1 h        0.926     0.139     1.466     1.893
    45   1 h        0.926     0.108     1.715     2.048
    46   1 h        0.926     0.135     1.497     1.913
    47   1 h        0.923     0.085     1.929     2.172
    48   1 h        0.924     0.066     2.132     2.284
    49   1 h        0.923     0.076     2.022     2.224
    50   1 h        0.924     0.066     2.129     2.282
    51   1 h        0.926     0.142     1.445     1.880
    52   1 h        0.926     0.104     1.749     2.068
    53   1 h        0.926     0.096     1.817     2.108
    54   1 h        0.926     0.098     1.806     2.101
    55   1 h        0.926     0.121     1.608     1.983
    56   1 h        0.805     0.311     0.688     1.303
    57   1 h        0.926     0.112     1.676     2.025
    58   1 h        0.926     0.104     1.747     2.067
    59   1 h        0.926     0.135     1.499     1.915
    60   1 h        0.923     0.088     1.902     2.156
    61   1 h        0.924     0.078     2.004     2.214
    62   1 h        0.924     0.068     2.109     2.271
    63   1 h        0.923     0.081     1.973     2.197
    64   1 h        0.926     0.123     1.586     1.969
    65   1 h        0.926     0.102     1.765     2.077
    66   1 h        0.926     0.096     1.823     2.111
    67   1 h        0.926     0.097     1.814     2.106
    68   1 h        0.926     0.116     1.646     2.006

 Mol. C6AA /au·bohr⁶  :      65338.943822
 Mol. C8AA /au·bohr⁸  :    1655558.088776
 Mol. α(0) /au        :        404.842626


Wiberg/Mayer (AO) data.
largest (>0.10) Wiberg bond orders for each atom

 ---------------------------------------------------------------------------
     #   Z sym  total        # sym  WBO       # sym  WBO       # sym  WBO
 ---------------------------------------------------------------------------
     1   8 o    2.313 --     2 c    1.134    43 h    0.965
     2   6 c    3.942 --    21 c    1.412     3 c    1.211     1 o    1.134
     3   6 c    3.976 --    14 c    1.519     2 c    1.211     4 c    1.032
     4   6 c    3.973 --     5 c    1.383     9 c    1.333     3 c    1.032
     5   6 c    3.978 --     6 c    1.433     4 c    1.383    44 h    0.968
     6   6 c    3.983 --     5 c    1.433     7 c    1.428    45 h    0.972
     7   6 c    3.978 --     6 c    1.428     8 c    1.376    46 h    0.968
     8   6 c    3.944 --     7 c    1.376     9 c    1.293    13 o    1.082
     9   6 c    3.941 --     4 c    1.333     8 c    1.293    10 o    1.081
    10   8 o    2.307 --     9 c    1.081    11 c    0.977
    11   6 c    3.955 --    12 c    0.999    10 o    0.977    48 h    0.974
                            47 h    0.969
    12   6 c    3.955 --    11 c    0.999    13 o    0.977    50 h    0.974
                            49 h    0.969
    13   8 o    2.300 --     8 c    1.082    12 c    0.977
    14   6 c    3.983 --     3 c    1.519    15 c    1.270    51 h    0.964
    15   6 c    3.978 --    16 c    1.281    14 c    1.270    20 c    1.242
    16   6 c    3.980 --    17 c    1.550    15 c    1.281    52 h    0.969
                            19 c    0.115
    17   6 c    3.975 --    16 c    1.550    18 c    1.321    53 h    0.972
    18   6 c    3.982 --    19 c    1.554    17 c    1.321    54 h    0.972
    19   6 c    3.987 --    18 c    1.554    20 c    1.274    55 h    0.966
                            16 c    0.115
    20   6 c    3.977 --    19 c    1.274    21 c    1.249    15 c    1.242
    21   6 c    3.964 --     2 c    1.412    20 c    1.249    22 c    1.009
    22   6 c    3.966 --    23 c    1.406    42 c    1.250    21 c    1.009
    23   6 c    3.940 --    22 c    1.406    25 c    1.214    24 o    1.124
    24   8 o    2.305 --    23 c    1.124    56 h    0.970
    25   6 c    3.975 --    36 c    1.523    23 c    1.214    26 c    1.020
    26   6 c    3.973 --    27 c    1.389    31 c    1.330    25 c    1.020
    27   6 c    3.979 --    28 c    1.429    26 c    1.389    57 h    0.969
    28   6 c    3.983 --    29 c    1.430    27 c    1.429    58 h    0.972
    29   6 c    3.979 --    28 c    1.430    30 c    1.373    59 h    0.968
    30   6 c    3.945 --    29 c    1.373    31 c    1.292    35 o    1.086
    31   6 c    3.941 --    26 c    1.330    30 c    1.292    32 o    1.077
    32   8 o    2.306 --    31 c    1.077    33 c    0.976
    33   6 c    3.955 --    34 c    1.000    32 o    0.976    61 h    0.974
                            60 h    0.970
    34   6 c    3.955 --    33 c    1.000    35 o    0.975    62 h    0.974
                            63 h    0.969
    35   8 o    2.304 --    30 c    1.086    34 c    0.975
    36   6 c    3.983 --    25 c    1.523    37 c    1.269    64 h    0.965
    37   6 c    3.978 --    38 c    1.281    36 c    1.269    42 c    1.243
    38   6 c    3.980 --    39 c    1.551    37 c    1.281    65 h    0.969
                            41 c    0.115
    39   6 c    3.975 --    38 c    1.551    40 c    1.319    66 h    0.972
    40   6 c    3.983 --    41 c    1.555    39 c    1.319    67 h    0.973
    41   6 c    3.987 --    40 c    1.555    42 c    1.274    68 h    0.966
                            38 c    0.115
    42   6 c    3.977 --    41 c    1.274    22 c    1.250    37 c    1.243
    43   1 h    0.995 --     1 o    0.965
    44   1 h    0.989 --     5 c    0.968
    45   1 h    0.983 --     6 c    0.972
    46   1 h    0.986 --     7 c    0.968
    47   1 h    0.993 --    11 c    0.969
    48   1 h    1.000 --    11 c    0.974
    49   1 h    0.994 --    12 c    0.969
    50   1 h    1.000 --    12 c    0.974
    51   1 h    0.982 --    14 c    0.964
    52   1 h    0.978 --    16 c    0.969
    53   1 h    0.983 --    17 c    0.972
    54   1 h    0.983 --    18 c    0.972
    55   1 h    0.979 --    19 c    0.966
    56   1 h    0.989 --    24 o    0.970
    57   1 h    0.981 --    27 c    0.969
    58   1 h    0.983 --    28 c    0.972
    59   1 h    0.986 --    29 c    0.968
    60   1 h    0.993 --    33 c    0.970
    61   1 h    1.000 --    33 c    0.974
    62   1 h    1.000 --    34 c    0.974
    63   1 h    0.994 --    34 c    0.969
    64   1 h    0.975 --    36 c    0.965
    65   1 h    0.978 --    38 c    0.969
    66   1 h    0.983 --    39 c    0.972
    67   1 h    0.984 --    40 c    0.973
    68   1 h    0.979 --    41 c    0.966
 ---------------------------------------------------------------------------

Topologies differ in total number of bonds
Writing topology from bond orders to xtbtopo.mol

 dipole moment from electron density (au)
     X       Y       Z   
   0.1630  -2.9548   0.1311  total (Debye):    7.529


           -------------------------------------------------
          | TOTAL ENERGY             -109.763148659732 Eh   |
          | GRADIENT NORM               0.067133630282 Eh/α |
          | HOMO-LUMO GAP               2.184377654529 eV   |
           -------------------------------------------------

------------------------------------------------------------------------
 * finished run on 2025/01/21 at 11:20:07.596     
------------------------------------------------------------------------
 total:
 * wall-time:     0 d,  0 h,  0 min,  0.156 sec
 *  cpu-time:     0 d,  0 h,  0 min,  3.640 sec
 * ratio c/w:    23.332 speedup
 SCF:
 * wall-time:     0 d,  0 h,  0 min,  0.048 sec
 *  cpu-time:     0 d,  0 h,  0 min,  1.174 sec
 * ratio c/w:    24.679 speedup

 Calculating WBOs... done.
      -----------------------------------------------------------      
     |                   =====================                   |     
     |                           x T B                           |     
     |                   =====================                   |     
     |                         S. Grimme                         |     
     |          Mulliken Center for Theoretical Chemistry        |     
     |                    University of Bonn                     |     
      -----------------------------------------------------------      

   * xtb version 6.4.1 (afa7bdf) compiled by 'ehlert@majestix' on 2021-06-10

   xtb is free software: you can redistribute it and/or modify it under
   the terms of the GNU Lesser General Public License as published by
   the Free Software Foundation, either version 3 of the License, or
   (at your option) any later version.
   
   xtb is distributed in the hope that it will be useful,
   but WITHOUT ANY WARRANTY; without even the implied warranty of
   MERCHANTABILITY or FITNESS FOR A PARTICULAR PURPOSE.  See the
   GNU Lesser General Public License for more details.
   
   Cite this work as:
   * C. Bannwarth, E. Caldeweyher, S. Ehlert, A. Hansen, P. Pracht,
     J. Seibert, S. Spicher, S. Grimme, WIREs Comput. Mol. Sci., 2020, 11,
     e01493. DOI: 10.1002/wcms.1493
   
   for GFN2-xTB:
   * C. Bannwarth, S. Ehlert and S. Grimme., J. Chem. Theory Comput., 2019,
     15, 1652-1671. DOI: 10.1021/acs.jctc.8b01176
   for GFN1-xTB:
   * S. Grimme, C. Bannwarth, P. Shushkov, J. Chem. Theory Comput., 2017,
     13, 1989-2009. DOI: 10.1021/acs.jctc.7b00118
   for GFN0-xTB:
   * P. Pracht, E. Caldeweyher, S. Ehlert, S. Grimme, ChemRxiv, 2019, preprint.
     DOI: 10.26434/chemrxiv.8326202.v1
   for GFN-FF:
   * S. Spicher and S. Grimme, Angew. Chem. Int. Ed., 2020, 59, 15665-15673.
     DOI: 10.1002/anie.202004239
   
   for DFT-D4:
   * E. Caldeweyher, C. Bannwarth and S. Grimme, J. Chem. Phys., 2017,
     147, 034112. DOI: 10.1063/1.4993215
   * E. Caldeweyher, S. Ehlert, A. Hansen, H. Neugebauer, S. Spicher,
     C. Bannwarth and S. Grimme, J. Chem. Phys., 2019, 150, 154122.
     DOI: 10.1063/1.5090222
   * E. Caldeweyher, J.-M. Mewes, S. Ehlert and S. Grimme, Phys. Chem. Chem. Phys.
     2020, 22, 8499-8512. DOI: 10.1039/D0CP00502A
   
   for sTDA-xTB:
   * S. Grimme and C. Bannwarth, J. Chem. Phys., 2016, 145, 054103.
     DOI: 10.1063/1.4959605
   
   in the mass-spec context:
   * V. Asgeirsson, C. Bauer and S. Grimme, Chem. Sci., 2017, 8, 4879.
     DOI: 10.1039/c7sc00601b
   * J. Koopman and S. Grimme, ACS Omega 2019, 4, 12, 15120-15133.
     DOI: 10.1021/acsomega.9b02011
   
   for metadynamics refer to:
   * S. Grimme, J. Chem. Theory Comput., 2019, 155, 2847-2862
     DOI: 10.1021/acs.jctc.9b00143
   
   for SPH calculations refer to:
   * S. Spicher and S. Grimme, J. Chem. Theory Comput., 2021, 17, 1701-1714
     DOI: 10.1021/acs.jctc.0c01306
   
   with help from (in alphabetical order)
   P. Atkinson, C. Bannwarth, F. Bohle, G. Brandenburg, E. Caldeweyher
   M. Checinski, S. Dohm, S. Ehlert, S. Ehrlich, I. Gerasimov, J. Koopman
   C. Lavigne, S. Lehtola, F. März, M. Müller, F. Musil, H. Neugebauer
   J. Pisarek, C. Plett, P. Pracht, J. Seibert, P. Shushkov, S. Spicher
   M. Stahn, M. Steiner, T. Strunk, J. Stückrath, T. Rose, and J. Unsleber
   
 * started run on 2025/01/21 at 11:20:07.640     

           -------------------------------------------------
          |                Calculation Setup                |
           -------------------------------------------------

          program call               : xtb tmpcoord --gfnff --sp
          hostname                   : node88
          coordinate file            : tmpcoord
          omp threads                :                    28
          number of atoms            :                    68
          number of electrons        :                   206
          charge                     :                     0
          spin                       :                   0.0
          first test random number   :      0.28667948924366

   ID    Z sym.   atoms
    1    8 o      1, 10, 13, 24, 32, 35
    2    6 c      2-9, 11, 12, 14-23, 25-31, 33, 34, 36-42
    3    1 h      43-68
 
          ==================== Thresholds ====================
          CN  :   150.00000
          rep :   500.00000
          disp:  2500.00000
          HB1 :   250.00000
          HB2 :   450.00000
 
          Pauling EN used:
          Z : 1  EN :  2.20
          Z : 6  EN :  2.55
          Z : 8  EN :  3.44
          electric field strengths (au): 0.000
 
           ------------------------------------------------- 
          |           Force Field Initialization            |
           ------------------------------------------------- 
 
          distances ...
          ----------------------------------------
          generating topology and atomic info file ...
          pair mat ...
          computing topology distances matrix with Floyd-Warshall algo ...
          making topology EEQ charges ...
          #fragments for EEQ constrain: 1
          ----------------------------------------
          generating topology and atomic info file ...
          pair mat ...
          computing topology distances matrix with Floyd-Warshall algo ...
          making topology EEQ charges ...
          #fragments for EEQ constrain: 1
          rings ...
          # BATM   772
          # H in HB   22
          doing iterative Hueckel for 1 subsystem(s) ...
 
  atom   neighbors  erfCN metchar sp-hybrid imet pi  qest     coordinates
    1  o       2    1.92   0.00         3    0    1  -0.439   -1.132789   -0.701043    2.136921
    2  c       3    2.82   0.00         2    0    1   0.118   -2.304843    0.518069    0.204353
    3  c       3    2.82   0.00         2    0    1   0.001   -4.900433   -0.027873   -0.207902
    4  c       3    2.82   0.00         2    0    1  -0.005   -6.234467   -1.791408    1.484260
    5  c       3    2.82   0.00         2    0    1  -0.025   -6.103213   -1.517156    4.091355
    6  c       3    2.81   0.00         2    0    1  -0.001   -7.364389   -3.166594    5.678971
    7  c       3    2.81   0.00         2    0    1  -0.040   -8.814688   -5.093590    4.683915
    8  c       3    2.84   0.00         2    0    1   0.117   -8.993602   -5.388485    2.081750
    9  c       3    2.85   0.00         2    0    1   0.099   -7.683513   -3.759214    0.470895
   10  o       2    1.92   0.00         3    0    1  -0.337   -7.741772   -4.068405   -2.110145
   11  c       4    3.51   0.00         3    0    0   0.047   -8.602384   -6.469806   -2.859404
   12  c       4    3.51   0.00         3    0    0   0.062  -11.011443   -7.142255   -1.417482
   13  o       2    1.92   0.00         3    0    1  -0.367  -10.490140   -7.316337    1.185928
   14  c       3    2.82   0.00         2    0    1  -0.035   -6.142401    1.133409   -2.161135
   15  c       3    2.83   0.00         2    0    1  -0.010   -4.912862    2.846160   -3.782050
   16  c       3    2.81   0.00         2    0    1  -0.045   -6.183099    4.023722   -5.806631
   17  c       3    2.81   0.00         2    0    1  -0.002   -4.950429    5.675351   -7.362908
   18  c       3    2.81   0.00         2    0    1  -0.047   -2.383798    6.206776   -6.966297
   19  c       3    2.81   0.00         2    0    1  -0.008   -1.100939    5.102403   -5.014700
   20  c       3    2.83   0.00         2    0    1   0.019   -2.327860    3.412540   -3.356897
   21  c       3    2.82   0.00         2    0    1  -0.004   -1.060141    2.246286   -1.305706
   22  c       3    2.82   0.00         2    0    1  -0.004    1.602894    2.903171   -0.731113
   23  c       3    2.82   0.00         2    0    1   0.118    3.472113    1.111467   -1.061738
   24  o       2    1.92   0.00         3    0    1  -0.439    2.805344   -1.160670   -2.078712
   25  c       3    2.81   0.00         2    0    1   0.001    6.011201    1.641144   -0.397353
   26  c       3    2.82   0.00         2    0    1  -0.005    7.932227   -0.382283   -0.492950
   27  c       3    2.82   0.00         2    0    1  -0.025   10.130877   -0.138646   -1.901903
   28  c       3    2.81   0.00         2    0    1  -0.001   11.907809   -2.057923   -1.930869
   29  c       3    2.81   0.00         2    0    1  -0.040   11.544763   -4.209336   -0.498088
   30  c       3    2.84   0.00         2    0    1   0.117    9.385270   -4.466862    0.975172
   31  c       3    2.85   0.00         2    0    1   0.099    7.550906   -2.570973    0.947053
   32  o       2    1.92   0.00         3    0    1  -0.337    5.353489   -2.759587    2.329252
   33  c       4    3.51   0.00         3    0    0   0.047    4.855134   -5.229529    3.194595
   34  c       4    3.51   0.00         3    0    0   0.062    7.253015   -6.383898    4.309363
   35  o       2    1.92   0.00         3    0    1  -0.367    9.132124   -6.595019    2.429457
   36  c       3    2.82   0.00         2    0    1  -0.035    6.641583    4.015562    0.422765
   37  c       3    2.83   0.00         2    0    1  -0.010    4.801486    5.912555    0.723818
   38  c       3    2.81   0.00         2    0    1  -0.045    5.434781    8.353557    1.586313
   39  c       3    2.81   0.00         2    0    1  -0.002    3.607910   10.140896    1.951122
   40  c       3    2.81   0.00         2    0    1  -0.047    1.063536    9.553136    1.490136
   41  c       3    2.81   0.00         2    0    1  -0.008    0.388595    7.207927    0.644932
   42  c       3    2.83   0.00         2    0    1   0.019    2.234125    5.333360    0.206657
   43  h       1    0.97   0.00         0    0    0   0.231    0.665754   -0.388902    2.051480
   44  h       1    0.97   0.00         0    0    0   0.065   -4.994225    0.005146    4.867280
   45  h       1    0.97   0.00         0    0    0   0.037   -7.234548   -2.939178    7.701388
   46  h       1    0.97   0.00         0    0    0   0.062   -9.836424   -6.394525    5.873553
   47  h       1    0.97   0.01         0    0    0   0.057   -7.152689   -7.904829   -2.467873
   48  h       1    0.97   0.00         0    0    0   0.057   -8.941861   -6.363166   -4.890178
   49  h       1    0.97   0.01         0    0    0   0.062  -12.441826   -5.675712   -1.761119
   50  h       1    0.97   0.00         0    0    0   0.062  -11.752293   -8.978636   -1.993404
   51  h       1    0.97   0.00         0    0    0   0.061   -8.119123    0.736296   -2.468142
   52  h       1    0.97   0.00         0    0    0   0.073   -8.155603    3.585980   -6.105674
   53  h       1    0.97   0.00         0    0    0   0.049   -5.935496    6.572724   -8.909725
   54  h       1    0.97   0.00         0    0    0   0.049   -1.422182    7.497723   -8.222434
   55  h       1    0.97   0.00         0    0    0   0.035    0.878175    5.510217   -4.726951
   56  h       1    0.97   0.00         0    0    0   0.231    4.296268   -2.187056   -2.296044
   57  h       1    0.97   0.00         0    0    0   0.065   10.414582    1.556692   -2.998864
   58  h       1    0.97   0.00         0    0    0   0.037   13.595852   -1.867684   -3.057604
   59  h       1    0.97   0.00         0    0    0   0.062   12.917059   -5.714013   -0.463756
   60  h       1    0.97   0.01         0    0    0   0.057    4.190706   -6.409750    1.620847
   61  h       1    0.97   0.00         0    0    0   0.057    3.362719   -5.062177    4.605422
   62  h       1    0.97   0.00         0    0    0   0.062    6.913324   -8.290620    5.013675
   63  h       1    0.97   0.01         0    0    0   0.062    7.934922   -5.178446    5.856104
   64  h       1    0.97   0.00         0    0    0   0.061    8.581565    4.426994    0.909380
   65  h       1    0.97   0.00         0    0    0   0.073    7.397705    8.777461    1.958965
   66  h       1    0.97   0.00         0    0    0   0.049    4.105400   12.007922    2.608959
   67  h       1    0.97   0.00         0    0    0   0.049   -0.366262   10.973974    1.811014
   68  h       1    0.97   0.00         0    0    0   0.035   -1.571093    6.762777    0.295632
 
          #atoms :   68
          #bonds :   75
          #angl  :   126
          #tors  :   222
          #nmol  :   1
          #optfrag :   1
           ------------------------------------------------- 
          |                   G F N - F F                   |
          |          A general generic force-field          |
          |                  Version 1.0.3                  | 
           ------------------------------------------------- 
          nhb123   4801 432 0

 E+G (total)                   0 d,  0 h,  0 min,  0.059 sec
 distance/D3 list               ...        0 min,  0.000 sec (  0.027%)
 non bonded repulsion           ...        0 min,  0.006 sec (  9.997%)
 dCN                            ...        0 min,  0.000 sec (  0.311%)
 EEQ energy and q               ...        0 min,  0.000 sec (  0.627%)
 D3                             ...        0 min,  0.033 sec ( 56.150%)
 EEQ gradient                   ...        0 min,  0.017 sec ( 28.613%)
 bonds                          ...        0 min,  0.001 sec (  1.263%)
 bend and torsion               ...        0 min,  0.001 sec (  0.863%)
 bonded ATM                     ...        0 min,  0.000 sec (  0.081%)
 HB/XB (incl list setup)        ...        0 min,  0.001 sec (  1.704%)

         :::::::::::::::::::::::::::::::::::::::::::::::::::::
         ::                     SUMMARY                     ::
         :::::::::::::::::::::::::::::::::::::::::::::::::::::
         :: total energy             -13.960914158235 Eh    ::
         :: gradient norm              0.065295298400 Eh/a0 ::
         ::.................................................::
         :: bond energy              -14.624220734040 Eh    ::
         :: angle energy               0.013757528540 Eh    ::
         :: torsion energy             0.031126421885 Eh    ::
         :: repulsion energy           1.019448254209 Eh    ::
         :: electrostat energy        -0.304650606217 Eh    ::
         :: dispersion energy         -0.072093564352 Eh    ::
         :: HB energy                 -0.001914591420 Eh    ::
         :: XB energy                  0.000000000000 Eh    ::
         :: bonded atm energy         -0.022366866840 Eh    ::
         :: external energy            0.000000000000 Eh    ::
         :: add. restraining           0.000000000000 Eh    ::
         :: total charge              -0.000000000000 e     ::
         :::::::::::::::::::::::::::::::::::::::::::::::::::::

           -------------------------------------------------
          |                Property Printout                |
           -------------------------------------------------

           -------------------------------------------------
          | TOTAL ENERGY              -13.960914158235 Eh   |
          | GRADIENT NORM               0.065295298400 Eh/α |
           -------------------------------------------------

------------------------------------------------------------------------
 * finished run on 2025/01/21 at 11:20:07.859     
------------------------------------------------------------------------
 total:
 * wall-time:     0 d,  0 h,  0 min,  0.219 sec
 *  cpu-time:     0 d,  0 h,  0 min,  5.227 sec
 * ratio c/w:    23.886 speedup
 SCF:
 * wall-time:     0 d,  0 h,  0 min,  0.068 sec
 *  cpu-time:     0 d,  0 h,  0 min,  1.789 sec
 * ratio c/w:    26.376 speedup

 Calculating NCI flexibility... done.
     covalent flexibility measure :   0.059
 non-covalent flexibility measure :   1.000
 flexibility measure :   0.151
 t(MTD) / ps set by command line  :     0.5
 t(MTD) / ps    :     0.5
 Σ(t(MTD)) / ps :     7.0 (14 MTDs)
 
-------------------------------------
Starting a trial MTD to test settings
-------------------------------------
 Estimated runtime for one MTD (0.5 ps) on a single thread: 2 min 40 sec
 Estimated runtime for a batch of 14 MTDs on 28 threads: 1 min 20 sec
 
 list of Vbias parameters applied:
$metadyn    0.00300   1.300
$metadyn    0.00150   1.300
$metadyn    0.00075   1.300
$metadyn    0.00300   0.780
$metadyn    0.00150   0.780
$metadyn    0.00075   0.780
$metadyn    0.00300   0.468
$metadyn    0.00150   0.468
$metadyn    0.00075   0.468
$metadyn    0.00300   0.281
$metadyn    0.00150   0.281
$metadyn    0.00075   0.281
$metadyn    0.00100   0.100
$metadyn    0.00500   0.800
 
*******************************************************************************************
**                        N E W    I T E R A T I O N    C Y C L E                        **
*******************************************************************************************
 
========================================
            MTD Iteration  1
========================================
 
     ========================================
     |         Meta-MD (MTD) Sampling       |
     ========================================
 
Starting Meta-MD   1 with the settings:
     MD time /ps        :     0.5
     dt /fs             :     1.5
     dumpstep(trj) /fs  :     100
     dumpstep(Vbias)/ps :     1.0
     Vbias factor k /Eh :  0.2040
     Vbias exp α /bohr⁻²:    1.30
Starting Meta-MD   3 with the settings:
     MD time /ps        :     0.5
     dt /fs             :     1.5
     dumpstep(trj) /fs  :     100
     dumpstep(Vbias)/ps :     1.0
     Vbias factor k /Eh :  0.0510
     Vbias exp α /bohr⁻²:    1.30
Starting Meta-MD   5 with the settings:
     MD time /ps        :     0.5
     dt /fs             :     1.5
     dumpstep(trj) /fs  :     100
     dumpstep(Vbias)/ps :     1.0
     Vbias factor k /Eh :  0.1020
     Vbias exp α /bohr⁻²:    0.78
Starting Meta-MD   2 with the settings:
     MD time /ps        :     0.5
     dt /fs             :     1.5
     dumpstep(trj) /fs  :     100
     dumpstep(Vbias)/ps :     1.0
     Vbias factor k /Eh :  0.1020
     Vbias exp α /bohr⁻²:    1.30
Starting Meta-MD   6 with the settings:
     MD time /ps        :     0.5
     dt /fs             :     1.5
     dumpstep(trj) /fs  :     100
     dumpstep(Vbias)/ps :     1.0
     Vbias factor k /Eh :  0.0510
     Vbias exp α /bohr⁻²:    0.78
Starting Meta-MD   4 with the settings:
     MD time /ps        :     0.5
     dt /fs             :     1.5
     dumpstep(trj) /fs  :     100
     dumpstep(Vbias)/ps :     1.0
     Vbias factor k /Eh :  0.2040
     Vbias exp α /bohr⁻²:    0.78
Starting Meta-MD   7 with the settings:
     MD time /ps        :     0.5
     dt /fs             :     1.5
     dumpstep(trj) /fs  :     100
     dumpstep(Vbias)/ps :     1.0
     Vbias factor k /Eh :  0.2040
     Vbias exp α /bohr⁻²:    0.47
Starting Meta-MD  14 with the settings:
     MD time /ps        :     0.5
     dt /fs             :     1.5
     dumpstep(trj) /fs  :     100
     dumpstep(Vbias)/ps :     1.0
     Vbias factor k /Eh :  0.3400
     Vbias exp α /bohr⁻²:    0.80
Starting Meta-MD   9 with the settings:
     MD time /ps        :     0.5
     dt /fs             :     1.5
     dumpstep(trj) /fs  :     100
     dumpstep(Vbias)/ps :     1.0
     Vbias factor k /Eh :  0.0510
     Vbias exp α /bohr⁻²:    0.47
Starting Meta-MD  11 with the settings:
     MD time /ps        :     0.5
     dt /fs             :     1.5
     dumpstep(trj) /fs  :     100
     dumpstep(Vbias)/ps :     1.0
     Vbias factor k /Eh :  0.1020
     Vbias exp α /bohr⁻²:    0.28
Starting Meta-MD  12 with the settings:
     MD time /ps        :     0.5
     dt /fs             :     1.5
     dumpstep(trj) /fs  :     100
     dumpstep(Vbias)/ps :     1.0
     Vbias factor k /Eh :  0.0510
     Vbias exp α /bohr⁻²:    0.28
Starting Meta-MD  13 with the settings:
     MD time /ps        :     0.5
     dt /fs             :     1.5
     dumpstep(trj) /fs  :     100
     dumpstep(Vbias)/ps :     1.0
     Vbias factor k /Eh :  0.0680
     Vbias exp α /bohr⁻²:    0.10
Starting Meta-MD   8 with the settings:
     MD time /ps        :     0.5
     dt /fs             :     1.5
     dumpstep(trj) /fs  :     100
     dumpstep(Vbias)/ps :     1.0
     Vbias factor k /Eh :  0.1020
     Vbias exp α /bohr⁻²:    0.47
Starting Meta-MD  10 with the settings:
     MD time /ps        :     0.5
     dt /fs             :     1.5
     dumpstep(trj) /fs  :     100
     dumpstep(Vbias)/ps :     1.0
     Vbias factor k /Eh :  0.2040
     Vbias exp α /bohr⁻²:    0.28
*Meta-MTD 9 finished*
*Meta-MTD 1 finished*
*Meta-MTD 5 finished*
*Meta-MTD 11 finished*
*Meta-MTD 3 finished*
*Meta-MTD 12 finished*
*Meta-MTD 8 finished*
*Meta-MTD 4 finished*
*Meta-MTD 14 finished*
*Meta-MTD 13 finished*
*Meta-MTD 6 finished*
*Meta-MTD 10 finished*
*Meta-MTD 2 finished*
*Meta-MTD 7 finished*
 
-----------------------
Multilevel Optimization
-----------------------
 
 -------------------------
 1. crude pre-optimization
 -------------------------
 Optimizing all 70 structures from file "crest_rotamers_0.xyz" ...
 1 2 3 4 5 6 7 8 9 10 11 12 13 14 15 16 17 18 19 20 21 22 23 24 25 26 27 28 29 30 31 32 33 34 35 36 37 38 39 40 41 42 43 44 45 46 47 48 49 50 51 52 53 54 55 56 57 58 59 60 61 62 63 64 65 66 67 68 69 70
 done.
 running RMSDs...
 done.
 E lowest :  -114.79692
 57 structures remain within    12.00 kcal/mol window
 
 -------------------------------------
 2. optimization with tight thresholds
 -------------------------------------
 Optimizing all 58 structures from file "crest_rotamers_1.xyz" ...
 1 2 3 4 5 6 7 8 9 10 11 12 13 14 15 16 17 18 19 20 21 22 23 24 25 26 27 28 29 30 31 32 33 34 35 36 37 38 39 40 41 42 43 44 45 46 47 48 49 50 51 52 53 54 55 56 57 58
 done.
 running RMSDs...
 done.
 E lowest :  -114.79824
 14 structures remain within     6.00 kcal/mol window
 
 
========================================
            MTD Iteration  2
========================================
 
     ========================================
     |         Meta-MD (MTD) Sampling       |
     ========================================
 
Starting Meta-MD   1 with the settings:
     MD time /ps        :     0.5
     dt /fs             :     1.5
     dumpstep(trj) /fs  :     100
     dumpstep(Vbias)/ps :     1.0
     Vbias factor k /Eh :  0.2040
     Vbias exp α /bohr⁻²:    1.30
Starting Meta-MD   2 with the settings:
     MD time /ps        :     0.5
     dt /fs             :     1.5
     dumpstep(trj) /fs  :     100
     dumpstep(Vbias)/ps :     1.0
     Vbias factor k /Eh :  0.1020
     Vbias exp α /bohr⁻²:    1.30
Starting Meta-MD   3 with the settings:
     MD time /ps        :     0.5
     dt /fs             :     1.5
     dumpstep(trj) /fs  :     100
     dumpstep(Vbias)/ps :     1.0
     Vbias factor k /Eh :  0.0510
     Vbias exp α /bohr⁻²:    1.30
Starting Meta-MD   6 with the settings:
     MD time /ps        :     0.5
     dt /fs             :     1.5
     dumpstep(trj) /fs  :     100
     dumpstep(Vbias)/ps :     1.0
     Vbias factor k /Eh :  0.0510
     Vbias exp α /bohr⁻²:    0.78
Starting Meta-MD   4 with the settings:
     MD time /ps        :     0.5
     dt /fs             :     1.5
     dumpstep(trj) /fs  :     100
     dumpstep(Vbias)/ps :     1.0
     Vbias factor k /Eh :  0.2040
     Vbias exp α /bohr⁻²:    0.78
Starting Meta-MD   7 with the settings:
     MD time /ps        :     0.5
     dt /fs             :     1.5
     dumpstep(trj) /fs  :     100
     dumpstep(Vbias)/ps :     1.0
     Vbias factor k /Eh :  0.2040
     Vbias exp α /bohr⁻²:    0.47
Starting Meta-MD   5 with the settings:
     MD time /ps        :     0.5
     dt /fs             :     1.5
     dumpstep(trj) /fs  :     100
     dumpstep(Vbias)/ps :     1.0
     Vbias factor k /Eh :  0.1020
     Vbias exp α /bohr⁻²:    0.78
Starting Meta-MD   8 with the settings:
     MD time /ps        :     0.5
     dt /fs             :     1.5
     dumpstep(trj) /fs  :     100
     dumpstep(Vbias)/ps :     1.0
     Vbias factor k /Eh :  0.1020
     Vbias exp α /bohr⁻²:    0.47
Starting Meta-MD   9 with the settings:
     MD time /ps        :     0.5
     dt /fs             :     1.5
     dumpstep(trj) /fs  :     100
     dumpstep(Vbias)/ps :     1.0
     Vbias factor k /Eh :  0.0510
     Vbias exp α /bohr⁻²:    0.47
Starting Meta-MD  10 with the settings:
     MD time /ps        :     0.5
     dt /fs             :     1.5
     dumpstep(trj) /fs  :     100
     dumpstep(Vbias)/ps :     1.0
     Vbias factor k /Eh :  0.2040
     Vbias exp α /bohr⁻²:    0.28
Starting Meta-MD  11 with the settings:
     MD time /ps        :     0.5
     dt /fs             :     1.5
     dumpstep(trj) /fs  :     100
     dumpstep(Vbias)/ps :     1.0
     Vbias factor k /Eh :  0.1020
     Vbias exp α /bohr⁻²:    0.28
Starting Meta-MD  12 with the settings:
     MD time /ps        :     0.5
     dt /fs             :     1.5
     dumpstep(trj) /fs  :     100
     dumpstep(Vbias)/ps :     1.0
     Vbias factor k /Eh :  0.0510
     Vbias exp α /bohr⁻²:    0.28
*Meta-MTD 12 finished*
*Meta-MTD 9 finished*
*Meta-MTD 11 finished*
*Meta-MTD 6 finished*
*Meta-MTD 8 finished*
*Meta-MTD 1 finished*
*Meta-MTD 7 finished*
*Meta-MTD 10 finished*
*Meta-MTD 4 finished*
*Meta-MTD 3 finished*
*Meta-MTD 5 finished*
*Meta-MTD 2 finished*
 
-----------------------
Multilevel Optimization
-----------------------
 
 -------------------------
 1. crude pre-optimization
 -------------------------
 Optimizing all 60 structures from file "crest_rotamers_0.xyz" ...
 1 2 3 4 5 6 7 8 9 10 11 12 13 14 15 16 17 18 19 20 21 22 23 24 25 26 27 28 29 30 31 32 33 34 35 36 37 38 39 40 41 42 43 44 45 46 47 48 49 50 51 52 53 54 55 56 57 58 59 60
 done.
 running RMSDs...
 done.
 E lowest :  -114.80016
 50 structures remain within    12.00 kcal/mol window
 
 -------------------------------------
 2. optimization with tight thresholds
 -------------------------------------
 Optimizing all 51 structures from file "crest_rotamers_1.xyz" ...
 1 2 3 4 5 6 7 8 9 10 11 12 13 14 15 16 17 18 19 20 21 22 23 24 25 26 27 28 29 30 31 32 33 34 35 36 37 38 39 40 41 42 43 44 45 46 47 48 49 50 51
 done.
 running RMSDs...
 done.
 E lowest :  -114.80159
 11 structures remain within     6.00 kcal/mol window
 
 ...............................................
 A new lower conformer was found!
 Improved by    0.00336 Eh or    2.10555kcal/mol
 ...............................................
 
========================================
            MTD Iteration  3
========================================
 
     ========================================
     |         Meta-MD (MTD) Sampling       |
     ========================================
 
Starting Meta-MD  12 with the settings:
     MD time /ps        :     0.5
     dt /fs             :     1.5
     dumpstep(trj) /fs  :     100
     dumpstep(Vbias)/ps :     1.0
     Vbias factor k /Eh :  0.0510
     Vbias exp α /bohr⁻²:    0.28
Starting Meta-MD   1 with the settings:
     MD time /ps        :     0.5
     dt /fs             :     1.5
     dumpstep(trj) /fs  :     100
     dumpstep(Vbias)/ps :     1.0
     Vbias factor k /Eh :  0.2040
     Vbias exp α /bohr⁻²:    1.30
Starting Meta-MD   2 with the settings:
     MD time /ps        :     0.5
     dt /fs             :     1.5
     dumpstep(trj) /fs  :     100
     dumpstep(Vbias)/ps :     1.0
     Vbias factor k /Eh :  0.1020
     Vbias exp α /bohr⁻²:    1.30
Starting Meta-MD   3 with the settings:
     MD time /ps        :     0.5
     dt /fs             :     1.5
     dumpstep(trj) /fs  :     100
     dumpstep(Vbias)/ps :     1.0
     Vbias factor k /Eh :  0.0510
     Vbias exp α /bohr⁻²:    1.30
Starting Meta-MD   4 with the settings:
     MD time /ps        :     0.5
     dt /fs             :     1.5
     dumpstep(trj) /fs  :     100
     dumpstep(Vbias)/ps :     1.0
     Vbias factor k /Eh :  0.2040
     Vbias exp α /bohr⁻²:    0.78
Starting Meta-MD   5 with the settings:
     MD time /ps        :     0.5
     dt /fs             :     1.5
     dumpstep(trj) /fs  :     100
     dumpstep(Vbias)/ps :     1.0
     Vbias factor k /Eh :  0.1020
     Vbias exp α /bohr⁻²:    0.78
Starting Meta-MD   6 with the settings:
     MD time /ps        :     0.5
     dt /fs             :     1.5
     dumpstep(trj) /fs  :     100
     dumpstep(Vbias)/ps :     1.0
     Vbias factor k /Eh :  0.0510
     Vbias exp α /bohr⁻²:    0.78
Starting Meta-MD   7 with the settings:
     MD time /ps        :     0.5
     dt /fs             :     1.5
     dumpstep(trj) /fs  :     100
     dumpstep(Vbias)/ps :     1.0
     Vbias factor k /Eh :  0.2040
     Vbias exp α /bohr⁻²:    0.47
Starting Meta-MD   8 with the settings:
     MD time /ps        :     0.5
     dt /fs             :     1.5
     dumpstep(trj) /fs  :     100
     dumpstep(Vbias)/ps :     1.0
     Vbias factor k /Eh :  0.1020
     Vbias exp α /bohr⁻²:    0.47
Starting Meta-MD   9 with the settings:
     MD time /ps        :     0.5
     dt /fs             :     1.5
     dumpstep(trj) /fs  :     100
     dumpstep(Vbias)/ps :     1.0
     Vbias factor k /Eh :  0.0510
     Vbias exp α /bohr⁻²:    0.47
Starting Meta-MD  10 with the settings:
     MD time /ps        :     0.5
     dt /fs             :     1.5
     dumpstep(trj) /fs  :     100
     dumpstep(Vbias)/ps :     1.0
     Vbias factor k /Eh :  0.2040
     Vbias exp α /bohr⁻²:    0.28
Starting Meta-MD  11 with the settings:
     MD time /ps        :     0.5
     dt /fs             :     1.5
     dumpstep(trj) /fs  :     100
     dumpstep(Vbias)/ps :     1.0
     Vbias factor k /Eh :  0.1020
     Vbias exp α /bohr⁻²:    0.28
*Meta-MTD 2 finished*
*Meta-MTD 12 finished*
*Meta-MTD 4 finished*
*Meta-MTD 7 finished*
*Meta-MTD 6 finished*
*Meta-MTD 10 finished*
*Meta-MTD 1 finished*
*Meta-MTD 9 finished*
*Meta-MTD 3 finished*
*Meta-MTD 8 finished*
*Meta-MTD 5 finished*
*Meta-MTD 11 finished*
 
-----------------------
Multilevel Optimization
-----------------------
 
 -------------------------
 1. crude pre-optimization
 -------------------------
 Optimizing all 60 structures from file "crest_rotamers_0.xyz" ...
 1 2 3 4 5 6 7 8 9 10 11 12 13 14 15 16 17 18 19 20 21 22 23 24 25 26 27 28 29 30 31 32 33 34 35 36 37 38 39 40 41 42 43 44 45 46 47 48 49 50 51 52 53 54 55 56 57 58 59 60
 done.
 running RMSDs...
 done.
 E lowest :  -114.80109
 50 structures remain within    12.00 kcal/mol window
 
 -------------------------------------
 2. optimization with tight thresholds
 -------------------------------------
 Optimizing all 51 structures from file "crest_rotamers_1.xyz" ...
 1 2 3 4 5 6 7 8 9 10 11 12 13 14 15 16 17 18 19 20 21 22 23 24 25 26 27 28 29 30 31 32 33 34 35 36 37 38 39 40 41 42 43 44 45 46 47 48 49 50 51
 done.
 running RMSDs...
 done.
 E lowest :  -114.80159
 13 structures remain within     6.00 kcal/mol window
 
========================================
            MTD Iterations done         
========================================
 Collecting ensmbles.
 running RMSDs...
 done.
 E lowest :  -114.80159
 33 structures remain within     6.00 kcal/mol window
 
 -------------------------------
 Additional orientation sampling
 -------------------------------
 Optimizing all 66 structures from file "oh_ensemble.xyz" ...
 1 2 3 4 5 6 7 8 9 10 11 12 13 14 15 16 17 18 19 20 21 22 23 24 25 26 27 28 29 30 31 32 33 34 35 36 37 38 39 40 41 42 43 44 45 46 47 48 49 50 51 52 53 54 55 56 57 58 59 60 61 62 63 64 65 66
 done.
 running RMSDs...
 done.
 E lowest :  -114.80174
 68 structures remain within     6.00 kcal/mol window
 
-----------------------------------------------
Additional regular MDs on lowest 4 conformer(s)
-----------------------------------------------
Starting MD   1 with the settings:
     MD time /ps        :     0.2
     MD Temperature /K  :   400.0
     dt /fs             :     1.5
     dumpstep(trj) /fs  :     100
Starting MD   2 with the settings:
     MD time /ps        :     0.2
     MD Temperature /K  :   500.0
     dt /fs             :     1.5
     dumpstep(trj) /fs  :     100
Starting MD   3 with the settings:
     MD time /ps        :     0.2
     MD Temperature /K  :   400.0
     dt /fs             :     1.5
     dumpstep(trj) /fs  :     100
Starting MD   4 with the settings:
     MD time /ps        :     0.2
     MD Temperature /K  :   500.0
     dt /fs             :     1.5
     dumpstep(trj) /fs  :     100
Starting MD   5 with the settings:
     MD time /ps        :     0.2
     MD Temperature /K  :   400.0
     dt /fs             :     1.5
     dumpstep(trj) /fs  :     100
Starting MD   6 with the settings:
     MD time /ps        :     0.2
     MD Temperature /K  :   500.0
     dt /fs             :     1.5
     dumpstep(trj) /fs  :     100
Starting MD   7 with the settings:
     MD time /ps        :     0.2
     MD Temperature /K  :   400.0
     dt /fs             :     1.5
     dumpstep(trj) /fs  :     100
Starting MD   8 with the settings:
     MD time /ps        :     0.2
     MD Temperature /K  :   500.0
     dt /fs             :     1.5
     dumpstep(trj) /fs  :     100
*MD 5 finished*
*MD 7 finished*
*MD 3 finished*
*MD 1 finished*
*MD 4 finished*
*MD 2 finished*
*MD 6 finished*
*MD 8 finished*
 Appending file crest_rotamers_2.xyz with new structures
 
 -------------------------------------------
 Ensemble optimization with tight thresholds
 -------------------------------------------
 Optimizing all 84 structures from file "crest_rotamers_2.xyz" ...
 1 2 3 4 5 6 7 8 9 10 11 12 13 14 15 16 17 18 19 20 21 22 23 24 25 26 27 28 29 30 31 32 33 34 35 36 37 38 39 40 41 42 43 44 45 46 47 48 49 50 51 52 53 54 55 56 57 58 59 60 61 62 63 64 65 66 67 68 69 70 71 72 73 74 75 76 77 78 79 80 81 82 83 84
 done.
 running RMSDs...
 done.
 E lowest :  -114.80174
 68 structures remain within     6.00 kcal/mol window
 
 ...............................................
 A new lower conformer was found!
 Improved by    0.00014 Eh or    0.09084kcal/mol
 ...............................................
 
*******************************************************************************************
**                        N E W    I T E R A T I O N    C Y C L E                        **
*******************************************************************************************
 
========================================
            MTD Iteration  1
========================================
 
     ========================================
     |         Meta-MD (MTD) Sampling       |
     ========================================
 
Starting Meta-MD   1 with the settings:
     MD time /ps        :     0.5
     dt /fs             :     1.5
     dumpstep(trj) /fs  :     100
     dumpstep(Vbias)/ps :     1.0
     Vbias factor k /Eh :  0.2040
     Vbias exp α /bohr⁻²:    1.30
Starting Meta-MD   2 with the settings:
     MD time /ps        :     0.5
     dt /fs             :     1.5
     dumpstep(trj) /fs  :     100
     dumpstep(Vbias)/ps :     1.0
     Vbias factor k /Eh :  0.1020
     Vbias exp α /bohr⁻²:    1.30
Starting Meta-MD   3 with the settings:
     MD time /ps        :     0.5
     dt /fs             :     1.5
     dumpstep(trj) /fs  :     100
     dumpstep(Vbias)/ps :     1.0
     Vbias factor k /Eh :  0.0510
     Vbias exp α /bohr⁻²:    1.30
Starting Meta-MD   4 with the settings:
     MD time /ps        :     0.5
     dt /fs             :     1.5
     dumpstep(trj) /fs  :     100
     dumpstep(Vbias)/ps :     1.0
     Vbias factor k /Eh :  0.2040
     Vbias exp α /bohr⁻²:    0.78
Starting Meta-MD   5 with the settings:
     MD time /ps        :     0.5
     dt /fs             :     1.5
     dumpstep(trj) /fs  :     100
     dumpstep(Vbias)/ps :     1.0
     Vbias factor k /Eh :  0.1020
     Vbias exp α /bohr⁻²:    0.78
Starting Meta-MD   6 with the settings:
     MD time /ps        :     0.5
     dt /fs             :     1.5
     dumpstep(trj) /fs  :     100
     dumpstep(Vbias)/ps :     1.0
     Vbias factor k /Eh :  0.0510
     Vbias exp α /bohr⁻²:    0.78
Starting Meta-MD   7 with the settings:
     MD time /ps        :     0.5
     dt /fs             :     1.5
     dumpstep(trj) /fs  :     100
     dumpstep(Vbias)/ps :     1.0
     Vbias factor k /Eh :  0.2040
     Vbias exp α /bohr⁻²:    0.47
Starting Meta-MD   8 with the settings:
     MD time /ps        :     0.5
     dt /fs             :     1.5
     dumpstep(trj) /fs  :     100
     dumpstep(Vbias)/ps :     1.0
     Vbias factor k /Eh :  0.1020
     Vbias exp α /bohr⁻²:    0.47
Starting Meta-MD   9 with the settings:
     MD time /ps        :     0.5
     dt /fs             :     1.5
     dumpstep(trj) /fs  :     100
     dumpstep(Vbias)/ps :     1.0
     Vbias factor k /Eh :  0.0510
     Vbias exp α /bohr⁻²:    0.47
Starting Meta-MD  10 with the settings:
     MD time /ps        :     0.5
     dt /fs             :     1.5
     dumpstep(trj) /fs  :     100
     dumpstep(Vbias)/ps :     1.0
     Vbias factor k /Eh :  0.2040
     Vbias exp α /bohr⁻²:    0.28
Starting Meta-MD  12 with the settings:
     MD time /ps        :     0.5
     dt /fs             :     1.5
     dumpstep(trj) /fs  :     100
     dumpstep(Vbias)/ps :     1.0
     Vbias factor k /Eh :  0.0510
     Vbias exp α /bohr⁻²:    0.28
Starting Meta-MD  11 with the settings:
     MD time /ps        :     0.5
     dt /fs             :     1.5
     dumpstep(trj) /fs  :     100
     dumpstep(Vbias)/ps :     1.0
     Vbias factor k /Eh :  0.1020
     Vbias exp α /bohr⁻²:    0.28
*Meta-MTD 1 finished*
*Meta-MTD 2 finished*
*Meta-MTD 6 finished*
*Meta-MTD 8 finished*
*Meta-MTD 3 finished*
*Meta-MTD 4 finished*
*Meta-MTD 10 finished*
*Meta-MTD 5 finished*
*Meta-MTD 9 finished*
*Meta-MTD 11 finished*
*Meta-MTD 12 finished*
*Meta-MTD 7 finished*
 
-----------------------
Multilevel Optimization
-----------------------
 
 -------------------------
 1. crude pre-optimization
 -------------------------
 Optimizing all 60 structures from file "crest_rotamers_0.xyz" ...
 1 2 3 4 5 6 7 8 9 10 11 12 13 14 15 16 17 18 19 20 21 22 23 24 25 26 27 28 29 30 31 32 33 34 35 36 37 38 39 40 41 42 43 44 45 46 47 48 49 50 51 52 53 54 55 56 57 58 59 60
 done.
 running RMSDs...
 done.
 E lowest :  -114.80121
 48 structures remain within    12.00 kcal/mol window
 
 -------------------------------------
 2. optimization with tight thresholds
 -------------------------------------
 Optimizing all 49 structures from file "crest_rotamers_1.xyz" ...
 1 2 3 4 5 6 7 8 9 10 11 12 13 14 15 16 17 18 19 20 21 22 23 24 25 26 27 28 29 30 31 32 33 34 35 36 37 38 39 40 41 42 43 44 45 46 47 48 49
 done.
 running RMSDs...
 done.
 E lowest :  -114.80174
 10 structures remain within     6.00 kcal/mol window
 
========================================
            MTD Iterations done         
========================================
 Collecting ensmbles.
 running RMSDs...
 done.
 E lowest :  -114.80174
 10 structures remain within     6.00 kcal/mol window
 
 -------------------------------
 Additional orientation sampling
 -------------------------------
 Optimizing all 16 structures from file "oh_ensemble.xyz" ...
 1 2 3 4 5 6 7 8 9 10 11 12 13 14 15 16
 done.
 running RMSDs...
 done.
 E lowest :  -114.80174
 21 structures remain within     6.00 kcal/mol window
 
-----------------------------------------------
Additional regular MDs on lowest 4 conformer(s)
-----------------------------------------------
Starting MD   1 with the settings:
     MD time /ps        :     0.2
     MD Temperature /K  :   400.0
     dt /fs             :     1.5
     dumpstep(trj) /fs  :     100
Starting MD   2 with the settings:
     MD time /ps        :     0.2
     MD Temperature /K  :   500.0
     dt /fs             :     1.5
     dumpstep(trj) /fs  :     100
Starting MD   3 with the settings:
     MD time /ps        :     0.2
     MD Temperature /K  :   400.0
     dt /fs             :     1.5
     dumpstep(trj) /fs  :     100
Starting MD   4 with the settings:
     MD time /ps        :     0.2
     MD Temperature /K  :   500.0
     dt /fs             :     1.5
     dumpstep(trj) /fs  :     100
Starting MD   5 with the settings:
     MD time /ps        :     0.2
     MD Temperature /K  :   400.0
     dt /fs             :     1.5
     dumpstep(trj) /fs  :     100
Starting MD   6 with the settings:
     MD time /ps        :     0.2
     MD Temperature /K  :   500.0
     dt /fs             :     1.5
     dumpstep(trj) /fs  :     100
Starting MD   7 with the settings:
     MD time /ps        :     0.2
     MD Temperature /K  :   400.0
     dt /fs             :     1.5
     dumpstep(trj) /fs  :     100
Starting MD   8 with the settings:
     MD time /ps        :     0.2
     MD Temperature /K  :   500.0
     dt /fs             :     1.5
     dumpstep(trj) /fs  :     100
*MD 7 finished*
*MD 8 finished*
*MD 2 finished*
*MD 3 finished*
*MD 5 finished*
*MD 1 finished*
*MD 6 finished*
*MD 4 finished*
 Appending file crest_rotamers_2.xyz with new structures
 
 -------------------------------------------
 Ensemble optimization with tight thresholds
 -------------------------------------------
 Optimizing all 37 structures from file "crest_rotamers_2.xyz" ...
 1 2 3 4 5 6 7 8 9 10 11 12 13 14 15 16 17 18 19 20 21 22 23 24 25 26 27 28 29 30 31 32 33 34 35 36 37
 done.
 running RMSDs...
 done.
 E lowest :  -114.80174
 22 structures remain within     6.00 kcal/mol window
 
 
     ========================================
     |        Structure Crossing (GC)       |
     ========================================
 =============================
  # threads =          28
 =============================
 input  file name : crest_rotamers_4.xyz
number of atoms                :    68
number of points on xyz files  :    22
conformer energy window  /kcal :    6.00
CN per atom difference cut-off :  0.3000
RMSD threshold                 :  0.5000
max. # of generated structures : 25
 reading xyz file ...
 # in E window                 22
 generating pairs ...         252
 generated pairs           :          64
 number of clash discarded :         167
 average rmsd w.r.t input  : 2.67000
 sd of ensemble            : 1.79402
 number of new structures      :          12
 removed identical structures  :          38
 writing           12  TMPCONF* dirs ...
 --------------------------
 GC: loose pre-optimization
 --------------------------
 Starting optimization of generated structures
 12 jobs to do.
 1 2 3 4 5 6 7 8 9 10 11 12 
 done.
 Now appending opt.xyz file with new structures
 running RMSDs...
 done.
 E lowest :  -114.80141
 12 structures remain within    10.00 kcal/mol window
 --------------------------------------
 GC: optimization with tight thresholds
 --------------------------------------
 Optimizing all 12 structures from file "crest_rotamers_1.xyz" ...
 1 2 3 4 5 6 7 8 9 10 11 12
 done.
 running RMSDs...
 done.
 E lowest :  -114.80174
 
 
   ================================================
   |           Final Geometry Optimization        |
   ================================================
 ------------------------------------------------
 Ensemble optimization with very tight thresholds
 ------------------------------------------------
 Optimizing all 29 structures from file "crest_rotamers_5.xyz" ...
 1 2 3 4 5 6 7 8 9 10 11 12 13 14 15 16 17 18 19 20 21 22 23 24 25 26 27 28 29
 done.
 running RMSDs...
 done.
 E lowest :  -114.80174
 29 structures remain within     6.00 kcal/mol window
 
 input  file name : crest_rotamers_6.xyz
 output file name : crest_rotamers_7.xyz
 number of atoms                :   68
 number of points on xyz files  :   29
 RMSD threshold                 :   0.2500
 Bconst threshold               :   0.0100
 population threshold           :   0.0500
 conformer energy window  /kcal :   6.0000
 # fragment in coord            :     1
 # bonds in reference structure :    75
   => # of C=C bonds :    10
 number of reliable points      :    29
 reference state Etot :  -114.801737050000
 number of doubles removed by rot/RMSD         :           0
 total number unique points considered further :          29
       Erel/kcal        Etot weight/tot  conformer     set   degen     origin
       1   0.000  -114.80174    0.23996    0.23996       1       1     mtd4
       2   0.091  -114.80159    0.20579    0.20579       2       1     md4
       3   0.119  -114.80155    0.19626    0.19626       3       1     gc
       4   0.262  -114.80132    0.15438    0.15438       4       1     mtd6
       5   0.704  -114.80062    0.07326    0.07326       5       1     mtd2
       6   1.302  -114.79966    0.02671    0.02671       6       1     mtd2
       7   1.607  -114.79918    0.01595    0.01595       7       1     gc
       8   1.667  -114.79908    0.01442    0.01442       8       1     gc
       9   1.919  -114.79868    0.00943    0.02742       9       3     mtd4
      10   1.946  -114.79864    0.00901                                mtd11
      11   1.948  -114.79863    0.00898                                mtd1
      12   2.095  -114.79840    0.00701    0.00701      10       1     hor
      13   2.198  -114.79823    0.00589    0.00589      11       1     hor
      14   2.217  -114.79820    0.00570    0.00570      12       1     gc
      15   2.308  -114.79806    0.00490    0.00490      13       1     hor
      16   2.428  -114.79787    0.00400    0.00400      14       1     hor
      17   2.442  -114.79785    0.00391    0.00391      15       1     gc
      18   2.456  -114.79782    0.00382    0.00382      16       1     hor
      19   2.616  -114.79757    0.00291    0.00291      17       1     mtd7
      20   2.692  -114.79745    0.00256    0.00256      18       1     hor
      21   2.913  -114.79709    0.00176    0.00176      19       1     hor
      22   3.456  -114.79623    0.00071    0.00071      20       1     gc
      23   3.640  -114.79594    0.00052    0.00052      21       1     hor
      24   3.675  -114.79588    0.00049    0.00049      22       1     hor
      25   3.832  -114.79563    0.00037    0.00037      23       1     gc
      26   3.840  -114.79562    0.00037    0.00037      24       1     hor
      27   3.853  -114.79560    0.00036    0.00036      25       1     gc
      28   3.971  -114.79541    0.00030    0.00030      26       1     gc
      29   4.038  -114.79530    0.00026    0.00026      27       1     gc
T /K                                  :   298.15
E lowest                              :  -114.80174
ensemble average energy (kcal)        :    0.384
ensemble entropy (J/mol K, cal/mol K) :   17.253    4.124
ensemble free energy (kcal/mol)       :   -1.229
population of lowest in %             :   23.996
 number of unique conformers for further calc           27
 list of relative energies saved as "crest.energies"
 
 -----------------
 Wall Time Summary
 -----------------
             test MD wall time :         0h : 0m :39s
                 MTD wall time :         0h : 2m :27s
      multilevel OPT wall time :         0h : 4m :40s
                  MD wall time :         0h : 1m :22s
                  GC wall time :         0h : 0m :16s
--------------------
Overall wall time  : 0h : 9m :28s
 
 CREST terminated normally.
