 
       ==============================================
       |                                            |
       |                 C R E S T                  |
       |                                            |
       |  Conformer-Rotamer Ensemble Sampling Tool  |
       |          based on the GFN methods          |
       |             P.Pracht, S.Grimme             |
       |          Universitaet Bonn, MCTC           |
       ==============================================
       Version 2.11.2, Fr 17. Dec 12:10:44 CEST 2021
  Using the xTB program. Compatible with xTB version 6.4.0
 
   Cite work conducted with this code as

   P. Pracht, F. Bohle, S. Grimme, PCCP, 2020, 22, 7169-7192.

   and  S. Grimme, JCTC, 2019, 15, 2847-2862.
 
   with help from:
   C.Bannwarth, F.Bohle, S.Ehlert, S.Grimme,
   C. Plett, P.Pracht, S. Spicher
 
   This program is distributed in the hope that it will be useful,
   but WITHOUT ANY WARRANTY; without even the implied warranty of
   MERCHANTABILITY or FITNESS FOR A PARTICULAR PURPOSE.

 Command line input:
 > crest 00234_r_0.xyz -T 28 -gfn2 -chrg 0 -uhf 0 -rthr 0.25 -shake 1 --mdlen 0.5

  -T 28 (CPUs/Threads selected)
  -gfn2 : Use of GFN2-xTB requested.
  -chrg 0
  -uhf 0
  -rthr 0.25
  --mdlen 0.5 (MD length in ps)
 
 -------------------------
 xTB Geometry Optimization
 -------------------------
 Geometry successfully optimized.
 
------------------------------------------------
Generating MTD length from a flexibility measure
------------------------------------------------
      -----------------------------------------------------------      
     |                   =====================                   |     
     |                           x T B                           |     
     |                   =====================                   |     
     |                         S. Grimme                         |     
     |          Mulliken Center for Theoretical Chemistry        |     
     |                    University of Bonn                     |     
      -----------------------------------------------------------      

   * xtb version 6.4.1 (afa7bdf) compiled by 'ehlert@majestix' on 2021-06-10

   xtb is free software: you can redistribute it and/or modify it under
   the terms of the GNU Lesser General Public License as published by
   the Free Software Foundation, either version 3 of the License, or
   (at your option) any later version.
   
   xtb is distributed in the hope that it will be useful,
   but WITHOUT ANY WARRANTY; without even the implied warranty of
   MERCHANTABILITY or FITNESS FOR A PARTICULAR PURPOSE.  See the
   GNU Lesser General Public License for more details.
   
   Cite this work as:
   * C. Bannwarth, E. Caldeweyher, S. Ehlert, A. Hansen, P. Pracht,
     J. Seibert, S. Spicher, S. Grimme, WIREs Comput. Mol. Sci., 2020, 11,
     e01493. DOI: 10.1002/wcms.1493
   
   for GFN2-xTB:
   * C. Bannwarth, S. Ehlert and S. Grimme., J. Chem. Theory Comput., 2019,
     15, 1652-1671. DOI: 10.1021/acs.jctc.8b01176
   for GFN1-xTB:
   * S. Grimme, C. Bannwarth, P. Shushkov, J. Chem. Theory Comput., 2017,
     13, 1989-2009. DOI: 10.1021/acs.jctc.7b00118
   for GFN0-xTB:
   * P. Pracht, E. Caldeweyher, S. Ehlert, S. Grimme, ChemRxiv, 2019, preprint.
     DOI: 10.26434/chemrxiv.8326202.v1
   for GFN-FF:
   * S. Spicher and S. Grimme, Angew. Chem. Int. Ed., 2020, 59, 15665-15673.
     DOI: 10.1002/anie.202004239
   
   for DFT-D4:
   * E. Caldeweyher, C. Bannwarth and S. Grimme, J. Chem. Phys., 2017,
     147, 034112. DOI: 10.1063/1.4993215
   * E. Caldeweyher, S. Ehlert, A. Hansen, H. Neugebauer, S. Spicher,
     C. Bannwarth and S. Grimme, J. Chem. Phys., 2019, 150, 154122.
     DOI: 10.1063/1.5090222
   * E. Caldeweyher, J.-M. Mewes, S. Ehlert and S. Grimme, Phys. Chem. Chem. Phys.
     2020, 22, 8499-8512. DOI: 10.1039/D0CP00502A
   
   for sTDA-xTB:
   * S. Grimme and C. Bannwarth, J. Chem. Phys., 2016, 145, 054103.
     DOI: 10.1063/1.4959605
   
   in the mass-spec context:
   * V. Asgeirsson, C. Bauer and S. Grimme, Chem. Sci., 2017, 8, 4879.
     DOI: 10.1039/c7sc00601b
   * J. Koopman and S. Grimme, ACS Omega 2019, 4, 12, 15120-15133.
     DOI: 10.1021/acsomega.9b02011
   
   for metadynamics refer to:
   * S. Grimme, J. Chem. Theory Comput., 2019, 155, 2847-2862
     DOI: 10.1021/acs.jctc.9b00143
   
   for SPH calculations refer to:
   * S. Spicher and S. Grimme, J. Chem. Theory Comput., 2021, 17, 1701-1714
     DOI: 10.1021/acs.jctc.0c01306
   
   with help from (in alphabetical order)
   P. Atkinson, C. Bannwarth, F. Bohle, G. Brandenburg, E. Caldeweyher
   M. Checinski, S. Dohm, S. Ehlert, S. Ehrlich, I. Gerasimov, J. Koopman
   C. Lavigne, S. Lehtola, F. März, M. Müller, F. Musil, H. Neugebauer
   J. Pisarek, C. Plett, P. Pracht, J. Seibert, P. Shushkov, S. Spicher
   M. Stahn, M. Steiner, T. Strunk, J. Stückrath, T. Rose, and J. Unsleber
   
 * started run on 2025/01/21 at 12:00:31.614     

           -------------------------------------------------
          |                Calculation Setup                |
           -------------------------------------------------

          program call               : xtb tmpcoord --gfn0 --sp
          hostname                   : node2
          coordinate file            : tmpcoord
          omp threads                :                    28
          number of atoms            :                    82
          number of electrons        :                   222
          charge                     :                     0
          spin                       :                   0.0
          first test random number   :      0.83435030417506

   ID    Z sym.   atoms
    1    6 c      1-4, 6-20, 22-26, 28-41, 43, 44
    2    8 o      5, 21, 27, 42
    3    1 h      45-82
########################################################################
[WARNING] Please study the warnings concerning your input carefully
-1- prog_main_parseArguments: The use of '--gfn0' is discouraged, please use '--gfn 0' next time
########################################################################

           -------------------------------------------------
          |                 G F N 0 - x T B                 |
           -------------------------------------------------

        Reference                      10.26434/chemrxiv.8326202.v1
      * Hamiltonian:
        H0-scaling (s, p, d)           2.000000    2.486800    2.270000
        zeta-weighting                 1.000000
      * Dispersion:
        s8                             2.850000
        a1                             0.800000
        a2                             4.600000
        s9                             0.000000
      * Repulsion:
        kExp                           1.500000
        rExp                           1.000000
      * Coulomb:
        alpha                          0.000000
        third order                    atomic
        anisotropic                    false
      * Polar bond correction:
        rad-shift                      0.053700
        strength                      -0.012900
        en-exp                         3.484700
        en-scale                       0.509700


          ...................................................
          :                      SETUP                      :
          :.................................................:
          :  # basis functions                 252          :
          :  # atomic orbitals                 252          :
          :  # shells                          164          :
          :  # electrons                       222          :
          :  electronic temp.          300.0000000     K    :
          :  accuracy                    1.0000000          :
          :  -> integral cutoff          0.2500000E+02      :
          :  -> integral neglect         0.1000000E-07      :
          ...................................................
  Checking positiv definite overlap ...  done.
 

         #    Occupation            Energy/Eh            Energy/eV
      -------------------------------------------------------------
         1        2.0000           -0.6944892             -18.8980
       ...           ...                  ...                  ...
       105        2.0000           -0.4368335             -11.8868
       106        2.0000           -0.4181524             -11.3785
       107        2.0000           -0.4181288             -11.3779
       108        2.0000           -0.3948916             -10.7455
       109        2.0000           -0.3939611             -10.7202
       110        2.0000           -0.3895351             -10.5998
       111        2.0000           -0.3890835             -10.5875 (HOMO)
       112                         -0.3006514              -8.1811 (LUMO)
       113                         -0.3001016              -8.1662
       114                         -0.2703137              -7.3556
       115                         -0.2697487              -7.3402
       116                         -0.2666288              -7.2553
       ...                                ...                  ...
       252                          0.6551776              17.8283
      -------------------------------------------------------------
                  HL-Gap            0.0884322 Eh            2.4064 eV
             Fermi-level            0.0000000 Eh            0.0000 eV

 EHT (total)                   0 d,  0 h,  0 min,  0.051 sec
 EHT setup                      ...        0 min,  0.001 sec (  2.657%)
 Coordination number            ...        0 min,  0.001 sec (  2.718%)
 EEQ model density              ...        0 min,  0.001 sec (  1.859%)
 D4 Dispersion                  ...        0 min,  0.003 sec (  5.625%)
 Integral evaluation            ...        0 min,  0.001 sec (  2.582%)
 Cholesky factorization         ...        0 min,  0.010 sec ( 18.819%)
 Zeroth order Hamiltonian       ...        0 min,  0.028 sec ( 56.192%)
 Gradient calculation           ...        0 min,  0.004 sec (  7.977%)

         :::::::::::::::::::::::::::::::::::::::::::::::::::::
         ::                     SUMMARY                     ::
         :::::::::::::::::::::::::::::::::::::::::::::::::::::
         :: total energy            -118.420347665415 Eh    ::
         :: gradient norm              0.056650235468 Eh/a0 ::
         :: HOMO-LUMO gap              2.406362540626 eV    ::
         ::.................................................::
         :: H0 energy               -120.116952717047 Eh    ::
         :: repulsion energy           1.986244355305 Eh    ::
         :: electrostat energy        -0.161010140225 Eh    ::
         :: -> Gsolv                   0.000000000000 Eh    ::
         ::    -> Gsasa                0.000000000000 Eh    ::
         ::    -> Gshift               0.000000000000 Eh    ::
         :: dispersion energy         -0.053038058653 Eh    ::
         :: short-range corr.         -0.075591104795 Eh    ::
         :: add. restraining           0.000000000000 Eh    ::
         :: total charge              -0.000000000000 e     ::
         :::::::::::::::::::::::::::::::::::::::::::::::::::::

           -------------------------------------------------
          |                Property Printout                |
           -------------------------------------------------

    * Orbital Energies and Occupations

         #    Occupation            Energy/Eh            Energy/eV
      -------------------------------------------------------------
         1        2.0000           -0.6944892             -18.8980
       ...           ...                  ...                  ...
        99        2.0000           -0.4452758             -12.1166
       100        2.0000           -0.4448428             -12.1048
       101        2.0000           -0.4428226             -12.0498
       102        2.0000           -0.4414985             -12.0138
       103        2.0000           -0.4386106             -11.9352
       104        2.0000           -0.4369188             -11.8892
       105        2.0000           -0.4368335             -11.8868
       106        2.0000           -0.4181524             -11.3785
       107        2.0000           -0.4181288             -11.3779
       108        2.0000           -0.3948916             -10.7455
       109        2.0000           -0.3939611             -10.7202
       110        2.0000           -0.3895351             -10.5998
       111        2.0000           -0.3890835             -10.5875 (HOMO)
       112                         -0.3006514              -8.1811 (LUMO)
       113                         -0.3001016              -8.1662
       114                         -0.2703137              -7.3556
       115                         -0.2697487              -7.3402
       116                         -0.2666288              -7.2553
       117                         -0.2663523              -7.2478
       118                         -0.2479871              -6.7481
       119                         -0.2472937              -6.7292
       120                         -0.2307465              -6.2789
       121                         -0.2299799              -6.2581
       122                         -0.1830775              -4.9818
       ...                                ...                  ...
       252                          0.6551776              17.8283
      -------------------------------------------------------------
                  HL-Gap            0.0884322 Eh            2.4064 eV
             Fermi-level            0.0000000 Eh            0.0000 eV

     #   Z          covCN         q      C6AA      α(0)
     1   6 c        3.752    -0.371    31.879     8.148
     2   6 c        3.800    -0.078    24.613     7.150
     3   6 c        3.800    -0.199    27.314     7.532
     4   6 c        3.690     0.099    21.382     6.693
     5   8 o        1.705    -0.410    20.855     6.179
     6   6 c        2.861     0.275    23.600     7.938
     7   6 c        2.920    -0.162    33.918     9.520
     8   6 c        2.923    -0.106    32.311     9.292
     9   6 c        2.977     0.086    27.474     8.571
    10   6 c        2.970    -0.014    29.861     8.935
    11   6 c        2.925    -0.201    35.096     9.685
    12   6 c        2.984     0.067    27.910     8.639
    13   6 c        2.919    -0.133    33.092     9.404
    14   6 c        2.916    -0.088    31.844     9.224
    15   6 c        2.917    -0.092    31.935     9.238
    16   6 c        2.917    -0.121    32.738     9.353
    17   6 c        2.988     0.033    28.701     8.761
    18   6 c        2.973    -0.094    31.965     9.245
    19   6 c        2.973    -0.093    31.940     9.241
    20   6 c        2.849     0.220    24.661     8.113
    21   8 o        1.659    -0.560    24.040     6.632
    22   6 c        2.969    -0.013    29.857     8.935
    23   6 c        2.976     0.086    27.485     8.573
    24   6 c        2.925    -0.096    32.034     9.253
    25   6 c        2.916    -0.186    34.633     9.620
    26   6 c        2.864     0.269    23.719     7.958
    27   8 o        1.706    -0.410    20.853     6.178
    28   6 c        3.692     0.103    21.303     6.680
    29   6 c        3.801    -0.182    26.903     7.475
    30   6 c        3.800    -0.082    24.708     7.164
    31   6 c        3.752    -0.367    31.780     8.136
    32   6 c        2.919    -0.152    33.626     9.479
    33   6 c        2.925    -0.137    33.189     9.418
    34   6 c        2.926    -0.200    35.074     9.682
    35   6 c        2.983     0.067    27.905     8.638
    36   6 c        2.919    -0.133    33.074     9.401
    37   6 c        2.916    -0.088    31.827     9.222
    38   6 c        2.917    -0.091    31.902     9.233
    39   6 c        2.917    -0.119    32.693     9.347
    40   6 c        2.988     0.033    28.717     8.763
    41   6 c        2.850     0.220    24.672     8.115
    42   8 o        1.659    -0.557    23.958     6.621
    43   6 c        2.927    -0.129    32.956     9.385
    44   6 c        2.916    -0.182    34.517     9.604
    45   1 h        0.925     0.134     1.507     1.920
    46   1 h        0.925     0.117     1.635     2.000
    47   1 h        0.925     0.167     1.280     1.769
    48   1 h        0.924     0.071     2.071     2.251
    49   1 h        0.924     0.077     2.015     2.220
    50   1 h        0.924     0.105     1.736     2.060
    51   1 h        0.924     0.071     2.072     2.251
    52   1 h        0.924     0.064     2.157     2.297
    53   1 h        0.923     0.041     2.433     2.439
    54   1 h        0.926     0.126     1.566     1.957
    55   1 h        0.926     0.140     1.462     1.891
    56   1 h        0.926     0.116     1.643     2.004
    57   1 h        0.926     0.097     1.808     2.103
    58   1 h        0.926     0.091     1.869     2.138
    59   1 h        0.926     0.093     1.850     2.127
    60   1 h        0.926     0.117     1.638     2.001
    61   1 h        0.805     0.311     0.690     1.305
    62   1 h        0.926     0.135     1.498     1.914
    63   1 h        0.926     0.106     1.732     2.058
    64   1 h        0.923     0.044     2.392     2.419
    65   1 h        0.923     0.043     2.411     2.428
    66   1 h        0.924     0.114     1.659     2.014
    67   1 h        0.924     0.068     2.103     2.268
    68   1 h        0.924     0.077     2.014     2.219
    69   1 h        0.924     0.071     2.070     2.250
    70   1 h        0.925     0.116     1.650     2.009
    71   1 h        0.925     0.132     1.517     1.926
    72   1 h        0.925     0.166     1.288     1.775
    73   1 h        0.926     0.120     1.611     1.985
    74   1 h        0.926     0.108     1.710     2.045
    75   1 h        0.926     0.117     1.634     1.999
    76   1 h        0.926     0.098     1.800     2.098
    77   1 h        0.926     0.092     1.860     2.133
    78   1 h        0.926     0.094     1.836     2.119
    79   1 h        0.926     0.120     1.615     1.988
    80   1 h        0.805     0.313     0.682     1.297
    81   1 h        0.926     0.105     1.742     2.064
    82   1 h        0.926     0.103     1.754     2.071

 Mol. C6AA /au·bohr⁶  :      82026.497646
 Mol. C8AA /au·bohr⁸  :    2042601.948489
 Mol. α(0) /au        :        452.181926


Wiberg/Mayer (AO) data.
largest (>0.10) Wiberg bond orders for each atom

 ---------------------------------------------------------------------------
     #   Z sym  total        # sym  WBO       # sym  WBO       # sym  WBO
 ---------------------------------------------------------------------------
     1   6 c    3.980 --     2 c    1.025    46 h    0.984    45 h    0.982
                            47 h    0.979
     2   6 c    3.989 --     1 c    1.025     3 c    1.012    48 h    0.979
                            49 h    0.977
     3   6 c    3.986 --     2 c    1.012     4 c    1.001    51 h    0.976
                            50 h    0.973
     4   6 c    3.953 --     3 c    1.001     5 o    0.976    52 h    0.972
                            53 h    0.970
     5   8 o    2.359 --     6 c    1.122     4 c    0.976
     6   6 c    3.940 --    44 c    1.349     7 c    1.330     5 o    1.122
     7   6 c    3.982 --     8 c    1.482     6 c    1.330    54 h    0.968
                            43 c    0.100
     8   6 c    3.983 --     7 c    1.482     9 c    1.365    55 h    0.968
     9   6 c    3.972 --    43 c    1.386     8 c    1.365    10 c    1.039
    10   6 c    3.976 --    11 c    1.517    41 c    1.210     9 c    1.039
    11   6 c    3.981 --    10 c    1.517    12 c    1.270    56 h    0.965
    12   6 c    3.978 --    13 c    1.282    11 c    1.270    17 c    1.242
    13   6 c    3.979 --    14 c    1.549    12 c    1.282    57 h    0.969
                            16 c    0.115
    14   6 c    3.975 --    13 c    1.549    15 c    1.321    58 h    0.973
    15   6 c    3.981 --    16 c    1.553    14 c    1.321    59 h    0.973
    16   6 c    3.987 --    15 c    1.553    17 c    1.276    60 h    0.966
                            13 c    0.115
    17   6 c    3.976 --    16 c    1.276    18 c    1.249    12 c    1.242
    18   6 c    3.964 --    41 c    1.413    17 c    1.249    19 c    0.992
    19   6 c    3.964 --    20 c    1.415    40 c    1.248    18 c    0.992
    20   6 c    3.940 --    19 c    1.415    22 c    1.210    21 o    1.134
    21   8 o    2.316 --    20 c    1.134    61 h    0.967
    22   6 c    3.976 --    34 c    1.516    20 c    1.210    23 c    1.041
    23   6 c    3.973 --    24 c    1.388    33 c    1.361    22 c    1.041
    24   6 c    3.983 --    25 c    1.455    23 c    1.388    62 h    0.968
                            32 c    0.100
    25   6 c    3.981 --    24 c    1.455    26 c    1.348    63 h    0.969
    26   6 c    3.939 --    25 c    1.348    32 c    1.327    27 o    1.125
    27   8 o    2.352 --    26 c    1.125    28 c    0.971
    28   6 c    3.955 --    29 c    1.009    64 h    0.973    27 o    0.971
                            65 h    0.971
    29   6 c    3.988 --    30 c    1.012    28 c    1.009    67 h    0.976
                            66 h    0.973
    30   6 c    3.989 --    31 c    1.025    29 c    1.012    69 h    0.979
                            68 h    0.977
    31   6 c    3.980 --    30 c    1.025    70 h    0.984    71 h    0.982
                            72 h    0.979
    32   6 c    3.981 --    33 c    1.485    26 c    1.327    73 h    0.968
                            24 c    0.100
    33   6 c    3.983 --    32 c    1.485    23 c    1.361    74 h    0.969
    34   6 c    3.980 --    22 c    1.516    35 c    1.271    75 h    0.965
    35   6 c    3.978 --    36 c    1.281    34 c    1.271    40 c    1.242
    36   6 c    3.978 --    37 c    1.549    35 c    1.281    76 h    0.969
                            39 c    0.115
    37   6 c    3.975 --    36 c    1.549    38 c    1.321    77 h    0.973
    38   6 c    3.981 --    39 c    1.553    37 c    1.321    78 h    0.973
    39   6 c    3.987 --    38 c    1.553    40 c    1.276    79 h    0.966
                            36 c    0.115
    40   6 c    3.976 --    39 c    1.276    19 c    1.248    35 c    1.242
    41   6 c    3.940 --    18 c    1.413    10 c    1.210    42 o    1.135
    42   8 o    2.314 --    41 c    1.135    80 h    0.967
    43   6 c    3.983 --    44 c    1.455     9 c    1.386    81 h    0.969
                             7 c    0.100
    44   6 c    3.981 --    43 c    1.455     6 c    1.349    82 h    0.967
    45   1 h    0.981 --     1 c    0.982
    46   1 h    0.982 --     1 c    0.984
    47   1 h    0.999 --     1 c    0.979
    48   1 h    0.983 --     2 c    0.979
    49   1 h    0.981 --     2 c    0.977
    50   1 h    0.978 --     3 c    0.973
    51   1 h    0.981 --     3 c    0.976
    52   1 h    0.999 --     4 c    0.972
    53   1 h    0.982 --     4 c    0.970
    54   1 h    0.986 --     7 c    0.968
    55   1 h    0.990 --     8 c    0.968
    56   1 h    0.973 --    11 c    0.965
    57   1 h    0.978 --    13 c    0.969
    58   1 h    0.983 --    14 c    0.973
    59   1 h    0.983 --    15 c    0.973
    60   1 h    0.981 --    16 c    0.966
    61   1 h    0.989 --    21 o    0.967
    62   1 h    0.992 --    24 c    0.968
    63   1 h    0.976 --    25 c    0.969
    64   1 h    0.986 --    28 c    0.973
    65   1 h    0.982 --    28 c    0.971
    66   1 h    0.983 --    29 c    0.973
    67   1 h    0.980 --    29 c    0.976
    68   1 h    0.981 --    30 c    0.977
    69   1 h    0.983 --    30 c    0.979
    70   1 h    0.982 --    31 c    0.984
    71   1 h    0.981 --    31 c    0.982
    72   1 h    0.999 --    31 c    0.979
    73   1 h    0.986 --    32 c    0.968
    74   1 h    0.979 --    33 c    0.969
    75   1 h    0.973 --    34 c    0.965
    76   1 h    0.978 --    36 c    0.969
    77   1 h    0.983 --    37 c    0.973
    78   1 h    0.983 --    38 c    0.973
    79   1 h    0.981 --    39 c    0.966
    80   1 h    0.988 --    42 o    0.967
    81   1 h    0.979 --    43 c    0.969
    82   1 h    0.975 --    44 c    0.967
 ---------------------------------------------------------------------------

Topologies differ in total number of bonds
Writing topology from bond orders to xtbtopo.mol

 dipole moment from electron density (au)
     X       Y       Z   
  -0.2561   1.3924  -0.6881  total (Debye):    4.001


           -------------------------------------------------
          | TOTAL ENERGY             -118.420347665415 Eh   |
          | GRADIENT NORM               0.056650235468 Eh/α |
          | HOMO-LUMO GAP               2.406362540626 eV   |
           -------------------------------------------------

------------------------------------------------------------------------
 * finished run on 2025/01/21 at 12:00:31.730     
------------------------------------------------------------------------
 total:
 * wall-time:     0 d,  0 h,  0 min,  0.116 sec
 *  cpu-time:     0 d,  0 h,  0 min,  2.439 sec
 * ratio c/w:    21.001 speedup
 SCF:
 * wall-time:     0 d,  0 h,  0 min,  0.051 sec
 *  cpu-time:     0 d,  0 h,  0 min,  1.247 sec
 * ratio c/w:    24.240 speedup

 Calculating WBOs... done.
      -----------------------------------------------------------      
     |                   =====================                   |     
     |                           x T B                           |     
     |                   =====================                   |     
     |                         S. Grimme                         |     
     |          Mulliken Center for Theoretical Chemistry        |     
     |                    University of Bonn                     |     
      -----------------------------------------------------------      

   * xtb version 6.4.1 (afa7bdf) compiled by 'ehlert@majestix' on 2021-06-10

   xtb is free software: you can redistribute it and/or modify it under
   the terms of the GNU Lesser General Public License as published by
   the Free Software Foundation, either version 3 of the License, or
   (at your option) any later version.
   
   xtb is distributed in the hope that it will be useful,
   but WITHOUT ANY WARRANTY; without even the implied warranty of
   MERCHANTABILITY or FITNESS FOR A PARTICULAR PURPOSE.  See the
   GNU Lesser General Public License for more details.
   
   Cite this work as:
   * C. Bannwarth, E. Caldeweyher, S. Ehlert, A. Hansen, P. Pracht,
     J. Seibert, S. Spicher, S. Grimme, WIREs Comput. Mol. Sci., 2020, 11,
     e01493. DOI: 10.1002/wcms.1493
   
   for GFN2-xTB:
   * C. Bannwarth, S. Ehlert and S. Grimme., J. Chem. Theory Comput., 2019,
     15, 1652-1671. DOI: 10.1021/acs.jctc.8b01176
   for GFN1-xTB:
   * S. Grimme, C. Bannwarth, P. Shushkov, J. Chem. Theory Comput., 2017,
     13, 1989-2009. DOI: 10.1021/acs.jctc.7b00118
   for GFN0-xTB:
   * P. Pracht, E. Caldeweyher, S. Ehlert, S. Grimme, ChemRxiv, 2019, preprint.
     DOI: 10.26434/chemrxiv.8326202.v1
   for GFN-FF:
   * S. Spicher and S. Grimme, Angew. Chem. Int. Ed., 2020, 59, 15665-15673.
     DOI: 10.1002/anie.202004239
   
   for DFT-D4:
   * E. Caldeweyher, C. Bannwarth and S. Grimme, J. Chem. Phys., 2017,
     147, 034112. DOI: 10.1063/1.4993215
   * E. Caldeweyher, S. Ehlert, A. Hansen, H. Neugebauer, S. Spicher,
     C. Bannwarth and S. Grimme, J. Chem. Phys., 2019, 150, 154122.
     DOI: 10.1063/1.5090222
   * E. Caldeweyher, J.-M. Mewes, S. Ehlert and S. Grimme, Phys. Chem. Chem. Phys.
     2020, 22, 8499-8512. DOI: 10.1039/D0CP00502A
   
   for sTDA-xTB:
   * S. Grimme and C. Bannwarth, J. Chem. Phys., 2016, 145, 054103.
     DOI: 10.1063/1.4959605
   
   in the mass-spec context:
   * V. Asgeirsson, C. Bauer and S. Grimme, Chem. Sci., 2017, 8, 4879.
     DOI: 10.1039/c7sc00601b
   * J. Koopman and S. Grimme, ACS Omega 2019, 4, 12, 15120-15133.
     DOI: 10.1021/acsomega.9b02011
   
   for metadynamics refer to:
   * S. Grimme, J. Chem. Theory Comput., 2019, 155, 2847-2862
     DOI: 10.1021/acs.jctc.9b00143
   
   for SPH calculations refer to:
   * S. Spicher and S. Grimme, J. Chem. Theory Comput., 2021, 17, 1701-1714
     DOI: 10.1021/acs.jctc.0c01306
   
   with help from (in alphabetical order)
   P. Atkinson, C. Bannwarth, F. Bohle, G. Brandenburg, E. Caldeweyher
   M. Checinski, S. Dohm, S. Ehlert, S. Ehrlich, I. Gerasimov, J. Koopman
   C. Lavigne, S. Lehtola, F. März, M. Müller, F. Musil, H. Neugebauer
   J. Pisarek, C. Plett, P. Pracht, J. Seibert, P. Shushkov, S. Spicher
   M. Stahn, M. Steiner, T. Strunk, J. Stückrath, T. Rose, and J. Unsleber
   
 * started run on 2025/01/21 at 12:00:31.776     

           -------------------------------------------------
          |                Calculation Setup                |
           -------------------------------------------------

          program call               : xtb tmpcoord --gfnff --sp
          hostname                   : node2
          coordinate file            : tmpcoord
          omp threads                :                    28
          number of atoms            :                    82
          number of electrons        :                   222
          charge                     :                     0
          spin                       :                   0.0
          first test random number   :      0.57164001864819

   ID    Z sym.   atoms
    1    6 c      1-4, 6-20, 22-26, 28-41, 43, 44
    2    8 o      5, 21, 27, 42
    3    1 h      45-82
 
          ==================== Thresholds ====================
          CN  :   150.00000
          rep :   500.00000
          disp:  2500.00000
          HB1 :   250.00000
          HB2 :   450.00000
 
          Pauling EN used:
          Z : 1  EN :  2.20
          Z : 6  EN :  2.55
          Z : 8  EN :  3.44
          electric field strengths (au): 0.000
 
           ------------------------------------------------- 
          |           Force Field Initialization            |
           ------------------------------------------------- 
 
          distances ...
          ----------------------------------------
          generating topology and atomic info file ...
          pair mat ...
          computing topology distances matrix with Floyd-Warshall algo ...
          making topology EEQ charges ...
          #fragments for EEQ constrain: 1
          ----------------------------------------
          generating topology and atomic info file ...
          pair mat ...
          computing topology distances matrix with Floyd-Warshall algo ...
          making topology EEQ charges ...
          #fragments for EEQ constrain: 1
          rings ...
          # BATM   880
          # H in HB   20
          doing iterative Hueckel for 1 subsystem(s) ...
 
  atom   neighbors  erfCN metchar sp-hybrid imet pi  qest     coordinates
    1  c       4    3.49   0.00         3    0    0  -0.067  -14.972096    7.452624   -3.625601
    2  c       4    3.48   0.00         3    0    0  -0.034  -17.453377    6.006678   -3.414758
    3  c       4    3.48   0.00         3    0    0  -0.048  -17.083117    3.237301   -2.677815
    4  c       4    3.49   0.00         3    0    0   0.089  -15.845256    1.640505   -4.754081
    5  o       2    1.92   0.00         3    0    1  -0.357  -13.249106    2.133680   -5.114627
    6  c       3    2.83   0.00         2    0    1   0.071  -11.537382    1.323113   -3.374958
    7  c       3    2.82   0.00         2    0    1  -0.003   -9.049174    2.102537   -3.783574
    8  c       3    2.82   0.00         2    0    1  -0.039   -7.141900    1.380956   -2.168710
    9  c       3    2.82   0.00         2    0    1   0.004   -7.658925   -0.126462   -0.072583
   10  c       3    2.81   0.00         2    0    1  -0.009   -5.669923   -0.854272    1.726003
   11  c       3    2.82   0.00         2    0    1  -0.018   -6.054116   -0.622225    4.280551
   12  c       3    2.83   0.00         2    0    1  -0.013   -4.201483   -1.310170    6.061684
   13  c       3    2.81   0.00         2    0    1  -0.010   -4.599319   -1.063876    8.684268
   14  c       3    2.81   0.00         2    0    1  -0.050   -2.769120   -1.759361   10.369094
   15  c       3    2.81   0.00         2    0    1  -0.025   -0.460724   -2.734520    9.503696
   16  c       3    2.81   0.00         2    0    1  -0.047   -0.012594   -2.992856    6.972309
   17  c       3    2.83   0.00         2    0    1  -0.007   -1.862672   -2.286234    5.189588
   18  c       3    2.82   0.00         2    0    1   0.011   -1.469897   -2.537461    2.551840
   19  c       3    2.82   0.00         2    0    1   0.011    0.950996   -3.586540    1.565768
   20  c       3    2.82   0.00         2    0    1   0.086    2.938634   -1.967768    1.082534
   21  o       2    1.92   0.00         3    0    1  -0.443    2.719523    0.559552    1.498316
   22  c       3    2.81   0.00         2    0    1  -0.009    5.247550   -2.895755    0.075049
   23  c       3    2.82   0.00         2    0    1   0.004    7.355012   -1.174019   -0.485704
   24  c       3    2.82   0.00         2    0    1  -0.039    8.130271    0.659955    1.224354
   25  c       3    2.81   0.00         2    0    1  -0.003   10.150434    2.234410    0.700448
   26  c       3    2.83   0.00         2    0    1   0.071   11.438289    2.011989   -1.579543
   27  o       2    1.92   0.00         3    0    1  -0.357   13.439623    3.448698   -2.302252
   28  c       4    3.50   0.00         3    0    0   0.089   14.366650    5.314123   -0.634379
   29  c       4    3.49   0.00         3    0    0  -0.048   16.627284    6.630393   -1.854413
   30  c       4    3.48   0.00         3    0    0  -0.034   19.064076    5.077993   -1.784093
   31  c       4    3.49   0.00         3    0    0  -0.067   19.009871    2.808719   -3.554710
   32  c       3    2.81   0.00         2    0    1  -0.003   10.662051    0.176972   -3.310844
   33  c       3    2.82   0.00         2    0    1  -0.039    8.660733   -1.390874   -2.765667
   34  c       3    2.82   0.00         2    0    1  -0.018    5.464897   -5.437791   -0.396437
   35  c       3    2.83   0.00         2    0    1  -0.013    3.491652   -7.149567    0.106703
   36  c       3    2.81   0.00         2    0    1  -0.010    3.733643   -9.763255   -0.349326
   37  c       3    2.81   0.00         2    0    1  -0.050    1.785528  -11.379703    0.164532
   38  c       3    2.81   0.00         2    0    1  -0.025   -0.490532  -10.452651    1.158771
   39  c       3    2.81   0.00         2    0    1  -0.047   -0.788272   -7.928057    1.619801
   40  c       3    2.83   0.00         2    0    1  -0.007    1.187729   -6.215402    1.107486
   41  c       3    2.82   0.00         2    0    1   0.086   -3.328564   -1.838857    0.858869
   42  o       2    1.92   0.00         3    0    1  -0.443   -2.994079   -2.113242   -1.673761
   43  c       3    2.82   0.00         2    0    1  -0.039  -10.136368   -0.902689    0.323741
   44  c       3    2.81   0.00         2    0    1  -0.003  -12.060328   -0.205947   -1.301512
   45  h       1    0.97   0.00         0    0    0   0.038  -13.943834    7.378393   -1.845882
   46  h       1    0.97   0.00         0    0    0   0.038  -15.332226    9.423371   -4.086194
   47  h       1    0.97   0.00         0    0    0   0.038  -13.784875    6.643618   -5.091091
   48  h       1    0.97   0.00         0    0    0   0.029  -18.641214    6.906413   -1.984350
   49  h       1    0.97   0.00         0    0    0   0.029  -18.462736    6.101668   -5.213272
   50  h       1    0.97   0.00         0    0    0   0.035  -15.933773    3.143525   -0.967122
   51  h       1    0.97   0.00         0    0    0   0.035  -18.923093    2.398563   -2.261833
   52  h       1    0.97   0.00         0    0    0   0.019  -16.709301    2.083203   -6.579368
   53  h       1    0.97   0.01         0    0    0   0.019  -16.144135   -0.377295   -4.373342
   54  h       1    0.97   0.00         0    0    0   0.033   -8.662459    3.282688   -5.400296
   55  h       1    0.97   0.00         0    0    0   0.067   -5.235411    2.012041   -2.516923
   56  h       1    0.97   0.00         0    0    0   0.049   -7.825131    0.136189    4.956385
   57  h       1    0.97   0.00         0    0    0   0.029   -6.384899   -0.315445    9.334235
   58  h       1    0.97   0.00         0    0    0   0.057   -3.087897   -1.567405   12.375975
   59  h       1    0.97   0.00         0    0    0   0.048    0.964966   -3.284373   10.856837
   60  h       1    0.97   0.00         0    0    0   0.052    1.761607   -3.752477    6.305081
   61  h       1    0.97   0.01         0    0    0   0.237    1.052413    0.910170    2.166809
   62  h       1    0.97   0.00         0    0    0   0.067    7.160454    0.852778    3.007025
   63  h       1    0.97   0.00         0    0    0   0.033   10.699267    3.627030    2.084534
   64  h       1    0.97   0.01         0    0    0   0.019   12.874914    6.710300   -0.253576
   65  h       1    0.97   0.01         0    0    0   0.019   14.934975    4.449722    1.167076
   66  h       1    0.97   0.00         0    0    0   0.035   16.142549    7.068093   -3.809921
   67  h       1    0.97   0.00         0    0    0   0.035   16.933124    8.407042   -0.850259
   68  h       1    0.97   0.00         0    0    0   0.029   19.403704    4.438455    0.149972
   69  h       1    0.97   0.00         0    0    0   0.029   20.634442    6.309158   -2.315962
   70  h       1    0.97   0.00         0    0    0   0.038   20.788422    1.782284   -3.454909
   71  h       1    0.97   0.00         0    0    0   0.038   18.720621    3.424503   -5.493935
   72  h       1    0.97   0.00         0    0    0   0.038   17.484143    1.532059   -3.054248
   73  h       1    0.97   0.00         0    0    0   0.033   11.667491    0.028118   -5.078314
   74  h       1    0.97   0.00         0    0    0   0.067    8.069879   -2.783187   -4.136730
   75  h       1    0.97   0.00         0    0    0   0.049    7.220471   -6.165457   -1.142088
   76  h       1    0.97   0.00         0    0    0   0.029    5.494765  -10.461955   -1.111339
   77  h       1    0.97   0.00         0    0    0   0.057    1.984998  -13.380281   -0.187130
   78  h       1    0.97   0.00         0    0    0   0.048   -2.011734  -11.752373    1.561699
   79  h       1    0.97   0.00         0    0    0   0.052   -2.538461   -7.214711    2.392654
   80  h       1    0.97   0.01         0    0    0   0.237   -1.390009   -2.938383   -1.980444
   81  h       1    0.97   0.00         0    0    0   0.067  -10.568910   -2.106248    1.915881
   82  h       1    0.97   0.00         0    0    0   0.033  -13.949226   -0.878618   -0.931504
 
          #atoms :   82
          #bonds :   87
          #angl  :   148
          #tors  :   252
          #nmol  :   1
          #optfrag :   1
           ------------------------------------------------- 
          |                   G F N - F F                   |
          |          A general generic force-field          |
          |                  Version 1.0.3                  | 
           ------------------------------------------------- 
          nhb123   5654 517 0

 E+G (total)                   0 d,  0 h,  0 min,  0.004 sec
 distance/D3 list               ...        0 min,  0.000 sec (  0.723%)
 non bonded repulsion           ...        0 min,  0.000 sec (  7.088%)
 dCN                            ...        0 min,  0.000 sec (  5.440%)
 EEQ energy and q               ...        0 min,  0.000 sec ( 11.882%)
 D3                             ...        0 min,  0.001 sec ( 14.140%)
 EEQ gradient                   ...        0 min,  0.000 sec (  6.732%)
 bonds                          ...        0 min,  0.000 sec ( 10.217%)
 bend and torsion               ...        0 min,  0.000 sec ( 12.356%)
 bonded ATM                     ...        0 min,  0.000 sec (  1.144%)
 HB/XB (incl list setup)        ...        0 min,  0.001 sec ( 24.760%)

         :::::::::::::::::::::::::::::::::::::::::::::::::::::
         ::                     SUMMARY                     ::
         :::::::::::::::::::::::::::::::::::::::::::::::::::::
         :: total energy             -15.840892485240 Eh    ::
         :: gradient norm              0.079649066669 Eh/a0 ::
         ::.................................................::
         :: bond energy              -16.669285412404 Eh    ::
         :: angle energy               0.020252500591 Eh    ::
         :: torsion energy             0.019331691417 Eh    ::
         :: repulsion energy           1.116164779156 Eh    ::
         :: electrostat energy        -0.233824595659 Eh    ::
         :: dispersion energy         -0.078523079452 Eh    ::
         :: HB energy                 -0.001387002352 Eh    ::
         :: XB energy                  0.000000000000 Eh    ::
         :: bonded atm energy         -0.013621366536 Eh    ::
         :: external energy            0.000000000000 Eh    ::
         :: add. restraining           0.000000000000 Eh    ::
         :: total charge              -0.000000000000 e     ::
         :::::::::::::::::::::::::::::::::::::::::::::::::::::

           -------------------------------------------------
          |                Property Printout                |
           -------------------------------------------------

           -------------------------------------------------
          | TOTAL ENERGY              -15.840892485240 Eh   |
          | GRADIENT NORM               0.079649066669 Eh/α |
           -------------------------------------------------

------------------------------------------------------------------------
 * finished run on 2025/01/21 at 12:00:31.834     
------------------------------------------------------------------------
 total:
 * wall-time:     0 d,  0 h,  0 min,  0.058 sec
 *  cpu-time:     0 d,  0 h,  0 min,  0.849 sec
 * ratio c/w:    14.562 speedup
 SCF:
 * wall-time:     0 d,  0 h,  0 min,  0.007 sec
 *  cpu-time:     0 d,  0 h,  0 min,  0.150 sec
 * ratio c/w:    22.669 speedup

 Calculating NCI flexibility... done.
     covalent flexibility measure :   0.351
 non-covalent flexibility measure :   1.000
 flexibility measure :   0.471
 t(MTD) / ps set by command line  :     0.5
 t(MTD) / ps    :     0.5
 Σ(t(MTD)) / ps :     7.0 (14 MTDs)
 
-------------------------------------
Starting a trial MTD to test settings
-------------------------------------
 Estimated runtime for one MTD (0.5 ps) on a single thread: 3 min 14 sec
 Estimated runtime for a batch of 14 MTDs on 28 threads: 1 min 37 sec
 
 list of Vbias parameters applied:
$metadyn    0.00300   1.300
$metadyn    0.00150   1.300
$metadyn    0.00075   1.300
$metadyn    0.00300   0.780
$metadyn    0.00150   0.780
$metadyn    0.00075   0.780
$metadyn    0.00300   0.468
$metadyn    0.00150   0.468
$metadyn    0.00075   0.468
$metadyn    0.00300   0.281
$metadyn    0.00150   0.281
$metadyn    0.00075   0.281
$metadyn    0.00100   0.100
$metadyn    0.00500   0.800
 
*******************************************************************************************
**                        N E W    I T E R A T I O N    C Y C L E                        **
*******************************************************************************************
 
========================================
            MTD Iteration  1
========================================
 
     ========================================
     |         Meta-MD (MTD) Sampling       |
     ========================================
 
Starting Meta-MD   3 with the settings:
     MD time /ps        :     0.5
     dt /fs             :     1.5
     dumpstep(trj) /fs  :     100
     dumpstep(Vbias)/ps :     1.0
     Vbias factor k /Eh :  0.0615
     Vbias exp α /bohr⁻²:    1.30
Starting Meta-MD   1 with the settings:
     MD time /ps        :     0.5
     dt /fs             :     1.5
     dumpstep(trj) /fs  :     100
     dumpstep(Vbias)/ps :     1.0
     Vbias factor k /Eh :  0.2460
     Vbias exp α /bohr⁻²:    1.30
Starting Meta-MD   7 with the settings:
     MD time /ps        :     0.5
     dt /fs             :     1.5
     dumpstep(trj) /fs  :     100
     dumpstep(Vbias)/ps :     1.0
     Vbias factor k /Eh :  0.2460
     Vbias exp α /bohr⁻²:    0.47
Starting Meta-MD   2 with the settings:
     MD time /ps        :     0.5
     dt /fs             :     1.5
     dumpstep(trj) /fs  :     100
     dumpstep(Vbias)/ps :     1.0
     Vbias factor k /Eh :  0.1230
     Vbias exp α /bohr⁻²:    1.30
Starting Meta-MD   8 with the settings:
     MD time /ps        :     0.5
     dt /fs             :     1.5
     dumpstep(trj) /fs  :     100
     dumpstep(Vbias)/ps :     1.0
     Vbias factor k /Eh :  0.1230
     Vbias exp α /bohr⁻²:    0.47
Starting Meta-MD   5 with the settings:
     MD time /ps        :     0.5
     dt /fs             :     1.5
     dumpstep(trj) /fs  :     100
     dumpstep(Vbias)/ps :     1.0
     Vbias factor k /Eh :  0.1230
     Vbias exp α /bohr⁻²:    0.78
Starting Meta-MD   9 with the settings:
     MD time /ps        :     0.5
     dt /fs             :     1.5
     dumpstep(trj) /fs  :     100
     dumpstep(Vbias)/ps :     1.0
     Vbias factor k /Eh :  0.0615
     Vbias exp α /bohr⁻²:    0.47
Starting Meta-MD  10 with the settings:
     MD time /ps        :     0.5
     dt /fs             :     1.5
     dumpstep(trj) /fs  :     100
     dumpstep(Vbias)/ps :     1.0
     Vbias factor k /Eh :  0.2460
     Vbias exp α /bohr⁻²:    0.28
Starting Meta-MD  11 with the settings:
     MD time /ps        :     0.5
     dt /fs             :     1.5
     dumpstep(trj) /fs  :     100
     dumpstep(Vbias)/ps :     1.0
     Vbias factor k /Eh :  0.1230
     Vbias exp α /bohr⁻²:    0.28
Starting Meta-MD  14 with the settings:
     MD time /ps        :     0.5
     dt /fs             :     1.5
     dumpstep(trj) /fs  :     100
     dumpstep(Vbias)/ps :     1.0
     Vbias factor k /Eh :  0.4100
     Vbias exp α /bohr⁻²:    0.80
Starting Meta-MD  12 with the settings:
     MD time /ps        :     0.5
     dt /fs             :     1.5
     dumpstep(trj) /fs  :     100
     dumpstep(Vbias)/ps :     1.0
     Vbias factor k /Eh :  0.0615
     Vbias exp α /bohr⁻²:    0.28
Starting Meta-MD  13 with the settings:
     MD time /ps        :     0.5
     dt /fs             :     1.5
     dumpstep(trj) /fs  :     100
     dumpstep(Vbias)/ps :     1.0
     Vbias factor k /Eh :  0.0820
     Vbias exp α /bohr⁻²:    0.10
Starting Meta-MD   4 with the settings:
     MD time /ps        :     0.5
     dt /fs             :     1.5
     dumpstep(trj) /fs  :     100
     dumpstep(Vbias)/ps :     1.0
     Vbias factor k /Eh :  0.2460
     Vbias exp α /bohr⁻²:    0.78
Starting Meta-MD   6 with the settings:
     MD time /ps        :     0.5
     dt /fs             :     1.5
     dumpstep(trj) /fs  :     100
     dumpstep(Vbias)/ps :     1.0
     Vbias factor k /Eh :  0.0615
     Vbias exp α /bohr⁻²:    0.78
*Meta-MTD 6 finished*
*Meta-MTD 7 finished*
*Meta-MTD 12 finished*
*Meta-MTD 8 finished*
*Meta-MTD 14 finished*
*Meta-MTD 11 finished*
*Meta-MTD 1 finished*
*Meta-MTD 9 finished*
*Meta-MTD 2 finished*
*Meta-MTD 4 finished*
*Meta-MTD 13 finished*
*Meta-MTD 5 finished*
*Meta-MTD 10 finished*
*Meta-MTD 3 finished*
 
-----------------------
Multilevel Optimization
-----------------------
 
 -------------------------
 1. crude pre-optimization
 -------------------------
 Optimizing all 70 structures from file "crest_rotamers_0.xyz" ...
 1 2 3 4 5 6 7 8 9 10 11 12 13 14 15 16 17 18 19 20 21 22 23 24 25 26 27 28 29 30 31 32 33 34 35 36 37 38 39 40 41 42 43 44 45 46 47 48 49 50 51 52 53 54 55 56 57 58 59 60 61 62 63 64 65 66 67 68 69 70
 done.
 running RMSDs...
 done.
 E lowest :  -121.33407
 66 structures remain within    12.00 kcal/mol window
 
 -------------------------------------
 2. optimization with tight thresholds
 -------------------------------------
 Optimizing all 67 structures from file "crest_rotamers_1.xyz" ...
 1 2 3 4 5 6 7 8 9 10 11 12 13 14 15 16 17 18 19 20 21 22 23 24 25 26 27 28 29 30 31 32 33 34 35 36 37 38 39 40 41 42 43 44 45 46 47 48 49 50 51 52 53 54 55 56 57 58 59 60 61 62 63 64 65 66 67
 done.
 running RMSDs...
 done.
 E lowest :  -121.33776
 49 structures remain within     6.00 kcal/mol window
 
 
========================================
            MTD Iteration  2
========================================
 
     ========================================
     |         Meta-MD (MTD) Sampling       |
     ========================================
 
Starting Meta-MD   2 with the settings:
     MD time /ps        :     0.5
     dt /fs             :     1.5
     dumpstep(trj) /fs  :     100
     dumpstep(Vbias)/ps :     1.0
     Vbias factor k /Eh :  0.1230
     Vbias exp α /bohr⁻²:    1.30
Starting Meta-MD   1 with the settings:
     MD time /ps        :     0.5
     dt /fs             :     1.5
     dumpstep(trj) /fs  :     100
     dumpstep(Vbias)/ps :     1.0
     Vbias factor k /Eh :  0.2460
     Vbias exp α /bohr⁻²:    1.30
Starting Meta-MD   5 with the settings:
     MD time /ps        :     0.5
     dt /fs             :     1.5
     dumpstep(trj) /fs  :     100
     dumpstep(Vbias)/ps :     1.0
     Vbias factor k /Eh :  0.1230
     Vbias exp α /bohr⁻²:    0.78
Starting Meta-MD   8 with the settings:
     MD time /ps        :     0.5
     dt /fs             :     1.5
     dumpstep(trj) /fs  :     100
     dumpstep(Vbias)/ps :     1.0
     Vbias factor k /Eh :  0.1230
     Vbias exp α /bohr⁻²:    0.47
Starting Meta-MD   4 with the settings:
     MD time /ps        :     0.5
     dt /fs             :     1.5
     dumpstep(trj) /fs  :     100
     dumpstep(Vbias)/ps :     1.0
     Vbias factor k /Eh :  0.2460
     Vbias exp α /bohr⁻²:    0.78
Starting Meta-MD   3 with the settings:
     MD time /ps        :     0.5
     dt /fs             :     1.5
     dumpstep(trj) /fs  :     100
     dumpstep(Vbias)/ps :     1.0
     Vbias factor k /Eh :  0.0615
     Vbias exp α /bohr⁻²:    1.30
Starting Meta-MD   6 with the settings:
     MD time /ps        :     0.5
     dt /fs             :     1.5
     dumpstep(trj) /fs  :     100
     dumpstep(Vbias)/ps :     1.0
     Vbias factor k /Eh :  0.0615
     Vbias exp α /bohr⁻²:    0.78
Starting Meta-MD   7 with the settings:
     MD time /ps        :     0.5
     dt /fs             :     1.5
     dumpstep(trj) /fs  :     100
     dumpstep(Vbias)/ps :     1.0
     Vbias factor k /Eh :  0.2460
     Vbias exp α /bohr⁻²:    0.47
Starting Meta-MD   9 with the settings:
     MD time /ps        :     0.5
     dt /fs             :     1.5
     dumpstep(trj) /fs  :     100
     dumpstep(Vbias)/ps :     1.0
     Vbias factor k /Eh :  0.0615
     Vbias exp α /bohr⁻²:    0.47
Starting Meta-MD  10 with the settings:
     MD time /ps        :     0.5
     dt /fs             :     1.5
     dumpstep(trj) /fs  :     100
     dumpstep(Vbias)/ps :     1.0
     Vbias factor k /Eh :  0.2460
     Vbias exp α /bohr⁻²:    0.28
Starting Meta-MD  11 with the settings:
     MD time /ps        :     0.5
     dt /fs             :     1.5
     dumpstep(trj) /fs  :     100
     dumpstep(Vbias)/ps :     1.0
     Vbias factor k /Eh :  0.1230
     Vbias exp α /bohr⁻²:    0.28
Starting Meta-MD  12 with the settings:
     MD time /ps        :     0.5
     dt /fs             :     1.5
     dumpstep(trj) /fs  :     100
     dumpstep(Vbias)/ps :     1.0
     Vbias factor k /Eh :  0.0615
     Vbias exp α /bohr⁻²:    0.28
*Meta-MTD 8 finished*
*Meta-MTD 12 finished*
*Meta-MTD 11 finished*
*Meta-MTD 10 finished*
*Meta-MTD 3 finished*
*Meta-MTD 1 finished*
*Meta-MTD 5 finished*
*Meta-MTD 2 finished*
*Meta-MTD 6 finished*
*Meta-MTD 9 finished*
*Meta-MTD 7 finished*
*Meta-MTD 4 finished*
 
-----------------------
Multilevel Optimization
-----------------------
 
 -------------------------
 1. crude pre-optimization
 -------------------------
 Optimizing all 60 structures from file "crest_rotamers_0.xyz" ...
 1 2 3 4 5 6 7 8 9 10 11 12 13 14 15 16 17 18 19 20 21 22 23 24 25 26 27 28 29 30 31 32 33 34 35 36 37 38 39 40 41 42 43 44 45 46 47 48 49 50 51 52 53 54 55 56 57 58 59 60
 done.
 running RMSDs...
 done.
 E lowest :  -121.33723
 53 structures remain within    12.00 kcal/mol window
 
 -------------------------------------
 2. optimization with tight thresholds
 -------------------------------------
 Optimizing all 54 structures from file "crest_rotamers_1.xyz" ...
 1 2 3 4 5 6 7 8 9 10 11 12 13 14 15 16 17 18 19 20 21 22 23 24 25 26 27 28 29 30 31 32 33 34 35 36 37 38 39 40 41 42 43 44 45 46 47 48 49 50 51 52 53 54
 done.
 running RMSDs...
 done.
 E lowest :  -121.33777
 30 structures remain within     6.00 kcal/mol window
 
========================================
            MTD Iterations done         
========================================
 Collecting ensmbles.
 running RMSDs...
 done.
 E lowest :  -121.33777
 77 structures remain within     6.00 kcal/mol window
 
 -------------------------------
 Additional orientation sampling
 -------------------------------
 Optimizing all 150 structures from file "oh_ensemble.xyz" ...
 1 2 3 4 5 6 7 8 9 10 11 12 13 14 15 16 17 18 19 20 21 22 23 24 25 26 27 28 29 30 31 32 33 34 35 36 37 38 39 40 41 42 43 44 45 46 47 48 49 50 51 52 53 54 55 56 57 58 59 60 61 62 63 64 65 66 67 68 69 70 71 72 73 74 75 76 77 78 79 80 81 82 83 84 85 86 87 88 89 90 91 92 93 94 95 96 97 98 99 100 101 102 103 104 105 106 107 108 109 110 111 112 113 114 115 116 117 118 119 120 121 122 123 124 125 126 127 128 129 130 131 132 133 134 135 136 137 138 139 140 141 142 143 144 145 146 147 148 149 150
 done.
 running RMSDs...
 done.
 E lowest :  -121.33777
 200 structures remain within     6.00 kcal/mol window
 
-----------------------------------------------
Additional regular MDs on lowest 4 conformer(s)
-----------------------------------------------
Starting MD   1 with the settings:
     MD time /ps        :     0.2
     MD Temperature /K  :   400.0
     dt /fs             :     1.5
     dumpstep(trj) /fs  :     100
Starting MD   2 with the settings:
     MD time /ps        :     0.2
     MD Temperature /K  :   500.0
     dt /fs             :     1.5
     dumpstep(trj) /fs  :     100
Starting MD   3 with the settings:
     MD time /ps        :     0.2
     MD Temperature /K  :   400.0
     dt /fs             :     1.5
     dumpstep(trj) /fs  :     100
Starting MD   5 with the settings:
     MD time /ps        :     0.2
     MD Temperature /K  :   400.0
     dt /fs             :     1.5
     dumpstep(trj) /fs  :     100
Starting MD   4 with the settings:
     MD time /ps        :     0.2
     MD Temperature /K  :   500.0
     dt /fs             :     1.5
     dumpstep(trj) /fs  :     100
Starting MD   6 with the settings:
     MD time /ps        :     0.2
     MD Temperature /K  :   500.0
     dt /fs             :     1.5
     dumpstep(trj) /fs  :     100
Starting MD   7 with the settings:
     MD time /ps        :     0.2
     MD Temperature /K  :   400.0
     dt /fs             :     1.5
     dumpstep(trj) /fs  :     100
Starting MD   8 with the settings:
     MD time /ps        :     0.2
     MD Temperature /K  :   500.0
     dt /fs             :     1.5
     dumpstep(trj) /fs  :     100
*MD 8 finished*
*MD 1 finished*
*MD 5 finished*
*MD 2 finished*
*MD 4 finished*
*MD 7 finished*
*MD 3 finished*
*MD 6 finished*
 Appending file crest_rotamers_2.xyz with new structures
 
 -------------------------------------------
 Ensemble optimization with tight thresholds
 -------------------------------------------
 Optimizing all 216 structures from file "crest_rotamers_2.xyz" ...
 1 2 3 4 5 6 7 8 9 10 11 12 13 14 15 16 17 18 19 20 21 22 23 24 25 26 27 28 29 30 31 32 33 34 35 36 37 38 39 40 41 42 43 44 45 46 47 48 49 50 51 52 53 54 55 56 57 58 59 60 61 62 63 64 65 66 67 68 69 70 71 72 73 74 75 76 77 78 79 80 81 82 83 84 85 86 87 88 89 90 91 92 93 94 95 96 97 98 99 100 101 102 103 104 105 106 107 108 109 110 111 112 113 114 115 116 117 118 119 120 121 122 123 124 125 126 127 128 129 130 131 132 133 134 135 136 137 138 139 140 141 142 143 144 145 146 147 148 149 150 151 152 153 154 155 156 157 158 159 160 161 162 163 164 165 166 167 168 169 170 171 172 173 174 175 176 177 178 179 180 181 182 183 184 185 186 187 188 189 190 191 192 193 194 195 196 197 198 199 200 201 202 203 204 205 206 207 208 209 210 211 212 213 214 215 216
 done.
 running RMSDs...
 done.
 E lowest :  -121.33777
 201 structures remain within     6.00 kcal/mol window
 
 
     ========================================
     |        Structure Crossing (GC)       |
     ========================================
 =============================
  # threads =          28
 =============================
 input  file name : crest_rotamers_4.xyz
number of atoms                :    82
number of points on xyz files  :   201
conformer energy window  /kcal :    6.00
CN per atom difference cut-off :  0.3000
RMSD threshold                 :  0.5000
max. # of generated structures : 25
 reading xyz file ...
 # in E window                201
 generating pairs ...       20300
  36.8 % done
  99.0 % done
 generated pairs           :        9885
 number of clash discarded :       10215
 average rmsd w.r.t input  : 3.41598
 sd of ensemble            : 1.10008
 number of new structures      :           3
 removed identical structures  :          47
 writing            3  TMPCONF* dirs ...
 --------------------------
 GC: loose pre-optimization
 --------------------------
 Starting optimization of generated structures
 3 jobs to do.
 1 2 3 
 done.
 Now appending opt.xyz file with new structures
 running RMSDs...
 done.
 E lowest :  -121.33775
 3 structures remain within    10.00 kcal/mol window
 --------------------------------------
 GC: optimization with tight thresholds
 --------------------------------------
 Optimizing all 3 structures from file "crest_rotamers_1.xyz" ...
 1 2 3
 done.
 running RMSDs...
 done.
 E lowest :  -121.33777
 
 
   ================================================
   |           Final Geometry Optimization        |
   ================================================
 ------------------------------------------------
 Ensemble optimization with very tight thresholds
 ------------------------------------------------
 Optimizing all 203 structures from file "crest_rotamers_5.xyz" ...
 1 2 3 4 5 6 7 8 9 10 11 12 13 14 15 16 17 18 19 20 21 22 23 24 25 26 27 28 29 30 31 32 33 34 35 36 37 38 39 40 41 42 43 44 45 46 47 48 49 50 51 52 53 54 55 56 57 58 59 60 61 62 63 64 65 66 67 68 69 70 71 72 73 74 75 76 77 78 79 80 81 82 83 84 85 86 87 88 89 90 91 92 93 94 95 96 97 98 99 100 101 102 103 104 105 106 107 108 109 110 111 112 113 114 115 116 117 118 119 120 121 122 123 124 125 126 127 128 129 130 131 132 133 134 135 136 137 138 139 140 141 142 143 144 145 146 147 148 149 150 151 152 153 154 155 156 157 158 159 160 161 162 163 164 165 166 167 168 169 170 171 172 173 174 175 176 177 178 179 180 181 182 183 184 185 186 187 188 189 190 191 192 193 194 195 196 197 198 199 200 201 202 203
 done.
 running RMSDs...
 done.
 E lowest :  -121.33777
 203 structures remain within     6.00 kcal/mol window
 
 input  file name : crest_rotamers_6.xyz
 output file name : crest_rotamers_7.xyz
 number of atoms                :   82
 number of points on xyz files  :   203
 RMSD threshold                 :   0.2500
 Bconst threshold               :   0.0100
 population threshold           :   0.0500
 conformer energy window  /kcal :   6.0000
 # fragment in coord            :     1
 # bonds in reference structure :    87
   => # of C=C bonds :    12
 number of reliable points      :   203
 reference state Etot :  -121.337766090000
 number of doubles removed by rot/RMSD         :           0
 total number unique points considered further :         203
       Erel/kcal        Etot weight/tot  conformer     set   degen     origin
       1   0.000  -121.33777    0.03324    0.03324       1       1     mtd12
       2   0.026  -121.33772    0.03179    0.03179       2       1     md4
       3   0.159  -121.33751    0.02542    0.05069       3       2     md8
       4   0.163  -121.33751    0.02527                                md7
       5   0.198  -121.33745    0.02382    0.02382       4       1     mtd8
       6   0.220  -121.33742    0.02294    0.02294       5       1     mtd13
       7   0.309  -121.33727    0.01974    0.01974       6       1     mtd5
       8   0.351  -121.33721    0.01838    0.01838       7       1     mtd10
       9   0.380  -121.33716    0.01752    0.01752       8       1     mtd6
      10   0.413  -121.33711    0.01657    0.01657       9       1     mtd10
      11   0.424  -121.33709    0.01625    0.01625      10       1     mtd13
      12   0.429  -121.33708    0.01614    0.01614      11       1     mtd1
      13   0.433  -121.33708    0.01601    0.01601      12       1     mtd10
      14   0.448  -121.33705    0.01562    0.01562      13       1     mtd9
      15   0.498  -121.33697    0.01435    0.01435      14       1     mtd7
      16   0.513  -121.33695    0.01399    0.01399      15       1     mtd11
      17   0.520  -121.33694    0.01383    0.01383      16       1     mtd12
      18   0.580  -121.33684    0.01250    0.01250      17       1     mtd2
      19   0.584  -121.33684    0.01242    0.01242      18       1     mtd9
      20   0.588  -121.33683    0.01233    0.01233      19       1     mtd7
      21   0.610  -121.33679    0.01189    0.01189      20       1     hor
      22   0.616  -121.33678    0.01177    0.01177      21       1     mtd11
      23   0.642  -121.33674    0.01126    0.01126      22       1     mtd2
      24   0.684  -121.33668    0.01050    0.01050      23       1     hor
      25   0.695  -121.33666    0.01029    0.01029      24       1     mtd11
      26   0.719  -121.33662    0.00988    0.00988      25       1     hor
      27   0.733  -121.33660    0.00967    0.00967      26       1     mtd6
      28   0.735  -121.33660    0.00963    0.00963      27       1     hor
      29   0.745  -121.33658    0.00946    0.00946      28       1     hor
      30   0.787  -121.33651    0.00882    0.00882      29       1     hor
      31   0.792  -121.33650    0.00875    0.00875      30       1     hor
      32   0.799  -121.33649    0.00864    0.00864      31       1     mtd8
      33   0.808  -121.33648    0.00851    0.01664      32       2     mtd13
      34   0.835  -121.33644    0.00813                                hor
      35   0.842  -121.33642    0.00804    0.00804      33       1     md7
      36   0.855  -121.33640    0.00787    0.00787      34       1     mtd3
      37   0.826  -121.33645    0.00825    0.00825      35       1     hor
      38   0.868  -121.33638    0.00769    0.00769      36       1     hor
      39   0.868  -121.33638    0.00769    0.00769      37       1     mtd13
      40   0.873  -121.33638    0.00763    0.00763      38       1     mtd2
      41   0.878  -121.33637    0.00757    0.00757      39       1     mtd8
      42   0.884  -121.33636    0.00749    0.00749      40       1     mtd9
      43   0.890  -121.33635    0.00741    0.00741      41       1     hor
      44   0.941  -121.33627    0.00680    0.00680      42       1     hor
      45   0.953  -121.33625    0.00667    0.00667      43       1     mtd3
      46   0.977  -121.33621    0.00640    0.00640      44       1     hor
      47   0.985  -121.33620    0.00632    0.00632      45       1     hor
      48   0.996  -121.33618    0.00619    0.00619      46       1     hor
      49   1.001  -121.33617    0.00614    0.00614      47       1     mtd8
      50   1.006  -121.33616    0.00610    0.00610      48       1     mtd2
      51   1.015  -121.33615    0.00600    0.00600      49       1     mtd3
      52   1.020  -121.33614    0.00595    0.00595      50       1     hor
      53   1.023  -121.33614    0.00592    0.00592      51       1     hor
      54   1.042  -121.33610    0.00573    0.00573      52       1     mtd14
      55   1.043  -121.33610    0.00572    0.01132      53       2     hor
      56   1.056  -121.33608    0.00560                                hor
      57   1.070  -121.33606    0.00547    0.00547      54       1     mtd8
      58   1.088  -121.33603    0.00530    0.00530      55       1     hor
      59   1.091  -121.33603    0.00528    0.00528      56       1     hor
      60   1.050  -121.33609    0.00566    0.00566      57       1     mtd1
      61   1.093  -121.33602    0.00526    0.00526      58       1     mtd11
      62   1.095  -121.33602    0.00525    0.00525      59       1     hor
      63   1.104  -121.33601    0.00516    0.00516      60       1     hor
      64   1.114  -121.33599    0.00508    0.00508      61       1     mtd14
      65   1.119  -121.33598    0.00503    0.00503      62       1     mtd10
      66   1.124  -121.33597    0.00499    0.00499      63       1     mtd8
      67   1.136  -121.33596    0.00489    0.00489      64       1     mtd2
      68   1.144  -121.33594    0.00483    0.00483      65       1     hor
      69   1.150  -121.33593    0.00478    0.00478      66       1     hor
      70   1.150  -121.33593    0.00478    0.00478      67       1     hor
      71   1.152  -121.33593    0.00476    0.00476      68       1     hor
      72   1.156  -121.33592    0.00473    0.00473      69       1     hor
      73   1.161  -121.33592    0.00470    0.00470      70       1     mtd10
      74   1.163  -121.33591    0.00467    0.00467      71       1     hor
      75   1.170  -121.33590    0.00462    0.00462      72       1     hor
      76   1.174  -121.33590    0.00459    0.00906      73       2     hor
      77   1.190  -121.33587    0.00447                                mtd14
      78   1.194  -121.33586    0.00444    0.00444      74       1     hor
      79   1.199  -121.33586    0.00440    0.00440      75       1     hor
      80   1.183  -121.33588    0.00452    0.00452      76       1     hor
      81   1.233  -121.33580    0.00416    0.00416      77       1     mtd11
      82   1.234  -121.33580    0.00415    0.00415      78       1     hor
      83   1.242  -121.33579    0.00409    0.00409      79       1     hor
      84   1.252  -121.33577    0.00402    0.00402      80       1     hor
      85   1.273  -121.33574    0.00388    0.00388      81       1     hor
      86   1.274  -121.33574    0.00388    0.00388      82       1     mtd9
      87   1.278  -121.33573    0.00385    0.00385      83       1     hor
      88   1.297  -121.33570    0.00373    0.00373      84       1     hor
      89   1.311  -121.33568    0.00364    0.00364      85       1     hor
      90   1.315  -121.33567    0.00362    0.00362      86       1     mtd8
      91   1.336  -121.33564    0.00349    0.00349      87       1     mtd12
      92   1.336  -121.33564    0.00349    0.00349      88       1     hor
      93   1.342  -121.33563    0.00346    0.00346      89       1     mtd5
      94   1.345  -121.33562    0.00344    0.00344      90       1     hor
      95   1.357  -121.33560    0.00337    0.00337      91       1     mtd5
      96   1.363  -121.33559    0.00334    0.00334      92       1     hor
      97   1.367  -121.33559    0.00332    0.00332      93       1     mtd5
      98   1.385  -121.33556    0.00322    0.00322      94       1     hor
      99   1.395  -121.33554    0.00316    0.00316      95       1     hor
     100   1.403  -121.33553    0.00312    0.00312      96       1     hor
     101   1.405  -121.33553    0.00311    0.00311      97       1     hor
     102   1.412  -121.33552    0.00308    0.00308      98       1     hor
     103   1.413  -121.33551    0.00307    0.00610      99       2     hor
     104   1.420  -121.33550    0.00303                                hor
     105   1.434  -121.33548    0.00296    0.00296     100       1     hor
     106   1.435  -121.33548    0.00296    0.00296     101       1     hor
     107   1.447  -121.33546    0.00290    0.00290     102       1     gc
     108   1.448  -121.33546    0.00289    0.00289     103       1     hor
     109   1.418  -121.33551    0.00304    0.00304     104       1     hor
     110   1.457  -121.33544    0.00285    0.00285     105       1     hor
     111   1.458  -121.33544    0.00284    0.00284     106       1     hor
     112   1.488  -121.33539    0.00270    0.00270     107       1     hor
     113   1.499  -121.33538    0.00265    0.00265     108       1     mtd3
     114   1.508  -121.33536    0.00261    0.00261     109       1     mtd1
     115   1.516  -121.33535    0.00258    0.00258     110       1     mtd3
     116   1.517  -121.33535    0.00257    0.00257     111       1     mtd14
     117   1.534  -121.33532    0.00250    0.00250     112       1     mtd9
     118   1.536  -121.33532    0.00249    0.00249     113       1     hor
     119   1.544  -121.33531    0.00246    0.00246     114       1     hor
     120   1.545  -121.33530    0.00246    0.00246     115       1     hor
     121   1.561  -121.33528    0.00239    0.00239     116       1     mtd1
     122   1.561  -121.33528    0.00239    0.00239     117       1     hor
     123   1.566  -121.33527    0.00237    0.00237     118       1     hor
     124   1.599  -121.33522    0.00224    0.00224     119       1     hor
     125   1.614  -121.33519    0.00219    0.00219     120       1     mtd3
     126   1.636  -121.33516    0.00211    0.00211     121       1     mtd1
     127   1.639  -121.33515    0.00209    0.00209     122       1     mtd3
     128   1.651  -121.33514    0.00205    0.00205     123       1     mtd10
     129   1.656  -121.33513    0.00204    0.00204     124       1     hor
     130   1.663  -121.33512    0.00201    0.00394     125       2     hor
     131   1.689  -121.33507    0.00193                                mtd5
     132   1.691  -121.33507    0.00192    0.00192     126       1     hor
     133   1.710  -121.33504    0.00186    0.00186     127       1     hor
     134   1.682  -121.33509    0.00195    0.00195     128       1     mtd7
     135   1.725  -121.33502    0.00181    0.00181     129       1     hor
     136   1.749  -121.33498    0.00174    0.00174     130       1     mtd6
     137   1.774  -121.33494    0.00167    0.00167     131       1     hor
     138   1.774  -121.33494    0.00167    0.00167     132       1     hor
     139   1.777  -121.33493    0.00166    0.00329     133       2     hor
     140   1.789  -121.33492    0.00163                                hor
     141   1.779  -121.33493    0.00166    0.00166     134       1     hor
     142   1.801  -121.33490    0.00159    0.00159     135       1     mtd6
     143   1.806  -121.33489    0.00158    0.00158     136       1     mtd7
     144   1.807  -121.33489    0.00158    0.00158     137       1     hor
     145   1.833  -121.33484    0.00151    0.00151     138       1     hor
     146   1.838  -121.33484    0.00150    0.00150     139       1     hor
     147   1.852  -121.33482    0.00146    0.00146     140       1     hor
     148   1.856  -121.33481    0.00145    0.00145     141       1     gc
     149   1.871  -121.33478    0.00142    0.00142     142       1     hor
     150   1.886  -121.33476    0.00138    0.00138     143       1     hor
     151   1.887  -121.33476    0.00138    0.00138     144       1     mtd4
     152   1.888  -121.33476    0.00138    0.00138     145       1     hor
     153   1.902  -121.33474    0.00135    0.00135     146       1     hor
     154   1.908  -121.33473    0.00133    0.00133     147       1     hor
     155   1.960  -121.33464    0.00122    0.00122     148       1     hor
     156   1.962  -121.33464    0.00122    0.00122     149       1     hor
     157   1.985  -121.33460    0.00117    0.00117     150       1     hor
     158   1.993  -121.33459    0.00115    0.00115     151       1     mtd9
     159   2.005  -121.33457    0.00113    0.00113     152       1     mtd9
     160   2.027  -121.33454    0.00109    0.00109     153       1     hor
     161   2.033  -121.33453    0.00108    0.00108     154       1     hor
     162   2.056  -121.33449    0.00104    0.00204     155       2     hor
     163   2.077  -121.33446    0.00100                                hor
     164   2.079  -121.33445    0.00100    0.00100     156       1     hor
     165   2.085  -121.33444    0.00099    0.00099     157       1     hor
     166   2.067  -121.33447    0.00102    0.00102     158       1     hor
     167   2.102  -121.33442    0.00096    0.00096     159       1     hor
     168   2.143  -121.33435    0.00090    0.00090     160       1     hor
     169   2.149  -121.33434    0.00089    0.00089     161       1     hor
     170   2.162  -121.33432    0.00087    0.00087     162       1     hor
     171   2.163  -121.33432    0.00087    0.00087     163       1     hor
     172   2.213  -121.33424    0.00080    0.00080     164       1     hor
     173   2.220  -121.33423    0.00079    0.00079     165       1     hor
     174   2.229  -121.33421    0.00078    0.00078     166       1     hor
     175   2.256  -121.33417    0.00074    0.00074     167       1     hor
     176   2.263  -121.33416    0.00073    0.00073     168       1     mtd4
     177   2.323  -121.33406    0.00066    0.00066     169       1     hor
     178   2.330  -121.33405    0.00065    0.00065     170       1     hor
     179   2.332  -121.33405    0.00065    0.00065     171       1     hor
     180   2.337  -121.33404    0.00065    0.00065     172       1     mtd10
     181   2.338  -121.33404    0.00064    0.00064     173       1     hor
     182   2.346  -121.33403    0.00064    0.00064     174       1     hor
     183   2.358  -121.33401    0.00062    0.00062     175       1     hor
     184   2.494  -121.33379    0.00050    0.00050     176       1     hor
     185   2.516  -121.33376    0.00048    0.00048     177       1     hor
     186   2.607  -121.33361    0.00041    0.00041     178       1     hor
     187   2.622  -121.33359    0.00040    0.00040     179       1     hor
     188   2.978  -121.33302    0.00022    0.00043     180       2     hor
     189   2.989  -121.33300    0.00022                                hor
     190   3.078  -121.33286    0.00019    0.00019     181       1     hor
     191   3.159  -121.33273    0.00016    0.00016     182       1     hor
     192   3.181  -121.33270    0.00016    0.00016     183       1     mtd1
     193   3.210  -121.33265    0.00015    0.00015     184       1     mtd7
     194   3.237  -121.33261    0.00014    0.00014     185       1     mtd7
     195   3.386  -121.33237    0.00011    0.00011     186       1     mtd7
     196   3.792  -121.33172    0.00006    0.00006     187       1     mtd4
     197   3.843  -121.33164    0.00005    0.00005     188       1     hor
     198   3.867  -121.33160    0.00005    0.00005     189       1     hor
     199   3.921  -121.33152    0.00004    0.00004     190       1     hor
     200   3.935  -121.33149    0.00004    0.00009     191       2     hor
     201   3.937  -121.33149    0.00004                                hor
     202   4.504  -121.33059    0.00002    0.00002     192       1     hor
     203   4.556  -121.33051    0.00002    0.00002     193       1     hor
T /K                                  :   298.15
E lowest                              :  -121.33777
ensemble average energy (kcal)        :    0.834
ensemble entropy (J/mol K, cal/mol K) :   39.999    9.560
ensemble free energy (kcal/mol)       :   -2.850
population of lowest in %             :    3.324
 number of unique conformers for further calc          193
 list of relative energies saved as "crest.energies"
 
 -----------------
 Wall Time Summary
 -----------------
             test MD wall time :         0h : 0m :48s
                 MTD wall time :         0h : 1m :33s
      multilevel OPT wall time :         0h : 2m :27s
                  MD wall time :         0h : 0m :40s
                  GC wall time :         0h : 0m : 7s
--------------------
Overall wall time  : 0h : 6m : 0s
 
 CREST terminated normally.
