 
       ==============================================
       |                                            |
       |                 C R E S T                  |
       |                                            |
       |  Conformer-Rotamer Ensemble Sampling Tool  |
       |          based on the GFN methods          |
       |             P.Pracht, S.Grimme             |
       |          Universitaet Bonn, MCTC           |
       ==============================================
       Version 2.11.2, Fr 17. Dec 12:10:44 CEST 2021
  Using the xTB program. Compatible with xTB version 6.4.0
 
   Cite work conducted with this code as

   P. Pracht, F. Bohle, S. Grimme, PCCP, 2020, 22, 7169-7192.

   and  S. Grimme, JCTC, 2019, 15, 2847-2862.
 
   with help from:
   C.Bannwarth, F.Bohle, S.Ehlert, S.Grimme,
   C. Plett, P.Pracht, S. Spicher
 
   This program is distributed in the hope that it will be useful,
   but WITHOUT ANY WARRANTY; without even the implied warranty of
   MERCHANTABILITY or FITNESS FOR A PARTICULAR PURPOSE.

 Command line input:
 > crest 00130_r_0.xyz -T 28 -gfn2 -chrg 0 -uhf 0 -rthr 0.25 -shake 1 --mdlen 0.5

  -T 28 (CPUs/Threads selected)
  -gfn2 : Use of GFN2-xTB requested.
  -chrg 0
  -uhf 0
  -rthr 0.25
  --mdlen 0.5 (MD length in ps)
 
 -------------------------
 xTB Geometry Optimization
 -------------------------
 Geometry successfully optimized.
 
------------------------------------------------
Generating MTD length from a flexibility measure
------------------------------------------------
      -----------------------------------------------------------      
     |                   =====================                   |     
     |                           x T B                           |     
     |                   =====================                   |     
     |                         S. Grimme                         |     
     |          Mulliken Center for Theoretical Chemistry        |     
     |                    University of Bonn                     |     
      -----------------------------------------------------------      

   * xtb version 6.4.1 (afa7bdf) compiled by 'ehlert@majestix' on 2021-06-10

   xtb is free software: you can redistribute it and/or modify it under
   the terms of the GNU Lesser General Public License as published by
   the Free Software Foundation, either version 3 of the License, or
   (at your option) any later version.
   
   xtb is distributed in the hope that it will be useful,
   but WITHOUT ANY WARRANTY; without even the implied warranty of
   MERCHANTABILITY or FITNESS FOR A PARTICULAR PURPOSE.  See the
   GNU Lesser General Public License for more details.
   
   Cite this work as:
   * C. Bannwarth, E. Caldeweyher, S. Ehlert, A. Hansen, P. Pracht,
     J. Seibert, S. Spicher, S. Grimme, WIREs Comput. Mol. Sci., 2020, 11,
     e01493. DOI: 10.1002/wcms.1493
   
   for GFN2-xTB:
   * C. Bannwarth, S. Ehlert and S. Grimme., J. Chem. Theory Comput., 2019,
     15, 1652-1671. DOI: 10.1021/acs.jctc.8b01176
   for GFN1-xTB:
   * S. Grimme, C. Bannwarth, P. Shushkov, J. Chem. Theory Comput., 2017,
     13, 1989-2009. DOI: 10.1021/acs.jctc.7b00118
   for GFN0-xTB:
   * P. Pracht, E. Caldeweyher, S. Ehlert, S. Grimme, ChemRxiv, 2019, preprint.
     DOI: 10.26434/chemrxiv.8326202.v1
   for GFN-FF:
   * S. Spicher and S. Grimme, Angew. Chem. Int. Ed., 2020, 59, 15665-15673.
     DOI: 10.1002/anie.202004239
   
   for DFT-D4:
   * E. Caldeweyher, C. Bannwarth and S. Grimme, J. Chem. Phys., 2017,
     147, 034112. DOI: 10.1063/1.4993215
   * E. Caldeweyher, S. Ehlert, A. Hansen, H. Neugebauer, S. Spicher,
     C. Bannwarth and S. Grimme, J. Chem. Phys., 2019, 150, 154122.
     DOI: 10.1063/1.5090222
   * E. Caldeweyher, J.-M. Mewes, S. Ehlert and S. Grimme, Phys. Chem. Chem. Phys.
     2020, 22, 8499-8512. DOI: 10.1039/D0CP00502A
   
   for sTDA-xTB:
   * S. Grimme and C. Bannwarth, J. Chem. Phys., 2016, 145, 054103.
     DOI: 10.1063/1.4959605
   
   in the mass-spec context:
   * V. Asgeirsson, C. Bauer and S. Grimme, Chem. Sci., 2017, 8, 4879.
     DOI: 10.1039/c7sc00601b
   * J. Koopman and S. Grimme, ACS Omega 2019, 4, 12, 15120-15133.
     DOI: 10.1021/acsomega.9b02011
   
   for metadynamics refer to:
   * S. Grimme, J. Chem. Theory Comput., 2019, 155, 2847-2862
     DOI: 10.1021/acs.jctc.9b00143
   
   for SPH calculations refer to:
   * S. Spicher and S. Grimme, J. Chem. Theory Comput., 2021, 17, 1701-1714
     DOI: 10.1021/acs.jctc.0c01306
   
   with help from (in alphabetical order)
   P. Atkinson, C. Bannwarth, F. Bohle, G. Brandenburg, E. Caldeweyher
   M. Checinski, S. Dohm, S. Ehlert, S. Ehrlich, I. Gerasimov, J. Koopman
   C. Lavigne, S. Lehtola, F. März, M. Müller, F. Musil, H. Neugebauer
   J. Pisarek, C. Plett, P. Pracht, J. Seibert, P. Shushkov, S. Spicher
   M. Stahn, M. Steiner, T. Strunk, J. Stückrath, T. Rose, and J. Unsleber
   
 * started run on 2024/07/31 at 10:40:14.048     

           -------------------------------------------------
          |                Calculation Setup                |
           -------------------------------------------------

          program call               : xtb tmpcoord --gfn0 --sp
          hostname                   : node20
          coordinate file            : tmpcoord
          omp threads                :                    28
          number of atoms            :                    56
          number of electrons        :                   186
          charge                     :                     0
          spin                       :                   0.0
          first test random number   :      0.99415175826424

   ID    Z sym.   atoms
    1    8 o      1, 22
    2    6 c      2-6, 8, 9, 11-21, 23-26, 28, 29, 31-38
    3    9 f      7, 10, 27, 30
    4    1 h      39-56
########################################################################
[WARNING] Please study the warnings concerning your input carefully
-1- prog_main_parseArguments: The use of '--gfn0' is discouraged, please use '--gfn 0' next time
########################################################################

           -------------------------------------------------
          |                 G F N 0 - x T B                 |
           -------------------------------------------------

        Reference                      10.26434/chemrxiv.8326202.v1
      * Hamiltonian:
        H0-scaling (s, p, d)           2.000000    2.486800    2.270000
        zeta-weighting                 1.000000
      * Dispersion:
        s8                             2.850000
        a1                             0.800000
        a2                             4.600000
        s9                             0.000000
      * Repulsion:
        kExp                           1.500000
        rExp                           1.000000
      * Coulomb:
        alpha                          0.000000
        third order                    atomic
        anisotropic                    false
      * Polar bond correction:
        rad-shift                      0.053700
        strength                      -0.012900
        en-exp                         3.484700
        en-scale                       0.509700


          ...................................................
          :                      SETUP                      :
          :.................................................:
          :  # basis functions                 188          :
          :  # atomic orbitals                 188          :
          :  # shells                          112          :
          :  # electrons                       186          :
          :  electronic temp.          300.0000000     K    :
          :  accuracy                    1.0000000          :
          :  -> integral cutoff          0.2500000E+02      :
          :  -> integral neglect         0.1000000E-07      :
          ...................................................
  Checking positiv definite overlap ...  done.
 

         #    Occupation            Energy/Eh            Energy/eV
      -------------------------------------------------------------
         1        2.0000           -0.8170168             -22.2322
       ...           ...                  ...                  ...
        87        2.0000           -0.4232062             -11.5160
        88        2.0000           -0.4108680             -11.1803
        89        2.0000           -0.4108373             -11.1795
        90        2.0000           -0.4104941             -11.1701
        91        2.0000           -0.4101965             -11.1620
        92        2.0000           -0.3936810             -10.7126
        93        2.0000           -0.3912182             -10.6456 (HOMO)
        94                         -0.3017424              -8.2108 (LUMO)
        95                         -0.3004298              -8.1751
        96                         -0.2728708              -7.4252
        97                         -0.2724806              -7.4146
        98                         -0.2547159              -6.9312
       ...                                ...                  ...
       188                          0.6560590              17.8523
      -------------------------------------------------------------
                  HL-Gap            0.0894758 Eh            2.4348 eV
             Fermi-level            0.0000000 Eh            0.0000 eV

 EHT (total)                   0 d,  0 h,  0 min,  0.041 sec
 EHT setup                      ...        0 min,  0.001 sec (  2.003%)
 Coordination number            ...        0 min,  0.001 sec (  1.937%)
 EEQ model density              ...        0 min,  0.001 sec (  1.366%)
 D4 Dispersion                  ...        0 min,  0.003 sec (  6.136%)
 Integral evaluation            ...        0 min,  0.001 sec (  2.544%)
 Cholesky factorization         ...        0 min,  0.010 sec ( 23.901%)
 Zeroth order Hamiltonian       ...        0 min,  0.022 sec ( 52.804%)
 Gradient calculation           ...        0 min,  0.003 sec (  7.556%)

         :::::::::::::::::::::::::::::::::::::::::::::::::::::
         ::                     SUMMARY                     ::
         :::::::::::::::::::::::::::::::::::::::::::::::::::::
         :: total energy             -99.264684588977 Eh    ::
         :: gradient norm              0.060788276926 Eh/a0 ::
         :: HOMO-LUMO gap              2.434760254447 eV    ::
         ::.................................................::
         :: H0 energy               -100.522051886613 Eh    ::
         :: repulsion energy           1.565057624729 Eh    ::
         :: electrostat energy        -0.190610668477 Eh    ::
         :: -> Gsolv                   0.000000000000 Eh    ::
         ::    -> Gsasa                0.000000000000 Eh    ::
         ::    -> Gshift               0.000000000000 Eh    ::
         :: dispersion energy         -0.040307568121 Eh    ::
         :: short-range corr.         -0.076772090494 Eh    ::
         :: add. restraining           0.000000000000 Eh    ::
         :: total charge              -0.000000000000 e     ::
         :::::::::::::::::::::::::::::::::::::::::::::::::::::

           -------------------------------------------------
          |                Property Printout                |
           -------------------------------------------------

    * Orbital Energies and Occupations

         #    Occupation            Energy/Eh            Energy/eV
      -------------------------------------------------------------
         1        2.0000           -0.8170168             -22.2322
       ...           ...                  ...                  ...
        81        2.0000           -0.4390000             -11.9458
        82        2.0000           -0.4325856             -11.7713
        83        2.0000           -0.4314262             -11.7397
        84        2.0000           -0.4313933             -11.7388
        85        2.0000           -0.4308996             -11.7254
        86        2.0000           -0.4234974             -11.5240
        87        2.0000           -0.4232062             -11.5160
        88        2.0000           -0.4108680             -11.1803
        89        2.0000           -0.4108373             -11.1795
        90        2.0000           -0.4104941             -11.1701
        91        2.0000           -0.4101965             -11.1620
        92        2.0000           -0.3936810             -10.7126
        93        2.0000           -0.3912182             -10.6456 (HOMO)
        94                         -0.3017424              -8.2108 (LUMO)
        95                         -0.3004298              -8.1751
        96                         -0.2728708              -7.4252
        97                         -0.2724806              -7.4146
        98                         -0.2547159              -6.9312
        99                         -0.2546393              -6.9291
       100                         -0.2535683              -6.8999
       101                         -0.2529679              -6.8836
       102                         -0.2320179              -6.3135
       103                         -0.2291165              -6.2346
       104                         -0.1837105              -4.9990
       ...                                ...                  ...
       188                          0.6560590              17.8523
      -------------------------------------------------------------
                  HL-Gap            0.0894758 Eh            2.4348 eV
             Fermi-level            0.0000000 Eh            0.0000 eV

     #   Z          covCN         q      C6AA      α(0)
     1   8 o        1.660    -0.520    23.138     6.507
     2   6 c        2.850     0.228    24.505     8.087
     3   6 c        2.971    -0.036    30.433     9.021
     4   6 c        2.983     0.073    27.764     8.616
     5   6 c        2.920    -0.252    36.698     9.903
     6   6 c        2.790     0.301    23.138     7.854
     7   9 f        0.787    -0.236    11.666     3.934
     8   6 c        2.914    -0.273    37.401     9.997
     9   6 c        2.790     0.292    23.294     7.881
    10   9 f        0.787    -0.238    11.685     3.938
    11   6 c        2.921    -0.223    35.784     9.779
    12   6 c        2.925    -0.175    34.316     9.576
    13   6 c        2.985     0.074    27.758     8.616
    14   6 c        2.919    -0.125    32.857     9.370
    15   6 c        2.915    -0.080    31.618     9.192
    16   6 c        2.916    -0.083    31.698     9.203
    17   6 c        2.918    -0.110    32.445     9.311
    18   6 c        2.988     0.023    28.958     8.800
    19   6 c        2.977    -0.003    29.583     8.894
    20   6 c        2.977    -0.003    29.590     8.895
    21   6 c        2.850     0.227    24.522     8.090
    22   8 o        1.660    -0.522    23.192     6.514
    23   6 c        2.971    -0.036    30.427     9.020
    24   6 c        2.983     0.073    27.771     8.617
    25   6 c        2.920    -0.252    36.703     9.903
    26   6 c        2.790     0.299    23.163     7.858
    27   9 f        0.787    -0.237    11.679     3.937
    28   6 c        2.914    -0.273    37.393     9.996
    29   6 c        2.790     0.293    23.279     7.878
    30   9 f        0.787    -0.237    11.675     3.936
    31   6 c        2.921    -0.220    35.691     9.766
    32   6 c        2.925    -0.175    34.307     9.575
    33   6 c        2.985     0.074    27.752     8.614
    34   6 c        2.919    -0.125    32.857     9.370
    35   6 c        2.915    -0.080    31.616     9.191
    36   6 c        2.916    -0.083    31.697     9.203
    37   6 c        2.918    -0.109    32.421     9.308
    38   6 c        2.989     0.024    28.924     8.795
    39   1 h        0.805     0.307     0.700     1.314
    40   1 h        0.926     0.167     1.284     1.772
    41   1 h        0.926     0.173     1.247     1.747
    42   1 h        0.926     0.145     1.424     1.866
    43   1 h        0.926     0.130     1.534     1.937
    44   1 h        0.926     0.112     1.683     2.029
    45   1 h        0.926     0.106     1.730     2.057
    46   1 h        0.926     0.106     1.728     2.055
    47   1 h        0.926     0.118     1.627     1.994
    48   1 h        0.805     0.310     0.691     1.306
    49   1 h        0.926     0.157     1.348     1.816
    50   1 h        0.926     0.173     1.247     1.746
    51   1 h        0.926     0.151     1.387     1.842
    52   1 h        0.926     0.129     1.542     1.942
    53   1 h        0.926     0.112     1.684     2.029
    54   1 h        0.926     0.106     1.730     2.057
    55   1 h        0.926     0.106     1.728     2.056
    56   1 h        0.926     0.119     1.621     1.991

 Mol. C6AA /au·bohr⁶  :      48555.612281
 Mol. C8AA /au·bohr⁸  :    1253410.501990
 Mol. α(0) /au        :        350.501411


Wiberg/Mayer (AO) data.
largest (>0.10) Wiberg bond orders for each atom

 ---------------------------------------------------------------------------
     #   Z sym  total        # sym  WBO       # sym  WBO       # sym  WBO
 ---------------------------------------------------------------------------
     1   8 o    2.308 --     2 c    1.134    39 h    0.967
     2   6 c    3.941 --    19 c    1.411     3 c    1.214     1 o    1.134
     3   6 c    3.975 --    12 c    1.513     2 c    1.214     4 c    1.033
     4   6 c    3.975 --    11 c    1.390     5 c    1.385     3 c    1.033
     5   6 c    3.979 --     6 c    1.389     4 c    1.385    40 h    0.966
     6   6 c    3.862 --     8 c    1.395     5 c    1.389     7 f    0.951
     7   9 f    1.090 --     6 c    0.951
     8   6 c    3.980 --     6 c    1.395     9 c    1.388    41 h    0.967
     9   6 c    3.862 --    11 c    1.397     8 c    1.388    10 f    0.951
    10   9 f    1.089 --     9 c    0.951
    11   6 c    3.978 --     9 c    1.397     4 c    1.390    42 h    0.967
    12   6 c    3.985 --     3 c    1.513    13 c    1.278    43 h    0.965
    13   6 c    3.978 --    12 c    1.278    14 c    1.277    18 c    1.238
    14   6 c    3.980 --    15 c    1.555    13 c    1.277    44 h    0.969
                            17 c    0.115
    15   6 c    3.975 --    14 c    1.555    16 c    1.316    45 h    0.973
    16   6 c    3.983 --    17 c    1.560    15 c    1.316    46 h    0.973
    17   6 c    3.987 --    16 c    1.560    18 c    1.269    47 h    0.966
                            14 c    0.115
    18   6 c    3.977 --    17 c    1.269    19 c    1.263    13 c    1.238
    19   6 c    3.967 --     2 c    1.411    18 c    1.263    20 c    0.995
    20   6 c    3.967 --    21 c    1.412    38 c    1.263    19 c    0.995
    21   6 c    3.941 --    20 c    1.412    23 c    1.215    22 o    1.133
    22   8 o    2.307 --    21 c    1.133    48 h    0.968
    23   6 c    3.975 --    32 c    1.512    21 c    1.215    24 c    1.033
    24   6 c    3.975 --    31 c    1.389    25 c    1.386    23 c    1.033
    25   6 c    3.979 --    26 c    1.389    24 c    1.386    49 h    0.966
    26   6 c    3.861 --    28 c    1.395    25 c    1.389    27 f    0.950
    27   9 f    1.089 --    26 c    0.950
    28   6 c    3.980 --    26 c    1.395    29 c    1.388    50 h    0.967
    29   6 c    3.862 --    31 c    1.398    28 c    1.388    30 f    0.951
    30   9 f    1.089 --    29 c    0.951
    31   6 c    3.978 --    29 c    1.398    24 c    1.389    51 h    0.967
    32   6 c    3.985 --    23 c    1.512    33 c    1.278    52 h    0.965
    33   6 c    3.978 --    32 c    1.278    34 c    1.277    38 c    1.238
    34   6 c    3.980 --    35 c    1.555    33 c    1.277    53 h    0.969
                            37 c    0.115
    35   6 c    3.975 --    34 c    1.555    36 c    1.316    54 h    0.973
    36   6 c    3.983 --    37 c    1.560    35 c    1.316    55 h    0.973
    37   6 c    3.987 --    36 c    1.560    38 c    1.269    56 h    0.966
                            34 c    0.115
    38   6 c    3.977 --    37 c    1.269    20 c    1.263    33 c    1.238
    39   1 h    0.987 --     1 o    0.967
    40   1 h    0.985 --     5 c    0.966
    41   1 h    0.989 --     8 c    0.967
    42   1 h    0.983 --    11 c    0.967
    43   1 h    0.974 --    12 c    0.965
    44   1 h    0.978 --    14 c    0.969
    45   1 h    0.983 --    15 c    0.973
    46   1 h    0.984 --    16 c    0.973
    47   1 h    0.980 --    17 c    0.966
    48   1 h    0.986 --    22 o    0.968
    49   1 h    0.985 --    25 c    0.966
    50   1 h    0.989 --    28 c    0.967
    51   1 h    0.983 --    31 c    0.967
    52   1 h    0.974 --    32 c    0.965
    53   1 h    0.978 --    34 c    0.969
    54   1 h    0.983 --    35 c    0.973
    55   1 h    0.984 --    36 c    0.973
    56   1 h    0.980 --    37 c    0.966
 ---------------------------------------------------------------------------

Topologies differ in total number of bonds
Writing topology from bond orders to xtbtopo.mol

 dipole moment from electron density (au)
     X       Y       Z   
  -0.2717  -1.0547  -0.3532  total (Debye):    2.910


           -------------------------------------------------
          | TOTAL ENERGY              -99.264684588977 Eh   |
          | GRADIENT NORM               0.060788276926 Eh/α |
          | HOMO-LUMO GAP               2.434760254447 eV   |
           -------------------------------------------------

------------------------------------------------------------------------
 * finished run on 2024/07/31 at 10:40:14.136     
------------------------------------------------------------------------
 total:
 * wall-time:     0 d,  0 h,  0 min,  0.088 sec
 *  cpu-time:     0 d,  0 h,  0 min,  1.761 sec
 * ratio c/w:    20.096 speedup
 SCF:
 * wall-time:     0 d,  0 h,  0 min,  0.042 sec
 *  cpu-time:     0 d,  0 h,  0 min,  1.015 sec
 * ratio c/w:    24.260 speedup

 Calculating WBOs... done.
      -----------------------------------------------------------      
     |                   =====================                   |     
     |                           x T B                           |     
     |                   =====================                   |     
     |                         S. Grimme                         |     
     |          Mulliken Center for Theoretical Chemistry        |     
     |                    University of Bonn                     |     
      -----------------------------------------------------------      

   * xtb version 6.4.1 (afa7bdf) compiled by 'ehlert@majestix' on 2021-06-10

   xtb is free software: you can redistribute it and/or modify it under
   the terms of the GNU Lesser General Public License as published by
   the Free Software Foundation, either version 3 of the License, or
   (at your option) any later version.
   
   xtb is distributed in the hope that it will be useful,
   but WITHOUT ANY WARRANTY; without even the implied warranty of
   MERCHANTABILITY or FITNESS FOR A PARTICULAR PURPOSE.  See the
   GNU Lesser General Public License for more details.
   
   Cite this work as:
   * C. Bannwarth, E. Caldeweyher, S. Ehlert, A. Hansen, P. Pracht,
     J. Seibert, S. Spicher, S. Grimme, WIREs Comput. Mol. Sci., 2020, 11,
     e01493. DOI: 10.1002/wcms.1493
   
   for GFN2-xTB:
   * C. Bannwarth, S. Ehlert and S. Grimme., J. Chem. Theory Comput., 2019,
     15, 1652-1671. DOI: 10.1021/acs.jctc.8b01176
   for GFN1-xTB:
   * S. Grimme, C. Bannwarth, P. Shushkov, J. Chem. Theory Comput., 2017,
     13, 1989-2009. DOI: 10.1021/acs.jctc.7b00118
   for GFN0-xTB:
   * P. Pracht, E. Caldeweyher, S. Ehlert, S. Grimme, ChemRxiv, 2019, preprint.
     DOI: 10.26434/chemrxiv.8326202.v1
   for GFN-FF:
   * S. Spicher and S. Grimme, Angew. Chem. Int. Ed., 2020, 59, 15665-15673.
     DOI: 10.1002/anie.202004239
   
   for DFT-D4:
   * E. Caldeweyher, C. Bannwarth and S. Grimme, J. Chem. Phys., 2017,
     147, 034112. DOI: 10.1063/1.4993215
   * E. Caldeweyher, S. Ehlert, A. Hansen, H. Neugebauer, S. Spicher,
     C. Bannwarth and S. Grimme, J. Chem. Phys., 2019, 150, 154122.
     DOI: 10.1063/1.5090222
   * E. Caldeweyher, J.-M. Mewes, S. Ehlert and S. Grimme, Phys. Chem. Chem. Phys.
     2020, 22, 8499-8512. DOI: 10.1039/D0CP00502A
   
   for sTDA-xTB:
   * S. Grimme and C. Bannwarth, J. Chem. Phys., 2016, 145, 054103.
     DOI: 10.1063/1.4959605
   
   in the mass-spec context:
   * V. Asgeirsson, C. Bauer and S. Grimme, Chem. Sci., 2017, 8, 4879.
     DOI: 10.1039/c7sc00601b
   * J. Koopman and S. Grimme, ACS Omega 2019, 4, 12, 15120-15133.
     DOI: 10.1021/acsomega.9b02011
   
   for metadynamics refer to:
   * S. Grimme, J. Chem. Theory Comput., 2019, 155, 2847-2862
     DOI: 10.1021/acs.jctc.9b00143
   
   for SPH calculations refer to:
   * S. Spicher and S. Grimme, J. Chem. Theory Comput., 2021, 17, 1701-1714
     DOI: 10.1021/acs.jctc.0c01306
   
   with help from (in alphabetical order)
   P. Atkinson, C. Bannwarth, F. Bohle, G. Brandenburg, E. Caldeweyher
   M. Checinski, S. Dohm, S. Ehlert, S. Ehrlich, I. Gerasimov, J. Koopman
   C. Lavigne, S. Lehtola, F. März, M. Müller, F. Musil, H. Neugebauer
   J. Pisarek, C. Plett, P. Pracht, J. Seibert, P. Shushkov, S. Spicher
   M. Stahn, M. Steiner, T. Strunk, J. Stückrath, T. Rose, and J. Unsleber
   
 * started run on 2024/07/31 at 10:40:14.180     

           -------------------------------------------------
          |                Calculation Setup                |
           -------------------------------------------------

          program call               : xtb tmpcoord --gfnff --sp
          hostname                   : node20
          coordinate file            : tmpcoord
          omp threads                :                    28
          number of atoms            :                    56
          number of electrons        :                   186
          charge                     :                     0
          spin                       :                   0.0
          first test random number   :      0.39051703093292

   ID    Z sym.   atoms
    1    8 o      1, 22
    2    6 c      2-6, 8, 9, 11-21, 23-26, 28, 29, 31-38
    3    9 f      7, 10, 27, 30
    4    1 h      39-56
 
          ==================== Thresholds ====================
          CN  :   150.00000
          rep :   500.00000
          disp:  2500.00000
          HB1 :   250.00000
          HB2 :   450.00000
 
          Pauling EN used:
          Z : 1  EN :  2.20
          Z : 6  EN :  2.55
          Z : 8  EN :  3.44
          Z : 9  EN :  3.98
          electric field strengths (au): 0.000
 
           ------------------------------------------------- 
          |           Force Field Initialization            |
           ------------------------------------------------- 
 
          distances ...
          ----------------------------------------
          generating topology and atomic info file ...
          pair mat ...
          computing topology distances matrix with Floyd-Warshall algo ...
          making topology EEQ charges ...
          #fragments for EEQ constrain: 1
          ----------------------------------------
          generating topology and atomic info file ...
          pair mat ...
          computing topology distances matrix with Floyd-Warshall algo ...
          making topology EEQ charges ...
          #fragments for EEQ constrain: 1
          rings ...
          # BATM   628
          # H in HB   18
          doing iterative Hueckel for 1 subsystem(s) ...
 
  atom   neighbors  erfCN metchar sp-hybrid imet pi  qest     coordinates
    1  o       2    1.92   0.00         3    0    1  -0.460   -0.119380   -1.082346   -3.603744
    2  c       3    2.82   0.00         2    0    1   0.126    1.964868   -0.370222   -2.279129
    3  c       3    2.82   0.00         2    0    1  -0.025    4.445993   -0.819687   -3.189973
    4  c       3    2.82   0.00         2    0    1   0.017    4.866897   -2.194903   -5.575489
    5  c       3    2.81   0.00         2    0    1  -0.023    3.725754   -4.531269   -6.010839
    6  c       3    2.83   0.00         2    0    1   0.140    4.186864   -5.782727   -8.257806
    7  f       1    0.98   0.00         0    0    1  -0.305    3.079875   -8.037442   -8.651020
    8  c       3    2.81   0.00         2    0    1  -0.032    5.740063   -4.803337  -10.117004
    9  c       3    2.83   0.00         2    0    1   0.140    6.858131   -2.489469   -9.631352
   10  f       1    0.98   0.00         0    0    1  -0.305    8.388729   -1.483846  -11.393417
   11  c       3    2.82   0.00         2    0    1  -0.023    6.453634   -1.176138   -7.412568
   12  c       3    2.82   0.00         2    0    1  -0.009    6.478557    0.048643   -1.826502
   13  c       3    2.83   0.00         2    0    1  -0.029    6.167930    1.331773    0.477490
   14  c       3    2.81   0.00         2    0    1  -0.025    8.249248    2.202099    1.899281
   15  c       3    2.81   0.00         2    0    1   0.007    7.891520    3.444110    4.133304
   16  c       3    2.81   0.00         2    0    1  -0.057    5.435330    3.871437    5.042803
   17  c       3    2.81   0.00         2    0    1  -0.031    3.380429    3.051904    3.711578
   18  c       3    2.83   0.00         2    0    1   0.023    3.685206    1.759221    1.398597
   19  c       3    2.82   0.00         2    0    1   0.006    1.601301    0.897689   -0.029696
   20  c       3    2.82   0.00         2    0    1   0.006   -1.021103    1.310177    0.866937
   21  c       3    2.82   0.00         2    0    1   0.126   -2.201032   -0.597773    2.196773
   22  o       2    1.92   0.00         3    0    1  -0.460   -0.884279   -2.767416    2.604787
   23  c       3    2.82   0.00         2    0    1  -0.025   -4.719474   -0.284947    3.059773
   24  c       3    2.82   0.00         2    0    1   0.017   -5.990038   -2.268252    4.547011
   25  c       3    2.81   0.00         2    0    1  -0.023   -4.839874   -3.311991    6.677423
   26  c       3    2.83   0.00         2    0    1   0.140   -6.116159   -5.121057    8.065396
   27  f       1    0.98   0.00         0    0    1  -0.305   -4.990472   -6.101304   10.123894
   28  c       3    2.81   0.00         2    0    1  -0.032   -8.505342   -5.958729    7.419822
   29  c       3    2.83   0.00         2    0    1   0.140   -9.604357   -4.889932    5.300664
   30  f       1    0.98   0.00         0    0    1  -0.305  -11.931010   -5.653262    4.621067
   31  c       3    2.82   0.00         2    0    1  -0.023   -8.401115   -3.074456    3.862949
   32  c       3    2.82   0.00         2    0    1  -0.009   -5.990106    1.910935    2.503344
   33  c       3    2.83   0.00         2    0    1  -0.029   -4.840340    3.884843    1.150233
   34  c       3    2.81   0.00         2    0    1  -0.025   -6.131565    6.149797    0.590587
   35  c       3    2.81   0.00         2    0    1   0.007   -4.965979    8.039639   -0.725051
   36  c       3    2.81   0.00         2    0    1  -0.057   -2.454928    7.749035   -1.533096
   37  c       3    2.81   0.00         2    0    1  -0.031   -1.152095    5.579766   -1.019982
   38  c       3    2.83   0.00         2    0    1   0.023   -2.304386    3.588038    0.328592
   39  h       1    0.97   0.00         0    0    0   0.260    0.378738   -1.872930   -5.172475
   40  h       1    0.97   0.00         0    0    0   0.094    2.557760   -5.419552   -4.592899
   41  h       1    0.97   0.00         0    0    0   0.087    6.074973   -5.801472  -11.858656
   42  h       1    0.97   0.00         0    0    0   0.094    7.351960    0.629776   -7.125398
   43  h       1    0.97   0.00         0    0    0   0.076    8.369414   -0.307302   -2.510493
   44  h       1    0.97   0.00         0    0    0   0.078   10.131572    1.863805    1.183155
   45  h       1    0.97   0.00         0    0    0   0.049    9.490716    4.104884    5.215481
   46  h       1    0.97   0.00         0    0    0   0.083    5.184434    4.858076    6.812000
   47  h       1    0.97   0.00         0    0    0   0.046    1.490634    3.384293    4.407107
   48  h       1    0.97   0.00         0    0    0   0.260   -1.951820   -4.000386    3.425179
   49  h       1    0.97   0.00         0    0    0   0.094   -3.007662   -2.677705    7.313414
   50  h       1    0.97   0.00         0    0    0   0.087   -9.472382   -7.369519    8.522723
   51  h       1    0.97   0.00         0    0    0   0.094   -9.324762   -2.306951    2.217144
   52  h       1    0.97   0.00         0    0    0   0.076   -7.906157    2.154831    3.165972
   53  h       1    0.97   0.00         0    0    0   0.078   -8.062580    6.355276    1.222582
   54  h       1    0.97   0.00         0    0    0   0.049   -5.963448    9.768156   -1.152211
   55  h       1    0.97   0.00         0    0    0   0.083   -1.558941    9.262765   -2.568607
   56  h       1    0.97   0.00         0    0    0   0.046    0.779501    5.355919   -1.639669
 
          #atoms :   56
          #bonds :   61
          #angl  :   98
          #tors  :   184
          #nmol  :   1
          #optfrag :   1
           ------------------------------------------------- 
          |                   G F N - F F                   |
          |          A general generic force-field          |
          |                  Version 1.0.3                  | 
           ------------------------------------------------- 
          nhb123   4018 426 0

 E+G (total)                   0 d,  0 h,  0 min,  0.004 sec
 distance/D3 list               ...        0 min,  0.000 sec (  0.613%)
 non bonded repulsion           ...        0 min,  0.000 sec (  8.650%)
 dCN                            ...        0 min,  0.000 sec (  3.894%)
 EEQ energy and q               ...        0 min,  0.000 sec ( 12.959%)
 D3                             ...        0 min,  0.000 sec ( 12.023%)
 EEQ gradient                   ...        0 min,  0.000 sec (  8.980%)
 bonds                          ...        0 min,  0.000 sec (  9.974%)
 bend and torsion               ...        0 min,  0.000 sec ( 12.853%)
 bonded ATM                     ...        0 min,  0.000 sec (  1.192%)
 HB/XB (incl list setup)        ...        0 min,  0.001 sec ( 23.183%)

         :::::::::::::::::::::::::::::::::::::::::::::::::::::
         ::                     SUMMARY                     ::
         :::::::::::::::::::::::::::::::::::::::::::::::::::::
         :: total energy             -11.899756576212 Eh    ::
         :: gradient norm              0.060519083640 Eh/a0 ::
         ::.................................................::
         :: bond energy              -12.511213376156 Eh    ::
         :: angle energy               0.004131005206 Eh    ::
         :: torsion energy             0.019458553020 Eh    ::
         :: repulsion energy           0.870854677433 Eh    ::
         :: electrostat energy        -0.217198107273 Eh    ::
         :: dispersion energy         -0.057776971916 Eh    ::
         :: HB energy                 -0.001280471914 Eh    ::
         :: XB energy                  0.000000000000 Eh    ::
         :: bonded atm energy         -0.006731884613 Eh    ::
         :: external energy            0.000000000000 Eh    ::
         :: add. restraining           0.000000000000 Eh    ::
         :: total charge              -0.000000000000 e     ::
         :::::::::::::::::::::::::::::::::::::::::::::::::::::

           -------------------------------------------------
          |                Property Printout                |
           -------------------------------------------------

           -------------------------------------------------
          | TOTAL ENERGY              -11.899756576212 Eh   |
          | GRADIENT NORM               0.060519083640 Eh/α |
           -------------------------------------------------

------------------------------------------------------------------------
 * finished run on 2024/07/31 at 10:40:14.236     
------------------------------------------------------------------------
 total:
 * wall-time:     0 d,  0 h,  0 min,  0.056 sec
 *  cpu-time:     0 d,  0 h,  0 min,  1.002 sec
 * ratio c/w:    17.823 speedup
 SCF:
 * wall-time:     0 d,  0 h,  0 min,  0.006 sec
 *  cpu-time:     0 d,  0 h,  0 min,  0.146 sec
 * ratio c/w:    24.101 speedup

 Calculating NCI flexibility... done.
     covalent flexibility measure :   0.011
 non-covalent flexibility measure :   1.000
 flexibility measure :   0.059
 t(MTD) / ps set by command line  :     0.5
 t(MTD) / ps    :     0.5
 Σ(t(MTD)) / ps :     7.0 (14 MTDs)
 
-------------------------------------
Starting a trial MTD to test settings
-------------------------------------
 Estimated runtime for one MTD (0.5 ps) on a single thread: 2 min 5 sec
 Estimated runtime for a batch of 14 MTDs on 28 threads: 1 min 2 sec
 
 list of Vbias parameters applied:
$metadyn    0.00300   1.300
$metadyn    0.00150   1.300
$metadyn    0.00075   1.300
$metadyn    0.00300   0.780
$metadyn    0.00150   0.780
$metadyn    0.00075   0.780
$metadyn    0.00300   0.468
$metadyn    0.00150   0.468
$metadyn    0.00075   0.468
$metadyn    0.00300   0.281
$metadyn    0.00150   0.281
$metadyn    0.00075   0.281
$metadyn    0.00100   0.100
$metadyn    0.00500   0.800
 
*******************************************************************************************
**                        N E W    I T E R A T I O N    C Y C L E                        **
*******************************************************************************************
 
========================================
            MTD Iteration  1
========================================
 
     ========================================
     |         Meta-MD (MTD) Sampling       |
     ========================================
 
Starting Meta-MD   2 with the settings:
     MD time /ps        :     0.5
     dt /fs             :     1.5
     dumpstep(trj) /fs  :     100
     dumpstep(Vbias)/ps :     1.0
     Vbias factor k /Eh :  0.0840
     Vbias exp α /bohr⁻²:    1.30
Starting Meta-MD   9 with the settings:
     MD time /ps        :     0.5
     dt /fs             :     1.5
     dumpstep(trj) /fs  :     100
     dumpstep(Vbias)/ps :     1.0
     Vbias factor k /Eh :  0.0420
     Vbias exp α /bohr⁻²:    0.47
Starting Meta-MD   5 with the settings:
     MD time /ps        :     0.5
     dt /fs             :     1.5
     dumpstep(trj) /fs  :     100
     dumpstep(Vbias)/ps :     1.0
     Vbias factor k /Eh :  0.0840
     Vbias exp α /bohr⁻²:    0.78
Starting Meta-MD   3 with the settings:
     MD time /ps        :     0.5
     dt /fs             :     1.5
     dumpstep(trj) /fs  :     100
     dumpstep(Vbias)/ps :     1.0
     Vbias factor k /Eh :  0.0420
     Vbias exp α /bohr⁻²:    1.30
Starting Meta-MD   7 with the settings:
     MD time /ps        :     0.5
     dt /fs             :     1.5
     dumpstep(trj) /fs  :     100
     dumpstep(Vbias)/ps :     1.0
     Vbias factor k /Eh :  0.1680
     Vbias exp α /bohr⁻²:    0.47
Starting Meta-MD  10 with the settings:
     MD time /ps        :     0.5
     dt /fs             :     1.5
     dumpstep(trj) /fs  :     100
     dumpstep(Vbias)/ps :     1.0
     Vbias factor k /Eh :  0.1680
     Vbias exp α /bohr⁻²:    0.28
Starting Meta-MD   4 with the settings:
     MD time /ps        :     0.5
     dt /fs             :     1.5
     dumpstep(trj) /fs  :     100
     dumpstep(Vbias)/ps :     1.0
     Vbias factor k /Eh :  0.1680
     Vbias exp α /bohr⁻²:    0.78
Starting Meta-MD  11 with the settings:
     MD time /ps        :     0.5
     dt /fs             :     1.5
     dumpstep(trj) /fs  :     100
     dumpstep(Vbias)/ps :     1.0
     Vbias factor k /Eh :  0.0840
     Vbias exp α /bohr⁻²:    0.28
Starting Meta-MD  14 with the settings:
     MD time /ps        :     0.5
     dt /fs             :     1.5
     dumpstep(trj) /fs  :     100
     dumpstep(Vbias)/ps :     1.0
     Vbias factor k /Eh :  0.2800
     Vbias exp α /bohr⁻²:    0.80
Starting Meta-MD   1 with the settings:
     MD time /ps        :     0.5
     dt /fs             :     1.5
     dumpstep(trj) /fs  :     100
     dumpstep(Vbias)/ps :     1.0
     Vbias factor k /Eh :  0.1680
     Vbias exp α /bohr⁻²:    1.30
Starting Meta-MD  12 with the settings:
     MD time /ps        :     0.5
     dt /fs             :     1.5
     dumpstep(trj) /fs  :     100
     dumpstep(Vbias)/ps :     1.0
     Vbias factor k /Eh :  0.0420
     Vbias exp α /bohr⁻²:    0.28
Starting Meta-MD   8 with the settings:
     MD time /ps        :     0.5
     dt /fs             :     1.5
     dumpstep(trj) /fs  :     100
     dumpstep(Vbias)/ps :     1.0
     Vbias factor k /Eh :  0.0840
     Vbias exp α /bohr⁻²:    0.47
Starting Meta-MD  13 with the settings:
     MD time /ps        :     0.5
     dt /fs             :     1.5
     dumpstep(trj) /fs  :     100
     dumpstep(Vbias)/ps :     1.0
     Vbias factor k /Eh :  0.0560
     Vbias exp α /bohr⁻²:    0.10
Starting Meta-MD   6 with the settings:
     MD time /ps        :     0.5
     dt /fs             :     1.5
     dumpstep(trj) /fs  :     100
     dumpstep(Vbias)/ps :     1.0
     Vbias factor k /Eh :  0.0420
     Vbias exp α /bohr⁻²:    0.78
*Meta-MTD 9 finished*
*Meta-MTD 14 finished*
*Meta-MTD 11 finished*
*Meta-MTD 3 finished*
*Meta-MTD 6 finished*
*Meta-MTD 5 finished*
*Meta-MTD 8 finished*
*Meta-MTD 2 finished*
*Meta-MTD 4 finished*
*Meta-MTD 13 finished*
*Meta-MTD 7 finished*
*Meta-MTD 10 finished*
*Meta-MTD 12 finished*
*Meta-MTD 1 finished*
 
-----------------------
Multilevel Optimization
-----------------------
 
 -------------------------
 1. crude pre-optimization
 -------------------------
 Optimizing all 70 structures from file "crest_rotamers_0.xyz" ...
 1 2 3 4 5 6 7 8 9 10 11 12 13 14 15 16 17 18 19 20 21 22 23 24 25 26 27 28 29 30 31 32 33 34 35 36 37 38 39 40 41 42 43 44 45 46 47 48 49 50 51 52 53 54 55 56 57 58 59 60 61 62 63 64 65 66 67 68 69 70
 done.
 running RMSDs...
 done.
 E lowest :  -104.79115
 42 structures remain within    12.00 kcal/mol window
 
 -------------------------------------
 2. optimization with tight thresholds
 -------------------------------------
 Optimizing all 43 structures from file "crest_rotamers_1.xyz" ...
 1 2 3 4 5 6 7 8 9 10 11 12 13 14 15 16 17 18 19 20 21 22 23 24 25 26 27 28 29 30 31 32 33 34 35 36 37 38 39 40 41 42 43
 done.
 running RMSDs...
 done.
 E lowest :  -104.79314
 10 structures remain within     6.00 kcal/mol window
 
 
========================================
            MTD Iteration  2
========================================
 
     ========================================
     |         Meta-MD (MTD) Sampling       |
     ========================================
 
Starting Meta-MD   1 with the settings:
     MD time /ps        :     0.5
     dt /fs             :     1.5
     dumpstep(trj) /fs  :     100
     dumpstep(Vbias)/ps :     1.0
     Vbias factor k /Eh :  0.1680
     Vbias exp α /bohr⁻²:    1.30
Starting Meta-MD   2 with the settings:
     MD time /ps        :     0.5
     dt /fs             :     1.5
     dumpstep(trj) /fs  :     100
     dumpstep(Vbias)/ps :     1.0
     Vbias factor k /Eh :  0.0840
     Vbias exp α /bohr⁻²:    1.30
Starting Meta-MD   3 with the settings:
     MD time /ps        :     0.5
     dt /fs             :     1.5
     dumpstep(trj) /fs  :     100
     dumpstep(Vbias)/ps :     1.0
     Vbias factor k /Eh :  0.0420
     Vbias exp α /bohr⁻²:    1.30
Starting Meta-MD   4 with the settings:
     MD time /ps        :     0.5
     dt /fs             :     1.5
     dumpstep(trj) /fs  :     100
     dumpstep(Vbias)/ps :     1.0
     Vbias factor k /Eh :  0.1680
     Vbias exp α /bohr⁻²:    0.78
Starting Meta-MD   5 with the settings:
     MD time /ps        :     0.5
     dt /fs             :     1.5
     dumpstep(trj) /fs  :     100
     dumpstep(Vbias)/ps :     1.0
     Vbias factor k /Eh :  0.0840
     Vbias exp α /bohr⁻²:    0.78
Starting Meta-MD   6 with the settings:
     MD time /ps        :     0.5
     dt /fs             :     1.5
     dumpstep(trj) /fs  :     100
     dumpstep(Vbias)/ps :     1.0
     Vbias factor k /Eh :  0.0420
     Vbias exp α /bohr⁻²:    0.78
Starting Meta-MD   7 with the settings:
     MD time /ps        :     0.5
     dt /fs             :     1.5
     dumpstep(trj) /fs  :     100
     dumpstep(Vbias)/ps :     1.0
     Vbias factor k /Eh :  0.1680
     Vbias exp α /bohr⁻²:    0.47
Starting Meta-MD   8 with the settings:
     MD time /ps        :     0.5
     dt /fs             :     1.5
     dumpstep(trj) /fs  :     100
     dumpstep(Vbias)/ps :     1.0
     Vbias factor k /Eh :  0.0840
     Vbias exp α /bohr⁻²:    0.47
Starting Meta-MD   9 with the settings:
     MD time /ps        :     0.5
     dt /fs             :     1.5
     dumpstep(trj) /fs  :     100
     dumpstep(Vbias)/ps :     1.0
     Vbias factor k /Eh :  0.0420
     Vbias exp α /bohr⁻²:    0.47
Starting Meta-MD  10 with the settings:
     MD time /ps        :     0.5
     dt /fs             :     1.5
     dumpstep(trj) /fs  :     100
     dumpstep(Vbias)/ps :     1.0
     Vbias factor k /Eh :  0.1680
     Vbias exp α /bohr⁻²:    0.28
Starting Meta-MD  11 with the settings:
     MD time /ps        :     0.5
     dt /fs             :     1.5
     dumpstep(trj) /fs  :     100
     dumpstep(Vbias)/ps :     1.0
     Vbias factor k /Eh :  0.0840
     Vbias exp α /bohr⁻²:    0.28
Starting Meta-MD  12 with the settings:
     MD time /ps        :     0.5
     dt /fs             :     1.5
     dumpstep(trj) /fs  :     100
     dumpstep(Vbias)/ps :     1.0
     Vbias factor k /Eh :  0.0420
     Vbias exp α /bohr⁻²:    0.28
*Meta-MTD 11 finished*
*Meta-MTD 7 finished*
*Meta-MTD 12 finished*
*Meta-MTD 6 finished*
*Meta-MTD 2 finished*
*Meta-MTD 1 finished*
*Meta-MTD 3 finished*
*Meta-MTD 5 finished*
*Meta-MTD 4 finished*
*Meta-MTD 8 finished*
*Meta-MTD 9 finished*
*Meta-MTD 10 finished*
 
-----------------------
Multilevel Optimization
-----------------------
 
 -------------------------
 1. crude pre-optimization
 -------------------------
 Optimizing all 60 structures from file "crest_rotamers_0.xyz" ...
 1 2 3 4 5 6 7 8 9 10 11 12 13 14 15 16 17 18 19 20 21 22 23 24 25 26 27 28 29 30 31 32 33 34 35 36 37 38 39 40 41 42 43 44 45 46 47 48 49 50 51 52 53 54 55 56 57 58 59 60
 done.
 running RMSDs...
 done.
 E lowest :  -104.79349
 45 structures remain within    12.00 kcal/mol window
 
 -------------------------------------
 2. optimization with tight thresholds
 -------------------------------------
 Optimizing all 46 structures from file "crest_rotamers_1.xyz" ...
 1 2 3 4 5 6 7 8 9 10 11 12 13 14 15 16 17 18 19 20 21 22 23 24 25 26 27 28 29 30 31 32 33 34 35 36 37 38 39 40 41 42 43 44 45 46
 done.
 running RMSDs...
 done.
 E lowest :  -104.79565
 10 structures remain within     6.00 kcal/mol window
 
 ...............................................
 A new lower conformer was found!
 Improved by    0.00250 Eh or    1.57030kcal/mol
 ...............................................
 
========================================
            MTD Iteration  3
========================================
 
     ========================================
     |         Meta-MD (MTD) Sampling       |
     ========================================
 
Starting Meta-MD   1 with the settings:
     MD time /ps        :     0.5
     dt /fs             :     1.5
     dumpstep(trj) /fs  :     100
     dumpstep(Vbias)/ps :     1.0
     Vbias factor k /Eh :  0.1680
     Vbias exp α /bohr⁻²:    1.30
Starting Meta-MD   2 with the settings:
     MD time /ps        :     0.5
     dt /fs             :     1.5
     dumpstep(trj) /fs  :     100
     dumpstep(Vbias)/ps :     1.0
     Vbias factor k /Eh :  0.0840
     Vbias exp α /bohr⁻²:    1.30
Starting Meta-MD   3 with the settings:
     MD time /ps        :     0.5
     dt /fs             :     1.5
     dumpstep(trj) /fs  :     100
     dumpstep(Vbias)/ps :     1.0
     Vbias factor k /Eh :  0.0420
     Vbias exp α /bohr⁻²:    1.30
Starting Meta-MD   4 with the settings:
     MD time /ps        :     0.5
     dt /fs             :     1.5
     dumpstep(trj) /fs  :     100
     dumpstep(Vbias)/ps :     1.0
     Vbias factor k /Eh :  0.1680
     Vbias exp α /bohr⁻²:    0.78
Starting Meta-MD   5 with the settings:
     MD time /ps        :     0.5
     dt /fs             :     1.5
     dumpstep(trj) /fs  :     100
     dumpstep(Vbias)/ps :     1.0
     Vbias factor k /Eh :  0.0840
     Vbias exp α /bohr⁻²:    0.78
Starting Meta-MD   6 with the settings:
     MD time /ps        :     0.5
     dt /fs             :     1.5
     dumpstep(trj) /fs  :     100
     dumpstep(Vbias)/ps :     1.0
     Vbias factor k /Eh :  0.0420
     Vbias exp α /bohr⁻²:    0.78
Starting Meta-MD   7 with the settings:
     MD time /ps        :     0.5
     dt /fs             :     1.5
     dumpstep(trj) /fs  :     100
     dumpstep(Vbias)/ps :     1.0
     Vbias factor k /Eh :  0.1680
     Vbias exp α /bohr⁻²:    0.47
Starting Meta-MD   8 with the settings:
     MD time /ps        :     0.5
     dt /fs             :     1.5
     dumpstep(trj) /fs  :     100
     dumpstep(Vbias)/ps :     1.0
     Vbias factor k /Eh :  0.0840
     Vbias exp α /bohr⁻²:    0.47
Starting Meta-MD   9 with the settings:
     MD time /ps        :     0.5
     dt /fs             :     1.5
     dumpstep(trj) /fs  :     100
     dumpstep(Vbias)/ps :     1.0
     Vbias factor k /Eh :  0.0420
     Vbias exp α /bohr⁻²:    0.47
Starting Meta-MD  10 with the settings:
     MD time /ps        :     0.5
     dt /fs             :     1.5
     dumpstep(trj) /fs  :     100
     dumpstep(Vbias)/ps :     1.0
     Vbias factor k /Eh :  0.1680
     Vbias exp α /bohr⁻²:    0.28
Starting Meta-MD  11 with the settings:
     MD time /ps        :     0.5
     dt /fs             :     1.5
     dumpstep(trj) /fs  :     100
     dumpstep(Vbias)/ps :     1.0
     Vbias factor k /Eh :  0.0840
     Vbias exp α /bohr⁻²:    0.28
Starting Meta-MD  12 with the settings:
     MD time /ps        :     0.5
     dt /fs             :     1.5
     dumpstep(trj) /fs  :     100
     dumpstep(Vbias)/ps :     1.0
     Vbias factor k /Eh :  0.0420
     Vbias exp α /bohr⁻²:    0.28
*Meta-MTD 12 finished*
*Meta-MTD 6 finished*
*Meta-MTD 1 finished*
*Meta-MTD 8 finished*
*Meta-MTD 11 finished*
*Meta-MTD 10 finished*
*Meta-MTD 9 finished*
*Meta-MTD 2 finished*
*Meta-MTD 4 finished*
*Meta-MTD 7 finished*
*Meta-MTD 3 finished*
*Meta-MTD 5 finished*
 
-----------------------
Multilevel Optimization
-----------------------
 
 -------------------------
 1. crude pre-optimization
 -------------------------
 Optimizing all 60 structures from file "crest_rotamers_0.xyz" ...
 1 2 3 4 5 6 7 8 9 10 11 12 13 14 15 16 17 18 19 20 21 22 23 24 25 26 27 28 29 30 31 32 33 34 35 36 37 38 39 40 41 42 43 44 45 46 47 48 49 50 51 52 53 54 55 56 57 58 59 60
 done.
 running RMSDs...
 done.
 E lowest :  -104.79523
 46 structures remain within    12.00 kcal/mol window
 
 -------------------------------------
 2. optimization with tight thresholds
 -------------------------------------
 Optimizing all 47 structures from file "crest_rotamers_1.xyz" ...
 1 2 3 4 5 6 7 8 9 10 11 12 13 14 15 16 17 18 19 20 21 22 23 24 25 26 27 28 29 30 31 32 33 34 35 36 37 38 39 40 41 42 43 44 45 46 47
 done.
 running RMSDs...
 done.
 E lowest :  -104.79584
 11 structures remain within     6.00 kcal/mol window
 
 ...............................................
 A new lower conformer was found!
 Improved by    0.00020 Eh or    0.12319kcal/mol
 ...............................................
 
========================================
            MTD Iteration  4
========================================
 
     ========================================
     |         Meta-MD (MTD) Sampling       |
     ========================================
 
Starting Meta-MD   1 with the settings:
     MD time /ps        :     0.5
     dt /fs             :     1.5
     dumpstep(trj) /fs  :     100
     dumpstep(Vbias)/ps :     1.0
     Vbias factor k /Eh :  0.1680
     Vbias exp α /bohr⁻²:    1.30
Starting Meta-MD   2 with the settings:
     MD time /ps        :     0.5
     dt /fs             :     1.5
     dumpstep(trj) /fs  :     100
     dumpstep(Vbias)/ps :     1.0
     Vbias factor k /Eh :  0.0840
     Vbias exp α /bohr⁻²:    1.30
Starting Meta-MD   3 with the settings:
     MD time /ps        :     0.5
     dt /fs             :     1.5
     dumpstep(trj) /fs  :     100
     dumpstep(Vbias)/ps :     1.0
     Vbias factor k /Eh :  0.0420
     Vbias exp α /bohr⁻²:    1.30
Starting Meta-MD   4 with the settings:
     MD time /ps        :     0.5
     dt /fs             :     1.5
     dumpstep(trj) /fs  :     100
     dumpstep(Vbias)/ps :     1.0
     Vbias factor k /Eh :  0.1680
     Vbias exp α /bohr⁻²:    0.78
Starting Meta-MD   5 with the settings:
     MD time /ps        :     0.5
     dt /fs             :     1.5
     dumpstep(trj) /fs  :     100
     dumpstep(Vbias)/ps :     1.0
     Vbias factor k /Eh :  0.0840
     Vbias exp α /bohr⁻²:    0.78
Starting Meta-MD   6 with the settings:
     MD time /ps        :     0.5
     dt /fs             :     1.5
     dumpstep(trj) /fs  :     100
     dumpstep(Vbias)/ps :     1.0
     Vbias factor k /Eh :  0.0420
     Vbias exp α /bohr⁻²:    0.78
Starting Meta-MD   7 with the settings:
     MD time /ps        :     0.5
     dt /fs             :     1.5
     dumpstep(trj) /fs  :     100
     dumpstep(Vbias)/ps :     1.0
     Vbias factor k /Eh :  0.1680
     Vbias exp α /bohr⁻²:    0.47
Starting Meta-MD   8 with the settings:
     MD time /ps        :     0.5
     dt /fs             :     1.5
     dumpstep(trj) /fs  :     100
     dumpstep(Vbias)/ps :     1.0
     Vbias factor k /Eh :  0.0840
     Vbias exp α /bohr⁻²:    0.47
Starting Meta-MD   9 with the settings:
     MD time /ps        :     0.5
     dt /fs             :     1.5
     dumpstep(trj) /fs  :     100
     dumpstep(Vbias)/ps :     1.0
     Vbias factor k /Eh :  0.0420
     Vbias exp α /bohr⁻²:    0.47
Starting Meta-MD  10 with the settings:
     MD time /ps        :     0.5
     dt /fs             :     1.5
     dumpstep(trj) /fs  :     100
     dumpstep(Vbias)/ps :     1.0
     Vbias factor k /Eh :  0.1680
     Vbias exp α /bohr⁻²:    0.28
Starting Meta-MD  11 with the settings:
     MD time /ps        :     0.5
     dt /fs             :     1.5
     dumpstep(trj) /fs  :     100
     dumpstep(Vbias)/ps :     1.0
     Vbias factor k /Eh :  0.0840
     Vbias exp α /bohr⁻²:    0.28
Starting Meta-MD  12 with the settings:
     MD time /ps        :     0.5
     dt /fs             :     1.5
     dumpstep(trj) /fs  :     100
     dumpstep(Vbias)/ps :     1.0
     Vbias factor k /Eh :  0.0420
     Vbias exp α /bohr⁻²:    0.28
*Meta-MTD 12 finished*
*Meta-MTD 1 finished*
*Meta-MTD 6 finished*
*Meta-MTD 11 finished*
*Meta-MTD 7 finished*
*Meta-MTD 9 finished*
*Meta-MTD 5 finished*
*Meta-MTD 8 finished*
*Meta-MTD 4 finished*
*Meta-MTD 3 finished*
*Meta-MTD 2 finished*
*Meta-MTD 10 finished*
 
-----------------------
Multilevel Optimization
-----------------------
 
 -------------------------
 1. crude pre-optimization
 -------------------------
 Optimizing all 60 structures from file "crest_rotamers_0.xyz" ...
 1 2 3 4 5 6 7 8 9 10 11 12 13 14 15 16 17 18 19 20 21 22 23 24 25 26 27 28 29 30 31 32 33 34 35 36 37 38 39 40 41 42 43 44 45 46 47 48 49 50 51 52 53 54 55 56 57 58 59 60
 done.
 running RMSDs...
 done.
 E lowest :  -104.79542
 41 structures remain within    12.00 kcal/mol window
 
 -------------------------------------
 2. optimization with tight thresholds
 -------------------------------------
 Optimizing all 42 structures from file "crest_rotamers_1.xyz" ...
 1 2 3 4 5 6 7 8 9 10 11 12 13 14 15 16 17 18 19 20 21 22 23 24 25 26 27 28 29 30 31 32 33 34 35 36 37 38 39 40 41 42
 done.
 running RMSDs...
 done.
 E lowest :  -104.79585
 9 structures remain within     6.00 kcal/mol window
 
========================================
            MTD Iterations done         
========================================
 Collecting ensmbles.
 running RMSDs...
 done.
 E lowest :  -104.79585
 34 structures remain within     6.00 kcal/mol window
 
 -------------------------------
 Additional orientation sampling
 -------------------------------
 Optimizing all 58 structures from file "oh_ensemble.xyz" ...
 1 2 3 4 5 6 7 8 9 10 11 12 13 14 15 16 17 18 19 20 21 22 23 24 25 26 27 28 29 30 31 32 33 34 35 36 37 38 39 40 41 42 43 44 45 46 47 48 49 50 51 52 53 54 55 56 57 58
 done.
 running RMSDs...
 done.
 E lowest :  -104.79585
 70 structures remain within     6.00 kcal/mol window
 
-----------------------------------------------
Additional regular MDs on lowest 4 conformer(s)
-----------------------------------------------
Starting MD   1 with the settings:
     MD time /ps        :     0.2
     MD Temperature /K  :   400.0
     dt /fs             :     1.5
     dumpstep(trj) /fs  :     100
Starting MD   2 with the settings:
     MD time /ps        :     0.2
     MD Temperature /K  :   500.0
     dt /fs             :     1.5
     dumpstep(trj) /fs  :     100
Starting MD   3 with the settings:
     MD time /ps        :     0.2
     MD Temperature /K  :   400.0
     dt /fs             :     1.5
     dumpstep(trj) /fs  :     100
Starting MD   4 with the settings:
     MD time /ps        :     0.2
     MD Temperature /K  :   500.0
     dt /fs             :     1.5
     dumpstep(trj) /fs  :     100
Starting MD   8 with the settings:
     MD time /ps        :     0.2
     MD Temperature /K  :   500.0
     dt /fs             :     1.5
     dumpstep(trj) /fs  :     100
Starting MD   5 with the settings:
     MD time /ps        :     0.2
     MD Temperature /K  :   400.0
     dt /fs             :     1.5
     dumpstep(trj) /fs  :     100
Starting MD   6 with the settings:
     MD time /ps        :     0.2
     MD Temperature /K  :   500.0
     dt /fs             :     1.5
     dumpstep(trj) /fs  :     100
Starting MD   7 with the settings:
     MD time /ps        :     0.2
     MD Temperature /K  :   400.0
     dt /fs             :     1.5
     dumpstep(trj) /fs  :     100
*MD 1 finished*
*MD 4 finished*
*MD 5 finished*
*MD 3 finished*
*MD 7 finished*
*MD 6 finished*
*MD 2 finished*
*MD 8 finished*
 Appending file crest_rotamers_2.xyz with new structures
 
 -------------------------------------------
 Ensemble optimization with tight thresholds
 -------------------------------------------
 Optimizing all 86 structures from file "crest_rotamers_2.xyz" ...
 1 2 3 4 5 6 7 8 9 10 11 12 13 14 15 16 17 18 19 20 21 22 23 24 25 26 27 28 29 30 31 32 33 34 35 36 37 38 39 40 41 42 43 44 45 46 47 48 49 50 51 52 53 54 55 56 57 58 59 60 61 62 63 64 65 66 67 68 69 70 71 72 73 74 75 76 77 78 79 80 81 82 83 84 85 86
 done.
 running RMSDs...
 done.
 E lowest :  -104.79585
 70 structures remain within     6.00 kcal/mol window
 
 
     ========================================
     |        Structure Crossing (GC)       |
     ========================================
 =============================
  # threads =          28
 =============================
 input  file name : crest_rotamers_4.xyz
number of atoms                :    56
number of points on xyz files  :    70
conformer energy window  /kcal :    6.00
CN per atom difference cut-off :  0.3000
RMSD threshold                 :  0.5000
max. # of generated structures : 25
 reading xyz file ...
 # in E window                 70
 generating pairs ...        2484
 generated pairs           :        1640
 number of clash discarded :         775
 average rmsd w.r.t input  : 2.52287
 sd of ensemble            : 0.78594
 number of new structures      :           1
 removed identical structures  :          49
 writing            1  TMPCONF* dirs ...
 --------------------------
 GC: loose pre-optimization
 --------------------------
 Starting optimization of generated structures
 1 jobs to do.
 1 
 done.
 Now appending opt.xyz file with new structures
 running RMSDs...
 done.
 E lowest :  -104.79581
 1 structures remain within    10.00 kcal/mol window
 --------------------------------------
 GC: optimization with tight thresholds
 --------------------------------------
 Optimizing all 1 structures from file "crest_rotamers_1.xyz" ...
 1
 done.
 running RMSDs...
 done.
 E lowest :  -104.79585
 
 
   ================================================
   |           Final Geometry Optimization        |
   ================================================
 ------------------------------------------------
 Ensemble optimization with very tight thresholds
 ------------------------------------------------
 Optimizing all 70 structures from file "crest_rotamers_5.xyz" ...
 1 2 3 4 5 6 7 8 9 10 11 12 13 14 15 16 17 18 19 20 21 22 23 24 25 26 27 28 29 30 31 32 33 34 35 36 37 38 39 40 41 42 43 44 45 46 47 48 49 50 51 52 53 54 55 56 57 58 59 60 61 62 63 64 65 66 67 68 69 70
 done.
 running RMSDs...
 done.
 E lowest :  -104.79585
 69 structures remain within     6.00 kcal/mol window
 
 input  file name : crest_rotamers_6.xyz
 output file name : crest_rotamers_7.xyz
 number of atoms                :   56
 number of points on xyz files  :   70
 RMSD threshold                 :   0.2500
 Bconst threshold               :   0.0100
 population threshold           :   0.0500
 conformer energy window  /kcal :   6.0000
 # fragment in coord            :     1
 # bonds in reference structure :    61
   => # of C=C bonds :    16
 number of reliable points      :    70
 reference state Etot :  -104.795849910000
 number of doubles removed by rot/RMSD         :           1
 total number unique points considered further :          69
       Erel/kcal        Etot weight/tot  conformer     set   degen     origin
       1   0.000  -104.79585    0.06176    0.12331       1       2     mtd6
       2   0.002  -104.79585    0.06155                                md4
       3   0.030  -104.79580    0.05874    0.05874       2       1     hor
       4   0.115  -104.79567    0.05088    0.20325       3       4     hor
       5   0.115  -104.79567    0.05088                                mtd11
       6   0.116  -104.79566    0.05076                                md8
       7   0.117  -104.79566    0.05072                                mtd2
       8   0.151  -104.79561    0.04788    0.04788       4       1     mtd4
       9   0.176  -104.79557    0.04589    0.04589       5       1     mtd11
      10   0.233  -104.79548    0.04171    0.08292       6       2     mtd6
      11   0.240  -104.79547    0.04121                                mtd2
      12   0.293  -104.79538    0.03768    0.03768       7       1     mtd7
      13   0.327  -104.79533    0.03557    0.03557       8       1     mtd11
      14   0.365  -104.79527    0.03335    0.03335       9       1     mtd1
      15   0.391  -104.79523    0.03192    0.03192      10       1     mtd7
      16   0.445  -104.79514    0.02918    0.05800      11       2     mtd1
      17   0.452  -104.79513    0.02882                                mtd1
      18   0.468  -104.79510    0.02804    0.05492      12       2     hor
      19   0.493  -104.79506    0.02688                                mtd8
      20   0.475  -104.79509    0.02770    0.05431      13       2     mtd11
      21   0.499  -104.79505    0.02661                                hor
      22   1.530  -104.79341    0.00468    0.00468      14       1     hor
      23   1.531  -104.79341    0.00467    0.00467      15       1     mtd2
      24   1.544  -104.79339    0.00457    0.00457      16       1     hor
      25   1.548  -104.79338    0.00454    0.00454      17       1     hor
      26   1.553  -104.79337    0.00450    0.00450      18       1     hor
      27   1.556  -104.79337    0.00448    0.00448      19       1     hor
      28   1.575  -104.79334    0.00434    0.00434      20       1     hor
      29   1.583  -104.79333    0.00428    0.00428      21       1     mtd7
      30   1.611  -104.79328    0.00408    0.00408      22       1     hor
      31   1.612  -104.79328    0.00407    0.00811      23       2     hor
      32   1.618  -104.79327    0.00404                                hor
      33   1.613  -104.79328    0.00407    0.00407      24       1     hor
      34   1.640  -104.79324    0.00389    0.00389      25       1     mtd5
      35   1.660  -104.79321    0.00376    0.00752      26       2     hor
      36   1.660  -104.79320    0.00376                                mtd2
      37   1.665  -104.79320    0.00373    0.00744      27       2     hor
      38   1.668  -104.79319    0.00371                                hor
      39   1.673  -104.79318    0.00368    0.00731      28       2     hor
      40   1.680  -104.79317    0.00363                                hor
      41   1.675  -104.79318    0.00366    0.00366      29       1     hor
      42   1.686  -104.79316    0.00360    0.00718      30       2     hor
      43   1.687  -104.79316    0.00359                                mtd10
      44   1.689  -104.79316    0.00358    0.00358      31       1     hor
      45   1.702  -104.79314    0.00350    0.00695      32       2     mtd1
      46   1.711  -104.79312    0.00345                                hor
      47   1.709  -104.79313    0.00346    0.00346      33       1     hor
      48   1.711  -104.79312    0.00345    0.00345      34       1     hor
      49   1.759  -104.79305    0.00318    0.00318      35       1     hor
      50   1.768  -104.79303    0.00313    0.00625      36       2     hor
      51   1.770  -104.79303    0.00312                                hor
      52   1.770  -104.79303    0.00312    0.00312      37       1     hor
      53   1.809  -104.79297    0.00292    0.00292      38       1     hor
      54   1.859  -104.79289    0.00269    0.00269      39       1     hor
      55   2.618  -104.79168    0.00075    0.00075      40       1     hor
      56   2.622  -104.79167    0.00074    0.00074      41       1     mtd4
      57   2.679  -104.79158    0.00067    0.00067      42       1     mtd2
      58   2.760  -104.79145    0.00059    0.00117      43       2     hor
      59   2.768  -104.79144    0.00058                                hor
      60   2.762  -104.79145    0.00059    0.00059      44       1     mtd14
      61   2.912  -104.79121    0.00045    0.00045      45       1     mtd2
      62   2.917  -104.79120    0.00045    0.00045      46       1     hor
      63   2.954  -104.79114    0.00042    0.00042      47       1     mtd10
      64   2.963  -104.79113    0.00042    0.00042      48       1     mtd2
      65   3.033  -104.79102    0.00037    0.00037      49       1     hor
      66   3.074  -104.79095    0.00035    0.00035      50       1     mtd1
      67   3.081  -104.79094    0.00034    0.00034      51       1     mtd3
      68   3.106  -104.79090    0.00033    0.00033      52       1     mtd8
      69   3.169  -104.79080    0.00029    0.00029      53       1     hor
T /K                                  :   298.15
E lowest                              :  -104.79585
ensemble average energy (kcal)        :    0.413
ensemble entropy (J/mol K, cal/mol K) :   28.950    6.919
ensemble free energy (kcal/mol)       :   -2.063
population of lowest in %             :   12.331
 number of unique conformers for further calc           53
 list of relative energies saved as "crest.energies"
 
 -----------------
 Wall Time Summary
 -----------------
             test MD wall time :         0h : 0m :31s
                 MTD wall time :         0h : 1m :49s
      multilevel OPT wall time :         0h : 2m :19s
                  MD wall time :         0h : 0m :19s
                  GC wall time :         0h : 0m : 0s
--------------------
Overall wall time  : 0h : 5m :11s
 
 CREST terminated normally.
