 
       ==============================================
       |                                            |
       |                 C R E S T                  |
       |                                            |
       |  Conformer-Rotamer Ensemble Sampling Tool  |
       |          based on the GFN methods          |
       |             P.Pracht, S.Grimme             |
       |          Universitaet Bonn, MCTC           |
       ==============================================
       Version 2.11.2, Fr 17. Dec 12:10:44 CEST 2021
  Using the xTB program. Compatible with xTB version 6.4.0
 
   Cite work conducted with this code as

   P. Pracht, F. Bohle, S. Grimme, PCCP, 2020, 22, 7169-7192.

   and  S. Grimme, JCTC, 2019, 15, 2847-2862.
 
   with help from:
   C.Bannwarth, F.Bohle, S.Ehlert, S.Grimme,
   C. Plett, P.Pracht, S. Spicher
 
   This program is distributed in the hope that it will be useful,
   but WITHOUT ANY WARRANTY; without even the implied warranty of
   MERCHANTABILITY or FITNESS FOR A PARTICULAR PURPOSE.

 Command line input:
 > crest 00128_r_0.xyz -T 28 -gfn2 -chrg 0 -uhf 0 -rthr 0.25 -shake 1 --mdlen 0.5

  -T 28 (CPUs/Threads selected)
  -gfn2 : Use of GFN2-xTB requested.
  -chrg 0
  -uhf 0
  -rthr 0.25
  --mdlen 0.5 (MD length in ps)
 
 -------------------------
 xTB Geometry Optimization
 -------------------------
 Geometry successfully optimized.
 
------------------------------------------------
Generating MTD length from a flexibility measure
------------------------------------------------
      -----------------------------------------------------------      
     |                   =====================                   |     
     |                           x T B                           |     
     |                   =====================                   |     
     |                         S. Grimme                         |     
     |          Mulliken Center for Theoretical Chemistry        |     
     |                    University of Bonn                     |     
      -----------------------------------------------------------      

   * xtb version 6.4.1 (afa7bdf) compiled by 'ehlert@majestix' on 2021-06-10

   xtb is free software: you can redistribute it and/or modify it under
   the terms of the GNU Lesser General Public License as published by
   the Free Software Foundation, either version 3 of the License, or
   (at your option) any later version.
   
   xtb is distributed in the hope that it will be useful,
   but WITHOUT ANY WARRANTY; without even the implied warranty of
   MERCHANTABILITY or FITNESS FOR A PARTICULAR PURPOSE.  See the
   GNU Lesser General Public License for more details.
   
   Cite this work as:
   * C. Bannwarth, E. Caldeweyher, S. Ehlert, A. Hansen, P. Pracht,
     J. Seibert, S. Spicher, S. Grimme, WIREs Comput. Mol. Sci., 2020, 11,
     e01493. DOI: 10.1002/wcms.1493
   
   for GFN2-xTB:
   * C. Bannwarth, S. Ehlert and S. Grimme., J. Chem. Theory Comput., 2019,
     15, 1652-1671. DOI: 10.1021/acs.jctc.8b01176
   for GFN1-xTB:
   * S. Grimme, C. Bannwarth, P. Shushkov, J. Chem. Theory Comput., 2017,
     13, 1989-2009. DOI: 10.1021/acs.jctc.7b00118
   for GFN0-xTB:
   * P. Pracht, E. Caldeweyher, S. Ehlert, S. Grimme, ChemRxiv, 2019, preprint.
     DOI: 10.26434/chemrxiv.8326202.v1
   for GFN-FF:
   * S. Spicher and S. Grimme, Angew. Chem. Int. Ed., 2020, 59, 15665-15673.
     DOI: 10.1002/anie.202004239
   
   for DFT-D4:
   * E. Caldeweyher, C. Bannwarth and S. Grimme, J. Chem. Phys., 2017,
     147, 034112. DOI: 10.1063/1.4993215
   * E. Caldeweyher, S. Ehlert, A. Hansen, H. Neugebauer, S. Spicher,
     C. Bannwarth and S. Grimme, J. Chem. Phys., 2019, 150, 154122.
     DOI: 10.1063/1.5090222
   * E. Caldeweyher, J.-M. Mewes, S. Ehlert and S. Grimme, Phys. Chem. Chem. Phys.
     2020, 22, 8499-8512. DOI: 10.1039/D0CP00502A
   
   for sTDA-xTB:
   * S. Grimme and C. Bannwarth, J. Chem. Phys., 2016, 145, 054103.
     DOI: 10.1063/1.4959605
   
   in the mass-spec context:
   * V. Asgeirsson, C. Bauer and S. Grimme, Chem. Sci., 2017, 8, 4879.
     DOI: 10.1039/c7sc00601b
   * J. Koopman and S. Grimme, ACS Omega 2019, 4, 12, 15120-15133.
     DOI: 10.1021/acsomega.9b02011
   
   for metadynamics refer to:
   * S. Grimme, J. Chem. Theory Comput., 2019, 155, 2847-2862
     DOI: 10.1021/acs.jctc.9b00143
   
   for SPH calculations refer to:
   * S. Spicher and S. Grimme, J. Chem. Theory Comput., 2021, 17, 1701-1714
     DOI: 10.1021/acs.jctc.0c01306
   
   with help from (in alphabetical order)
   P. Atkinson, C. Bannwarth, F. Bohle, G. Brandenburg, E. Caldeweyher
   M. Checinski, S. Dohm, S. Ehlert, S. Ehrlich, I. Gerasimov, J. Koopman
   C. Lavigne, S. Lehtola, F. März, M. Müller, F. Musil, H. Neugebauer
   J. Pisarek, C. Plett, P. Pracht, J. Seibert, P. Shushkov, S. Spicher
   M. Stahn, M. Steiner, T. Strunk, J. Stückrath, T. Rose, and J. Unsleber
   
 * started run on 2024/07/31 at 10:40:14.590     

           -------------------------------------------------
          |                Calculation Setup                |
           -------------------------------------------------

          program call               : xtb tmpcoord --gfn0 --sp
          hostname                   : node18
          coordinate file            : tmpcoord
          omp threads                :                    28
          number of atoms            :                    80
          number of electrons        :                   234
          charge                     :                     0
          spin                       :                   0.0
          first test random number   :      0.29987209685572

   ID    Z sym.   atoms
    1    8 o      1, 28
    2    6 c      2-27, 29-50
    3    1 h      51-80
########################################################################
[WARNING] Please study the warnings concerning your input carefully
-1- prog_main_parseArguments: The use of '--gfn0' is discouraged, please use '--gfn 0' next time
########################################################################

           -------------------------------------------------
          |                 G F N 0 - x T B                 |
           -------------------------------------------------

        Reference                      10.26434/chemrxiv.8326202.v1
      * Hamiltonian:
        H0-scaling (s, p, d)           2.000000    2.486800    2.270000
        zeta-weighting                 1.000000
      * Dispersion:
        s8                             2.850000
        a1                             0.800000
        a2                             4.600000
        s9                             0.000000
      * Repulsion:
        kExp                           1.500000
        rExp                           1.000000
      * Coulomb:
        alpha                          0.000000
        third order                    atomic
        anisotropic                    false
      * Polar bond correction:
        rad-shift                      0.053700
        strength                      -0.012900
        en-exp                         3.484700
        en-scale                       0.509700


          ...................................................
          :                      SETUP                      :
          :.................................................:
          :  # basis functions                 260          :
          :  # atomic orbitals                 260          :
          :  # shells                          160          :
          :  # electrons                       234          :
          :  electronic temp.          300.0000000     K    :
          :  accuracy                    1.0000000          :
          :  -> integral cutoff          0.2500000E+02      :
          :  -> integral neglect         0.1000000E-07      :
          ...................................................
  Checking positiv definite overlap ...  done.
 

         #    Occupation            Energy/Eh            Energy/eV
      -------------------------------------------------------------
         1        2.0000           -0.6946122             -18.9014
       ...           ...                  ...                  ...
       111        2.0000           -0.4306141             -11.7176
       112        2.0000           -0.4157917             -11.3143
       113        2.0000           -0.4154336             -11.3045
       114        2.0000           -0.3969959             -10.8028
       115        2.0000           -0.3967896             -10.7972
       116        2.0000           -0.3942589             -10.7283
       117        2.0000           -0.3904267             -10.6241 (HOMO)
       118                         -0.3204519              -8.7199 (LUMO)
       119                         -0.3200403              -8.7087
       120                         -0.2990938              -8.1388
       121                         -0.2960604              -8.0562
       122                         -0.2741015              -7.4587
       ...                                ...                  ...
       260                          0.6589032              17.9297
      -------------------------------------------------------------
                  HL-Gap            0.0699747 Eh            1.9041 eV
             Fermi-level            0.0000000 Eh            0.0000 eV

 EHT (total)                   0 d,  0 h,  0 min,  0.050 sec
 EHT setup                      ...        0 min,  0.001 sec (  2.875%)
 Coordination number            ...        0 min,  0.001 sec (  2.376%)
 EEQ model density              ...        0 min,  0.001 sec (  1.816%)
 D4 Dispersion                  ...        0 min,  0.003 sec (  5.610%)
 Integral evaluation            ...        0 min,  0.002 sec (  3.095%)
 Cholesky factorization         ...        0 min,  0.011 sec ( 21.866%)
 Zeroth order Hamiltonian       ...        0 min,  0.027 sec ( 54.080%)
 Gradient calculation           ...        0 min,  0.003 sec (  6.710%)

         :::::::::::::::::::::::::::::::::::::::::::::::::::::
         ::                     SUMMARY                     ::
         :::::::::::::::::::::::::::::::::::::::::::::::::::::
         :: total energy            -124.133933638247 Eh    ::
         :: gradient norm              0.044381754333 Eh/a0 ::
         :: HOMO-LUMO gap              1.904109383368 eV    ::
         ::.................................................::
         :: H0 energy               -126.254764251614 Eh    ::
         :: repulsion energy           2.333646865894 Eh    ::
         :: electrostat energy        -0.122248144452 Eh    ::
         :: -> Gsolv                   0.000000000000 Eh    ::
         ::    -> Gsasa                0.000000000000 Eh    ::
         ::    -> Gshift               0.000000000000 Eh    ::
         :: dispersion energy         -0.065295444555 Eh    ::
         :: short-range corr.         -0.025272663519 Eh    ::
         :: add. restraining           0.000000000000 Eh    ::
         :: total charge              -0.000000000000 e     ::
         :::::::::::::::::::::::::::::::::::::::::::::::::::::

           -------------------------------------------------
          |                Property Printout                |
           -------------------------------------------------

    * Orbital Energies and Occupations

         #    Occupation            Energy/Eh            Energy/eV
      -------------------------------------------------------------
         1        2.0000           -0.6946122             -18.9014
       ...           ...                  ...                  ...
       105        2.0000           -0.4452580             -12.1161
       106        2.0000           -0.4425127             -12.0414
       107        2.0000           -0.4379045             -11.9160
       108        2.0000           -0.4379037             -11.9160
       109        2.0000           -0.4347838             -11.8311
       110        2.0000           -0.4306163             -11.7177
       111        2.0000           -0.4306141             -11.7176
       112        2.0000           -0.4157917             -11.3143
       113        2.0000           -0.4154336             -11.3045
       114        2.0000           -0.3969959             -10.8028
       115        2.0000           -0.3967896             -10.7972
       116        2.0000           -0.3942589             -10.7283
       117        2.0000           -0.3904267             -10.6241 (HOMO)
       118                         -0.3204519              -8.7199 (LUMO)
       119                         -0.3200403              -8.7087
       120                         -0.2990938              -8.1388
       121                         -0.2960604              -8.0562
       122                         -0.2741015              -7.4587
       123                         -0.2740996              -7.4586
       124                         -0.2650378              -7.2120
       125                         -0.2647057              -7.2030
       126                         -0.2644931              -7.1972
       127                         -0.2639463              -7.1823
       128                         -0.2344002              -6.3784
       ...                                ...                  ...
       260                          0.6589032              17.9297
      -------------------------------------------------------------
                  HL-Gap            0.0699747 Eh            1.9041 eV
             Fermi-level            0.0000000 Eh            0.0000 eV

     #   Z          covCN         q      C6AA      α(0)
     1   8 o        1.659    -0.532    23.400     6.544
     2   6 c        2.851     0.212    24.826     8.140
     3   6 c        2.971    -0.032    30.332     9.006
     4   6 c        2.977    -0.058    30.990     9.103
     5   6 c        2.985     0.038    28.592     8.744
     6   6 c        2.916    -0.123    32.812     9.364
     7   6 c        2.915    -0.087    31.803     9.218
     8   6 c        2.914    -0.087    31.805     9.219
     9   6 c        2.918    -0.132    33.050     9.398
    10   6 c        2.981     0.073    27.771     8.617
    11   6 c        2.922    -0.204    35.201     9.699
    12   6 c        2.981     0.074    27.747     8.614
    13   6 c        2.918    -0.132    33.063     9.399
    14   6 c        2.914    -0.087    31.799     9.218
    15   6 c        2.915    -0.089    31.869     9.228
    16   6 c        2.916    -0.120    32.719     9.350
    17   6 c        2.985     0.031    28.761     8.770
    18   6 c        2.923    -0.187    34.659     9.624
    19   6 c        2.986     0.066    27.929     8.642
    20   6 c        2.919    -0.130    32.991     9.389
    21   6 c        2.916    -0.086    31.771     9.214
    22   6 c        2.916    -0.091    31.905     9.233
    23   6 c        2.918    -0.106    32.337     9.296
    24   6 c        2.989     0.028    28.830     8.780
    25   6 c        2.976    -0.008    29.716     8.914
    26   6 c        2.976    -0.008    29.716     8.914
    27   6 c        2.851     0.212    24.826     8.140
    28   8 o        1.659    -0.532    23.400     6.544
    29   6 c        2.971    -0.032    30.332     9.006
    30   6 c        2.977    -0.058    30.990     9.103
    31   6 c        2.985     0.031    28.761     8.770
    32   6 c        2.916    -0.120    32.719     9.350
    33   6 c        2.915    -0.089    31.869     9.228
    34   6 c        2.914    -0.087    31.799     9.218
    35   6 c        2.918    -0.132    33.063     9.399
    36   6 c        2.981     0.074    27.747     8.614
    37   6 c        2.922    -0.204    35.201     9.699
    38   6 c        2.981     0.073    27.771     8.617
    39   6 c        2.918    -0.132    33.050     9.398
    40   6 c        2.914    -0.087    31.805     9.219
    41   6 c        2.915    -0.087    31.803     9.218
    42   6 c        2.916    -0.123    32.812     9.364
    43   6 c        2.985     0.038    28.592     8.744
    44   6 c        2.923    -0.187    34.659     9.624
    45   6 c        2.986     0.066    27.929     8.642
    46   6 c        2.919    -0.130    32.992     9.389
    47   6 c        2.916    -0.086    31.771     9.214
    48   6 c        2.916    -0.091    31.905     9.233
    49   6 c        2.918    -0.106    32.337     9.296
    50   6 c        2.989     0.028    28.830     8.780
    51   1 h        0.805     0.305     0.707     1.321
    52   1 h        0.926     0.130     1.535     1.937
    53   1 h        0.926     0.099     1.793     2.094
    54   1 h        0.926     0.095     1.834     2.118
    55   1 h        0.926     0.101     1.778     2.085
    56   1 h        0.925     0.115     1.655     2.012
    57   1 h        0.926     0.101     1.780     2.086
    58   1 h        0.926     0.094     1.843     2.123
    59   1 h        0.926     0.094     1.842     2.122
    60   1 h        0.926     0.113     1.674     2.023
    61   1 h        0.926     0.126     1.567     1.958
    62   1 h        0.926     0.101     1.778     2.085
    63   1 h        0.926     0.094     1.843     2.123
    64   1 h        0.926     0.094     1.840     2.121
    65   1 h        0.926     0.109     1.705     2.042
    66   1 h        0.805     0.305     0.707     1.321
    67   1 h        0.926     0.113     1.674     2.023
    68   1 h        0.926     0.094     1.842     2.122
    69   1 h        0.926     0.094     1.843     2.123
    70   1 h        0.926     0.101     1.780     2.086
    71   1 h        0.925     0.115     1.655     2.012
    72   1 h        0.926     0.101     1.778     2.085
    73   1 h        0.926     0.095     1.834     2.118
    74   1 h        0.926     0.099     1.793     2.094
    75   1 h        0.926     0.130     1.535     1.937
    76   1 h        0.926     0.126     1.567     1.958
    77   1 h        0.926     0.101     1.778     2.085
    78   1 h        0.926     0.094     1.843     2.123
    79   1 h        0.926     0.094     1.840     2.121
    80   1 h        0.926     0.109     1.705     2.042

 Mol. C6AA /au·bohr⁶  :      99282.847192
 Mol. C8AA /au·bohr⁸  :    2600535.640314
 Mol. α(0) /au        :        509.944305


Wiberg/Mayer (AO) data.
largest (>0.10) Wiberg bond orders for each atom

 ---------------------------------------------------------------------------
     #   Z sym  total        # sym  WBO       # sym  WBO       # sym  WBO
 ---------------------------------------------------------------------------
     1   8 o    2.295 --     2 c    1.127    51 h    0.970
     2   6 c    3.940 --    25 c    1.413     3 c    1.216     1 o    1.127
     3   6 c    3.974 --    18 c    1.530     2 c    1.216     4 c    1.002
     4   6 c    3.974 --     5 c    1.330    17 c    1.328     3 c    1.002
                            11 c    0.131
     5   6 c    3.977 --     4 c    1.330     6 c    1.239    10 c    1.201
     6   6 c    3.982 --     7 c    1.597     5 c    1.239    52 h    0.966
                             9 c    0.120
     7   6 c    3.975 --     6 c    1.597     8 c    1.279    53 h    0.973
     8   6 c    3.975 --     9 c    1.599     7 c    1.279    54 h    0.972
     9   6 c    3.980 --     8 c    1.599    10 c    1.235    55 h    0.969
                             6 c    0.120
    10   6 c    3.979 --    11 c    1.370     9 c    1.235     5 c    1.201
    11   6 c    3.985 --    12 c    1.371    10 c    1.370    56 h    0.966
                             4 c    0.131
    12   6 c    3.979 --    11 c    1.371    13 c    1.235    17 c    1.201
    13   6 c    3.980 --    14 c    1.599    12 c    1.235    57 h    0.969
                            16 c    0.120
    14   6 c    3.975 --    13 c    1.599    15 c    1.278    58 h    0.973
    15   6 c    3.975 --    16 c    1.598    14 c    1.278    59 h    0.972
    16   6 c    3.982 --    15 c    1.598    17 c    1.238    60 h    0.966
                            13 c    0.120
    17   6 c    3.977 --     4 c    1.328    16 c    1.238    12 c    1.201
    18   6 c    3.983 --     3 c    1.530    19 c    1.268    61 h    0.966
    19   6 c    3.977 --    20 c    1.281    18 c    1.268    24 c    1.242
    20   6 c    3.982 --    21 c    1.551    19 c    1.281    62 h    0.969
                            23 c    0.115
    21   6 c    3.975 --    20 c    1.551    22 c    1.319    63 h    0.973
    22   6 c    3.985 --    23 c    1.558    21 c    1.319    64 h    0.972
    23   6 c    3.987 --    22 c    1.558    24 c    1.271    65 h    0.966
                            20 c    0.115
    24   6 c    3.978 --    23 c    1.271    25 c    1.258    19 c    1.242
    25   6 c    3.966 --     2 c    1.413    24 c    1.258    26 c    0.997
    26   6 c    3.966 --    27 c    1.413    50 c    1.258    25 c    0.997
    27   6 c    3.940 --    26 c    1.413    29 c    1.216    28 o    1.127
    28   8 o    2.295 --    27 c    1.127    66 h    0.970
    29   6 c    3.974 --    44 c    1.530    27 c    1.216    30 c    1.002
    30   6 c    3.974 --    43 c    1.330    31 c    1.328    29 c    1.002
                            37 c    0.131
    31   6 c    3.977 --    30 c    1.328    32 c    1.238    36 c    1.201
    32   6 c    3.982 --    33 c    1.598    31 c    1.238    67 h    0.966
                            35 c    0.120
    33   6 c    3.975 --    32 c    1.598    34 c    1.278    68 h    0.972
    34   6 c    3.975 --    35 c    1.599    33 c    1.278    69 h    0.973
    35   6 c    3.980 --    34 c    1.599    36 c    1.235    70 h    0.969
                            32 c    0.120
    36   6 c    3.979 --    37 c    1.371    35 c    1.235    31 c    1.201
    37   6 c    3.985 --    36 c    1.371    38 c    1.370    71 h    0.966
                            30 c    0.131
    38   6 c    3.979 --    37 c    1.370    39 c    1.235    43 c    1.201
    39   6 c    3.980 --    40 c    1.599    38 c    1.235    72 h    0.969
                            42 c    0.120
    40   6 c    3.975 --    39 c    1.599    41 c    1.279    73 h    0.972
    41   6 c    3.975 --    42 c    1.597    40 c    1.279    74 h    0.973
    42   6 c    3.982 --    41 c    1.597    43 c    1.239    75 h    0.966
                            39 c    0.120
    43   6 c    3.977 --    30 c    1.330    42 c    1.239    38 c    1.201
    44   6 c    3.983 --    29 c    1.530    45 c    1.268    76 h    0.966
    45   6 c    3.977 --    46 c    1.281    44 c    1.268    50 c    1.242
    46   6 c    3.982 --    47 c    1.551    45 c    1.281    77 h    0.969
                            49 c    0.115
    47   6 c    3.975 --    46 c    1.551    48 c    1.319    78 h    0.973
    48   6 c    3.985 --    49 c    1.558    47 c    1.319    79 h    0.972
    49   6 c    3.987 --    48 c    1.558    50 c    1.271    80 h    0.966
                            46 c    0.115
    50   6 c    3.978 --    49 c    1.271    26 c    1.258    45 c    1.242
    51   1 h    0.986 --     1 o    0.970
    52   1 h    0.981 --     6 c    0.966
    53   1 h    0.984 --     7 c    0.973
    54   1 h    0.984 --     8 c    0.972
    55   1 h    0.978 --     9 c    0.969
    56   1 h    0.973 --    11 c    0.966
    57   1 h    0.978 --    13 c    0.969
    58   1 h    0.984 --    14 c    0.973
    59   1 h    0.983 --    15 c    0.972
    60   1 h    0.980 --    16 c    0.966
    61   1 h    0.977 --    18 c    0.966
    62   1 h    0.978 --    20 c    0.969
    63   1 h    0.983 --    21 c    0.973
    64   1 h    0.983 --    22 c    0.972
    65   1 h    0.980 --    23 c    0.966
    66   1 h    0.986 --    28 o    0.970
    67   1 h    0.980 --    32 c    0.966
    68   1 h    0.983 --    33 c    0.972
    69   1 h    0.984 --    34 c    0.973
    70   1 h    0.978 --    35 c    0.969
    71   1 h    0.973 --    37 c    0.966
    72   1 h    0.978 --    39 c    0.969
    73   1 h    0.984 --    40 c    0.972
    74   1 h    0.984 --    41 c    0.973
    75   1 h    0.981 --    42 c    0.966
    76   1 h    0.977 --    44 c    0.966
    77   1 h    0.978 --    46 c    0.969
    78   1 h    0.983 --    47 c    0.973
    79   1 h    0.983 --    48 c    0.972
    80   1 h    0.980 --    49 c    0.966
 ---------------------------------------------------------------------------

Topologies differ in total number of bonds
Writing topology from bond orders to xtbtopo.mol

 dipole moment from electron density (au)
     X       Y       Z   
  -0.1342   1.2898  -0.7319  total (Debye):    3.785


           -------------------------------------------------
          | TOTAL ENERGY             -124.133933638247 Eh   |
          | GRADIENT NORM               0.044381754333 Eh/α |
          | HOMO-LUMO GAP               1.904109383368 eV   |
           -------------------------------------------------

------------------------------------------------------------------------
 * finished run on 2024/07/31 at 10:40:14.690     
------------------------------------------------------------------------
 total:
 * wall-time:     0 d,  0 h,  0 min,  0.100 sec
 *  cpu-time:     0 d,  0 h,  0 min,  2.156 sec
 * ratio c/w:    21.546 speedup
 SCF:
 * wall-time:     0 d,  0 h,  0 min,  0.051 sec
 *  cpu-time:     0 d,  0 h,  0 min,  1.250 sec
 * ratio c/w:    24.627 speedup

 Calculating WBOs... done.
      -----------------------------------------------------------      
     |                   =====================                   |     
     |                           x T B                           |     
     |                   =====================                   |     
     |                         S. Grimme                         |     
     |          Mulliken Center for Theoretical Chemistry        |     
     |                    University of Bonn                     |     
      -----------------------------------------------------------      

   * xtb version 6.4.1 (afa7bdf) compiled by 'ehlert@majestix' on 2021-06-10

   xtb is free software: you can redistribute it and/or modify it under
   the terms of the GNU Lesser General Public License as published by
   the Free Software Foundation, either version 3 of the License, or
   (at your option) any later version.
   
   xtb is distributed in the hope that it will be useful,
   but WITHOUT ANY WARRANTY; without even the implied warranty of
   MERCHANTABILITY or FITNESS FOR A PARTICULAR PURPOSE.  See the
   GNU Lesser General Public License for more details.
   
   Cite this work as:
   * C. Bannwarth, E. Caldeweyher, S. Ehlert, A. Hansen, P. Pracht,
     J. Seibert, S. Spicher, S. Grimme, WIREs Comput. Mol. Sci., 2020, 11,
     e01493. DOI: 10.1002/wcms.1493
   
   for GFN2-xTB:
   * C. Bannwarth, S. Ehlert and S. Grimme., J. Chem. Theory Comput., 2019,
     15, 1652-1671. DOI: 10.1021/acs.jctc.8b01176
   for GFN1-xTB:
   * S. Grimme, C. Bannwarth, P. Shushkov, J. Chem. Theory Comput., 2017,
     13, 1989-2009. DOI: 10.1021/acs.jctc.7b00118
   for GFN0-xTB:
   * P. Pracht, E. Caldeweyher, S. Ehlert, S. Grimme, ChemRxiv, 2019, preprint.
     DOI: 10.26434/chemrxiv.8326202.v1
   for GFN-FF:
   * S. Spicher and S. Grimme, Angew. Chem. Int. Ed., 2020, 59, 15665-15673.
     DOI: 10.1002/anie.202004239
   
   for DFT-D4:
   * E. Caldeweyher, C. Bannwarth and S. Grimme, J. Chem. Phys., 2017,
     147, 034112. DOI: 10.1063/1.4993215
   * E. Caldeweyher, S. Ehlert, A. Hansen, H. Neugebauer, S. Spicher,
     C. Bannwarth and S. Grimme, J. Chem. Phys., 2019, 150, 154122.
     DOI: 10.1063/1.5090222
   * E. Caldeweyher, J.-M. Mewes, S. Ehlert and S. Grimme, Phys. Chem. Chem. Phys.
     2020, 22, 8499-8512. DOI: 10.1039/D0CP00502A
   
   for sTDA-xTB:
   * S. Grimme and C. Bannwarth, J. Chem. Phys., 2016, 145, 054103.
     DOI: 10.1063/1.4959605
   
   in the mass-spec context:
   * V. Asgeirsson, C. Bauer and S. Grimme, Chem. Sci., 2017, 8, 4879.
     DOI: 10.1039/c7sc00601b
   * J. Koopman and S. Grimme, ACS Omega 2019, 4, 12, 15120-15133.
     DOI: 10.1021/acsomega.9b02011
   
   for metadynamics refer to:
   * S. Grimme, J. Chem. Theory Comput., 2019, 155, 2847-2862
     DOI: 10.1021/acs.jctc.9b00143
   
   for SPH calculations refer to:
   * S. Spicher and S. Grimme, J. Chem. Theory Comput., 2021, 17, 1701-1714
     DOI: 10.1021/acs.jctc.0c01306
   
   with help from (in alphabetical order)
   P. Atkinson, C. Bannwarth, F. Bohle, G. Brandenburg, E. Caldeweyher
   M. Checinski, S. Dohm, S. Ehlert, S. Ehrlich, I. Gerasimov, J. Koopman
   C. Lavigne, S. Lehtola, F. März, M. Müller, F. Musil, H. Neugebauer
   J. Pisarek, C. Plett, P. Pracht, J. Seibert, P. Shushkov, S. Spicher
   M. Stahn, M. Steiner, T. Strunk, J. Stückrath, T. Rose, and J. Unsleber
   
 * started run on 2024/07/31 at 10:40:14.741     

           -------------------------------------------------
          |                Calculation Setup                |
           -------------------------------------------------

          program call               : xtb tmpcoord --gfnff --sp
          hostname                   : node18
          coordinate file            : tmpcoord
          omp threads                :                    28
          number of atoms            :                    80
          number of electrons        :                   234
          charge                     :                     0
          spin                       :                   0.0
          first test random number   :      0.15114787213857

   ID    Z sym.   atoms
    1    8 o      1, 28
    2    6 c      2-27, 29-50
    3    1 h      51-80
 
          ==================== Thresholds ====================
          CN  :   150.00000
          rep :   500.00000
          disp:  2500.00000
          HB1 :   250.00000
          HB2 :   450.00000
 
          Pauling EN used:
          Z : 1  EN :  2.20
          Z : 6  EN :  2.55
          Z : 8  EN :  3.44
          electric field strengths (au): 0.000
 
           ------------------------------------------------- 
          |           Force Field Initialization            |
           ------------------------------------------------- 
 
          distances ...
          ----------------------------------------
          generating topology and atomic info file ...
          pair mat ...
          computing topology distances matrix with Floyd-Warshall algo ...
          making topology EEQ charges ...
          #fragments for EEQ constrain: 1
          ----------------------------------------
          generating topology and atomic info file ...
          pair mat ...
          computing topology distances matrix with Floyd-Warshall algo ...
          making topology EEQ charges ...
          #fragments for EEQ constrain: 1
          rings ...
          # BATM   972
          # H in HB   30
          doing iterative Hueckel for 1 subsystem(s) ...
 
  atom   neighbors  erfCN metchar sp-hybrid imet pi  qest     coordinates
    1  o       2    1.92   0.00         3    0    1  -0.446    2.495519    2.142679    1.723645
    2  c       3    2.82   0.00         2    0    1   0.105    3.179234   -0.060502    0.579272
    3  c       3    2.82   0.00         2    0    1  -0.008    5.613966   -0.340093   -0.494841
    4  c       3    2.82   0.00         2    0    1  -0.007    7.439140    1.781931   -0.314776
    5  c       3    2.83   0.00         2    0    1  -0.008    7.725337    3.454463   -2.349440
    6  c       3    2.81   0.00         2    0    1  -0.007    6.276254    3.222555   -4.594483
    7  c       3    2.81   0.00         2    0    1  -0.045    6.595884    4.867728   -6.545681
    8  c       3    2.81   0.00         2    0    1  -0.035    8.377550    6.843765   -6.376998
    9  c       3    2.81   0.00         2    0    1  -0.044    9.792502    7.137175   -4.250404
   10  c       3    2.82   0.00         2    0    1   0.012    9.516511    5.469733   -2.169883
   11  c       3    2.82   0.00         2    0    1  -0.050   10.935519    5.746893    0.026895
   12  c       3    2.82   0.00         2    0    1   0.012   10.650821    4.108185    2.063620
   13  c       3    2.81   0.00         2    0    1  -0.044   12.088524    4.378456    4.309825
   14  c       3    2.81   0.00         2    0    1  -0.035   11.787649    2.751786    6.277999
   15  c       3    2.81   0.00         2    0    1  -0.045   10.030994    0.753227    6.114468
   16  c       3    2.81   0.00         2    0    1  -0.007    8.616492    0.426713    3.991876
   17  c       3    2.83   0.00         2    0    1  -0.008    8.867649    2.084910    1.897939
   18  c       3    2.82   0.00         2    0    1  -0.030    6.258145   -2.559440   -1.660771
   19  c       3    2.83   0.00         2    0    1  -0.015    4.549984   -4.594898   -1.792463
   20  c       3    2.81   0.00         2    0    1  -0.036    5.195016   -6.899026   -2.964919
   21  c       3    2.81   0.00         2    0    1  -0.020    3.513792   -8.856823   -3.043906
   22  c       3    2.81   0.00         2    0    1  -0.039    1.114030   -8.596011   -1.944804
   23  c       3    2.81   0.00         2    0    1  -0.023    0.431738   -6.386410   -0.796862
   24  c       3    2.83   0.00         2    0    1   0.008    2.116978   -4.322788   -0.697001
   25  c       3    2.82   0.00         2    0    1  -0.006    1.460480   -2.015525    0.480389
   26  c       3    2.82   0.00         2    0    1  -0.006   -1.079490   -1.646799    1.595769
   27  c       3    2.82   0.00         2    0    1   0.105   -3.066775   -1.020792    0.032180
   28  o       2    1.92   0.00         3    0    1  -0.446   -2.636699   -0.785598   -2.495815
   29  c       3    2.82   0.00         2    0    1  -0.008   -5.513469   -0.626177    1.041030
   30  c       3    2.82   0.00         2    0    1  -0.007   -7.624292   -0.002183   -0.697283
   31  c       3    2.83   0.00         2    0    1  -0.008   -8.880965   -1.957699   -1.972132
   32  c       3    2.81   0.00         2    0    1  -0.007   -8.189590   -4.531528   -1.664450
   33  c       3    2.81   0.00         2    0    1  -0.045   -9.444106   -6.396338   -2.914050
   34  c       3    2.81   0.00         2    0    1  -0.035  -11.469740   -5.809441   -4.544746
   35  c       3    2.81   0.00         2    0    1  -0.044  -12.193972   -3.366242   -4.886157
   36  c       3    2.82   0.00         2    0    1   0.012  -10.936347   -1.364397   -3.622642
   37  c       3    2.82   0.00         2    0    1  -0.050  -11.652582    1.145730   -3.940350
   38  c       3    2.82   0.00         2    0    1   0.012  -10.407852    3.099124   -2.694907
   39  c       3    2.81   0.00         2    0    1  -0.044  -11.123842    5.662290   -3.015273
   40  c       3    2.81   0.00         2    0    1  -0.035   -9.874322    7.547155   -1.791933
   41  c       3    2.81   0.00         2    0    1  -0.045   -7.828064    6.979817   -0.179956
   42  c       3    2.81   0.00         2    0    1  -0.007   -7.084079    4.544731    0.184418
   43  c       3    2.83   0.00         2    0    1  -0.008   -8.347069    2.522893   -1.044758
   44  c       3    2.82   0.00         2    0    1  -0.030   -5.904018   -0.844808    3.590450
   45  c       3    2.83   0.00         2    0    1  -0.015   -3.917496   -1.484757    5.240430
   46  c       3    2.81   0.00         2    0    1  -0.036   -4.296221   -1.740386    7.865491
   47  c       3    2.81   0.00         2    0    1  -0.020   -2.343704   -2.390849    9.424453
   48  c       3    2.81   0.00         2    0    1  -0.039    0.073670   -2.821935    8.421723
   49  c       3    2.81   0.00         2    0    1  -0.023    0.501675   -2.586692    5.886556
   50  c       3    2.83   0.00         2    0    1   0.008   -1.469444   -1.901585    4.227067
   51  h       1    0.97   0.00         0    0    0   0.228    3.895806    3.313879    1.640535
   52  h       1    0.97   0.00         0    0    0   0.025    4.907974    1.712901   -4.721048
   53  h       1    0.97   0.00         0    0    0   0.044    5.482638    4.674868   -8.245334
   54  h       1    0.97   0.00         0    0    0   0.050    8.599973    8.121759   -7.953123
   55  h       1    0.97   0.00         0    0    0   0.042   11.156627    8.649817   -4.100662
   56  h       1    0.97   0.00         0    0    0   0.042   12.291784    7.269867    0.153601
   57  h       1    0.97   0.00         0    0    0   0.042   13.433485    5.911750    4.415692
   58  h       1    0.97   0.00         0    0    0   0.050   12.891873    2.970080    7.980705
   59  h       1    0.97   0.00         0    0    0   0.044    9.823645   -0.521117    7.695034
   60  h       1    0.97   0.00         0    0    0   0.025    7.281045   -1.111971    3.863260
   61  h       1    0.97   0.00         0    0    0   0.048    8.116683   -2.760430   -2.484397
   62  h       1    0.97   0.00         0    0    0   0.055    7.051496   -7.084932   -3.796831
   63  h       1    0.97   0.00         0    0    0   0.045    4.020530  -10.617794   -3.943869
   64  h       1    0.97   0.00         0    0    0   0.046   -0.190983  -10.164884   -2.010431
   65  h       1    0.97   0.00         0    0    0   0.039   -1.409444   -6.189702    0.061328
   66  h       1    0.97   0.00         0    0    0   0.228   -4.204423   -0.347145   -3.326112
   67  h       1    0.97   0.00         0    0    0   0.025   -6.647021   -4.983716   -0.406069
   68  h       1    0.97   0.00         0    0    0   0.044   -8.901203   -8.347723   -2.664072
   69  h       1    0.97   0.00         0    0    0   0.050  -12.439306   -7.322441   -5.512705
   70  h       1    0.97   0.00         0    0    0   0.042  -13.747073   -2.898862   -6.127346
   71  h       1    0.97   0.00         0    0    0   0.042  -13.213348    1.588437   -5.182519
   72  h       1    0.97   0.00         0    0    0   0.042  -12.688691    6.078984   -4.259846
   73  h       1    0.97   0.00         0    0    0   0.050  -10.432161    9.494242   -2.046057
   74  h       1    0.97   0.00         0    0    0   0.044   -6.853251    8.504364    0.763883
   75  h       1    0.97   0.00         0    0    0   0.025   -5.513568    4.110445    1.414113
   76  h       1    0.97   0.00         0    0    0   0.048   -7.773946   -0.534143    4.351890
   77  h       1    0.97   0.00         0    0    0   0.055   -6.167266   -1.415107    8.618139
   78  h       1    0.97   0.00         0    0    0   0.045   -2.647017   -2.584973   11.433947
   79  h       1    0.97   0.00         0    0    0   0.046    1.596680   -3.347126    9.676014
   80  h       1    0.97   0.00         0    0    0   0.039    2.358307   -2.931355    5.112484
 
          #atoms :   80
          #bonds :   89
          #angl  :   146
          #tors  :   280
          #nmol  :   1
          #optfrag :   1
           ------------------------------------------------- 
          |                   G F N - F F                   |
          |          A general generic force-field          |
          |                  Version 1.0.3                  | 
           ------------------------------------------------- 
          nhb123   9616 890 0

 E+G (total)                   0 d,  0 h,  0 min,  0.004 sec
 distance/D3 list               ...        0 min,  0.000 sec (  0.782%)
 non bonded repulsion           ...        0 min,  0.000 sec (  5.997%)
 dCN                            ...        0 min,  0.000 sec (  4.817%)
 EEQ energy and q               ...        0 min,  0.001 sec ( 11.394%)
 D3                             ...        0 min,  0.001 sec ( 12.824%)
 EEQ gradient                   ...        0 min,  0.000 sec (  7.252%)
 bonds                          ...        0 min,  0.000 sec (  7.917%)
 bend and torsion               ...        0 min,  0.000 sec ( 10.905%)
 bonded ATM                     ...        0 min,  0.000 sec (  1.047%)
 HB/XB (incl list setup)        ...        0 min,  0.001 sec ( 32.401%)

         :::::::::::::::::::::::::::::::::::::::::::::::::::::
         ::                     SUMMARY                     ::
         :::::::::::::::::::::::::::::::::::::::::::::::::::::
         :: total energy             -17.521302321859 Eh    ::
         :: gradient norm              0.063621274884 Eh/a0 ::
         ::.................................................::
         :: bond energy              -18.600668886131 Eh    ::
         :: angle energy               0.003589131891 Eh    ::
         :: torsion energy             0.034013197883 Eh    ::
         :: repulsion energy           1.298332883856 Eh    ::
         :: electrostat energy        -0.141239843049 Eh    ::
         :: dispersion energy         -0.093457740189 Eh    ::
         :: HB energy                 -0.001810971864 Eh    ::
         :: XB energy                  0.000000000000 Eh    ::
         :: bonded atm energy         -0.020060094256 Eh    ::
         :: external energy            0.000000000000 Eh    ::
         :: add. restraining           0.000000000000 Eh    ::
         :: total charge              -0.000000000000 e     ::
         :::::::::::::::::::::::::::::::::::::::::::::::::::::

           -------------------------------------------------
          |                Property Printout                |
           -------------------------------------------------

           -------------------------------------------------
          | TOTAL ENERGY              -17.521302321859 Eh   |
          | GRADIENT NORM               0.063621274884 Eh/α |
           -------------------------------------------------

------------------------------------------------------------------------
 * finished run on 2024/07/31 at 10:40:14.815     
------------------------------------------------------------------------
 total:
 * wall-time:     0 d,  0 h,  0 min,  0.074 sec
 *  cpu-time:     0 d,  0 h,  0 min,  1.371 sec
 * ratio c/w:    18.552 speedup
 SCF:
 * wall-time:     0 d,  0 h,  0 min,  0.007 sec
 *  cpu-time:     0 d,  0 h,  0 min,  0.178 sec
 * ratio c/w:    23.825 speedup

 Calculating NCI flexibility... done.
     covalent flexibility measure :   0.013
 non-covalent flexibility measure :   1.000
 flexibility measure :   0.062
 t(MTD) / ps set by command line  :     0.5
 t(MTD) / ps    :     0.5
 Σ(t(MTD)) / ps :     7.0 (14 MTDs)
 
-------------------------------------
Starting a trial MTD to test settings
-------------------------------------
 Estimated runtime for one MTD (0.5 ps) on a single thread: 3 min 36 sec
 Estimated runtime for a batch of 14 MTDs on 28 threads: 1 min 48 sec
 
 list of Vbias parameters applied:
$metadyn    0.00300   1.300
$metadyn    0.00150   1.300
$metadyn    0.00075   1.300
$metadyn    0.00300   0.780
$metadyn    0.00150   0.780
$metadyn    0.00075   0.780
$metadyn    0.00300   0.468
$metadyn    0.00150   0.468
$metadyn    0.00075   0.468
$metadyn    0.00300   0.281
$metadyn    0.00150   0.281
$metadyn    0.00075   0.281
$metadyn    0.00100   0.100
$metadyn    0.00500   0.800
 
*******************************************************************************************
**                        N E W    I T E R A T I O N    C Y C L E                        **
*******************************************************************************************
 
========================================
            MTD Iteration  1
========================================
 
     ========================================
     |         Meta-MD (MTD) Sampling       |
     ========================================
 
Starting Meta-MD   1 with the settings:
     MD time /ps        :     0.5
     dt /fs             :     1.5
     dumpstep(trj) /fs  :     100
     dumpstep(Vbias)/ps :     1.0
     Vbias factor k /Eh :  0.2400
     Vbias exp α /bohr⁻²:    1.30
Starting Meta-MD   9 with the settings:
     MD time /ps        :     0.5
     dt /fs             :     1.5
     dumpstep(trj) /fs  :     100
     dumpstep(Vbias)/ps :     1.0
     Vbias factor k /Eh :  0.0600
     Vbias exp α /bohr⁻²:    0.47
Starting Meta-MD  14 with the settings:
     MD time /ps        :     0.5
     dt /fs             :     1.5
     dumpstep(trj) /fs  :     100
     dumpstep(Vbias)/ps :     1.0
     Vbias factor k /Eh :  0.4000
     Vbias exp α /bohr⁻²:    0.80
Starting Meta-MD   6 with the settings:
     MD time /ps        :     0.5
     dt /fs             :     1.5
     dumpstep(trj) /fs  :     100
     dumpstep(Vbias)/ps :     1.0
     Vbias factor k /Eh :  0.0600
     Vbias exp α /bohr⁻²:    0.78
Starting Meta-MD  11 with the settings:
     MD time /ps        :     0.5
     dt /fs             :     1.5
     dumpstep(trj) /fs  :     100
     dumpstep(Vbias)/ps :     1.0
     Vbias factor k /Eh :  0.1200
     Vbias exp α /bohr⁻²:    0.28
Starting Meta-MD   7 with the settings:
     MD time /ps        :     0.5
     dt /fs             :     1.5
     dumpstep(trj) /fs  :     100
     dumpstep(Vbias)/ps :     1.0
     Vbias factor k /Eh :  0.2400
     Vbias exp α /bohr⁻²:    0.47
Starting Meta-MD  12 with the settings:
     MD time /ps        :     0.5
     dt /fs             :     1.5
     dumpstep(trj) /fs  :     100
     dumpstep(Vbias)/ps :     1.0
     Vbias factor k /Eh :  0.0600
     Vbias exp α /bohr⁻²:    0.28
Starting Meta-MD   4 with the settings:
     MD time /ps        :     0.5
     dt /fs             :     1.5
     dumpstep(trj) /fs  :     100
     dumpstep(Vbias)/ps :     1.0
     Vbias factor k /Eh :  0.2400
     Vbias exp α /bohr⁻²:    0.78
Starting Meta-MD   8 with the settings:
     MD time /ps        :     0.5
     dt /fs             :     1.5
     dumpstep(trj) /fs  :     100
     dumpstep(Vbias)/ps :     1.0
     Vbias factor k /Eh :  0.1200
     Vbias exp α /bohr⁻²:    0.47
Starting Meta-MD   3 with the settings:
     MD time /ps        :     0.5
     dt /fs             :     1.5
     dumpstep(trj) /fs  :     100
     dumpstep(Vbias)/ps :     1.0
     Vbias factor k /Eh :  0.0600
     Vbias exp α /bohr⁻²:    1.30
Starting Meta-MD  13 with the settings:
     MD time /ps        :     0.5
     dt /fs             :     1.5
     dumpstep(trj) /fs  :     100
     dumpstep(Vbias)/ps :     1.0
     Vbias factor k /Eh :  0.0800
     Vbias exp α /bohr⁻²:    0.10
Starting Meta-MD   2 with the settings:
     MD time /ps        :     0.5
     dt /fs             :     1.5
     dumpstep(trj) /fs  :     100
     dumpstep(Vbias)/ps :     1.0
     Vbias factor k /Eh :  0.1200
     Vbias exp α /bohr⁻²:    1.30
Starting Meta-MD  10 with the settings:
     MD time /ps        :     0.5
     dt /fs             :     1.5
     dumpstep(trj) /fs  :     100
     dumpstep(Vbias)/ps :     1.0
     Vbias factor k /Eh :  0.2400
     Vbias exp α /bohr⁻²:    0.28
Starting Meta-MD   5 with the settings:
     MD time /ps        :     0.5
     dt /fs             :     1.5
     dumpstep(trj) /fs  :     100
     dumpstep(Vbias)/ps :     1.0
     Vbias factor k /Eh :  0.1200
     Vbias exp α /bohr⁻²:    0.78
*Meta-MTD 6 finished*
*Meta-MTD 3 finished*
*Meta-MTD 11 finished*
*Meta-MTD 13 finished*
*Meta-MTD 7 finished*
*Meta-MTD 10 finished*
*Meta-MTD 9 finished*
*Meta-MTD 14 finished*
*Meta-MTD 2 finished*
*Meta-MTD 1 finished*
*Meta-MTD 12 finished*
*Meta-MTD 8 finished*
*Meta-MTD 5 finished*
*Meta-MTD 4 finished*
 
-----------------------
Multilevel Optimization
-----------------------
 
 -------------------------
 1. crude pre-optimization
 -------------------------
 Optimizing all 70 structures from file "crest_rotamers_0.xyz" ...
 1 2 3 4 5 6 7 8 9 10 11 12 13 14 15 16 17 18 19 20 21 22 23 24 25 26 27 28 29 30 31 32 33 34 35 36 37 38 39 40 41 42 43 44 45 46 47 48 49 50 51 52 53 54 55 56 57 58 59 60 61 62 63 64 65 66 67 68 69 70
 done.
 running RMSDs...
 done.
 E lowest :  -126.24786
 55 structures remain within    12.00 kcal/mol window
 
 -------------------------------------
 2. optimization with tight thresholds
 -------------------------------------
 Optimizing all 56 structures from file "crest_rotamers_1.xyz" ...
 1 2 3 4 5 6 7 8 9 10 11 12 13 14 15 16 17 18 19 20 21 22 23 24 25 26 27 28 29 30 31 32 33 34 35 36 37 38 39 40 41 42 43 44 45 46 47 48 49 50 51 52 53 54 55 56
 done.
 running RMSDs...
 done.
 E lowest :  -126.25005
 14 structures remain within     6.00 kcal/mol window
 
 
========================================
            MTD Iteration  2
========================================
 
     ========================================
     |         Meta-MD (MTD) Sampling       |
     ========================================
 
Starting Meta-MD   1 with the settings:
     MD time /ps        :     0.5
     dt /fs             :     1.5
     dumpstep(trj) /fs  :     100
     dumpstep(Vbias)/ps :     1.0
     Vbias factor k /Eh :  0.2400
     Vbias exp α /bohr⁻²:    1.30
Starting Meta-MD   2 with the settings:
     MD time /ps        :     0.5
     dt /fs             :     1.5
     dumpstep(trj) /fs  :     100
     dumpstep(Vbias)/ps :     1.0
     Vbias factor k /Eh :  0.1200
     Vbias exp α /bohr⁻²:    1.30
Starting Meta-MD   3 with the settings:
     MD time /ps        :     0.5
     dt /fs             :     1.5
     dumpstep(trj) /fs  :     100
     dumpstep(Vbias)/ps :     1.0
     Vbias factor k /Eh :  0.0600
     Vbias exp α /bohr⁻²:    1.30
Starting Meta-MD   4 with the settings:
     MD time /ps        :     0.5
     dt /fs             :     1.5
     dumpstep(trj) /fs  :     100
     dumpstep(Vbias)/ps :     1.0
     Vbias factor k /Eh :  0.2400
     Vbias exp α /bohr⁻²:    0.78
Starting Meta-MD   5 with the settings:
     MD time /ps        :     0.5
     dt /fs             :     1.5
     dumpstep(trj) /fs  :     100
     dumpstep(Vbias)/ps :     1.0
     Vbias factor k /Eh :  0.1200
     Vbias exp α /bohr⁻²:    0.78
Starting Meta-MD   6 with the settings:
     MD time /ps        :     0.5
     dt /fs             :     1.5
     dumpstep(trj) /fs  :     100
     dumpstep(Vbias)/ps :     1.0
     Vbias factor k /Eh :  0.0600
     Vbias exp α /bohr⁻²:    0.78
Starting Meta-MD   7 with the settings:
     MD time /ps        :     0.5
     dt /fs             :     1.5
     dumpstep(trj) /fs  :     100
     dumpstep(Vbias)/ps :     1.0
     Vbias factor k /Eh :  0.2400
     Vbias exp α /bohr⁻²:    0.47
Starting Meta-MD   8 with the settings:
     MD time /ps        :     0.5
     dt /fs             :     1.5
     dumpstep(trj) /fs  :     100
     dumpstep(Vbias)/ps :     1.0
     Vbias factor k /Eh :  0.1200
     Vbias exp α /bohr⁻²:    0.47
Starting Meta-MD   9 with the settings:
     MD time /ps        :     0.5
     dt /fs             :     1.5
     dumpstep(trj) /fs  :     100
     dumpstep(Vbias)/ps :     1.0
     Vbias factor k /Eh :  0.0600
     Vbias exp α /bohr⁻²:    0.47
Starting Meta-MD  10 with the settings:
     MD time /ps        :     0.5
     dt /fs             :     1.5
     dumpstep(trj) /fs  :     100
     dumpstep(Vbias)/ps :     1.0
     Vbias factor k /Eh :  0.2400
     Vbias exp α /bohr⁻²:    0.28
Starting Meta-MD  11 with the settings:
     MD time /ps        :     0.5
     dt /fs             :     1.5
     dumpstep(trj) /fs  :     100
     dumpstep(Vbias)/ps :     1.0
     Vbias factor k /Eh :  0.1200
     Vbias exp α /bohr⁻²:    0.28
Starting Meta-MD  12 with the settings:
     MD time /ps        :     0.5
     dt /fs             :     1.5
     dumpstep(trj) /fs  :     100
     dumpstep(Vbias)/ps :     1.0
     Vbias factor k /Eh :  0.0600
     Vbias exp α /bohr⁻²:    0.28
*Meta-MTD 10 finished*
*Meta-MTD 4 finished*
*Meta-MTD 12 finished*
*Meta-MTD 3 finished*
*Meta-MTD 11 finished*
*Meta-MTD 6 finished*
*Meta-MTD 9 finished*
*Meta-MTD 5 finished*
*Meta-MTD 2 finished*
*Meta-MTD 1 finished*
*Meta-MTD 8 finished*
*Meta-MTD 7 finished*
 
-----------------------
Multilevel Optimization
-----------------------
 
 -------------------------
 1. crude pre-optimization
 -------------------------
 Optimizing all 60 structures from file "crest_rotamers_0.xyz" ...
 1 2 3 4 5 6 7 8 9 10 11 12 13 14 15 16 17 18 19 20 21 22 23 24 25 26 27 28 29 30 31 32 33 34 35 36 37 38 39 40 41 42 43 44 45 46 47 48 49 50 51 52 53 54 55 56 57 58 59 60
 done.
 running RMSDs...
 done.
 E lowest :  -126.24929
 48 structures remain within    12.00 kcal/mol window
 
 -------------------------------------
 2. optimization with tight thresholds
 -------------------------------------
 Optimizing all 49 structures from file "crest_rotamers_1.xyz" ...
 1 2 3 4 5 6 7 8 9 10 11 12 13 14 15 16 17 18 19 20 21 22 23 24 25 26 27 28 29 30 31 32 33 34 35 36 37 38 39 40 41 42 43 44 45 46 47 48 49
 done.
 running RMSDs...
 done.
 E lowest :  -126.25005
 6 structures remain within     6.00 kcal/mol window
 
========================================
            MTD Iterations done         
========================================
 Collecting ensmbles.
 running RMSDs...
 done.
 E lowest :  -126.25005
 18 structures remain within     6.00 kcal/mol window
 
 -------------------------------
 Additional orientation sampling
 -------------------------------
 Optimizing all 32 structures from file "oh_ensemble.xyz" ...
 1 2 3 4 5 6 7 8 9 10 11 12 13 14 15 16 17 18 19 20 21 22 23 24 25 26 27 28 29 30 31 32
 done.
 running RMSDs...
 done.
 E lowest :  -126.25005
 33 structures remain within     6.00 kcal/mol window
 
-----------------------------------------------
Additional regular MDs on lowest 4 conformer(s)
-----------------------------------------------
Starting MD   1 with the settings:
     MD time /ps        :     0.2
     MD Temperature /K  :   400.0
     dt /fs             :     1.5
     dumpstep(trj) /fs  :     100
Starting MD   2 with the settings:
     MD time /ps        :     0.2
     MD Temperature /K  :   500.0
     dt /fs             :     1.5
     dumpstep(trj) /fs  :     100
Starting MD   3 with the settings:
     MD time /ps        :     0.2
     MD Temperature /K  :   400.0
     dt /fs             :     1.5
     dumpstep(trj) /fs  :     100
Starting MD   4 with the settings:
     MD time /ps        :     0.2
     MD Temperature /K  :   500.0
     dt /fs             :     1.5
     dumpstep(trj) /fs  :     100
Starting MD   5 with the settings:
     MD time /ps        :     0.2
     MD Temperature /K  :   400.0
     dt /fs             :     1.5
     dumpstep(trj) /fs  :     100
Starting MD   8 with the settings:
     MD time /ps        :     0.2
     MD Temperature /K  :   500.0
     dt /fs             :     1.5
     dumpstep(trj) /fs  :     100
Starting MD   6 with the settings:
     MD time /ps        :     0.2
     MD Temperature /K  :   500.0
     dt /fs             :     1.5
     dumpstep(trj) /fs  :     100
Starting MD   7 with the settings:
     MD time /ps        :     0.2
     MD Temperature /K  :   400.0
     dt /fs             :     1.5
     dumpstep(trj) /fs  :     100
*MD 3 finished*
*MD 6 finished*
*MD 1 finished*
*MD 7 finished*
*MD 4 finished*
*MD 8 finished*
*MD 5 finished*
*MD 2 finished*
 Appending file crest_rotamers_2.xyz with new structures
 
 -------------------------------------------
 Ensemble optimization with tight thresholds
 -------------------------------------------
 Optimizing all 49 structures from file "crest_rotamers_2.xyz" ...
 1 2 3 4 5 6 7 8 9 10 11 12 13 14 15 16 17 18 19 20 21 22 23 24 25 26 27 28 29 30 31 32 33 34 35 36 37 38 39 40 41 42 43 44 45 46 47 48 49
 done.
 running RMSDs...
 done.
 E lowest :  -126.25005
 31 structures remain within     6.00 kcal/mol window
 
 
     ========================================
     |        Structure Crossing (GC)       |
     ========================================
 =============================
  # threads =          28
 =============================
 input  file name : crest_rotamers_4.xyz
number of atoms                :    80
number of points on xyz files  :    31
conformer energy window  /kcal :    6.00
CN per atom difference cut-off :  0.3000
RMSD threshold                 :  0.5000
max. # of generated structures : 25
 reading xyz file ...
 # in E window                 31
 generating pairs ...         495
 generated pairs           :         183
 number of clash discarded :         282
 average rmsd w.r.t input  : 1.35063
 sd of ensemble            : 0.62931
 number of new structures      :          10
 removed identical structures  :          40
 writing           10  TMPCONF* dirs ...
 --------------------------
 GC: loose pre-optimization
 --------------------------
 Starting optimization of generated structures
 10 jobs to do.
 1 2 3 4 5 6 7 8 9 10 
 done.
 Now appending opt.xyz file with new structures
 running RMSDs...
 done.
 E lowest :  -126.24986
 10 structures remain within    10.00 kcal/mol window
 --------------------------------------
 GC: optimization with tight thresholds
 --------------------------------------
 Optimizing all 10 structures from file "crest_rotamers_1.xyz" ...
 1 2 3 4 5 6 7 8 9 10
 done.
 running RMSDs...
 done.
 E lowest :  -126.25005
 
 
   ================================================
   |           Final Geometry Optimization        |
   ================================================
 ------------------------------------------------
 Ensemble optimization with very tight thresholds
 ------------------------------------------------
 Optimizing all 37 structures from file "crest_rotamers_5.xyz" ...
 1 2 3 4 5 6 7 8 9 10 11 12 13 14 15 16 17 18 19 20 21 22 23 24 25 26 27 28 29 30 31 32 33 34 35 36 37
 done.
 running RMSDs...
 done.
 E lowest :  -126.25005
 35 structures remain within     6.00 kcal/mol window
 
 input  file name : crest_rotamers_6.xyz
 output file name : crest_rotamers_7.xyz
 number of atoms                :   80
 number of points on xyz files  :   37
 RMSD threshold                 :   0.2500
 Bconst threshold               :   0.0100
 population threshold           :   0.0500
 conformer energy window  /kcal :   6.0000
 # fragment in coord            :     1
 # bonds in reference structure :    89
   => # of C=C bonds :    16
 number of reliable points      :    37
 reference state Etot :  -126.250045070000
 number of doubles removed by rot/RMSD         :           2
 total number unique points considered further :          35
       Erel/kcal        Etot weight/tot  conformer     set   degen     origin
       1   0.000  -126.25005    0.33758    0.33758       1       1     mtd4
       2   1.032  -126.24840    0.05921    0.05921       2       1     md4
       3   1.481  -126.24768    0.02776    0.02776       3       1     md6
       4   1.505  -126.24765    0.02667    0.05226       4       2     hor
       5   1.530  -126.24761    0.02560                                gc
       6   1.514  -126.24763    0.02628    0.02628       5       1     gc
       7   1.542  -126.24759    0.02508    0.02508       6       1     mtd6
       8   1.577  -126.24753    0.02362    0.04710       7       2     gc
       9   1.581  -126.24753    0.02348                                gc
      10   1.598  -126.24750    0.02282    0.02282       8       1     mtd7
      11   1.611  -126.24748    0.02230    0.02230       9       1     hor
      12   1.662  -126.24740    0.02049    0.02049      10       1     gc
      13   1.668  -126.24739    0.02028    0.02028      11       1     mtd4
      14   1.669  -126.24739    0.02024    0.02024      12       1     hor
      15   1.676  -126.24737    0.02000    0.02000      13       1     hor
      16   1.715  -126.24731    0.01871    0.03698      14       2     mtd10
      17   1.730  -126.24729    0.01827                                hor
      18   1.730  -126.24729    0.01826    0.01826      15       1     mtd5
      19   1.715  -126.24731    0.01871    0.01871      16       1     hor
      20   1.767  -126.24723    0.01715    0.01715      17       1     hor
      21   1.789  -126.24719    0.01652    0.01652      18       1     mtd10
      22   1.793  -126.24719    0.01640    0.01640      19       1     mtd7
      23   1.798  -126.24718    0.01627    0.01627      20       1     hor
      24   1.833  -126.24712    0.01533    0.01533      21       1     mtd13
      25   1.858  -126.24708    0.01470    0.01470      22       1     hor
      26   1.875  -126.24706    0.01429    0.01429      23       1     hor
      27   1.904  -126.24701    0.01361    0.01361      24       1     mtd11
      28   1.915  -126.24699    0.01337    0.01337      25       1     mtd13
      29   1.925  -126.24698    0.01314    0.02626      26       2     hor
      30   1.926  -126.24698    0.01312                                hor
      31   1.941  -126.24695    0.01279    0.01279      27       1     hor
      32   1.948  -126.24694    0.01264    0.01264      28       1     hor
      33   1.950  -126.24694    0.01260    0.01260      29       1     mtd3
      34   1.968  -126.24691    0.01222    0.01222      30       1     mtd6
      35   2.058  -126.24677    0.01050    0.01050      31       1     input
T /K                                  :   298.15
E lowest                              :  -126.25005
ensemble average energy (kcal)        :    1.092
ensemble entropy (J/mol K, cal/mol K) :   24.337    5.817
ensemble free energy (kcal/mol)       :   -1.734
population of lowest in %             :   33.758
 number of unique conformers for further calc           31
 list of relative energies saved as "crest.energies"
 
 -----------------
 Wall Time Summary
 -----------------
             test MD wall time :         0h : 0m :53s
                 MTD wall time :         0h : 1m :44s
      multilevel OPT wall time :         0h : 3m :14s
                  MD wall time :         0h : 0m :46s
                  GC wall time :         0h : 0m :17s
--------------------
Overall wall time  : 0h : 7m :29s
 
 CREST terminated normally.
