 
       ==============================================
       |                                            |
       |                 C R E S T                  |
       |                                            |
       |  Conformer-Rotamer Ensemble Sampling Tool  |
       |          based on the GFN methods          |
       |             P.Pracht, S.Grimme             |
       |          Universitaet Bonn, MCTC           |
       ==============================================
       Version 2.11.2, Fr 17. Dec 12:10:44 CEST 2021
  Using the xTB program. Compatible with xTB version 6.4.0
 
   Cite work conducted with this code as

   P. Pracht, F. Bohle, S. Grimme, PCCP, 2020, 22, 7169-7192.

   and  S. Grimme, JCTC, 2019, 15, 2847-2862.
 
   with help from:
   C.Bannwarth, F.Bohle, S.Ehlert, S.Grimme,
   C. Plett, P.Pracht, S. Spicher
 
   This program is distributed in the hope that it will be useful,
   but WITHOUT ANY WARRANTY; without even the implied warranty of
   MERCHANTABILITY or FITNESS FOR A PARTICULAR PURPOSE.

 Command line input:
 > crest 00252_r_0.xyz -T 28 -gfn2 -chrg 0 -uhf 0 -rthr 0.25 -shake 1 --mdlen 0.5

  -T 28 (CPUs/Threads selected)
  -gfn2 : Use of GFN2-xTB requested.
  -chrg 0
  -uhf 0
  -rthr 0.25
  --mdlen 0.5 (MD length in ps)
 
 -------------------------
 xTB Geometry Optimization
 -------------------------
 Geometry successfully optimized.
 
------------------------------------------------
Generating MTD length from a flexibility measure
------------------------------------------------
      -----------------------------------------------------------      
     |                   =====================                   |     
     |                           x T B                           |     
     |                   =====================                   |     
     |                         S. Grimme                         |     
     |          Mulliken Center for Theoretical Chemistry        |     
     |                    University of Bonn                     |     
      -----------------------------------------------------------      

   * xtb version 6.4.1 (afa7bdf) compiled by 'ehlert@majestix' on 2021-06-10

   xtb is free software: you can redistribute it and/or modify it under
   the terms of the GNU Lesser General Public License as published by
   the Free Software Foundation, either version 3 of the License, or
   (at your option) any later version.
   
   xtb is distributed in the hope that it will be useful,
   but WITHOUT ANY WARRANTY; without even the implied warranty of
   MERCHANTABILITY or FITNESS FOR A PARTICULAR PURPOSE.  See the
   GNU Lesser General Public License for more details.
   
   Cite this work as:
   * C. Bannwarth, E. Caldeweyher, S. Ehlert, A. Hansen, P. Pracht,
     J. Seibert, S. Spicher, S. Grimme, WIREs Comput. Mol. Sci., 2020, 11,
     e01493. DOI: 10.1002/wcms.1493
   
   for GFN2-xTB:
   * C. Bannwarth, S. Ehlert and S. Grimme., J. Chem. Theory Comput., 2019,
     15, 1652-1671. DOI: 10.1021/acs.jctc.8b01176
   for GFN1-xTB:
   * S. Grimme, C. Bannwarth, P. Shushkov, J. Chem. Theory Comput., 2017,
     13, 1989-2009. DOI: 10.1021/acs.jctc.7b00118
   for GFN0-xTB:
   * P. Pracht, E. Caldeweyher, S. Ehlert, S. Grimme, ChemRxiv, 2019, preprint.
     DOI: 10.26434/chemrxiv.8326202.v1
   for GFN-FF:
   * S. Spicher and S. Grimme, Angew. Chem. Int. Ed., 2020, 59, 15665-15673.
     DOI: 10.1002/anie.202004239
   
   for DFT-D4:
   * E. Caldeweyher, C. Bannwarth and S. Grimme, J. Chem. Phys., 2017,
     147, 034112. DOI: 10.1063/1.4993215
   * E. Caldeweyher, S. Ehlert, A. Hansen, H. Neugebauer, S. Spicher,
     C. Bannwarth and S. Grimme, J. Chem. Phys., 2019, 150, 154122.
     DOI: 10.1063/1.5090222
   * E. Caldeweyher, J.-M. Mewes, S. Ehlert and S. Grimme, Phys. Chem. Chem. Phys.
     2020, 22, 8499-8512. DOI: 10.1039/D0CP00502A
   
   for sTDA-xTB:
   * S. Grimme and C. Bannwarth, J. Chem. Phys., 2016, 145, 054103.
     DOI: 10.1063/1.4959605
   
   in the mass-spec context:
   * V. Asgeirsson, C. Bauer and S. Grimme, Chem. Sci., 2017, 8, 4879.
     DOI: 10.1039/c7sc00601b
   * J. Koopman and S. Grimme, ACS Omega 2019, 4, 12, 15120-15133.
     DOI: 10.1021/acsomega.9b02011
   
   for metadynamics refer to:
   * S. Grimme, J. Chem. Theory Comput., 2019, 155, 2847-2862
     DOI: 10.1021/acs.jctc.9b00143
   
   for SPH calculations refer to:
   * S. Spicher and S. Grimme, J. Chem. Theory Comput., 2021, 17, 1701-1714
     DOI: 10.1021/acs.jctc.0c01306
   
   with help from (in alphabetical order)
   P. Atkinson, C. Bannwarth, F. Bohle, G. Brandenburg, E. Caldeweyher
   M. Checinski, S. Dohm, S. Ehlert, S. Ehrlich, I. Gerasimov, J. Koopman
   C. Lavigne, S. Lehtola, F. März, M. Müller, F. Musil, H. Neugebauer
   J. Pisarek, C. Plett, P. Pracht, J. Seibert, P. Shushkov, S. Spicher
   M. Stahn, M. Steiner, T. Strunk, J. Stückrath, T. Rose, and J. Unsleber
   
 * started run on 2025/01/21 at 11:52:34.666     

           -------------------------------------------------
          |                Calculation Setup                |
           -------------------------------------------------

          program call               : xtb tmpcoord --gfn0 --sp
          hostname                   : node90
          coordinate file            : tmpcoord
          omp threads                :                    28
          number of atoms            :                    84
          number of electrons        :                   242
          charge                     :                     0
          spin                       :                   0.0
          first test random number   :      0.66557551155515

   ID    Z sym.   atoms
    1    6 c      1, 3-21, 23-31, 33-45, 47-50
    2    8 o      2, 22, 32, 46
    3    1 h      51-84
########################################################################
[WARNING] Please study the warnings concerning your input carefully
-1- prog_main_parseArguments: The use of '--gfn0' is discouraged, please use '--gfn 0' next time
########################################################################

           -------------------------------------------------
          |                 G F N 0 - x T B                 |
           -------------------------------------------------

        Reference                      10.26434/chemrxiv.8326202.v1
      * Hamiltonian:
        H0-scaling (s, p, d)           2.000000    2.486800    2.270000
        zeta-weighting                 1.000000
      * Dispersion:
        s8                             2.850000
        a1                             0.800000
        a2                             4.600000
        s9                             0.000000
      * Repulsion:
        kExp                           1.500000
        rExp                           1.000000
      * Coulomb:
        alpha                          0.000000
        third order                    atomic
        anisotropic                    false
      * Polar bond correction:
        rad-shift                      0.053700
        strength                      -0.012900
        en-exp                         3.484700
        en-scale                       0.509700


          ...................................................
          :                      SETUP                      :
          :.................................................:
          :  # basis functions                 268          :
          :  # atomic orbitals                 268          :
          :  # shells                          168          :
          :  # electrons                       242          :
          :  electronic temp.          300.0000000     K    :
          :  accuracy                    1.0000000          :
          :  -> integral cutoff          0.2500000E+02      :
          :  -> integral neglect         0.1000000E-07      :
          ...................................................
  Checking positiv definite overlap ...  done.
 

         #    Occupation            Energy/Eh            Energy/eV
      -------------------------------------------------------------
         1        2.0000           -0.6947411             -18.9049
       ...           ...                  ...                  ...
       115        2.0000           -0.4314770             -11.7411
       116        2.0000           -0.4128621             -11.2345
       117        2.0000           -0.4118440             -11.2068
       118        2.0000           -0.3953047             -10.7568
       119        2.0000           -0.3917914             -10.6612
       120        2.0000           -0.3910770             -10.6417
       121        2.0000           -0.3901022             -10.6152 (HOMO)
       122                         -0.3031354              -8.2487 (LUMO)
       123                         -0.3017529              -8.2111
       124                         -0.2820684              -7.6755
       125                         -0.2808241              -7.6416
       126                         -0.2682610              -7.2998
       ...                                ...                  ...
       268                          0.6586479              17.9227
      -------------------------------------------------------------
                  HL-Gap            0.0869668 Eh            2.3665 eV
             Fermi-level            0.0000000 Eh            0.0000 eV

 EHT (total)                   0 d,  0 h,  0 min,  0.053 sec
 EHT setup                      ...        0 min,  0.002 sec (  2.838%)
 Coordination number            ...        0 min,  0.001 sec (  2.358%)
 EEQ model density              ...        0 min,  0.001 sec (  1.812%)
 D4 Dispersion                  ...        0 min,  0.003 sec (  6.169%)
 Integral evaluation            ...        0 min,  0.001 sec (  2.469%)
 Cholesky factorization         ...        0 min,  0.010 sec ( 18.099%)
 Zeroth order Hamiltonian       ...        0 min,  0.031 sec ( 58.085%)
 Gradient calculation           ...        0 min,  0.004 sec (  6.666%)

         :::::::::::::::::::::::::::::::::::::::::::::::::::::
         ::                     SUMMARY                     ::
         :::::::::::::::::::::::::::::::::::::::::::::::::::::
         :: total energy            -128.722816349963 Eh    ::
         :: gradient norm              0.062970683806 Eh/a0 ::
         :: HOMO-LUMO gap              2.366487228015 eV    ::
         ::.................................................::
         :: H0 energy               -130.705780433930 Eh    ::
         :: repulsion energy           2.272874958641 Eh    ::
         :: electrostat energy        -0.157000575711 Eh    ::
         :: -> Gsolv                   0.000000000000 Eh    ::
         ::    -> Gsasa                0.000000000000 Eh    ::
         ::    -> Gshift               0.000000000000 Eh    ::
         :: dispersion energy         -0.057392743882 Eh    ::
         :: short-range corr.         -0.075517555080 Eh    ::
         :: add. restraining           0.000000000000 Eh    ::
         :: total charge              -0.000000000000 e     ::
         :::::::::::::::::::::::::::::::::::::::::::::::::::::

           -------------------------------------------------
          |                Property Printout                |
           -------------------------------------------------

    * Orbital Energies and Occupations

         #    Occupation            Energy/Eh            Energy/eV
      -------------------------------------------------------------
         1        2.0000           -0.6947411             -18.9049
       ...           ...                  ...                  ...
       109        2.0000           -0.4391742             -11.9505
       110        2.0000           -0.4371130             -11.8945
       111        2.0000           -0.4369844             -11.8910
       112        2.0000           -0.4369013             -11.8887
       113        2.0000           -0.4367272             -11.8840
       114        2.0000           -0.4336137             -11.7992
       115        2.0000           -0.4314770             -11.7411
       116        2.0000           -0.4128621             -11.2345
       117        2.0000           -0.4118440             -11.2068
       118        2.0000           -0.3953047             -10.7568
       119        2.0000           -0.3917914             -10.6612
       120        2.0000           -0.3910770             -10.6417
       121        2.0000           -0.3901022             -10.6152 (HOMO)
       122                         -0.3031354              -8.2487 (LUMO)
       123                         -0.3017529              -8.2111
       124                         -0.2820684              -7.6755
       125                         -0.2808241              -7.6416
       126                         -0.2682610              -7.2998
       127                         -0.2667604              -7.2589
       128                         -0.2666005              -7.2546
       129                         -0.2665081              -7.2521
       130                         -0.2630287              -7.1574
       131                         -0.2624335              -7.1412
       132                         -0.2375973              -6.4654
       ...                                ...                  ...
       268                          0.6586479              17.9227
      -------------------------------------------------------------
                  HL-Gap            0.0869668 Eh            2.3665 eV
             Fermi-level            0.0000000 Eh            0.0000 eV

     #   Z          covCN         q      C6AA      α(0)
     1   6 c        3.644    -0.083    25.045     7.271
     2   8 o        1.705    -0.367    20.033     6.056
     3   6 c        2.866     0.275    23.594     7.937
     4   6 c        2.916    -0.176    34.326     9.577
     5   6 c        2.926    -0.116    32.595     9.333
     6   6 c        2.975     0.036    28.635     8.750
     7   6 c        2.976     0.041    28.530     8.734
     8   6 c        2.923    -0.113    32.505     9.320
     9   6 c        2.921    -0.147    33.477     9.458
    10   6 c        2.977     0.058    28.136     8.674
    11   6 c        2.970    -0.051    30.818     9.077
    12   6 c        2.925    -0.180    34.469     9.598
    13   6 c        2.984     0.068    27.888     8.636
    14   6 c        2.919    -0.131    33.040     9.396
    15   6 c        2.916    -0.086    31.781     9.215
    16   6 c        2.917    -0.088    31.834     9.223
    17   6 c        2.918    -0.118    32.665     9.343
    18   6 c        2.988     0.019    29.059     8.815
    19   6 c        2.974    -0.060    31.050     9.112
    20   6 c        2.973    -0.038    30.472     9.026
    21   6 c        2.850     0.232    24.440     8.077
    22   8 o        1.659    -0.552    23.860     6.608
    23   6 c        2.971    -0.013    29.860     8.935
    24   6 c        2.978     0.091    27.368     8.555
    25   6 c        2.922    -0.096    32.058     9.256
    26   6 c        2.924    -0.124    32.826     9.366
    27   6 c        2.976     0.043    28.471     8.725
    28   6 c        2.975     0.037    28.622     8.748
    29   6 c        2.927    -0.115    32.572     9.330
    30   6 c        2.916    -0.176    34.330     9.578
    31   6 c        2.866     0.275    23.607     7.939
    32   8 o        1.705    -0.366    20.023     6.054
    33   6 c        3.644    -0.082    25.031     7.269
    34   6 c        2.919    -0.153    33.659     9.484
    35   6 c        2.925    -0.123    32.804     9.363
    36   6 c        2.924    -0.117    32.624     9.337
    37   6 c        2.924    -0.129    32.977     9.388
    38   6 c        2.926    -0.196    34.945     9.664
    39   6 c        2.984     0.070    27.848     8.629
    40   6 c        2.919    -0.130    32.996     9.390
    41   6 c        2.915    -0.086    31.772     9.214
    42   6 c        2.917    -0.090    31.877     9.229
    43   6 c        2.918    -0.114    32.559     9.328
    44   6 c        2.989     0.039    28.574     8.741
    45   6 c        2.849     0.214    24.794     8.135
    46   8 o        1.659    -0.539    23.567     6.567
    47   6 c        2.923    -0.118    32.659     9.342
    48   6 c        2.923    -0.120    32.702     9.348
    49   6 c        2.925    -0.123    32.800     9.363
    50   6 c        2.919    -0.154    33.675     9.486
    51   1 h        0.925     0.101     1.777     2.085
    52   1 h        0.924     0.080     1.975     2.198
    53   1 h        0.924     0.080     1.974     2.197
    54   1 h        0.926     0.108     1.711     2.046
    55   1 h        0.926     0.104     1.752     2.070
    56   1 h        0.926     0.102     1.764     2.077
    57   1 h        0.925     0.117     1.634     1.999
    58   1 h        0.926     0.119     1.619     1.990
    59   1 h        0.926     0.101     1.774     2.083
    60   1 h        0.926     0.095     1.830     2.115
    61   1 h        0.926     0.097     1.816     2.108
    62   1 h        0.926     0.116     1.647     2.007
    63   1 h        0.805     0.314     0.680     1.296
    64   1 h        0.926     0.142     1.446     1.881
    65   1 h        0.926     0.107     1.723     2.053
    66   1 h        0.926     0.104     1.746     2.066
    67   1 h        0.926     0.108     1.714     2.047
    68   1 h        0.925     0.101     1.779     2.086
    69   1 h        0.924     0.081     1.974     2.197
    70   1 h        0.924     0.080     1.982     2.202
    71   1 h        0.926     0.129     1.540     1.941
    72   1 h        0.926     0.106     1.729     2.056
    73   1 h        0.926     0.101     1.776     2.084
    74   1 h        0.926     0.105     1.740     2.063
    75   1 h        0.926     0.120     1.611     1.985
    76   1 h        0.926     0.102     1.770     2.080
    77   1 h        0.926     0.095     1.827     2.114
    78   1 h        0.926     0.097     1.811     2.105
    79   1 h        0.926     0.120     1.613     1.986
    80   1 h        0.805     0.300     0.720     1.333
    81   1 h        0.926     0.104     1.747     2.067
    82   1 h        0.926     0.102     1.769     2.080
    83   1 h        0.926     0.105     1.738     2.061
    84   1 h        0.926     0.129     1.543     1.943

 Mol. C6AA /au·bohr⁶  :     100152.283002
 Mol. C8AA /au·bohr⁸  :    2566968.091991
 Mol. α(0) /au        :        507.699482


Wiberg/Mayer (AO) data.
largest (>0.10) Wiberg bond orders for each atom

 ---------------------------------------------------------------------------
     #   Z sym  total        # sym  WBO       # sym  WBO       # sym  WBO
 ---------------------------------------------------------------------------
     1   6 c    3.950 --     2 o    0.989    51 h    0.981    52 h    0.978
                            53 h    0.978
     2   8 o    2.346 --     3 c    1.129     1 c    0.989
     3   6 c    3.939 --     4 c    1.347    50 c    1.327     2 o    1.129
     4   6 c    3.981 --     5 c    1.457     3 c    1.347    54 h    0.969
     5   6 c    3.986 --     4 c    1.457     6 c    1.384    55 h    0.969
     6   6 c    3.975 --     5 c    1.384    49 c    1.361     7 c    1.050
     7   6 c    3.973 --     8 c    1.384    48 c    1.376     6 c    1.050
     8   6 c    3.983 --     9 c    1.453     7 c    1.384    56 h    0.969
                            47 c    0.104
     9   6 c    3.982 --     8 c    1.453    10 c    1.380    57 h    0.968
                            48 c    0.103
    10   6 c    3.968 --    47 c    1.380     9 c    1.380    11 c    1.033
    11   6 c    3.975 --    12 c    1.517    45 c    1.212    10 c    1.033
    12   6 c    3.983 --    11 c    1.517    13 c    1.273    58 h    0.965
    13   6 c    3.978 --    14 c    1.279    12 c    1.273    18 c    1.241
    14   6 c    3.980 --    15 c    1.552    13 c    1.279    59 h    0.969
                            17 c    0.115
    15   6 c    3.975 --    14 c    1.552    16 c    1.318    60 h    0.973
    16   6 c    3.983 --    17 c    1.557    15 c    1.318    61 h    0.973
    17   6 c    3.987 --    16 c    1.557    18 c    1.273    62 h    0.966
                            14 c    0.115
    18   6 c    3.977 --    17 c    1.273    19 c    1.254    13 c    1.241
    19   6 c    3.966 --    45 c    1.408    18 c    1.254    20 c    0.996
    20   6 c    3.965 --    21 c    1.419    44 c    1.253    19 c    0.996
    21   6 c    3.941 --    20 c    1.419    23 c    1.211    22 o    1.132
    22   8 o    2.312 --    21 c    1.132    63 h    0.967
    23   6 c    3.976 --    38 c    1.516    21 c    1.211    24 c    1.039
    24   6 c    3.969 --    25 c    1.383    37 c    1.380    23 c    1.039
    25   6 c    3.983 --    26 c    1.461    24 c    1.383    64 h    0.968
                            36 c    0.103
    26   6 c    3.983 --    25 c    1.461    27 c    1.380    65 h    0.969
                            37 c    0.104
    27   6 c    3.972 --    26 c    1.380    36 c    1.380    28 c    1.049
    28   6 c    3.975 --    29 c    1.385    35 c    1.362    27 c    1.049
    29   6 c    3.986 --    30 c    1.456    28 c    1.385    66 h    0.969
    30   6 c    3.981 --    29 c    1.456    31 c    1.349    67 h    0.969
    31   6 c    3.939 --    30 c    1.349    34 c    1.329    32 o    1.125
    32   8 o    2.342 --    31 c    1.125    33 c    0.990
    33   6 c    3.950 --    32 o    0.990    68 h    0.981    70 h    0.978
                            69 h    0.978
    34   6 c    3.982 --    35 c    1.485    31 c    1.329    71 h    0.968
    35   6 c    3.986 --    34 c    1.485    28 c    1.362    72 h    0.969
    36   6 c    3.983 --    37 c    1.462    27 c    1.380    73 h    0.968
                            25 c    0.103
    37   6 c    3.982 --    36 c    1.462    24 c    1.380    74 h    0.969
                            26 c    0.104
    38   6 c    3.983 --    23 c    1.516    39 c    1.272    75 h    0.965
    39   6 c    3.978 --    40 c    1.281    38 c    1.272    44 c    1.241
    40   6 c    3.979 --    41 c    1.550    39 c    1.281    76 h    0.969
                            43 c    0.115
    41   6 c    3.975 --    40 c    1.550    42 c    1.320    77 h    0.973
    42   6 c    3.982 --    43 c    1.554    41 c    1.320    78 h    0.972
    43   6 c    3.987 --    42 c    1.554    44 c    1.274    79 h    0.966
                            40 c    0.115
    44   6 c    3.976 --    43 c    1.274    20 c    1.253    39 c    1.241
    45   6 c    3.940 --    19 c    1.408    11 c    1.212    46 o    1.133
    46   8 o    2.306 --    45 c    1.133    80 h    0.967
    47   6 c    3.983 --    48 c    1.464    10 c    1.380    81 h    0.969
                             8 c    0.104
    48   6 c    3.983 --    47 c    1.464     7 c    1.376    82 h    0.969
                             9 c    0.103
    49   6 c    3.986 --    50 c    1.486     6 c    1.361    83 h    0.969
    50   6 c    3.982 --    49 c    1.486     3 c    1.327    84 h    0.968
    51   1 h    1.004 --     1 c    0.981
    52   1 h    0.986 --     1 c    0.978
    53   1 h    0.986 --     1 c    0.978
    54   1 h    0.976 --     4 c    0.969
    55   1 h    0.979 --     5 c    0.969
    56   1 h    0.978 --     8 c    0.969
    57   1 h    0.982 --     9 c    0.968
    58   1 h    0.974 --    12 c    0.965
    59   1 h    0.978 --    14 c    0.969
    60   1 h    0.983 --    15 c    0.973
    61   1 h    0.984 --    16 c    0.973
    62   1 h    0.980 --    17 c    0.966
    63   1 h    0.988 --    22 o    0.967
    64   1 h    0.991 --    25 c    0.968
    65   1 h    0.978 --    26 c    0.969
    66   1 h    0.979 --    29 c    0.969
    67   1 h    0.976 --    30 c    0.969
    68   1 h    1.004 --    33 c    0.981
    69   1 h    0.986 --    33 c    0.978
    70   1 h    0.986 --    33 c    0.978
    71   1 h    0.986 --    34 c    0.968
    72   1 h    0.978 --    35 c    0.969
    73   1 h    0.978 --    36 c    0.968
    74   1 h    0.979 --    37 c    0.969
    75   1 h    0.973 --    38 c    0.965
    76   1 h    0.978 --    40 c    0.969
    77   1 h    0.983 --    41 c    0.973
    78   1 h    0.983 --    42 c    0.972
    79   1 h    0.980 --    43 c    0.966
    80   1 h    0.986 --    46 o    0.967
    81   1 h    0.980 --    47 c    0.969
    82   1 h    0.978 --    48 c    0.969
    83   1 h    0.978 --    49 c    0.969
    84   1 h    0.986 --    50 c    0.968
 ---------------------------------------------------------------------------

Topologies differ in total number of bonds
Writing topology from bond orders to xtbtopo.mol

 dipole moment from electron density (au)
     X       Y       Z   
  -0.9041  -2.3425   0.6224  total (Debye):    6.575


           -------------------------------------------------
          | TOTAL ENERGY             -128.722816349963 Eh   |
          | GRADIENT NORM               0.062970683806 Eh/α |
          | HOMO-LUMO GAP               2.366487228015 eV   |
           -------------------------------------------------

------------------------------------------------------------------------
 * finished run on 2025/01/21 at 11:52:34.822     
------------------------------------------------------------------------
 total:
 * wall-time:     0 d,  0 h,  0 min,  0.156 sec
 *  cpu-time:     0 d,  0 h,  0 min,  3.653 sec
 * ratio c/w:    23.448 speedup
 SCF:
 * wall-time:     0 d,  0 h,  0 min,  0.054 sec
 *  cpu-time:     0 d,  0 h,  0 min,  1.344 sec
 * ratio c/w:    24.868 speedup

 Calculating WBOs... done.
      -----------------------------------------------------------      
     |                   =====================                   |     
     |                           x T B                           |     
     |                   =====================                   |     
     |                         S. Grimme                         |     
     |          Mulliken Center for Theoretical Chemistry        |     
     |                    University of Bonn                     |     
      -----------------------------------------------------------      

   * xtb version 6.4.1 (afa7bdf) compiled by 'ehlert@majestix' on 2021-06-10

   xtb is free software: you can redistribute it and/or modify it under
   the terms of the GNU Lesser General Public License as published by
   the Free Software Foundation, either version 3 of the License, or
   (at your option) any later version.
   
   xtb is distributed in the hope that it will be useful,
   but WITHOUT ANY WARRANTY; without even the implied warranty of
   MERCHANTABILITY or FITNESS FOR A PARTICULAR PURPOSE.  See the
   GNU Lesser General Public License for more details.
   
   Cite this work as:
   * C. Bannwarth, E. Caldeweyher, S. Ehlert, A. Hansen, P. Pracht,
     J. Seibert, S. Spicher, S. Grimme, WIREs Comput. Mol. Sci., 2020, 11,
     e01493. DOI: 10.1002/wcms.1493
   
   for GFN2-xTB:
   * C. Bannwarth, S. Ehlert and S. Grimme., J. Chem. Theory Comput., 2019,
     15, 1652-1671. DOI: 10.1021/acs.jctc.8b01176
   for GFN1-xTB:
   * S. Grimme, C. Bannwarth, P. Shushkov, J. Chem. Theory Comput., 2017,
     13, 1989-2009. DOI: 10.1021/acs.jctc.7b00118
   for GFN0-xTB:
   * P. Pracht, E. Caldeweyher, S. Ehlert, S. Grimme, ChemRxiv, 2019, preprint.
     DOI: 10.26434/chemrxiv.8326202.v1
   for GFN-FF:
   * S. Spicher and S. Grimme, Angew. Chem. Int. Ed., 2020, 59, 15665-15673.
     DOI: 10.1002/anie.202004239
   
   for DFT-D4:
   * E. Caldeweyher, C. Bannwarth and S. Grimme, J. Chem. Phys., 2017,
     147, 034112. DOI: 10.1063/1.4993215
   * E. Caldeweyher, S. Ehlert, A. Hansen, H. Neugebauer, S. Spicher,
     C. Bannwarth and S. Grimme, J. Chem. Phys., 2019, 150, 154122.
     DOI: 10.1063/1.5090222
   * E. Caldeweyher, J.-M. Mewes, S. Ehlert and S. Grimme, Phys. Chem. Chem. Phys.
     2020, 22, 8499-8512. DOI: 10.1039/D0CP00502A
   
   for sTDA-xTB:
   * S. Grimme and C. Bannwarth, J. Chem. Phys., 2016, 145, 054103.
     DOI: 10.1063/1.4959605
   
   in the mass-spec context:
   * V. Asgeirsson, C. Bauer and S. Grimme, Chem. Sci., 2017, 8, 4879.
     DOI: 10.1039/c7sc00601b
   * J. Koopman and S. Grimme, ACS Omega 2019, 4, 12, 15120-15133.
     DOI: 10.1021/acsomega.9b02011
   
   for metadynamics refer to:
   * S. Grimme, J. Chem. Theory Comput., 2019, 155, 2847-2862
     DOI: 10.1021/acs.jctc.9b00143
   
   for SPH calculations refer to:
   * S. Spicher and S. Grimme, J. Chem. Theory Comput., 2021, 17, 1701-1714
     DOI: 10.1021/acs.jctc.0c01306
   
   with help from (in alphabetical order)
   P. Atkinson, C. Bannwarth, F. Bohle, G. Brandenburg, E. Caldeweyher
   M. Checinski, S. Dohm, S. Ehlert, S. Ehrlich, I. Gerasimov, J. Koopman
   C. Lavigne, S. Lehtola, F. März, M. Müller, F. Musil, H. Neugebauer
   J. Pisarek, C. Plett, P. Pracht, J. Seibert, P. Shushkov, S. Spicher
   M. Stahn, M. Steiner, T. Strunk, J. Stückrath, T. Rose, and J. Unsleber
   
 * started run on 2025/01/21 at 11:52:34.865     

           -------------------------------------------------
          |                Calculation Setup                |
           -------------------------------------------------

          program call               : xtb tmpcoord --gfnff --sp
          hostname                   : node90
          coordinate file            : tmpcoord
          omp threads                :                    28
          number of atoms            :                    84
          number of electrons        :                   242
          charge                     :                     0
          spin                       :                   0.0
          first test random number   :      0.21624765516308

   ID    Z sym.   atoms
    1    6 c      1, 3-21, 23-31, 33-45, 47-50
    2    8 o      2, 22, 32, 46
    3    1 h      51-84
 
          ==================== Thresholds ====================
          CN  :   150.00000
          rep :   500.00000
          disp:  2500.00000
          HB1 :   250.00000
          HB2 :   450.00000
 
          Pauling EN used:
          Z : 1  EN :  2.20
          Z : 6  EN :  2.55
          Z : 8  EN :  3.44
          electric field strengths (au): 0.000
 
           ------------------------------------------------- 
          |           Force Field Initialization            |
           ------------------------------------------------- 
 
          distances ...
          ----------------------------------------
          generating topology and atomic info file ...
          pair mat ...
          computing topology distances matrix with Floyd-Warshall algo ...
          making topology EEQ charges ...
          #fragments for EEQ constrain: 1
          ----------------------------------------
          generating topology and atomic info file ...
          pair mat ...
          computing topology distances matrix with Floyd-Warshall algo ...
          making topology EEQ charges ...
          #fragments for EEQ constrain: 1
          rings ...
          # BATM   924
          # H in HB   28
          doing iterative Hueckel for 1 subsystem(s) ...
 
  atom   neighbors  erfCN metchar sp-hybrid imet pi  qest     coordinates
    1  c       4    3.50   0.00         3    0    0   0.044  -19.778252  -10.256701   -2.293883
    2  o       2    1.92   0.00         3    0    1  -0.354  -19.964318   -7.856280   -1.167499
    3  c       3    2.83   0.00         2    0    1   0.087  -17.841497   -6.416182   -0.980411
    4  c       3    2.81   0.00         2    0    1  -0.039  -15.465029   -7.102884   -1.867050
    5  c       3    2.82   0.00         2    0    1  -0.007  -13.436261   -5.485111   -1.552253
    6  c       3    2.82   0.00         2    0    1  -0.013  -13.711818   -3.153664   -0.372036
    7  c       3    2.82   0.00         2    0    1  -0.023  -11.543555   -1.454921   -0.041723
    8  c       3    2.82   0.00         2    0    1  -0.008   -9.174997   -2.400622    0.611468
    9  c       3    2.82   0.00         2    0    1  -0.033   -7.133773   -0.804377    0.931240
   10  c       3    2.82   0.00         2    0    1   0.006   -7.401224    1.796972    0.605526
   11  c       3    2.81   0.00         2    0    1  -0.023   -5.256593    3.540050    0.959017
   12  c       3    2.82   0.00         2    0    1  -0.020   -5.494250    5.597262    2.521382
   13  c       3    2.83   0.00         2    0    1  -0.012   -3.494572    7.306625    2.901540
   14  c       3    2.81   0.00         2    0    1  -0.028   -3.723430    9.407897    4.525000
   15  c       3    2.81   0.00         2    0    1  -0.036   -1.752561   11.043628    4.849647
   16  c       3    2.81   0.00         2    0    1  -0.028    0.535077   10.646932    3.566731
   17  c       3    2.81   0.00         2    0    1  -0.037    0.819230    8.627243    1.982704
   18  c       3    2.83   0.00         2    0    1  -0.007   -1.182154    6.906600    1.604322
   19  c       3    2.82   0.00         2    0    1  -0.003   -0.952333    4.805811   -0.038413
   20  c       3    2.82   0.00         2    0    1  -0.003    1.419813    4.386667   -1.483629
   21  c       3    2.82   0.00         2    0    1   0.095    3.177802    2.679699   -0.599899
   22  o       2    1.92   0.00         3    0    1  -0.442    2.805403    1.397838    1.598523
   23  c       3    2.81   0.00         2    0    1  -0.023    5.480341    2.280088   -1.917451
   24  c       3    2.82   0.00         2    0    1   0.006    7.383644    0.501119   -0.949177
   25  c       3    2.82   0.00         2    0    1  -0.033    6.728789   -1.920026   -0.157721
   26  c       3    2.82   0.00         2    0    1  -0.008    8.552229   -3.574594    0.702564
   27  c       3    2.82   0.00         2    0    1  -0.023   11.084075   -2.860379    0.819975
   28  c       3    2.82   0.00         2    0    1  -0.013   13.020484   -4.614785    1.755404
   29  c       3    2.82   0.00         2    0    1  -0.007   14.965951   -3.774991    3.309141
   30  c       3    2.81   0.00         2    0    1  -0.039   16.798829   -5.408343    4.208170
   31  c       3    2.83   0.00         2    0    1   0.087   16.727649   -7.949856    3.548875
   32  o       2    1.92   0.00         3    0    1  -0.354   18.429907   -9.728057    4.313609
   33  c       4    3.50   0.00         3    0    0   0.044   20.444711   -8.966804    5.868293
   34  c       3    2.81   0.00         2    0    1  -0.039   14.786073   -8.811025    1.985007
   35  c       3    2.82   0.00         2    0    1  -0.007   12.964041   -7.171474    1.112947
   36  c       3    2.82   0.00         2    0    1  -0.008   11.733640   -0.433447    0.030825
   37  c       3    2.82   0.00         2    0    1  -0.033    9.915465    1.215048   -0.848880
   38  c       3    2.82   0.00         2    0    1  -0.020    5.919925    3.614402   -4.097206
   39  c       3    2.83   0.00         2    0    1  -0.012    4.153878    5.347851   -5.071122
   40  c       3    2.81   0.00         2    0    1  -0.028    4.601528    6.704186   -7.320232
   41  c       3    2.81   0.00         2    0    1  -0.036    2.859600    8.385396   -8.219856
   42  c       3    2.81   0.00         2    0    1  -0.028    0.590855    8.780298   -6.906467
   43  c       3    2.81   0.00         2    0    1  -0.037    0.099327    7.493719   -4.720718
   44  c       3    2.83   0.00         2    0    1  -0.007    1.859728    5.747796   -3.744251
   45  c       3    2.82   0.00         2    0    1   0.095   -2.945111    3.146696   -0.342805
   46  o       2    1.92   0.00         3    0    1  -0.442   -2.634354    1.174355   -1.964895
   47  c       3    2.82   0.00         2    0    1  -0.033   -9.771376    2.746347   -0.037785
   48  c       3    2.82   0.00         2    0    1  -0.008  -11.805860    1.148566   -0.355645
   49  c       3    2.82   0.00         2    0    1  -0.007  -16.108179   -2.476013    0.495780
   50  c       3    2.81   0.00         2    0    1  -0.039  -18.136499   -4.077603    0.205919
   51  h       1    0.97   0.00         0    0    0   0.041  -21.668492  -11.064123   -2.200134
   52  h       1    0.97   0.00         0    0    0   0.041  -18.462572  -11.478367   -1.265573
   53  h       1    0.97   0.00         0    0    0   0.041  -19.190483  -10.125405   -4.273382
   54  h       1    0.97   0.00         0    0    0   0.046  -15.168777   -8.886727   -2.808346
   55  h       1    0.97   0.00         0    0    0   0.029  -11.611019   -6.038029   -2.280796
   56  h       1    0.97   0.00         0    0    0   0.037   -8.940740   -4.404029    0.922756
   57  h       1    0.97   0.00         0    0    0   0.066   -5.335758   -1.581380    1.518099
   58  h       1    0.97   0.00         0    0    0   0.049   -7.252201    5.898500    3.516283
   59  h       1    0.97   0.00         0    0    0   0.046   -5.491526    9.695828    5.506073
   60  h       1    0.97   0.00         0    0    0   0.057   -1.939675   12.650431    6.094265
   61  h       1    0.97   0.00         0    0    0   0.053    2.076425   11.955956    3.842753
   62  h       1    0.97   0.00         0    0    0   0.053    2.577888    8.320897    0.993382
   63  h       1    0.97   0.00         0    0    0   0.231    1.194855    1.900189    2.301179
   64  h       1    0.97   0.00         0    0    0   0.066    4.778250   -2.507864   -0.235355
   65  h       1    0.97   0.00         0    0    0   0.037    8.006660   -5.438972    1.331451
   66  h       1    0.97   0.00         0    0    0   0.029   15.031992   -1.812333    3.866942
   67  h       1    0.97   0.00         0    0    0   0.046   18.263958   -4.676980    5.423118
   68  h       1    0.97   0.00         0    0    0   0.041   21.554145  -10.664777    6.216160
   69  h       1    0.97   0.00         0    0    0   0.041   19.771279   -8.211484    7.673614
   70  h       1    0.97   0.00         0    0    0   0.041   21.634924   -7.554167    4.935289
   71  h       1    0.97   0.00         0    0    0   0.046   14.757329  -10.785759    1.479359
   72  h       1    0.97   0.00         0    0    0   0.029   11.494820   -7.867735   -0.120520
   73  h       1    0.97   0.00         0    0    0   0.037   13.690193    0.149685    0.075569
   74  h       1    0.97   0.00         0    0    0   0.066   10.451420    3.095395   -1.439471
   75  h       1    0.97   0.00         0    0    0   0.049    7.658296    3.307135   -5.124104
   76  h       1    0.97   0.00         0    0    0   0.046    6.354103    6.385507   -8.320094
   77  h       1    0.97   0.00         0    0    0   0.057    3.214537    9.418466   -9.944590
   78  h       1    0.97   0.00         0    0    0   0.053   -0.770999   10.113658   -7.638958
   79  h       1    0.97   0.00         0    0    0   0.053   -1.649760    7.801643   -3.713574
   80  h       1    0.97   0.00         0    0    0   0.231   -4.207763    0.258321   -2.122019
   81  h       1    0.97   0.00         0    0    0   0.066   -9.996304    4.756732   -0.313580
   82  h       1    0.97   0.00         0    0    0   0.037  -13.618199    1.918490   -0.891904
   83  h       1    0.97   0.00         0    0    0   0.029  -16.369355   -0.690992    1.449717
   84  h       1    0.97   0.00         0    0    0   0.046  -19.987824   -3.568471    0.890050
 
          #atoms :   84
          #bonds :   91
          #angl  :   148
          #tors  :   262
          #nmol  :   1
          #optfrag :   1
           ------------------------------------------------- 
          |                   G F N - F F                   |
          |          A general generic force-field          |
          |                  Version 1.0.3                  | 
           ------------------------------------------------- 
          nhb123   7062 668 0

 E+G (total)                   0 d,  0 h,  0 min,  0.005 sec
 distance/D3 list               ...        0 min,  0.000 sec (  0.944%)
 non bonded repulsion           ...        0 min,  0.000 sec (  5.651%)
 dCN                            ...        0 min,  0.000 sec (  5.761%)
 EEQ energy and q               ...        0 min,  0.000 sec ( 10.752%)
 D3                             ...        0 min,  0.001 sec ( 12.953%)
 EEQ gradient                   ...        0 min,  0.000 sec (  7.538%)
 bonds                          ...        0 min,  0.001 sec ( 12.817%)
 bend and torsion               ...        0 min,  0.001 sec ( 11.349%)
 bonded ATM                     ...        0 min,  0.000 sec (  1.033%)
 HB/XB (incl list setup)        ...        0 min,  0.001 sec ( 26.625%)

         :::::::::::::::::::::::::::::::::::::::::::::::::::::
         ::                     SUMMARY                     ::
         :::::::::::::::::::::::::::::::::::::::::::::::::::::
         :: total energy             -17.528958328054 Eh    ::
         :: gradient norm              0.073283354283 Eh/a0 ::
         ::.................................................::
         :: bond energy              -18.498563079922 Eh    ::
         :: angle energy               0.017286790500 Eh    ::
         :: torsion energy             0.025434628655 Eh    ::
         :: repulsion energy           1.258439733862 Eh    ::
         :: electrostat energy        -0.230684177166 Eh    ::
         :: dispersion energy         -0.084016668221 Eh    ::
         :: HB energy                 -0.001385631968 Eh    ::
         :: XB energy                  0.000000000000 Eh    ::
         :: bonded atm energy         -0.015469923794 Eh    ::
         :: external energy            0.000000000000 Eh    ::
         :: add. restraining           0.000000000000 Eh    ::
         :: total charge               0.000000000000 e     ::
         :::::::::::::::::::::::::::::::::::::::::::::::::::::

           -------------------------------------------------
          |                Property Printout                |
           -------------------------------------------------

           -------------------------------------------------
          | TOTAL ENERGY              -17.528958328054 Eh   |
          | GRADIENT NORM               0.073283354283 Eh/α |
           -------------------------------------------------

------------------------------------------------------------------------
 * finished run on 2025/01/21 at 11:52:34.934     
------------------------------------------------------------------------
 total:
 * wall-time:     0 d,  0 h,  0 min,  0.069 sec
 *  cpu-time:     0 d,  0 h,  0 min,  1.368 sec
 * ratio c/w:    19.767 speedup
 SCF:
 * wall-time:     0 d,  0 h,  0 min,  0.007 sec
 *  cpu-time:     0 d,  0 h,  0 min,  0.176 sec
 * ratio c/w:    24.407 speedup

 Calculating NCI flexibility... done.
     covalent flexibility measure :   0.064
 non-covalent flexibility measure :   1.000
 flexibility measure :   0.159
 t(MTD) / ps set by command line  :     0.5
 t(MTD) / ps    :     0.5
 Σ(t(MTD)) / ps :     7.0 (14 MTDs)
 
-------------------------------------
Starting a trial MTD to test settings
-------------------------------------
 Estimated runtime for one MTD (0.5 ps) on a single thread: 3 min 37 sec
 Estimated runtime for a batch of 14 MTDs on 28 threads: 1 min 49 sec
 
 list of Vbias parameters applied:
$metadyn    0.00300   1.300
$metadyn    0.00150   1.300
$metadyn    0.00075   1.300
$metadyn    0.00300   0.780
$metadyn    0.00150   0.780
$metadyn    0.00075   0.780
$metadyn    0.00300   0.468
$metadyn    0.00150   0.468
$metadyn    0.00075   0.468
$metadyn    0.00300   0.281
$metadyn    0.00150   0.281
$metadyn    0.00075   0.281
$metadyn    0.00100   0.100
$metadyn    0.00500   0.800
 
*******************************************************************************************
**                        N E W    I T E R A T I O N    C Y C L E                        **
*******************************************************************************************
 
========================================
            MTD Iteration  1
========================================
 
     ========================================
     |         Meta-MD (MTD) Sampling       |
     ========================================
 
Starting Meta-MD   1 with the settings:
     MD time /ps        :     0.5
     dt /fs             :     1.5
     dumpstep(trj) /fs  :     100
     dumpstep(Vbias)/ps :     1.0
     Vbias factor k /Eh :  0.2520
     Vbias exp α /bohr⁻²:    1.30
Starting Meta-MD   3 with the settings:
     MD time /ps        :     0.5
     dt /fs             :     1.5
     dumpstep(trj) /fs  :     100
     dumpstep(Vbias)/ps :     1.0
     Vbias factor k /Eh :  0.0630
     Vbias exp α /bohr⁻²:    1.30
Starting Meta-MD   2 with the settings:
     MD time /ps        :     0.5
     dt /fs             :     1.5
     dumpstep(trj) /fs  :     100
     dumpstep(Vbias)/ps :     1.0
     Vbias factor k /Eh :  0.1260
     Vbias exp α /bohr⁻²:    1.30
Starting Meta-MD   6 with the settings:
     MD time /ps        :     0.5
     dt /fs             :     1.5
     dumpstep(trj) /fs  :     100
     dumpstep(Vbias)/ps :     1.0
     Vbias factor k /Eh :  0.0630
     Vbias exp α /bohr⁻²:    0.78
Starting Meta-MD   5 with the settings:
     MD time /ps        :     0.5
     dt /fs             :     1.5
     dumpstep(trj) /fs  :     100
     dumpstep(Vbias)/ps :     1.0
     Vbias factor k /Eh :  0.1260
     Vbias exp α /bohr⁻²:    0.78
Starting Meta-MD  14 with the settings:
     MD time /ps        :     0.5
     dt /fs             :     1.5
     dumpstep(trj) /fs  :     100
     dumpstep(Vbias)/ps :     1.0
     Vbias factor k /Eh :  0.4200
     Vbias exp α /bohr⁻²:    0.80
Starting Meta-MD   4 with the settings:
     MD time /ps        :     0.5
     dt /fs             :     1.5
     dumpstep(trj) /fs  :     100
     dumpstep(Vbias)/ps :     1.0
     Vbias factor k /Eh :  0.2520
     Vbias exp α /bohr⁻²:    0.78
Starting Meta-MD   8 with the settings:
     MD time /ps        :     0.5
     dt /fs             :     1.5
     dumpstep(trj) /fs  :     100
     dumpstep(Vbias)/ps :     1.0
     Vbias factor k /Eh :  0.1260
     Vbias exp α /bohr⁻²:    0.47
Starting Meta-MD   7 with the settings:
     MD time /ps        :     0.5
     dt /fs             :     1.5
     dumpstep(trj) /fs  :     100
     dumpstep(Vbias)/ps :     1.0
     Vbias factor k /Eh :  0.2520
     Vbias exp α /bohr⁻²:    0.47
Starting Meta-MD  10 with the settings:
     MD time /ps        :     0.5
     dt /fs             :     1.5
     dumpstep(trj) /fs  :     100
     dumpstep(Vbias)/ps :     1.0
     Vbias factor k /Eh :  0.2520
     Vbias exp α /bohr⁻²:    0.28
Starting Meta-MD  11 with the settings:
     MD time /ps        :     0.5
     dt /fs             :     1.5
     dumpstep(trj) /fs  :     100
     dumpstep(Vbias)/ps :     1.0
     Vbias factor k /Eh :  0.1260
     Vbias exp α /bohr⁻²:    0.28
Starting Meta-MD  13 with the settings:
     MD time /ps        :     0.5
     dt /fs             :     1.5
     dumpstep(trj) /fs  :     100
     dumpstep(Vbias)/ps :     1.0
     Vbias factor k /Eh :  0.0840
     Vbias exp α /bohr⁻²:    0.10
Starting Meta-MD  12 with the settings:
     MD time /ps        :     0.5
     dt /fs             :     1.5
     dumpstep(trj) /fs  :     100
     dumpstep(Vbias)/ps :     1.0
     Vbias factor k /Eh :  0.0630
     Vbias exp α /bohr⁻²:    0.28
Starting Meta-MD   9 with the settings:
     MD time /ps        :     0.5
     dt /fs             :     1.5
     dumpstep(trj) /fs  :     100
     dumpstep(Vbias)/ps :     1.0
     Vbias factor k /Eh :  0.0630
     Vbias exp α /bohr⁻²:    0.47
*Meta-MTD 12 finished*
*Meta-MTD 4 finished*
*Meta-MTD 8 finished*
*Meta-MTD 1 finished*
*Meta-MTD 3 finished*
*Meta-MTD 6 finished*
*Meta-MTD 11 finished*
*Meta-MTD 14 finished*
*Meta-MTD 13 finished*
*Meta-MTD 9 finished*
*Meta-MTD 10 finished*
*Meta-MTD 7 finished*
*Meta-MTD 2 finished*
*Meta-MTD 5 finished*
 
-----------------------
Multilevel Optimization
-----------------------
 
 -------------------------
 1. crude pre-optimization
 -------------------------
 Optimizing all 70 structures from file "crest_rotamers_0.xyz" ...
 1 2 3 4 5 6 7 8 9 10 11 12 13 14 15 16 17 18 19 20 21 22 23 24 25 26 27 28 29 30 31 32 33 34 35 36 37 38 39 40 41 42 43 44 45 46 47 48 49 50 51 52 53 54 55 56 57 58 59 60 61 62 63 64 65 66 67 68 69 70
 done.
 running RMSDs...
 done.
 E lowest :  -132.11888
 61 structures remain within    12.00 kcal/mol window
 
 -------------------------------------
 2. optimization with tight thresholds
 -------------------------------------
 Optimizing all 62 structures from file "crest_rotamers_1.xyz" ...
 1 2 3 4 5 6 7 8 9 10 11 12 13 14 15 16 17 18 19 20 21 22 23 24 25 26 27 28 29 30 31 32 33 34 35 36 37 38 39 40 41 42 43 44 45 46 47 48 49 50 51 52 53 54 55 56 57 58 59 60 61 62
 done.
 running RMSDs...
 done.
 E lowest :  -132.12066
 42 structures remain within     6.00 kcal/mol window
 
 
========================================
            MTD Iteration  2
========================================
 
     ========================================
     |         Meta-MD (MTD) Sampling       |
     ========================================
 
Starting Meta-MD   1 with the settings:
     MD time /ps        :     0.5
     dt /fs             :     1.5
     dumpstep(trj) /fs  :     100
     dumpstep(Vbias)/ps :     1.0
     Vbias factor k /Eh :  0.2520
     Vbias exp α /bohr⁻²:    1.30
Starting Meta-MD   5 with the settings:
     MD time /ps        :     0.5
     dt /fs             :     1.5
     dumpstep(trj) /fs  :     100
     dumpstep(Vbias)/ps :     1.0
     Vbias factor k /Eh :  0.1260
     Vbias exp α /bohr⁻²:    0.78
Starting Meta-MD   4 with the settings:
     MD time /ps        :     0.5
     dt /fs             :     1.5
     dumpstep(trj) /fs  :     100
     dumpstep(Vbias)/ps :     1.0
     Vbias factor k /Eh :  0.2520
     Vbias exp α /bohr⁻²:    0.78
Starting Meta-MD   6 with the settings:
     MD time /ps        :     0.5
     dt /fs             :     1.5
     dumpstep(trj) /fs  :     100
     dumpstep(Vbias)/ps :     1.0
     Vbias factor k /Eh :  0.0630
     Vbias exp α /bohr⁻²:    0.78
Starting Meta-MD   3 with the settings:
     MD time /ps        :     0.5
     dt /fs             :     1.5
     dumpstep(trj) /fs  :     100
     dumpstep(Vbias)/ps :     1.0
     Vbias factor k /Eh :  0.0630
     Vbias exp α /bohr⁻²:    1.30
Starting Meta-MD   7 with the settings:
     MD time /ps        :     0.5
     dt /fs             :     1.5
     dumpstep(trj) /fs  :     100
     dumpstep(Vbias)/ps :     1.0
     Vbias factor k /Eh :  0.2520
     Vbias exp α /bohr⁻²:    0.47
Starting Meta-MD   2 with the settings:
     MD time /ps        :     0.5
     dt /fs             :     1.5
     dumpstep(trj) /fs  :     100
     dumpstep(Vbias)/ps :     1.0
     Vbias factor k /Eh :  0.1260
     Vbias exp α /bohr⁻²:    1.30
Starting Meta-MD  12 with the settings:
     MD time /ps        :     0.5
     dt /fs             :     1.5
     dumpstep(trj) /fs  :     100
     dumpstep(Vbias)/ps :     1.0
     Vbias factor k /Eh :  0.0630
     Vbias exp α /bohr⁻²:    0.28
Starting Meta-MD   8 with the settings:
     MD time /ps        :     0.5
     dt /fs             :     1.5
     dumpstep(trj) /fs  :     100
     dumpstep(Vbias)/ps :     1.0
     Vbias factor k /Eh :  0.1260
     Vbias exp α /bohr⁻²:    0.47
Starting Meta-MD   9 with the settings:
     MD time /ps        :     0.5
     dt /fs             :     1.5
     dumpstep(trj) /fs  :     100
     dumpstep(Vbias)/ps :     1.0
     Vbias factor k /Eh :  0.0630
     Vbias exp α /bohr⁻²:    0.47
Starting Meta-MD  10 with the settings:
     MD time /ps        :     0.5
     dt /fs             :     1.5
     dumpstep(trj) /fs  :     100
     dumpstep(Vbias)/ps :     1.0
     Vbias factor k /Eh :  0.2520
     Vbias exp α /bohr⁻²:    0.28
Starting Meta-MD  11 with the settings:
     MD time /ps        :     0.5
     dt /fs             :     1.5
     dumpstep(trj) /fs  :     100
     dumpstep(Vbias)/ps :     1.0
     Vbias factor k /Eh :  0.1260
     Vbias exp α /bohr⁻²:    0.28
*Meta-MTD 1 finished*
*Meta-MTD 3 finished*
*Meta-MTD 12 finished*
*Meta-MTD 6 finished*
*Meta-MTD 5 finished*
*Meta-MTD 9 finished*
*Meta-MTD 4 finished*
*Meta-MTD 7 finished*
*Meta-MTD 11 finished*
*Meta-MTD 8 finished*
*Meta-MTD 2 finished*
*Meta-MTD 10 finished*
 
-----------------------
Multilevel Optimization
-----------------------
 
 -------------------------
 1. crude pre-optimization
 -------------------------
 Optimizing all 60 structures from file "crest_rotamers_0.xyz" ...
 1 2 3 4 5 6 7 8 9 10 11 12 13 14 15 16 17 18 19 20 21 22 23 24 25 26 27 28 29 30 31 32 33 34 35 36 37 38 39 40 41 42 43 44 45 46 47 48 49 50 51 52 53 54 55 56 57 58 59 60
 done.
 running RMSDs...
 done.
 E lowest :  -132.12019
 57 structures remain within    12.00 kcal/mol window
 
 -------------------------------------
 2. optimization with tight thresholds
 -------------------------------------
 Optimizing all 58 structures from file "crest_rotamers_1.xyz" ...
 1 2 3 4 5 6 7 8 9 10 11 12 13 14 15 16 17 18 19 20 21 22 23 24 25 26 27 28 29 30 31 32 33 34 35 36 37 38 39 40 41 42 43 44 45 46 47 48 49 50 51 52 53 54 55 56 57 58
 done.
 running RMSDs...
 done.
 E lowest :  -132.12110
 35 structures remain within     6.00 kcal/mol window
 
 ...............................................
 A new lower conformer was found!
 Improved by    0.00045 Eh or    0.27949kcal/mol
 ...............................................
 
========================================
            MTD Iteration  3
========================================
 
     ========================================
     |         Meta-MD (MTD) Sampling       |
     ========================================
 
Starting Meta-MD   1 with the settings:
     MD time /ps        :     0.5
     dt /fs             :     1.5
     dumpstep(trj) /fs  :     100
     dumpstep(Vbias)/ps :     1.0
     Vbias factor k /Eh :  0.2520
     Vbias exp α /bohr⁻²:    1.30
Starting Meta-MD   2 with the settings:
     MD time /ps        :     0.5
     dt /fs             :     1.5
     dumpstep(trj) /fs  :     100
     dumpstep(Vbias)/ps :     1.0
     Vbias factor k /Eh :  0.1260
     Vbias exp α /bohr⁻²:    1.30
Starting Meta-MD   4 with the settings:
     MD time /ps        :     0.5
     dt /fs             :     1.5
     dumpstep(trj) /fs  :     100
     dumpstep(Vbias)/ps :     1.0
     Vbias factor k /Eh :  0.2520
     Vbias exp α /bohr⁻²:    0.78
Starting Meta-MD   5 with the settings:
     MD time /ps        :     0.5
     dt /fs             :     1.5
     dumpstep(trj) /fs  :     100
     dumpstep(Vbias)/ps :     1.0
     Vbias factor k /Eh :  0.1260
     Vbias exp α /bohr⁻²:    0.78
Starting Meta-MD   3 with the settings:
     MD time /ps        :     0.5
     dt /fs             :     1.5
     dumpstep(trj) /fs  :     100
     dumpstep(Vbias)/ps :     1.0
     Vbias factor k /Eh :  0.0630
     Vbias exp α /bohr⁻²:    1.30
Starting Meta-MD   7 with the settings:
     MD time /ps        :     0.5
     dt /fs             :     1.5
     dumpstep(trj) /fs  :     100
     dumpstep(Vbias)/ps :     1.0
     Vbias factor k /Eh :  0.2520
     Vbias exp α /bohr⁻²:    0.47
Starting Meta-MD   6 with the settings:
     MD time /ps        :     0.5
     dt /fs             :     1.5
     dumpstep(trj) /fs  :     100
     dumpstep(Vbias)/ps :     1.0
     Vbias factor k /Eh :  0.0630
     Vbias exp α /bohr⁻²:    0.78
Starting Meta-MD   8 with the settings:
     MD time /ps        :     0.5
     dt /fs             :     1.5
     dumpstep(trj) /fs  :     100
     dumpstep(Vbias)/ps :     1.0
     Vbias factor k /Eh :  0.1260
     Vbias exp α /bohr⁻²:    0.47
Starting Meta-MD   9 with the settings:
     MD time /ps        :     0.5
     dt /fs             :     1.5
     dumpstep(trj) /fs  :     100
     dumpstep(Vbias)/ps :     1.0
     Vbias factor k /Eh :  0.0630
     Vbias exp α /bohr⁻²:    0.47
Starting Meta-MD  10 with the settings:
     MD time /ps        :     0.5
     dt /fs             :     1.5
     dumpstep(trj) /fs  :     100
     dumpstep(Vbias)/ps :     1.0
     Vbias factor k /Eh :  0.2520
     Vbias exp α /bohr⁻²:    0.28
Starting Meta-MD  12 with the settings:
     MD time /ps        :     0.5
     dt /fs             :     1.5
     dumpstep(trj) /fs  :     100
     dumpstep(Vbias)/ps :     1.0
     Vbias factor k /Eh :  0.0630
     Vbias exp α /bohr⁻²:    0.28
Starting Meta-MD  11 with the settings:
     MD time /ps        :     0.5
     dt /fs             :     1.5
     dumpstep(trj) /fs  :     100
     dumpstep(Vbias)/ps :     1.0
     Vbias factor k /Eh :  0.1260
     Vbias exp α /bohr⁻²:    0.28
*Meta-MTD 6 finished*
*Meta-MTD 9 finished*
*Meta-MTD 12 finished*
*Meta-MTD 4 finished*
*Meta-MTD 7 finished*
*Meta-MTD 1 finished*
*Meta-MTD 10 finished*
*Meta-MTD 2 finished*
*Meta-MTD 11 finished*
*Meta-MTD 5 finished*
*Meta-MTD 8 finished*
*Meta-MTD 3 finished*
 
-----------------------
Multilevel Optimization
-----------------------
 
 -------------------------
 1. crude pre-optimization
 -------------------------
 Optimizing all 60 structures from file "crest_rotamers_0.xyz" ...
 1 2 3 4 5 6 7 8 9 10 11 12 13 14 15 16 17 18 19 20 21 22 23 24 25 26 27 28 29 30 31 32 33 34 35 36 37 38 39 40 41 42 43 44 45 46 47 48 49 50 51 52 53 54 55 56 57 58 59 60
 done.
 running RMSDs...
 done.
 E lowest :  -132.12024
 52 structures remain within    12.00 kcal/mol window
 
 -------------------------------------
 2. optimization with tight thresholds
 -------------------------------------
 Optimizing all 53 structures from file "crest_rotamers_1.xyz" ...
 1 2 3 4 5 6 7 8 9 10 11 12 13 14 15 16 17 18 19 20 21 22 23 24 25 26 27 28 29 30 31 32 33 34 35 36 37 38 39 40 41 42 43 44 45 46 47 48 49 50 51 52 53
 done.
 running RMSDs...
 done.
 E lowest :  -132.12111
 34 structures remain within     6.00 kcal/mol window
 
========================================
            MTD Iterations done         
========================================
 Collecting ensmbles.
 running RMSDs...
 done.
 E lowest :  -132.12111
 109 structures remain within     6.00 kcal/mol window
 
 -------------------------------
 Additional orientation sampling
 -------------------------------
 Optimizing all 154 structures from file "oh_ensemble.xyz" ...
 1 2 3 4 5 6 7 8 9 10 11 12 13 14 15 16 17 18 19 20 21 22 23 24 25 26 27 28 29 30 31 32 33 34 35 36 37 38 39 40 41 42 43 44 45 46 47 48 49 50 51 52 53 54 55 56 57 58 59 60 61 62 63 64 65 66 67 68 69 70 71 72 73 74 75 76 77 78 79 80 81 82 83 84 85 86 87 88 89 90 91 92 93 94 95 96 97 98 99 100 101 102 103 104 105 106 107 108 109 110 111 112 113 114 115 116 117 118 119 120 121 122 123 124 125 126 127 128 129 130 131 132 133 134 135 136 137 138 139 140 141 142 143 144 145 146 147 148 149 150 151 152 153 154
 done.
 running RMSDs...
 done.
 E lowest :  -132.12111
 234 structures remain within     6.00 kcal/mol window
 
-----------------------------------------------
Additional regular MDs on lowest 4 conformer(s)
-----------------------------------------------
Starting MD   1 with the settings:
     MD time /ps        :     0.2
     MD Temperature /K  :   400.0
     dt /fs             :     1.5
     dumpstep(trj) /fs  :     100
Starting MD   2 with the settings:
     MD time /ps        :     0.2
     MD Temperature /K  :   500.0
     dt /fs             :     1.5
     dumpstep(trj) /fs  :     100
Starting MD   3 with the settings:
     MD time /ps        :     0.2
     MD Temperature /K  :   400.0
     dt /fs             :     1.5
     dumpstep(trj) /fs  :     100
Starting MD   4 with the settings:
     MD time /ps        :     0.2
     MD Temperature /K  :   500.0
     dt /fs             :     1.5
     dumpstep(trj) /fs  :     100
Starting MD   6 with the settings:
     MD time /ps        :     0.2
     MD Temperature /K  :   500.0
     dt /fs             :     1.5
     dumpstep(trj) /fs  :     100
Starting MD   5 with the settings:
     MD time /ps        :     0.2
     MD Temperature /K  :   400.0
     dt /fs             :     1.5
     dumpstep(trj) /fs  :     100
Starting MD   8 with the settings:
     MD time /ps        :     0.2
     MD Temperature /K  :   500.0
     dt /fs             :     1.5
     dumpstep(trj) /fs  :     100
Starting MD   7 with the settings:
     MD time /ps        :     0.2
     MD Temperature /K  :   400.0
     dt /fs             :     1.5
     dumpstep(trj) /fs  :     100
*MD 5 finished*
*MD 8 finished*
*MD 1 finished*
*MD 3 finished*
*MD 7 finished*
*MD 4 finished*
*MD 2 finished*
*MD 6 finished*
 Appending file crest_rotamers_2.xyz with new structures
 
 -------------------------------------------
 Ensemble optimization with tight thresholds
 -------------------------------------------
 Optimizing all 250 structures from file "crest_rotamers_2.xyz" ...
 1 2 3 4 5 6 7 8 9 10 11 12 13 14 15 16 17 18 19 20 21 22 23 24 25 26 27 28 29 30 31 32 33 34 35 36 37 38 39 40 41 42 43 44 45 46 47 48 49 50 51 52 53 54 55 56 57 58 59 60 61 62 63 64 65 66 67 68 69 70 71 72 73 74 75 76 77 78 79 80 81 82 83 84 85 86 87 88 89 90 91 92 93 94 95 96 97 98 99 100 101 102 103 104 105 106 107 108 109 110 111 112 113 114 115 116 117 118 119 120 121 122 123 124 125 126 127 128 129 130 131 132 133 134 135 136 137 138 139 140 141 142 143 144 145 146 147 148 149 150 151 152 153 154 155 156 157 158 159 160 161 162 163 164 165 166 167 168 169 170 171 172 173 174 175 176 177 178 179 180 181 182 183 184 185 186 187 188 189 190 191 192 193 194 195 196 197 198 199 200 201 202 203 204 205 206 207 208 209 210 211 212 213 214 215 216 217 218 219 220 221 222 223 224 225 226 227 228 229 230 231 232 233 234 235 236 237 238 239 240 241 242 243 244 245 246 247 248 249 250
 done.
 running RMSDs...
 done.
 E lowest :  -132.12112
 236 structures remain within     6.00 kcal/mol window
 
 
     ========================================
     |        Structure Crossing (GC)       |
     ========================================
 =============================
  # threads =          28
 =============================
 input  file name : crest_rotamers_4.xyz
number of atoms                :    84
number of points on xyz files  :   236
conformer energy window  /kcal :    6.00
CN per atom difference cut-off :  0.3000
RMSD threshold                 :  0.5000
max. # of generated structures : 25
 reading xyz file ...
 # in E window                236
 generating pairs ...       27965
  10.6 % done
  74.6 % done
 generated pairs           :       14689
 number of clash discarded :       13041
 average rmsd w.r.t input  : 3.10389
 sd of ensemble            : 0.79508
 number of new structures      :           7
 removed identical structures  :          43
 writing            7  TMPCONF* dirs ...
 --------------------------
 GC: loose pre-optimization
 --------------------------
 Starting optimization of generated structures
 7 jobs to do.
 1 2 3 4 5 6 7 
 done.
 Now appending opt.xyz file with new structures
 running RMSDs...
 done.
 E lowest :  -132.12108
 7 structures remain within    10.00 kcal/mol window
 --------------------------------------
 GC: optimization with tight thresholds
 --------------------------------------
 Optimizing all 7 structures from file "crest_rotamers_1.xyz" ...
 1 2 3 4 5 6 7
 done.
 running RMSDs...
 done.
 E lowest :  -132.12112
 
 
   ================================================
   |           Final Geometry Optimization        |
   ================================================
 ------------------------------------------------
 Ensemble optimization with very tight thresholds
 ------------------------------------------------
 Optimizing all 242 structures from file "crest_rotamers_5.xyz" ...
 1 2 3 4 5 6 7 8 9 10 11 12 13 14 15 16 17 18 19 20 21 22 23 24 25 26 27 28 29 30 31 32 33 34 35 36 37 38 39 40 41 42 43 44 45 46 47 48 49 50 51 52 53 54 55 56 57 58 59 60 61 62 63 64 65 66 67 68 69 70 71 72 73 74 75 76 77 78 79 80 81 82 83 84 85 86 87 88 89 90 91 92 93 94 95 96 97 98 99 100 101 102 103 104 105 106 107 108 109 110 111 112 113 114 115 116 117 118 119 120 121 122 123 124 125 126 127 128 129 130 131 132 133 134 135 136 137 138 139 140 141 142 143 144 145 146 147 148 149 150 151 152 153 154 155 156 157 158 159 160 161 162 163 164 165 166 167 168 169 170 171 172 173 174 175 176 177 178 179 180 181 182 183 184 185 186 187 188 189 190 191 192 193 194 195 196 197 198 199 200 201 202 203 204 205 206 207 208 209 210 211 212 213 214 215 216 217 218 219 220 221 222 223 224 225 226 227 228 229 230 231 232 233 234 235 236 237 238 239 240 241 242
 done.
 running RMSDs...
 done.
 E lowest :  -132.12112
 241 structures remain within     6.00 kcal/mol window
 
 input  file name : crest_rotamers_6.xyz
 output file name : crest_rotamers_7.xyz
 number of atoms                :   84
 number of points on xyz files  :   242
 RMSD threshold                 :   0.2500
 Bconst threshold               :   0.0100
 population threshold           :   0.0500
 conformer energy window  /kcal :   6.0000
 # fragment in coord            :     1
 # bonds in reference structure :    91
   => # of C=C bonds :    16
 number of reliable points      :   242
 reference state Etot :  -132.121115450000
 number of doubles removed by rot/RMSD         :           1
 total number unique points considered further :         241
       Erel/kcal        Etot weight/tot  conformer     set   degen     origin
       1   0.000  -132.12112    0.00987    0.01963       1       2     md4
       2   0.006  -132.12111    0.00976                                mtd11
       3   0.025  -132.12108    0.00946    0.01898       2       2     mtd2
       4   0.021  -132.12108    0.00953                                md7
       5   0.002  -132.12111    0.00983    0.00983       3       1     mtd10
       6   0.027  -132.12107    0.00944    0.01860       4       2     mtd1
       7   0.044  -132.12105    0.00916                                mtd6
       8   0.045  -132.12104    0.00915    0.00915       5       1     mtd9
       9   0.047  -132.12104    0.00911    0.01804       6       2     mtd11
      10   0.059  -132.12102    0.00893                                mtd3
      11   0.076  -132.12099    0.00868    0.01766       7       2     mtd8
      12   0.056  -132.12103    0.00898                                mtd10
      13   0.077  -132.12099    0.00867    0.01723       8       2     hor
      14   0.085  -132.12098    0.00856                                mtd6
      15   0.071  -132.12100    0.00876    0.02563       9       3     hor
      16   0.100  -132.12096    0.00834                                mtd5
      17   0.087  -132.12098    0.00853                                hor
      18   0.104  -132.12095    0.00828    0.00828      10       1     mtd1
      19   0.106  -132.12095    0.00825    0.02469      11       3     mtd5
      20   0.108  -132.12094    0.00823                                hor
      21   0.109  -132.12094    0.00821                                gc
      22   0.118  -132.12093    0.00809    0.01611      12       2     mtd8
      23   0.123  -132.12092    0.00802                                mtd9
      24   0.125  -132.12092    0.00799    0.02433      13       3     gc
      25   0.096  -132.12096    0.00839                                md3
      26   0.128  -132.12091    0.00795                                mtd10
      27   0.117  -132.12093    0.00810    0.02416      14       3     hor
      28   0.118  -132.12093    0.00809                                md1
      29   0.126  -132.12091    0.00798                                hor
      30   0.150  -132.12088    0.00767    0.00767      15       1     hor
      31   0.151  -132.12088    0.00765    0.00765      16       1     mtd10
      32   0.120  -132.12092    0.00805    0.00805      17       1     mtd3
      33   0.158  -132.12086    0.00756    0.01493      18       2     mtd8
      34   0.173  -132.12084    0.00737                                mtd3
      35   0.178  -132.12083    0.00731    0.00731      19       1     hor
      36   0.178  -132.12083    0.00730    0.02187      20       3     mtd10
      37   0.168  -132.12085    0.00743                                mtd3
      38   0.192  -132.12081    0.00714                                mtd7
      39   0.199  -132.12080    0.00706    0.02084      21       3     mtd4
      40   0.218  -132.12077    0.00683                                hor
      41   0.208  -132.12078    0.00695                                gc
      42   0.226  -132.12075    0.00674    0.00674      22       1     mtd10
      43   0.238  -132.12074    0.00661    0.02681      23       4     hor
      44   0.214  -132.12077    0.00688                                mtd10
      45   0.227  -132.12075    0.00673                                mtd11
      46   0.239  -132.12074    0.00660                                mtd9
      47   0.247  -132.12072    0.00651    0.00651      24       1     mtd3
      48   0.256  -132.12071    0.00641    0.01904      25       3     mtd7
      49   0.263  -132.12070    0.00633                                mtd10
      50   0.266  -132.12069    0.00631                                gc
      51   0.268  -132.12069    0.00628    0.00628      26       1     hor
      52   0.229  -132.12075    0.00670    0.00670      27       1     mtd12
      53   0.272  -132.12068    0.00623    0.00623      28       1     hor
      54   0.276  -132.12068    0.00620    0.00620      29       1     mtd8
      55   0.234  -132.12074    0.00665    0.00665      30       1     hor
      56   0.280  -132.12067    0.00616    0.01884      31       3     mtd5
      57   0.284  -132.12066    0.00611                                mtd10
      58   0.241  -132.12073    0.00657                                hor
      59   0.243  -132.12073    0.00655    0.00655      32       1     hor
      60   0.291  -132.12065    0.00604    0.00604      33       1     mtd6
      61   0.297  -132.12064    0.00598    0.00598      34       1     mtd8
      62   0.300  -132.12064    0.00595    0.00595      35       1     mtd12
      63   0.298  -132.12064    0.00597    0.02334      36       4     mtd6
      64   0.310  -132.12062    0.00585                                mtd5
      65   0.319  -132.12061    0.00576                                mtd11
      66   0.320  -132.12061    0.00576                                hor
      67   0.325  -132.12060    0.00570    0.02324      37       4     mtd5
      68   0.273  -132.12068    0.00623                                mtd8
      69   0.329  -132.12059    0.00566                                hor
      70   0.331  -132.12059    0.00565                                mtd2
      71   0.275  -132.12068    0.00620    0.01184      38       2     mtd8
      72   0.332  -132.12059    0.00564                                mtd12
      73   0.300  -132.12064    0.00595    0.00595      39       1     hor
      74   0.306  -132.12063    0.00589    0.01747      40       3     mtd4
      75   0.323  -132.12060    0.00572                                hor
      76   0.309  -132.12062    0.00586                                mtd5
      77   0.333  -132.12058    0.00563    0.01143      41       2     hor
      78   0.315  -132.12061    0.00580                                mtd11
      79   0.336  -132.12058    0.00560    0.00560      42       1     hor
      80   0.352  -132.12055    0.00545    0.00545      43       1     hor
      81   0.354  -132.12055    0.00544    0.01114      44       2     mtd11
      82   0.325  -132.12060    0.00570                                hor
      83   0.300  -132.12064    0.00595    0.01156      45       2     mtd7
      84   0.334  -132.12058    0.00562                                mtd4
      85   0.310  -132.12062    0.00585    0.01154      46       2     hor
      86   0.327  -132.12059    0.00568                                hor
      87   0.337  -132.12058    0.00559    0.00559      47       1     mtd12
      88   0.364  -132.12054    0.00534    0.00534      48       1     mtd1
      89   0.364  -132.12053    0.00534    0.00534      49       1     mtd4
      90   0.333  -132.12059    0.00563    0.00563      50       1     mtd5
      91   0.372  -132.12052    0.00527    0.00527      51       1     hor
      92   0.377  -132.12052    0.00523    0.01032      52       2     mtd4
      93   0.393  -132.12049    0.00509                                mtd2
      94   0.425  -132.12044    0.00482    0.02009      53       4     mtd7
      95   0.382  -132.12051    0.00518                                mtd1
      96   0.395  -132.12049    0.00507                                mtd3
      97   0.401  -132.12048    0.00502                                mtd9
      98   0.426  -132.12044    0.00481    0.00481      54       1     hor
      99   0.421  -132.12045    0.00485    0.00485      55       1     hor
     100   0.476  -132.12036    0.00442    0.00442      56       1     hor
     101   0.553  -132.12023    0.00388    0.00770      57       2     mtd9
     102   0.563  -132.12022    0.00382                                hor
     103   0.586  -132.12018    0.00368    0.00732      58       2     mtd1
     104   0.591  -132.12017    0.00364                                hor
     105   0.641  -132.12009    0.00335    0.00670      59       2     hor
     106   0.641  -132.12009    0.00335                                hor
     107   0.643  -132.12009    0.00334    0.00334      60       1     mtd4
     108   0.645  -132.12009    0.00333    0.01292      61       4     hor
     109   0.649  -132.12008    0.00331                                mtd8
     110   0.678  -132.12004    0.00315                                hor
     111   0.679  -132.12003    0.00314                                mtd14
     112   0.689  -132.12002    0.00309    0.01573      62       5     hor
     113   0.655  -132.12007    0.00327                                hor
     114   0.701  -132.12000    0.00303                                hor
     115   0.655  -132.12007    0.00327                                mtd9
     116   0.690  -132.12002    0.00308                                mtd5
     117   0.706  -132.11999    0.00300    0.00907      63       3     hor
     118   0.692  -132.12001    0.00307                                hor
     119   0.708  -132.11999    0.00299                                mtd2
     120   0.703  -132.12000    0.00302    0.00302      64       1     hor
     121   0.712  -132.11998    0.00297    0.00297      65       1     hor
     122   0.721  -132.11997    0.00293    0.00586      66       2     mtd9
     123   0.719  -132.11997    0.00294                                hor
     124   0.704  -132.11999    0.00301    0.00301      67       1     mtd5
     125   0.725  -132.11996    0.00291    0.00862      68       3     mtd1
     126   0.743  -132.11993    0.00282                                hor
     127   0.728  -132.11996    0.00289                                mtd14
     128   0.751  -132.11992    0.00278    0.00553      69       2     mtd1
     129   0.758  -132.11991    0.00275                                hor
     130   0.728  -132.11995    0.00289    0.01102      70       4     mtd6
     131   0.759  -132.11991    0.00274                                mtd1
     132   0.761  -132.11990    0.00273                                hor
     133   0.778  -132.11988    0.00266                                hor
     134   0.754  -132.11991    0.00276    0.00833      71       3     hor
     135   0.755  -132.11991    0.00276                                hor
     136   0.747  -132.11992    0.00280                                hor
     137   0.757  -132.11991    0.00275    0.00275      72       1     mtd9
     138   0.782  -132.11987    0.00264    0.00527      73       2     hor
     139   0.784  -132.11987    0.00263                                hor
     140   0.785  -132.11986    0.00262    0.00524      74       2     mtd6
     141   0.787  -132.11986    0.00262                                mtd8
     142   0.788  -132.11986    0.00261    0.00536      75       2     hor
     143   0.758  -132.11991    0.00275                                mtd13
     144   0.789  -132.11986    0.00261    0.00261      76       1     hor
     145   0.792  -132.11985    0.00260    0.00260      77       1     hor
     146   0.802  -132.11984    0.00255    0.00255      78       1     hor
     147   0.804  -132.11983    0.00254    0.00520      79       2     mtd4
     148   0.777  -132.11988    0.00266                                mtd9
     149   0.806  -132.11983    0.00254    0.00528      80       2     hor
     150   0.759  -132.11991    0.00275                                hor
     151   0.784  -132.11987    0.00263    0.00263      81       1     hor
     152   0.808  -132.11983    0.00253    0.00253      82       1     mtd7
     153   0.815  -132.11982    0.00250    0.00250      83       1     hor
     154   0.817  -132.11981    0.00249    0.00756      84       3     hor
     155   0.818  -132.11981    0.00248                                hor
     156   0.793  -132.11985    0.00259                                hor
     157   0.822  -132.11981    0.00247    0.00247      85       1     hor
     158   0.825  -132.11980    0.00246    0.00489      86       2     hor
     159   0.829  -132.11979    0.00244                                mtd10
     160   0.790  -132.11986    0.00260    0.00260      87       1     mtd2
     161   0.831  -132.11979    0.00243    0.00243      88       1     hor
     162   0.832  -132.11979    0.00243    0.00484      89       2     hor
     163   0.835  -132.11978    0.00241                                hor
     164   0.833  -132.11979    0.00242    0.01220      90       5     mtd3
     165   0.810  -132.11983    0.00252                                hor
     166   0.813  -132.11982    0.00250                                hor
     167   0.842  -132.11977    0.00239                                mtd8
     168   0.846  -132.11977    0.00237                                gc
     169   0.849  -132.11976    0.00236    0.00708      91       3     mtd2
     170   0.849  -132.11976    0.00236                                hor
     171   0.847  -132.11977    0.00237                                hor
     172   0.852  -132.11976    0.00234    0.00234      92       1     hor
     173   0.855  -132.11975    0.00234    0.00476      93       2     mtd4
     174   0.833  -132.11979    0.00242                                hor
     175   0.834  -132.11979    0.00242    0.00242      94       1     hor
     176   0.855  -132.11975    0.00233    0.00482      95       2     mtd12
     177   0.818  -132.11981    0.00249                                hor
     178   0.837  -132.11978    0.00241    0.00241      96       1     hor
     179   0.857  -132.11975    0.00233    0.00233      97       1     mtd1
     180   0.838  -132.11978    0.00240    0.00240      98       1     mtd1
     181   0.866  -132.11973    0.00229    0.00683      99       3     hor
     182   0.868  -132.11973    0.00228                                hor
     183   0.874  -132.11972    0.00226                                hor
     184   0.851  -132.11976    0.00235    0.00698     100       3     hor
     185   0.858  -132.11975    0.00232                                hor
     186   0.863  -132.11974    0.00230                                hor
     187   0.877  -132.11972    0.00225    0.00225     101       1     mtd13
     188   0.898  -132.11969    0.00217    0.00444     102       2     mtd11
     189   0.871  -132.11973    0.00227                                hor
     190   0.908  -132.11967    0.00214    0.00214     103       1     mtd3
     191   0.909  -132.11967    0.00213    0.00213     104       1     mtd11
     192   0.924  -132.11964    0.00208    0.00431     105       2     mtd11
     193   0.880  -132.11971    0.00224                                mtd4
     194   0.919  -132.11965    0.00209    0.00209     106       1     hor
     195   0.925  -132.11964    0.00207    0.00414     107       2     hor
     196   0.927  -132.11964    0.00207                                hor
     197   0.933  -132.11963    0.00205    0.00205     108       1     hor
     198   0.933  -132.11963    0.00205    0.00205     109       1     hor
     199   0.938  -132.11962    0.00203    0.00403     110       2     hor
     200   0.947  -132.11961    0.00200                                mtd10
     201   0.964  -132.11958    0.00194    0.00383     111       2     mtd11
     202   0.980  -132.11955    0.00189                                mtd13
     203   0.983  -132.11955    0.00188    0.00188     112       1     hor
     204   0.968  -132.11957    0.00193    0.00193     113       1     hor
     205   1.001  -132.11952    0.00182    0.00182     114       1     gc
     206   1.015  -132.11950    0.00178    0.00178     115       1     mtd7
     207   1.018  -132.11949    0.00177    0.00177     116       1     hor
     208   1.028  -132.11948    0.00174    0.00174     117       1     hor
     209   1.093  -132.11937    0.00156    0.00156     118       1     hor
     210   1.094  -132.11937    0.00156    0.00156     119       1     mtd7
     211   1.095  -132.11937    0.00156    0.00156     120       1     hor
     212   1.109  -132.11935    0.00152    0.00152     121       1     hor
     213   1.160  -132.11927    0.00139    0.00139     122       1     hor
     214   1.165  -132.11926    0.00138    0.00138     123       1     mtd4
     215   1.209  -132.11919    0.00129    0.00251     124       2     hor
     216   1.235  -132.11915    0.00123                                hor
     217   1.210  -132.11919    0.00128    0.00128     125       1     hor
     218   1.241  -132.11914    0.00122    0.00122     126       1     hor
     219   1.250  -132.11912    0.00120    0.00120     127       1     hor
     220   1.256  -132.11911    0.00119    0.00234     128       2     hor
     221   1.275  -132.11908    0.00115                                hor
     222   1.275  -132.11908    0.00115    0.00115     129       1     hor
     223   1.261  -132.11911    0.00118    0.00118     130       1     hor
     224   1.289  -132.11906    0.00112    0.00112     131       1     hor
     225   1.302  -132.11904    0.00110    0.00110     132       1     hor
     226   1.319  -132.11901    0.00107    0.00107     133       1     hor
     227   1.333  -132.11899    0.00104    0.00104     134       1     hor
     228   1.368  -132.11893    0.00098    0.00098     135       1     hor
     229   1.383  -132.11891    0.00096    0.00096     136       1     hor
     230   1.426  -132.11884    0.00089    0.00089     137       1     hor
     231   1.439  -132.11882    0.00087    0.00173     138       2     hor
     232   1.445  -132.11881    0.00086                                hor
     233   1.445  -132.11881    0.00086    0.00086     139       1     hor
     234   1.507  -132.11871    0.00078    0.00078     140       1     hor
     235   1.509  -132.11871    0.00077    0.00077     141       1     hor
     236   1.552  -132.11864    0.00072    0.00143     142       2     hor
     237   1.558  -132.11863    0.00071                                hor
     238   1.560  -132.11863    0.00071    0.00071     143       1     hor
     239   1.555  -132.11864    0.00072    0.00072     144       1     hor
     240   1.627  -132.11852    0.00064    0.00064     145       1     hor
     241   1.800  -132.11825    0.00047    0.00047     146       1     hor
T /K                                  :   298.15
E lowest                              :  -132.12112
ensemble average energy (kcal)        :    0.405
ensemble entropy (J/mol K, cal/mol K) :   44.079   10.535
ensemble free energy (kcal/mol)       :   -3.141
population of lowest in %             :    1.963
 number of unique conformers for further calc          146
 list of relative energies saved as "crest.energies"
 
 -----------------
 Wall Time Summary
 -----------------
             test MD wall time :         0h : 0m :54s
                 MTD wall time :         0h : 2m :33s
      multilevel OPT wall time :         0h : 4m : 2s
                  MD wall time :         0h : 0m :46s
                  GC wall time :         0h : 0m :31s
--------------------
Overall wall time  : 0h : 9m :14s
 
 CREST terminated normally.
