 
       ==============================================
       |                                            |
       |                 C R E S T                  |
       |                                            |
       |  Conformer-Rotamer Ensemble Sampling Tool  |
       |          based on the GFN methods          |
       |             P.Pracht, S.Grimme             |
       |          Universitaet Bonn, MCTC           |
       ==============================================
       Version 2.11.2, Fr 17. Dec 12:10:44 CEST 2021
  Using the xTB program. Compatible with xTB version 6.4.0
 
   Cite work conducted with this code as

   P. Pracht, F. Bohle, S. Grimme, PCCP, 2020, 22, 7169-7192.

   and  S. Grimme, JCTC, 2019, 15, 2847-2862.
 
   with help from:
   C.Bannwarth, F.Bohle, S.Ehlert, S.Grimme,
   C. Plett, P.Pracht, S. Spicher
 
   This program is distributed in the hope that it will be useful,
   but WITHOUT ANY WARRANTY; without even the implied warranty of
   MERCHANTABILITY or FITNESS FOR A PARTICULAR PURPOSE.

 Command line input:
 > crest 00227_r_0.xyz -T 28 -gfn2 -chrg 0 -uhf 0 -rthr 0.25 -shake 1 --mdlen 0.5

  -T 28 (CPUs/Threads selected)
  -gfn2 : Use of GFN2-xTB requested.
  -chrg 0
  -uhf 0
  -rthr 0.25
  --mdlen 0.5 (MD length in ps)
 
 -------------------------
 xTB Geometry Optimization
 -------------------------
 Geometry successfully optimized.
 
------------------------------------------------
Generating MTD length from a flexibility measure
------------------------------------------------
      -----------------------------------------------------------      
     |                   =====================                   |     
     |                           x T B                           |     
     |                   =====================                   |     
     |                         S. Grimme                         |     
     |          Mulliken Center for Theoretical Chemistry        |     
     |                    University of Bonn                     |     
      -----------------------------------------------------------      

   * xtb version 6.4.1 (afa7bdf) compiled by 'ehlert@majestix' on 2021-06-10

   xtb is free software: you can redistribute it and/or modify it under
   the terms of the GNU Lesser General Public License as published by
   the Free Software Foundation, either version 3 of the License, or
   (at your option) any later version.
   
   xtb is distributed in the hope that it will be useful,
   but WITHOUT ANY WARRANTY; without even the implied warranty of
   MERCHANTABILITY or FITNESS FOR A PARTICULAR PURPOSE.  See the
   GNU Lesser General Public License for more details.
   
   Cite this work as:
   * C. Bannwarth, E. Caldeweyher, S. Ehlert, A. Hansen, P. Pracht,
     J. Seibert, S. Spicher, S. Grimme, WIREs Comput. Mol. Sci., 2020, 11,
     e01493. DOI: 10.1002/wcms.1493
   
   for GFN2-xTB:
   * C. Bannwarth, S. Ehlert and S. Grimme., J. Chem. Theory Comput., 2019,
     15, 1652-1671. DOI: 10.1021/acs.jctc.8b01176
   for GFN1-xTB:
   * S. Grimme, C. Bannwarth, P. Shushkov, J. Chem. Theory Comput., 2017,
     13, 1989-2009. DOI: 10.1021/acs.jctc.7b00118
   for GFN0-xTB:
   * P. Pracht, E. Caldeweyher, S. Ehlert, S. Grimme, ChemRxiv, 2019, preprint.
     DOI: 10.26434/chemrxiv.8326202.v1
   for GFN-FF:
   * S. Spicher and S. Grimme, Angew. Chem. Int. Ed., 2020, 59, 15665-15673.
     DOI: 10.1002/anie.202004239
   
   for DFT-D4:
   * E. Caldeweyher, C. Bannwarth and S. Grimme, J. Chem. Phys., 2017,
     147, 034112. DOI: 10.1063/1.4993215
   * E. Caldeweyher, S. Ehlert, A. Hansen, H. Neugebauer, S. Spicher,
     C. Bannwarth and S. Grimme, J. Chem. Phys., 2019, 150, 154122.
     DOI: 10.1063/1.5090222
   * E. Caldeweyher, J.-M. Mewes, S. Ehlert and S. Grimme, Phys. Chem. Chem. Phys.
     2020, 22, 8499-8512. DOI: 10.1039/D0CP00502A
   
   for sTDA-xTB:
   * S. Grimme and C. Bannwarth, J. Chem. Phys., 2016, 145, 054103.
     DOI: 10.1063/1.4959605
   
   in the mass-spec context:
   * V. Asgeirsson, C. Bauer and S. Grimme, Chem. Sci., 2017, 8, 4879.
     DOI: 10.1039/c7sc00601b
   * J. Koopman and S. Grimme, ACS Omega 2019, 4, 12, 15120-15133.
     DOI: 10.1021/acsomega.9b02011
   
   for metadynamics refer to:
   * S. Grimme, J. Chem. Theory Comput., 2019, 155, 2847-2862
     DOI: 10.1021/acs.jctc.9b00143
   
   for SPH calculations refer to:
   * S. Spicher and S. Grimme, J. Chem. Theory Comput., 2021, 17, 1701-1714
     DOI: 10.1021/acs.jctc.0c01306
   
   with help from (in alphabetical order)
   P. Atkinson, C. Bannwarth, F. Bohle, G. Brandenburg, E. Caldeweyher
   M. Checinski, S. Dohm, S. Ehlert, S. Ehrlich, I. Gerasimov, J. Koopman
   C. Lavigne, S. Lehtola, F. März, M. Müller, F. Musil, H. Neugebauer
   J. Pisarek, C. Plett, P. Pracht, J. Seibert, P. Shushkov, S. Spicher
   M. Stahn, M. Steiner, T. Strunk, J. Stückrath, T. Rose, and J. Unsleber
   
 * started run on 2025/01/21 at 11:29:01.489     

           -------------------------------------------------
          |                Calculation Setup                |
           -------------------------------------------------

          program call               : xtb tmpcoord --gfn0 --sp
          hostname                   : node87
          coordinate file            : tmpcoord
          omp threads                :                    28
          number of atoms            :                    76
          number of electrons        :                   210
          charge                     :                     0
          spin                       :                   0.0
          first test random number   :      0.89441860468387

   ID    Z sym.   atoms
    1    6 c      1-3, 5-20, 22-27, 29-40, 42
    2    8 o      4, 21, 28, 41
    3    1 h      43-76
########################################################################
[WARNING] Please study the warnings concerning your input carefully
-1- prog_main_parseArguments: The use of '--gfn0' is discouraged, please use '--gfn 0' next time
########################################################################

           -------------------------------------------------
          |                 G F N 0 - x T B                 |
           -------------------------------------------------

        Reference                      10.26434/chemrxiv.8326202.v1
      * Hamiltonian:
        H0-scaling (s, p, d)           2.000000    2.486800    2.270000
        zeta-weighting                 1.000000
      * Dispersion:
        s8                             2.850000
        a1                             0.800000
        a2                             4.600000
        s9                             0.000000
      * Repulsion:
        kExp                           1.500000
        rExp                           1.000000
      * Coulomb:
        alpha                          0.000000
        third order                    atomic
        anisotropic                    false
      * Polar bond correction:
        rad-shift                      0.053700
        strength                      -0.012900
        en-exp                         3.484700
        en-scale                       0.509700


          ...................................................
          :                      SETUP                      :
          :.................................................:
          :  # basis functions                 236          :
          :  # atomic orbitals                 236          :
          :  # shells                          152          :
          :  # electrons                       210          :
          :  electronic temp.          300.0000000     K    :
          :  accuracy                    1.0000000          :
          :  -> integral cutoff          0.2500000E+02      :
          :  -> integral neglect         0.1000000E-07      :
          ...................................................
  Checking positiv definite overlap ...  done.
 

         #    Occupation            Energy/Eh            Energy/eV
      -------------------------------------------------------------
         1        2.0000           -0.6947802             -18.9059
       ...           ...                  ...                  ...
        99        2.0000           -0.4327568             -11.7759
       100        2.0000           -0.4135321             -11.2528
       101        2.0000           -0.4121820             -11.2160
       102        2.0000           -0.3954648             -10.7611
       103        2.0000           -0.3950733             -10.7505
       104        2.0000           -0.3941686             -10.7259
       105        2.0000           -0.3901627             -10.6169 (HOMO)
       106                         -0.3019678              -8.2170 (LUMO)
       107                         -0.3000069              -8.1636
       108                         -0.2733032              -7.4370
       109                         -0.2726583              -7.4194
       110                         -0.2601427              -7.0788
       ...                                ...                  ...
       236                          0.6561096              17.8537
      -------------------------------------------------------------
                  HL-Gap            0.0881949 Eh            2.3999 eV
             Fermi-level            0.0000000 Eh            0.0000 eV

 EHT (total)                   0 d,  0 h,  0 min,  0.045 sec
 EHT setup                      ...        0 min,  0.001 sec (  2.740%)
 Coordination number            ...        0 min,  0.001 sec (  2.287%)
 EEQ model density              ...        0 min,  0.001 sec (  1.907%)
 D4 Dispersion                  ...        0 min,  0.003 sec (  6.614%)
 Integral evaluation            ...        0 min,  0.001 sec (  2.947%)
 Cholesky factorization         ...        0 min,  0.007 sec ( 15.324%)
 Zeroth order Hamiltonian       ...        0 min,  0.027 sec ( 59.233%)
 Gradient calculation           ...        0 min,  0.003 sec (  7.248%)

         :::::::::::::::::::::::::::::::::::::::::::::::::::::
         ::                     SUMMARY                     ::
         :::::::::::::::::::::::::::::::::::::::::::::::::::::
         :: total energy            -111.967643062116 Eh    ::
         :: gradient norm              0.054214251056 Eh/a0 ::
         :: HOMO-LUMO gap              2.399904639803 eV    ::
         ::.................................................::
         :: H0 energy               -113.571391322433 Eh    ::
         :: repulsion energy           1.891415694149 Eh    ::
         :: electrostat energy        -0.161014144700 Eh    ::
         :: -> Gsolv                   0.000000000000 Eh    ::
         ::    -> Gsasa                0.000000000000 Eh    ::
         ::    -> Gshift               0.000000000000 Eh    ::
         :: dispersion energy         -0.050823594746 Eh    ::
         :: short-range corr.         -0.075829694385 Eh    ::
         :: add. restraining           0.000000000000 Eh    ::
         :: total charge               0.000000000000 e     ::
         :::::::::::::::::::::::::::::::::::::::::::::::::::::

           -------------------------------------------------
          |                Property Printout                |
           -------------------------------------------------

    * Orbital Energies and Occupations

         #    Occupation            Energy/Eh            Energy/eV
      -------------------------------------------------------------
         1        2.0000           -0.6947802             -18.9059
       ...           ...                  ...                  ...
        93        2.0000           -0.4465961             -12.1525
        94        2.0000           -0.4456844             -12.1277
        95        2.0000           -0.4428865             -12.0516
        96        2.0000           -0.4393938             -11.9565
        97        2.0000           -0.4384400             -11.9306
        98        2.0000           -0.4370228             -11.8920
        99        2.0000           -0.4327568             -11.7759
       100        2.0000           -0.4135321             -11.2528
       101        2.0000           -0.4121820             -11.2160
       102        2.0000           -0.3954648             -10.7611
       103        2.0000           -0.3950733             -10.7505
       104        2.0000           -0.3941686             -10.7259
       105        2.0000           -0.3901627             -10.6169 (HOMO)
       106                         -0.3019678              -8.2170 (LUMO)
       107                         -0.3000069              -8.1636
       108                         -0.2733032              -7.4370
       109                         -0.2726583              -7.4194
       110                         -0.2601427              -7.0788
       111                         -0.2592459              -7.0544
       112                         -0.2512274              -6.8362
       113                         -0.2497727              -6.7967
       114                         -0.2338215              -6.3626
       115                         -0.2276041              -6.1934
       116                         -0.1841626              -5.0113
       ...                                ...                  ...
       236                          0.6561096              17.8537
      -------------------------------------------------------------
                  HL-Gap            0.0881949 Eh            2.3999 eV
             Fermi-level            0.0000000 Eh            0.0000 eV

     #   Z          covCN         q      C6AA      α(0)
     1   6 c        3.754    -0.428    33.574     8.361
     2   6 c        3.735     0.311    17.959     6.120
     3   6 c        3.753    -0.450    34.260     8.447
     4   8 o        1.706    -0.419    21.040     6.206
     5   6 c        2.856     0.270    23.700     7.954
     6   6 c        2.921    -0.152    33.638     9.481
     7   6 c        2.917    -0.086    31.776     9.215
     8   6 c        2.921    -0.157    33.788     9.502
     9   6 c        2.978     0.066    27.945     8.644
    10   6 c        2.971    -0.047    30.726     9.064
    11   6 c        2.924    -0.183    34.543     9.608
    12   6 c        2.984     0.067    27.919     8.640
    13   6 c        2.919    -0.133    33.081     9.402
    14   6 c        2.916    -0.088    31.823     9.221
    15   6 c        2.917    -0.089    31.871     9.228
    16   6 c        2.918    -0.119    32.688     9.346
    17   6 c        2.989     0.018    29.064     8.816
    18   6 c        2.974    -0.059    31.042     9.111
    19   6 c        2.974    -0.038    30.485     9.028
    20   6 c        2.850     0.231    24.453     8.079
    21   8 o        1.659    -0.549    23.793     6.598
    22   6 c        2.971    -0.008    29.717     8.914
    23   6 c        2.977     0.088    27.431     8.564
    24   6 c        2.924    -0.140    33.269     9.429
    25   6 c        2.920    -0.083    31.687     9.202
    26   6 c        2.918    -0.180    34.471     9.598
    27   6 c        2.849     0.278    23.553     7.929
    28   8 o        1.705    -0.421    21.082     6.212
    29   6 c        3.728     0.308    18.008     6.130
    30   6 c        3.751    -0.451    34.305     8.453
    31   6 c        3.751    -0.452    34.334     8.456
    32   6 c        2.929    -0.164    33.992     9.531
    33   6 c        2.925    -0.198    35.012     9.673
    34   6 c        2.984     0.069    27.862     8.632
    35   6 c        2.919    -0.131    33.025     9.394
    36   6 c        2.915    -0.087    31.812     9.220
    37   6 c        2.917    -0.091    31.921     9.236
    38   6 c        2.918    -0.116    32.591     9.332
    39   6 c        2.989     0.038    28.590     8.744
    40   6 c        2.849     0.211    24.846     8.143
    41   8 o        1.659    -0.539    23.572     6.568
    42   6 c        2.923    -0.219    35.642     9.760
    43   1 h        0.925     0.151     1.383     1.839
    44   1 h        0.925     0.121     1.609     1.983
    45   1 h        0.925     0.147     1.414     1.860
    46   1 h        0.923     0.016     2.791     2.613
    47   1 h        0.925     0.147     1.413     1.859
    48   1 h        0.925     0.126     1.567     1.957
    49   1 h        0.925     0.154     1.366     1.828
    50   1 h        0.926     0.124     1.581     1.966
    51   1 h        0.926     0.099     1.794     2.095
    52   1 h        0.926     0.117     1.635     1.999
    53   1 h        0.926     0.119     1.625     1.993
    54   1 h        0.926     0.098     1.800     2.098
    55   1 h        0.926     0.092     1.859     2.132
    56   1 h        0.926     0.094     1.840     2.121
    57   1 h        0.926     0.115     1.655     2.012
    58   1 h        0.805     0.313     0.683     1.298
    59   1 h        0.926     0.105     1.743     2.065
    60   1 h        0.926     0.093     1.845     2.124
    61   1 h        0.926     0.099     1.791     2.093
    62   1 h        0.923     0.045     2.387     2.416
    63   1 h        0.925     0.127     1.561     1.954
    64   1 h        0.925     0.140     1.459     1.889
    65   1 h        0.925     0.158     1.341     1.811
    66   1 h        0.925     0.127     1.560     1.953
    67   1 h        0.925     0.153     1.369     1.829
    68   1 h        0.925     0.140     1.464     1.892
    69   1 h        0.926     0.172     1.252     1.750
    70   1 h        0.926     0.119     1.621     1.991
    71   1 h        0.926     0.099     1.793     2.094
    72   1 h        0.926     0.092     1.857     2.131
    73   1 h        0.926     0.093     1.846     2.125
    74   1 h        0.926     0.118     1.633     1.998
    75   1 h        0.805     0.300     0.721     1.333
    76   1 h        0.926     0.114     1.666     2.019

 Mol. C6AA /au·bohr⁶  :      73152.838026
 Mol. C8AA /au·bohr⁸  :    1840088.476922
 Mol. α(0) /au        :        428.311981


Wiberg/Mayer (AO) data.
largest (>0.10) Wiberg bond orders for each atom

 ---------------------------------------------------------------------------
     #   Z sym  total        # sym  WBO       # sym  WBO       # sym  WBO
 ---------------------------------------------------------------------------
     1   6 c    3.979 --     2 c    1.012    45 h    0.981    44 h    0.980
                            43 h    0.979
     2   6 c    3.954 --     1 c    1.012     3 c    1.006    46 h    0.970
                             4 o    0.958
     3   6 c    3.977 --     2 c    1.006    48 h    0.980    49 h    0.980
                            47 h    0.979
     4   8 o    2.345 --     5 c    1.127     2 c    0.958
     5   6 c    3.942 --    42 c    1.359     6 c    1.322     4 o    1.127
     6   6 c    3.977 --     7 c    1.475     5 c    1.322    50 h    0.968
     7   6 c    3.986 --     6 c    1.475     8 c    1.412    51 h    0.972
     8   6 c    3.976 --     7 c    1.412     9 c    1.384    52 h    0.969
     9   6 c    3.975 --    42 c    1.397     8 c    1.384    10 c    1.026
    10   6 c    3.975 --    11 c    1.522    40 c    1.212     9 c    1.026
    11   6 c    3.985 --    10 c    1.522    12 c    1.271    53 h    0.965
    12   6 c    3.978 --    13 c    1.280    11 c    1.271    17 c    1.242
    13   6 c    3.980 --    14 c    1.552    12 c    1.280    54 h    0.969
                            16 c    0.115
    14   6 c    3.975 --    13 c    1.552    15 c    1.319    55 h    0.973
    15   6 c    3.983 --    16 c    1.557    14 c    1.319    56 h    0.973
    16   6 c    3.987 --    15 c    1.557    17 c    1.273    57 h    0.966
                            13 c    0.115
    17   6 c    3.977 --    16 c    1.273    18 c    1.254    12 c    1.242
    18   6 c    3.966 --    40 c    1.407    17 c    1.254    19 c    0.996
    19   6 c    3.965 --    20 c    1.418    39 c    1.254    18 c    0.996
    20   6 c    3.942 --    19 c    1.418    22 c    1.211    21 o    1.133
    21   8 o    2.313 --    20 c    1.133    58 h    0.968
    22   6 c    3.976 --    33 c    1.520    20 c    1.211    23 c    1.033
    23   6 c    3.975 --    32 c    1.426    24 c    1.361    22 c    1.033
    24   6 c    3.975 --    25 c    1.450    23 c    1.361    59 h    0.970
    25   6 c    3.987 --    24 c    1.450    26 c    1.435    60 h    0.972
                            32 c    0.101
    26   6 c    3.976 --    25 c    1.435    27 c    1.352    61 h    0.962
    27   6 c    3.942 --    26 c    1.352    32 c    1.337    28 o    1.116
    28   8 o    2.349 --    27 c    1.116    29 c    0.959
    29   6 c    3.949 --    31 c    1.005    30 c    1.005    62 h    0.972
                            28 o    0.959
    30   6 c    3.978 --    29 c    1.005    65 h    0.980    63 h    0.979
                            64 h    0.976
    31   6 c    3.978 --    29 c    1.005    67 h    0.980    66 h    0.979
                            68 h    0.976
    32   6 c    3.975 --    23 c    1.426    27 c    1.337    69 h    0.964
                            25 c    0.101
    33   6 c    3.985 --    22 c    1.520    34 c    1.271    70 h    0.965
    34   6 c    3.978 --    35 c    1.281    33 c    1.271    39 c    1.241
    35   6 c    3.979 --    36 c    1.550    34 c    1.281    71 h    0.969
                            38 c    0.115
    36   6 c    3.975 --    35 c    1.550    37 c    1.320    72 h    0.973
    37   6 c    3.982 --    38 c    1.555    36 c    1.320    73 h    0.972
    38   6 c    3.987 --    37 c    1.555    39 c    1.274    74 h    0.966
                            35 c    0.115
    39   6 c    3.977 --    38 c    1.274    19 c    1.254    34 c    1.241
    40   6 c    3.940 --    18 c    1.407    10 c    1.212    41 o    1.135
    41   8 o    2.307 --    40 c    1.135    75 h    0.966
    42   6 c    3.975 --     9 c    1.397     5 c    1.359    76 h    0.964
    43   1 h    0.983 --     1 c    0.979
    44   1 h    0.979 --     1 c    0.980
    45   1 h    0.986 --     1 c    0.981
    46   1 h    0.981 --     2 c    0.970
    47   1 h    0.981 --     3 c    0.979
    48   1 h    0.980 --     3 c    0.980
    49   1 h    0.984 --     3 c    0.980
    50   1 h    0.986 --     6 c    0.968
    51   1 h    0.983 --     7 c    0.972
    52   1 h    0.982 --     8 c    0.969
    53   1 h    0.975 --    11 c    0.965
    54   1 h    0.978 --    13 c    0.969
    55   1 h    0.983 --    14 c    0.973
    56   1 h    0.984 --    15 c    0.973
    57   1 h    0.980 --    16 c    0.966
    58   1 h    0.987 --    21 o    0.968
    59   1 h    0.979 --    24 c    0.970
    60   1 h    0.983 --    25 c    0.972
    61   1 h    0.977 --    26 c    0.962
    62   1 h    1.001 --    29 c    0.972
    63   1 h    0.980 --    30 c    0.979
    64   1 h    0.979 --    30 c    0.976
    65   1 h    0.987 --    30 c    0.980
    66   1 h    0.980 --    31 c    0.979
    67   1 h    0.987 --    31 c    0.980
    68   1 h    0.979 --    31 c    0.976
    69   1 h    0.994 --    32 c    0.964
    70   1 h    0.973 --    33 c    0.965
    71   1 h    0.978 --    35 c    0.969
    72   1 h    0.983 --    36 c    0.973
    73   1 h    0.983 --    37 c    0.972
    74   1 h    0.980 --    38 c    0.966
    75   1 h    0.988 --    41 o    0.966
    76   1 h    0.972 --    42 c    0.964
 ---------------------------------------------------------------------------

Topologies differ in total number of bonds
Writing topology from bond orders to xtbtopo.mol

 dipole moment from electron density (au)
     X       Y       Z   
  -0.9095   1.6747  -0.9301  total (Debye):    5.390


           -------------------------------------------------
          | TOTAL ENERGY             -111.967643062116 Eh   |
          | GRADIENT NORM               0.054214251056 Eh/α |
          | HOMO-LUMO GAP               2.399904639803 eV   |
           -------------------------------------------------

------------------------------------------------------------------------
 * finished run on 2025/01/21 at 11:29:01.633     
------------------------------------------------------------------------
 total:
 * wall-time:     0 d,  0 h,  0 min,  0.144 sec
 *  cpu-time:     0 d,  0 h,  0 min,  3.138 sec
 * ratio c/w:    21.804 speedup
 SCF:
 * wall-time:     0 d,  0 h,  0 min,  0.046 sec
 *  cpu-time:     0 d,  0 h,  0 min,  1.081 sec
 * ratio c/w:    23.697 speedup

 Calculating WBOs... done.
      -----------------------------------------------------------      
     |                   =====================                   |     
     |                           x T B                           |     
     |                   =====================                   |     
     |                         S. Grimme                         |     
     |          Mulliken Center for Theoretical Chemistry        |     
     |                    University of Bonn                     |     
      -----------------------------------------------------------      

   * xtb version 6.4.1 (afa7bdf) compiled by 'ehlert@majestix' on 2021-06-10

   xtb is free software: you can redistribute it and/or modify it under
   the terms of the GNU Lesser General Public License as published by
   the Free Software Foundation, either version 3 of the License, or
   (at your option) any later version.
   
   xtb is distributed in the hope that it will be useful,
   but WITHOUT ANY WARRANTY; without even the implied warranty of
   MERCHANTABILITY or FITNESS FOR A PARTICULAR PURPOSE.  See the
   GNU Lesser General Public License for more details.
   
   Cite this work as:
   * C. Bannwarth, E. Caldeweyher, S. Ehlert, A. Hansen, P. Pracht,
     J. Seibert, S. Spicher, S. Grimme, WIREs Comput. Mol. Sci., 2020, 11,
     e01493. DOI: 10.1002/wcms.1493
   
   for GFN2-xTB:
   * C. Bannwarth, S. Ehlert and S. Grimme., J. Chem. Theory Comput., 2019,
     15, 1652-1671. DOI: 10.1021/acs.jctc.8b01176
   for GFN1-xTB:
   * S. Grimme, C. Bannwarth, P. Shushkov, J. Chem. Theory Comput., 2017,
     13, 1989-2009. DOI: 10.1021/acs.jctc.7b00118
   for GFN0-xTB:
   * P. Pracht, E. Caldeweyher, S. Ehlert, S. Grimme, ChemRxiv, 2019, preprint.
     DOI: 10.26434/chemrxiv.8326202.v1
   for GFN-FF:
   * S. Spicher and S. Grimme, Angew. Chem. Int. Ed., 2020, 59, 15665-15673.
     DOI: 10.1002/anie.202004239
   
   for DFT-D4:
   * E. Caldeweyher, C. Bannwarth and S. Grimme, J. Chem. Phys., 2017,
     147, 034112. DOI: 10.1063/1.4993215
   * E. Caldeweyher, S. Ehlert, A. Hansen, H. Neugebauer, S. Spicher,
     C. Bannwarth and S. Grimme, J. Chem. Phys., 2019, 150, 154122.
     DOI: 10.1063/1.5090222
   * E. Caldeweyher, J.-M. Mewes, S. Ehlert and S. Grimme, Phys. Chem. Chem. Phys.
     2020, 22, 8499-8512. DOI: 10.1039/D0CP00502A
   
   for sTDA-xTB:
   * S. Grimme and C. Bannwarth, J. Chem. Phys., 2016, 145, 054103.
     DOI: 10.1063/1.4959605
   
   in the mass-spec context:
   * V. Asgeirsson, C. Bauer and S. Grimme, Chem. Sci., 2017, 8, 4879.
     DOI: 10.1039/c7sc00601b
   * J. Koopman and S. Grimme, ACS Omega 2019, 4, 12, 15120-15133.
     DOI: 10.1021/acsomega.9b02011
   
   for metadynamics refer to:
   * S. Grimme, J. Chem. Theory Comput., 2019, 155, 2847-2862
     DOI: 10.1021/acs.jctc.9b00143
   
   for SPH calculations refer to:
   * S. Spicher and S. Grimme, J. Chem. Theory Comput., 2021, 17, 1701-1714
     DOI: 10.1021/acs.jctc.0c01306
   
   with help from (in alphabetical order)
   P. Atkinson, C. Bannwarth, F. Bohle, G. Brandenburg, E. Caldeweyher
   M. Checinski, S. Dohm, S. Ehlert, S. Ehrlich, I. Gerasimov, J. Koopman
   C. Lavigne, S. Lehtola, F. März, M. Müller, F. Musil, H. Neugebauer
   J. Pisarek, C. Plett, P. Pracht, J. Seibert, P. Shushkov, S. Spicher
   M. Stahn, M. Steiner, T. Strunk, J. Stückrath, T. Rose, and J. Unsleber
   
 * started run on 2025/01/21 at 11:29:01.680     

           -------------------------------------------------
          |                Calculation Setup                |
           -------------------------------------------------

          program call               : xtb tmpcoord --gfnff --sp
          hostname                   : node87
          coordinate file            : tmpcoord
          omp threads                :                    28
          number of atoms            :                    76
          number of electrons        :                   210
          charge                     :                     0
          spin                       :                   0.0
          first test random number   :      0.82035873445239

   ID    Z sym.   atoms
    1    6 c      1-3, 5-20, 22-27, 29-40, 42
    2    8 o      4, 21, 28, 41
    3    1 h      43-76
 
          ==================== Thresholds ====================
          CN  :   150.00000
          rep :   500.00000
          disp:  2500.00000
          HB1 :   250.00000
          HB2 :   450.00000
 
          Pauling EN used:
          Z : 1  EN :  2.20
          Z : 6  EN :  2.55
          Z : 8  EN :  3.44
          electric field strengths (au): 0.000
 
           ------------------------------------------------- 
          |           Force Field Initialization            |
           ------------------------------------------------- 
 
          distances ...
          ----------------------------------------
          generating topology and atomic info file ...
          pair mat ...
          computing topology distances matrix with Floyd-Warshall algo ...
          making topology EEQ charges ...
          #fragments for EEQ constrain: 1
          ----------------------------------------
          generating topology and atomic info file ...
          pair mat ...
          computing topology distances matrix with Floyd-Warshall algo ...
          making topology EEQ charges ...
          #fragments for EEQ constrain: 1
          rings ...
          # BATM   820
          # H in HB   20
          doing iterative Hueckel for 1 subsystem(s) ...
 
  atom   neighbors  erfCN metchar sp-hybrid imet pi  qest     coordinates
    1  c       4    3.49   0.00         3    0    0  -0.026  -16.635988    3.027499   -2.560632
    2  c       4    3.49   0.00         3    0    0   0.070  -13.892242    2.209471   -2.227477
    3  c       4    3.49   0.00         3    0    0  -0.026  -13.446552   -0.410556   -3.361222
    4  o       2    1.92   0.00         3    0    1  -0.366  -12.404061    4.066438   -3.476454
    5  c       3    2.82   0.00         2    0    1   0.110   -9.897874    4.277898   -2.993004
    6  c       3    2.82   0.00         2    0    1  -0.049   -8.619749    6.084549   -4.438940
    7  c       3    2.81   0.00         2    0    1  -0.000   -6.070665    6.487253   -4.096966
    8  c       3    2.82   0.00         2    0    1  -0.034   -4.727872    5.094005   -2.330767
    9  c       3    2.82   0.00         2    0    1   0.001   -5.975323    3.292541   -0.878015
   10  c       3    2.82   0.00         2    0    1  -0.020   -4.613215    1.767523    1.020795
   11  c       3    2.82   0.00         2    0    1  -0.027   -5.438166    1.677866    3.476939
   12  c       3    2.83   0.00         2    0    1  -0.019   -4.193075    0.219830    5.319463
   13  c       3    2.81   0.00         2    0    1  -0.031   -5.011176    0.148370    7.854749
   14  c       3    2.81   0.00         2    0    1  -0.012   -3.772610   -1.296300    9.599846
   15  c       3    2.81   0.00         2    0    1  -0.047   -1.659994   -2.732148    8.885034
   16  c       3    2.81   0.00         2    0    1  -0.028   -0.817420   -2.702296    6.444173
   17  c       3    2.83   0.00         2    0    1   0.011   -2.056705   -1.231089    4.597763
   18  c       3    2.82   0.00         2    0    1   0.003   -1.232248   -1.168359    2.052153
   19  c       3    2.82   0.00         2    0    1   0.003    0.948354   -2.733605    1.224993
   20  c       3    2.82   0.00         2    0    1   0.107    3.300876   -1.639078    0.990128
   21  o       2    1.92   0.00         3    0    1  -0.450    3.682881    0.838419    1.552578
   22  c       3    2.82   0.00         2    0    1  -0.020    5.420660   -3.102793    0.242552
   23  c       3    2.82   0.00         2    0    1   0.001    7.942689   -1.944768    0.041992
   24  c       3    2.82   0.00         2    0    1  -0.034   10.023161   -3.134710    1.137522
   25  c       3    2.81   0.00         2    0    1  -0.000   12.382707   -2.049790    0.934772
   26  c       3    2.81   0.00         2    0    1  -0.049   12.737105    0.200689   -0.358877
   27  c       3    2.82   0.00         2    0    1   0.110   10.684912    1.398024   -1.478131
   28  o       2    1.92   0.00         3    0    1  -0.366   10.689247    3.591436   -2.826260
   29  c       4    3.49   0.00         3    0    0   0.070   12.880250    5.040340   -3.374089
   30  c       4    3.49   0.00         3    0    0  -0.026   14.093924    6.220402   -1.029230
   31  c       4    3.49   0.00         3    0    0  -0.026   14.786467    3.652058   -5.047731
   32  c       3    2.82   0.00         2    0    1  -0.031    8.295469    0.300190   -1.252693
   33  c       3    2.82   0.00         2    0    1  -0.027    5.088141   -5.625515   -0.251141
   34  c       3    2.83   0.00         2    0    1  -0.019    2.708168   -6.798585   -0.060006
   35  c       3    2.81   0.00         2    0    1  -0.031    2.363875   -9.387553   -0.585581
   36  c       3    2.81   0.00         2    0    1  -0.012    0.034191  -10.482691   -0.374703
   37  c       3    2.81   0.00         2    0    1  -0.047   -2.054816   -9.030633    0.370135
   38  c       3    2.81   0.00         2    0    1  -0.028   -1.784293   -6.514699    0.890694
   39  c       3    2.83   0.00         2    0    1   0.011    0.595133   -5.331225    0.692122
   40  c       3    2.82   0.00         2    0    1   0.107   -2.471122    0.322720    0.302974
   41  o       2    1.92   0.00         3    0    1  -0.450   -1.614622    0.307853   -2.120334
   42  c       3    2.82   0.00         2    0    1  -0.031   -8.555568    2.894734   -1.210510
   43  h       1    0.97   0.00         0    0    0   0.024  -17.095585    3.111426   -4.560233
   44  h       1    0.97   0.00         0    0    0   0.024  -17.887489    1.689819   -1.634911
   45  h       1    0.97   0.00         0    0    0   0.024  -16.921116    4.891132   -1.746685
   46  h       1    0.97   0.01         0    0    0   0.046  -13.433930    2.194910   -0.200215
   47  h       1    0.97   0.00         0    0    0   0.024  -11.468503   -0.949475   -3.221461
   48  h       1    0.97   0.00         0    0    0   0.024  -14.584045   -1.804535   -2.371784
   49  h       1    0.97   0.00         0    0    0   0.024  -13.975972   -0.401505   -5.346743
   50  h       1    0.97   0.00         0    0    0   0.048   -9.685274    7.149555   -5.810759
   51  h       1    0.97   0.00         0    0    0   0.027   -5.110821    7.899822   -5.213300
   52  h       1    0.97   0.00         0    0    0   0.058   -2.741029    5.463439   -2.034603
   53  h       1    0.97   0.00         0    0    0   0.058   -7.067499    2.780603    4.025663
   54  h       1    0.97   0.00         0    0    0   0.056   -6.637887    1.262460    8.388343
   55  h       1    0.97   0.00         0    0    0   0.038   -4.408123   -1.342586   11.538917
   56  h       1    0.97   0.00         0    0    0   0.054   -0.699666   -3.864464   10.285417
   57  h       1    0.97   0.00         0    0    0   0.037    0.808044   -3.805496    5.891164
   58  h       1    0.97   0.00         0    0    0   0.236    2.087969    1.578695    2.050408
   59  h       1    0.97   0.00         0    0    0   0.058    9.771991   -4.875940    2.170857
   60  h       1    0.97   0.00         0    0    0   0.027   13.996458   -2.957136    1.797621
   61  h       1    0.97   0.00         0    0    0   0.048   14.617328    0.972170   -0.457711
   62  h       1    0.97   0.01         0    0    0   0.046   12.067727    6.585397   -4.500707
   63  h       1    0.97   0.00         0    0    0   0.024   15.387546    7.706303   -1.611284
   64  h       1    0.97   0.00         0    0    0   0.024   15.137912    4.847783    0.081765
   65  h       1    0.97   0.00         0    0    0   0.024   12.633353    7.042435    0.160047
   66  h       1    0.97   0.00         0    0    0   0.024   16.131397    5.005638   -5.808386
   67  h       1    0.97   0.00         0    0    0   0.024   13.801750    2.748660   -6.609253
   68  h       1    0.97   0.00         0    0    0   0.024   15.823340    2.213338   -4.016755
   69  h       1    0.97   0.00         0    0    0   0.063    6.721807    1.247330   -2.132474
   70  h       1    0.97   0.00         0    0    0   0.058    6.689844   -6.748513   -0.837380
   71  h       1    0.97   0.00         0    0    0   0.056    3.983912  -10.490912   -1.160678
   72  h       1    0.97   0.00         0    0    0   0.038   -0.215989  -12.467892   -0.780270
   73  h       1    0.97   0.00         0    0    0   0.054   -3.886544   -9.919046    0.528993
   74  h       1    0.97   0.00         0    0    0   0.037   -3.396805   -5.400887    1.463377
   75  h       1    0.97   0.00         0    0    0   0.236   -2.696032    1.356333   -3.157351
   76  h       1    0.97   0.00         0    0    0   0.063   -9.460358    1.477420   -0.057395
 
          #atoms :   76
          #bonds :   81
          #angl  :   136
          #tors  :   230
          #nmol  :   1
          #optfrag :   1
           ------------------------------------------------- 
          |                   G F N - F F                   |
          |          A general generic force-field          |
          |                  Version 1.0.3                  | 
           ------------------------------------------------- 
          nhb123   4399 452 0

 E+G (total)                   0 d,  0 h,  0 min,  0.004 sec
 distance/D3 list               ...        0 min,  0.000 sec (  0.718%)
 non bonded repulsion           ...        0 min,  0.000 sec (  6.435%)
 dCN                            ...        0 min,  0.000 sec (  5.388%)
 EEQ energy and q               ...        0 min,  0.000 sec ( 11.744%)
 D3                             ...        0 min,  0.001 sec ( 13.151%)
 EEQ gradient                   ...        0 min,  0.000 sec (  8.560%)
 bonds                          ...        0 min,  0.000 sec ( 12.030%)
 bend and torsion               ...        0 min,  0.000 sec ( 12.207%)
 bonded ATM                     ...        0 min,  0.000 sec (  1.382%)
 HB/XB (incl list setup)        ...        0 min,  0.001 sec ( 23.008%)

         :::::::::::::::::::::::::::::::::::::::::::::::::::::
         ::                     SUMMARY                     ::
         :::::::::::::::::::::::::::::::::::::::::::::::::::::
         :: total energy             -14.968242448291 Eh    ::
         :: gradient norm              0.079509360332 Eh/a0 ::
         ::.................................................::
         :: bond energy              -15.759035101602 Eh    ::
         :: angle energy               0.026657339133 Eh    ::
         :: torsion energy             0.019500914002 Eh    ::
         :: repulsion energy           1.061893942343 Eh    ::
         :: electrostat energy        -0.229575389850 Eh    ::
         :: dispersion energy         -0.074474958724 Eh    ::
         :: HB energy                 -0.001333919908 Eh    ::
         :: XB energy                  0.000000000000 Eh    ::
         :: bonded atm energy         -0.011875273686 Eh    ::
         :: external energy            0.000000000000 Eh    ::
         :: add. restraining           0.000000000000 Eh    ::
         :: total charge              -0.000000000000 e     ::
         :::::::::::::::::::::::::::::::::::::::::::::::::::::

           -------------------------------------------------
          |                Property Printout                |
           -------------------------------------------------

           -------------------------------------------------
          | TOTAL ENERGY              -14.968242448291 Eh   |
          | GRADIENT NORM               0.079509360332 Eh/α |
           -------------------------------------------------

------------------------------------------------------------------------
 * finished run on 2025/01/21 at 11:29:01.735     
------------------------------------------------------------------------
 total:
 * wall-time:     0 d,  0 h,  0 min,  0.055 sec
 *  cpu-time:     0 d,  0 h,  0 min,  1.006 sec
 * ratio c/w:    18.413 speedup
 SCF:
 * wall-time:     0 d,  0 h,  0 min,  0.007 sec
 *  cpu-time:     0 d,  0 h,  0 min,  0.162 sec
 * ratio c/w:    24.295 speedup

 Calculating NCI flexibility... done.
     covalent flexibility measure :   0.182
 non-covalent flexibility measure :   1.000
 flexibility measure :   0.304
 t(MTD) / ps set by command line  :     0.5
 t(MTD) / ps    :     0.5
 Σ(t(MTD)) / ps :     7.0 (14 MTDs)
 
-------------------------------------
Starting a trial MTD to test settings
-------------------------------------
 Estimated runtime for one MTD (0.5 ps) on a single thread: 2 min 53 sec
 Estimated runtime for a batch of 14 MTDs on 28 threads: 1 min 27 sec
 
 list of Vbias parameters applied:
$metadyn    0.00300   1.300
$metadyn    0.00150   1.300
$metadyn    0.00075   1.300
$metadyn    0.00300   0.780
$metadyn    0.00150   0.780
$metadyn    0.00075   0.780
$metadyn    0.00300   0.468
$metadyn    0.00150   0.468
$metadyn    0.00075   0.468
$metadyn    0.00300   0.281
$metadyn    0.00150   0.281
$metadyn    0.00075   0.281
$metadyn    0.00100   0.100
$metadyn    0.00500   0.800
 
*******************************************************************************************
**                        N E W    I T E R A T I O N    C Y C L E                        **
*******************************************************************************************
 
========================================
            MTD Iteration  1
========================================
 
     ========================================
     |         Meta-MD (MTD) Sampling       |
     ========================================
 
Starting Meta-MD   1 with the settings:
     MD time /ps        :     0.5
     dt /fs             :     1.5
     dumpstep(trj) /fs  :     100
     dumpstep(Vbias)/ps :     1.0
     Vbias factor k /Eh :  0.2280
     Vbias exp α /bohr⁻²:    1.30
Starting Meta-MD   4 with the settings:
     MD time /ps        :     0.5
     dt /fs             :     1.5
     dumpstep(trj) /fs  :     100
     dumpstep(Vbias)/ps :     1.0
     Vbias factor k /Eh :  0.2280
     Vbias exp α /bohr⁻²:    0.78
Starting Meta-MD   5 with the settings:
     MD time /ps        :     0.5
     dt /fs             :     1.5
     dumpstep(trj) /fs  :     100
     dumpstep(Vbias)/ps :     1.0
     Vbias factor k /Eh :  0.1140
     Vbias exp α /bohr⁻²:    0.78
Starting Meta-MD   6 with the settings:
     MD time /ps        :     0.5
     dt /fs             :     1.5
     dumpstep(trj) /fs  :     100
     dumpstep(Vbias)/ps :     1.0
     Vbias factor k /Eh :  0.0570
     Vbias exp α /bohr⁻²:    0.78
Starting Meta-MD   2 with the settings:
     MD time /ps        :     0.5
     dt /fs             :     1.5
     dumpstep(trj) /fs  :     100
     dumpstep(Vbias)/ps :     1.0
     Vbias factor k /Eh :  0.1140
     Vbias exp α /bohr⁻²:    1.30
Starting Meta-MD   7 with the settings:
     MD time /ps        :     0.5
     dt /fs             :     1.5
     dumpstep(trj) /fs  :     100
     dumpstep(Vbias)/ps :     1.0
     Vbias factor k /Eh :  0.2280
     Vbias exp α /bohr⁻²:    0.47
Starting Meta-MD   3 with the settings:
     MD time /ps        :     0.5
     dt /fs             :     1.5
     dumpstep(trj) /fs  :     100
     dumpstep(Vbias)/ps :     1.0
     Vbias factor k /Eh :  0.0570
     Vbias exp α /bohr⁻²:    1.30
Starting Meta-MD   8 with the settings:
     MD time /ps        :     0.5
     dt /fs             :     1.5
     dumpstep(trj) /fs  :     100
     dumpstep(Vbias)/ps :     1.0
     Vbias factor k /Eh :  0.1140
     Vbias exp α /bohr⁻²:    0.47
Starting Meta-MD  14 with the settings:
     MD time /ps        :     0.5
     dt /fs             :     1.5
     dumpstep(trj) /fs  :     100
     dumpstep(Vbias)/ps :     1.0
     Vbias factor k /Eh :  0.3800
     Vbias exp α /bohr⁻²:    0.80
Starting Meta-MD   9 with the settings:
     MD time /ps        :     0.5
     dt /fs             :     1.5
     dumpstep(trj) /fs  :     100
     dumpstep(Vbias)/ps :     1.0
     Vbias factor k /Eh :  0.0570
     Vbias exp α /bohr⁻²:    0.47
Starting Meta-MD  10 with the settings:
     MD time /ps        :     0.5
     dt /fs             :     1.5
     dumpstep(trj) /fs  :     100
     dumpstep(Vbias)/ps :     1.0
     Vbias factor k /Eh :  0.2280
     Vbias exp α /bohr⁻²:    0.28
Starting Meta-MD  11 with the settings:
     MD time /ps        :     0.5
     dt /fs             :     1.5
     dumpstep(trj) /fs  :     100
     dumpstep(Vbias)/ps :     1.0
     Vbias factor k /Eh :  0.1140
     Vbias exp α /bohr⁻²:    0.28
Starting Meta-MD  12 with the settings:
     MD time /ps        :     0.5
     dt /fs             :     1.5
     dumpstep(trj) /fs  :     100
     dumpstep(Vbias)/ps :     1.0
     Vbias factor k /Eh :  0.0570
     Vbias exp α /bohr⁻²:    0.28
Starting Meta-MD  13 with the settings:
     MD time /ps        :     0.5
     dt /fs             :     1.5
     dumpstep(trj) /fs  :     100
     dumpstep(Vbias)/ps :     1.0
     Vbias factor k /Eh :  0.0760
     Vbias exp α /bohr⁻²:    0.10
*Meta-MTD 4 finished*
*Meta-MTD 9 finished*
*Meta-MTD 11 finished*
*Meta-MTD 3 finished*
*Meta-MTD 8 finished*
*Meta-MTD 10 finished*
*Meta-MTD 12 finished*
*Meta-MTD 2 finished*
*Meta-MTD 5 finished*
*Meta-MTD 13 finished*
*Meta-MTD 6 finished*
*Meta-MTD 1 finished*
*Meta-MTD 7 finished*
*Meta-MTD 14 finished*
 
-----------------------
Multilevel Optimization
-----------------------
 
 -------------------------
 1. crude pre-optimization
 -------------------------
 Optimizing all 70 structures from file "crest_rotamers_0.xyz" ...
 1 2 3 4 5 6 7 8 9 10 11 12 13 14 15 16 17 18 19 20 21 22 23 24 25 26 27 28 29 30 31 32 33 34 35 36 37 38 39 40 41 42 43 44 45 46 47 48 49 50 51 52 53 54 55 56 57 58 59 60 61 62 63 64 65 66 67 68 69 70
 done.
 running RMSDs...
 done.
 E lowest :  -115.01224
 66 structures remain within    12.00 kcal/mol window
 
 -------------------------------------
 2. optimization with tight thresholds
 -------------------------------------
 Optimizing all 67 structures from file "crest_rotamers_1.xyz" ...
 1 2 3 4 5 6 7 8 9 10 11 12 13 14 15 16 17 18 19 20 21 22 23 24 25 26 27 28 29 30 31 32 33 34 35 36 37 38 39 40 41 42 43 44 45 46 47 48 49 50 51 52 53 54 55 56 57 58 59 60 61 62 63 64 65 66 67
 done.
 running RMSDs...
 done.
 E lowest :  -115.01563
 46 structures remain within     6.00 kcal/mol window
 
 
========================================
            MTD Iteration  2
========================================
 
     ========================================
     |         Meta-MD (MTD) Sampling       |
     ========================================
 
Starting Meta-MD   1 with the settings:
     MD time /ps        :     0.5
     dt /fs             :     1.5
     dumpstep(trj) /fs  :     100
     dumpstep(Vbias)/ps :     1.0
     Vbias factor k /Eh :  0.2280
     Vbias exp α /bohr⁻²:    1.30
Starting Meta-MD   2 with the settings:
     MD time /ps        :     0.5
     dt /fs             :     1.5
     dumpstep(trj) /fs  :     100
     dumpstep(Vbias)/ps :     1.0
     Vbias factor k /Eh :  0.1140
     Vbias exp α /bohr⁻²:    1.30
Starting Meta-MD   3 with the settings:
     MD time /ps        :     0.5
     dt /fs             :     1.5
     dumpstep(trj) /fs  :     100
     dumpstep(Vbias)/ps :     1.0
     Vbias factor k /Eh :  0.0570
     Vbias exp α /bohr⁻²:    1.30
Starting Meta-MD   4 with the settings:
     MD time /ps        :     0.5
     dt /fs             :     1.5
     dumpstep(trj) /fs  :     100
     dumpstep(Vbias)/ps :     1.0
     Vbias factor k /Eh :  0.2280
     Vbias exp α /bohr⁻²:    0.78
Starting Meta-MD   5 with the settings:
     MD time /ps        :     0.5
     dt /fs             :     1.5
     dumpstep(trj) /fs  :     100
     dumpstep(Vbias)/ps :     1.0
     Vbias factor k /Eh :  0.1140
     Vbias exp α /bohr⁻²:    0.78
Starting Meta-MD   6 with the settings:
     MD time /ps        :     0.5
     dt /fs             :     1.5
     dumpstep(trj) /fs  :     100
     dumpstep(Vbias)/ps :     1.0
     Vbias factor k /Eh :  0.0570
     Vbias exp α /bohr⁻²:    0.78
Starting Meta-MD   7 with the settings:
     MD time /ps        :     0.5
     dt /fs             :     1.5
     dumpstep(trj) /fs  :     100
     dumpstep(Vbias)/ps :     1.0
     Vbias factor k /Eh :  0.2280
     Vbias exp α /bohr⁻²:    0.47
Starting Meta-MD   8 with the settings:
     MD time /ps        :     0.5
     dt /fs             :     1.5
     dumpstep(trj) /fs  :     100
     dumpstep(Vbias)/ps :     1.0
     Vbias factor k /Eh :  0.1140
     Vbias exp α /bohr⁻²:    0.47
Starting Meta-MD   9 with the settings:
     MD time /ps        :     0.5
     dt /fs             :     1.5
     dumpstep(trj) /fs  :     100
     dumpstep(Vbias)/ps :     1.0
     Vbias factor k /Eh :  0.0570
     Vbias exp α /bohr⁻²:    0.47
Starting Meta-MD  10 with the settings:
     MD time /ps        :     0.5
     dt /fs             :     1.5
     dumpstep(trj) /fs  :     100
     dumpstep(Vbias)/ps :     1.0
     Vbias factor k /Eh :  0.2280
     Vbias exp α /bohr⁻²:    0.28
Starting Meta-MD  12 with the settings:
     MD time /ps        :     0.5
     dt /fs             :     1.5
     dumpstep(trj) /fs  :     100
     dumpstep(Vbias)/ps :     1.0
     Vbias factor k /Eh :  0.0570
     Vbias exp α /bohr⁻²:    0.28
Starting Meta-MD  11 with the settings:
     MD time /ps        :     0.5
     dt /fs             :     1.5
     dumpstep(trj) /fs  :     100
     dumpstep(Vbias)/ps :     1.0
     Vbias factor k /Eh :  0.1140
     Vbias exp α /bohr⁻²:    0.28
*Meta-MTD 5 finished*
*Meta-MTD 8 finished*
*Meta-MTD 6 finished*
*Meta-MTD 9 finished*
*Meta-MTD 12 finished*
*Meta-MTD 4 finished*
*Meta-MTD 7 finished*
*Meta-MTD 3 finished*
*Meta-MTD 11 finished*
*Meta-MTD 10 finished*
*Meta-MTD 1 finished*
*Meta-MTD 2 finished*
 
-----------------------
Multilevel Optimization
-----------------------
 
 -------------------------
 1. crude pre-optimization
 -------------------------
 Optimizing all 60 structures from file "crest_rotamers_0.xyz" ...
 1 2 3 4 5 6 7 8 9 10 11 12 13 14 15 16 17 18 19 20 21 22 23 24 25 26 27 28 29 30 31 32 33 34 35 36 37 38 39 40 41 42 43 44 45 46 47 48 49 50 51 52 53 54 55 56 57 58 59 60
 done.
 running RMSDs...
 done.
 E lowest :  -115.01478
 56 structures remain within    12.00 kcal/mol window
 
 -------------------------------------
 2. optimization with tight thresholds
 -------------------------------------
 Optimizing all 57 structures from file "crest_rotamers_1.xyz" ...
 1 2 3 4 5 6 7 8 9 10 11 12 13 14 15 16 17 18 19 20 21 22 23 24 25 26 27 28 29 30 31 32 33 34 35 36 37 38 39 40 41 42 43 44 45 46 47 48 49 50 51 52 53 54 55 56 57
 done.
 running RMSDs...
 done.
 E lowest :  -115.01574
 34 structures remain within     6.00 kcal/mol window
 
 ...............................................
 A new lower conformer was found!
 Improved by    0.00010 Eh or    0.06418kcal/mol
 ...............................................
 
========================================
            MTD Iteration  3
========================================
 
     ========================================
     |         Meta-MD (MTD) Sampling       |
     ========================================
 
Starting Meta-MD   1 with the settings:
     MD time /ps        :     0.5
     dt /fs             :     1.5
     dumpstep(trj) /fs  :     100
     dumpstep(Vbias)/ps :     1.0
     Vbias factor k /Eh :  0.2280
     Vbias exp α /bohr⁻²:    1.30
Starting Meta-MD   3 with the settings:
     MD time /ps        :     0.5
     dt /fs             :     1.5
     dumpstep(trj) /fs  :     100
     dumpstep(Vbias)/ps :     1.0
     Vbias factor k /Eh :  0.0570
     Vbias exp α /bohr⁻²:    1.30
Starting Meta-MD   2 with the settings:
     MD time /ps        :     0.5
     dt /fs             :     1.5
     dumpstep(trj) /fs  :     100
     dumpstep(Vbias)/ps :     1.0
     Vbias factor k /Eh :  0.1140
     Vbias exp α /bohr⁻²:    1.30
Starting Meta-MD   4 with the settings:
     MD time /ps        :     0.5
     dt /fs             :     1.5
     dumpstep(trj) /fs  :     100
     dumpstep(Vbias)/ps :     1.0
     Vbias factor k /Eh :  0.2280
     Vbias exp α /bohr⁻²:    0.78
Starting Meta-MD   5 with the settings:
     MD time /ps        :     0.5
     dt /fs             :     1.5
     dumpstep(trj) /fs  :     100
     dumpstep(Vbias)/ps :     1.0
     Vbias factor k /Eh :  0.1140
     Vbias exp α /bohr⁻²:    0.78
Starting Meta-MD   6 with the settings:
     MD time /ps        :     0.5
     dt /fs             :     1.5
     dumpstep(trj) /fs  :     100
     dumpstep(Vbias)/ps :     1.0
     Vbias factor k /Eh :  0.0570
     Vbias exp α /bohr⁻²:    0.78
Starting Meta-MD   7 with the settings:
     MD time /ps        :     0.5
     dt /fs             :     1.5
     dumpstep(trj) /fs  :     100
     dumpstep(Vbias)/ps :     1.0
     Vbias factor k /Eh :  0.2280
     Vbias exp α /bohr⁻²:    0.47
Starting Meta-MD   8 with the settings:
     MD time /ps        :     0.5
     dt /fs             :     1.5
     dumpstep(trj) /fs  :     100
     dumpstep(Vbias)/ps :     1.0
     Vbias factor k /Eh :  0.1140
     Vbias exp α /bohr⁻²:    0.47
Starting Meta-MD   9 with the settings:
     MD time /ps        :     0.5
     dt /fs             :     1.5
     dumpstep(trj) /fs  :     100
     dumpstep(Vbias)/ps :     1.0
     Vbias factor k /Eh :  0.0570
     Vbias exp α /bohr⁻²:    0.47
Starting Meta-MD  12 with the settings:
     MD time /ps        :     0.5
     dt /fs             :     1.5
     dumpstep(trj) /fs  :     100
     dumpstep(Vbias)/ps :     1.0
     Vbias factor k /Eh :  0.0570
     Vbias exp α /bohr⁻²:    0.28
Starting Meta-MD  10 with the settings:
     MD time /ps        :     0.5
     dt /fs             :     1.5
     dumpstep(trj) /fs  :     100
     dumpstep(Vbias)/ps :     1.0
     Vbias factor k /Eh :  0.2280
     Vbias exp α /bohr⁻²:    0.28
Starting Meta-MD  11 with the settings:
     MD time /ps        :     0.5
     dt /fs             :     1.5
     dumpstep(trj) /fs  :     100
     dumpstep(Vbias)/ps :     1.0
     Vbias factor k /Eh :  0.1140
     Vbias exp α /bohr⁻²:    0.28
*Meta-MTD 2 finished*
*Meta-MTD 6 finished*
*Meta-MTD 4 finished*
*Meta-MTD 8 finished*
*Meta-MTD 10 finished*
*Meta-MTD 9 finished*
*Meta-MTD 12 finished*
*Meta-MTD 11 finished*
*Meta-MTD 5 finished*
*Meta-MTD 7 finished*
*Meta-MTD 3 finished*
*Meta-MTD 1 finished*
 
-----------------------
Multilevel Optimization
-----------------------
 
 -------------------------
 1. crude pre-optimization
 -------------------------
 Optimizing all 60 structures from file "crest_rotamers_0.xyz" ...
 1 2 3 4 5 6 7 8 9 10 11 12 13 14 15 16 17 18 19 20 21 22 23 24 25 26 27 28 29 30 31 32 33 34 35 36 37 38 39 40 41 42 43 44 45 46 47 48 49 50 51 52 53 54 55 56 57 58 59 60
 done.
 running RMSDs...
 done.
 E lowest :  -115.01512
 54 structures remain within    12.00 kcal/mol window
 
 -------------------------------------
 2. optimization with tight thresholds
 -------------------------------------
 Optimizing all 55 structures from file "crest_rotamers_1.xyz" ...
 1 2 3 4 5 6 7 8 9 10 11 12 13 14 15 16 17 18 19 20 21 22 23 24 25 26 27 28 29 30 31 32 33 34 35 36 37 38 39 40 41 42 43 44 45 46 47 48 49 50 51 52 53 54 55
 done.
 running RMSDs...
 done.
 E lowest :  -115.01583
 28 structures remain within     6.00 kcal/mol window
 
 ...............................................
 A new lower conformer was found!
 Improved by    0.00009 Eh or    0.05681kcal/mol
 ...............................................
 
========================================
            MTD Iteration  4
========================================
 
     ========================================
     |         Meta-MD (MTD) Sampling       |
     ========================================
 
Starting Meta-MD   1 with the settings:
     MD time /ps        :     0.5
     dt /fs             :     1.5
     dumpstep(trj) /fs  :     100
     dumpstep(Vbias)/ps :     1.0
     Vbias factor k /Eh :  0.2280
     Vbias exp α /bohr⁻²:    1.30
Starting Meta-MD   2 with the settings:
     MD time /ps        :     0.5
     dt /fs             :     1.5
     dumpstep(trj) /fs  :     100
     dumpstep(Vbias)/ps :     1.0
     Vbias factor k /Eh :  0.1140
     Vbias exp α /bohr⁻²:    1.30
Starting Meta-MD   3 with the settings:
     MD time /ps        :     0.5
     dt /fs             :     1.5
     dumpstep(trj) /fs  :     100
     dumpstep(Vbias)/ps :     1.0
     Vbias factor k /Eh :  0.0570
     Vbias exp α /bohr⁻²:    1.30
Starting Meta-MD   4 with the settings:
     MD time /ps        :     0.5
     dt /fs             :     1.5
     dumpstep(trj) /fs  :     100
     dumpstep(Vbias)/ps :     1.0
     Vbias factor k /Eh :  0.2280
     Vbias exp α /bohr⁻²:    0.78
Starting Meta-MD   5 with the settings:
     MD time /ps        :     0.5
     dt /fs             :     1.5
     dumpstep(trj) /fs  :     100
     dumpstep(Vbias)/ps :     1.0
     Vbias factor k /Eh :  0.1140
     Vbias exp α /bohr⁻²:    0.78
Starting Meta-MD   6 with the settings:
     MD time /ps        :     0.5
     dt /fs             :     1.5
     dumpstep(trj) /fs  :     100
     dumpstep(Vbias)/ps :     1.0
     Vbias factor k /Eh :  0.0570
     Vbias exp α /bohr⁻²:    0.78
Starting Meta-MD   7 with the settings:
     MD time /ps        :     0.5
     dt /fs             :     1.5
     dumpstep(trj) /fs  :     100
     dumpstep(Vbias)/ps :     1.0
     Vbias factor k /Eh :  0.2280
     Vbias exp α /bohr⁻²:    0.47
Starting Meta-MD   8 with the settings:
     MD time /ps        :     0.5
     dt /fs             :     1.5
     dumpstep(trj) /fs  :     100
     dumpstep(Vbias)/ps :     1.0
     Vbias factor k /Eh :  0.1140
     Vbias exp α /bohr⁻²:    0.47
Starting Meta-MD   9 with the settings:
     MD time /ps        :     0.5
     dt /fs             :     1.5
     dumpstep(trj) /fs  :     100
     dumpstep(Vbias)/ps :     1.0
     Vbias factor k /Eh :  0.0570
     Vbias exp α /bohr⁻²:    0.47
Starting Meta-MD  10 with the settings:
     MD time /ps        :     0.5
     dt /fs             :     1.5
     dumpstep(trj) /fs  :     100
     dumpstep(Vbias)/ps :     1.0
     Vbias factor k /Eh :  0.2280
     Vbias exp α /bohr⁻²:    0.28
Starting Meta-MD  12 with the settings:
     MD time /ps        :     0.5
     dt /fs             :     1.5
     dumpstep(trj) /fs  :     100
     dumpstep(Vbias)/ps :     1.0
     Vbias factor k /Eh :  0.0570
     Vbias exp α /bohr⁻²:    0.28
Starting Meta-MD  11 with the settings:
     MD time /ps        :     0.5
     dt /fs             :     1.5
     dumpstep(trj) /fs  :     100
     dumpstep(Vbias)/ps :     1.0
     Vbias factor k /Eh :  0.1140
     Vbias exp α /bohr⁻²:    0.28
*Meta-MTD 7 finished*
*Meta-MTD 5 finished*
*Meta-MTD 4 finished*
*Meta-MTD 12 finished*
*Meta-MTD 6 finished*
*Meta-MTD 1 finished*
*Meta-MTD 9 finished*
*Meta-MTD 10 finished*
*Meta-MTD 11 finished*
*Meta-MTD 3 finished*
*Meta-MTD 8 finished*
*Meta-MTD 2 finished*
 
-----------------------
Multilevel Optimization
-----------------------
 
 -------------------------
 1. crude pre-optimization
 -------------------------
 Optimizing all 60 structures from file "crest_rotamers_0.xyz" ...
 1 2 3 4 5 6 7 8 9 10 11 12 13 14 15 16 17 18 19 20 21 22 23 24 25 26 27 28 29 30 31 32 33 34 35 36 37 38 39 40 41 42 43 44 45 46 47 48 49 50 51 52 53 54 55 56 57 58 59 60
 done.
 running RMSDs...
 done.
 E lowest :  -115.01483
 56 structures remain within    12.00 kcal/mol window
 
 -------------------------------------
 2. optimization with tight thresholds
 -------------------------------------
 Optimizing all 57 structures from file "crest_rotamers_1.xyz" ...
 1 2 3 4 5 6 7 8 9 10 11 12 13 14 15 16 17 18 19 20 21 22 23 24 25 26 27 28 29 30 31 32 33 34 35 36 37 38 39 40 41 42 43 44 45 46 47 48 49 50 51 52 53 54 55 56 57
 done.
 running RMSDs...
 done.
 E lowest :  -115.01583
 31 structures remain within     6.00 kcal/mol window
 
========================================
            MTD Iterations done         
========================================
 Collecting ensmbles.
 running RMSDs...
 done.
 E lowest :  -115.01583
 133 structures remain within     6.00 kcal/mol window
 
 -------------------------------
 Additional orientation sampling
 -------------------------------
 Optimizing all 198 structures from file "oh_ensemble.xyz" ...
 1 2 3 4 5 6 7 8 9 10 11 12 13 14 15 16 17 18 19 20 21 22 23 24 25 26 27 28 29 30 31 32 33 34 35 36 37 38 39 40 41 42 43 44 45 46 47 48 49 50 51 52 53 54 55 56 57 58 59 60 61 62 63 64 65 66 67 68 69 70 71 72 73 74 75 76 77 78 79 80 81 82 83 84 85 86 87 88 89 90 91 92 93 94 95 96 97 98 99 100 101 102 103 104 105 106 107 108 109 110 111 112 113 114 115 116 117 118 119 120 121 122 123 124 125 126 127 128 129 130 131 132 133 134 135 136 137 138 139 140 141 142 143 144 145 146 147 148 149 150 151 152 153 154 155 156 157 158 159 160 161 162 163 164 165 166 167 168 169 170 171 172 173 174 175 176 177 178 179 180 181 182 183 184 185 186 187 188 189 190 191 192 193 194 195 196 197 198
 done.
 running RMSDs...
 done.
 E lowest :  -115.01667
 301 structures remain within     6.00 kcal/mol window
 
-----------------------------------------------
Additional regular MDs on lowest 4 conformer(s)
-----------------------------------------------
Starting MD   1 with the settings:
     MD time /ps        :     0.2
     MD Temperature /K  :   400.0
     dt /fs             :     1.5
     dumpstep(trj) /fs  :     100
Starting MD   2 with the settings:
     MD time /ps        :     0.2
     MD Temperature /K  :   500.0
     dt /fs             :     1.5
     dumpstep(trj) /fs  :     100
Starting MD   3 with the settings:
     MD time /ps        :     0.2
     MD Temperature /K  :   400.0
     dt /fs             :     1.5
     dumpstep(trj) /fs  :     100
Starting MD   4 with the settings:
     MD time /ps        :     0.2
     MD Temperature /K  :   500.0
     dt /fs             :     1.5
     dumpstep(trj) /fs  :     100
Starting MD   5 with the settings:
     MD time /ps        :     0.2
     MD Temperature /K  :   400.0
     dt /fs             :     1.5
     dumpstep(trj) /fs  :     100
Starting MD   6 with the settings:
     MD time /ps        :     0.2
     MD Temperature /K  :   500.0
     dt /fs             :     1.5
     dumpstep(trj) /fs  :     100
Starting MD   8 with the settings:
     MD time /ps        :     0.2
     MD Temperature /K  :   500.0
     dt /fs             :     1.5
     dumpstep(trj) /fs  :     100
Starting MD   7 with the settings:
     MD time /ps        :     0.2
     MD Temperature /K  :   400.0
     dt /fs             :     1.5
     dumpstep(trj) /fs  :     100
*MD 1 finished*
*MD 3 finished*
*MD 7 finished*
*MD 2 finished*
*MD 8 finished*
*MD 6 finished*
*MD 4 finished*
*MD 5 finished*
 Appending file crest_rotamers_2.xyz with new structures
 
 -------------------------------------------
 Ensemble optimization with tight thresholds
 -------------------------------------------
 Optimizing all 317 structures from file "crest_rotamers_2.xyz" ...
 1 2 3 4 5 6 7 8 9 10 11 12 13 14 15 16 17 18 19 20 21 22 23 24 25 26 27 28 29 30 31 32 33 34 35 36 37 38 39 40 41 42 43 44 45 46 47 48 49 50 51 52 53 54 55 56 57 58 59 60 61 62 63 64 65 66 67 68 69 70 71 72 73 74 75 76 77 78 79 80 81 82 83 84 85 86 87 88 89 90 91 92 93 94 95 96 97 98 99 100 101 102 103 104 105 106 107 108 109 110 111 112 113 114 115 116 117 118 119 120 121 122 123 124 125 126 127 128 129 130 131 132 133 134 135 136 137 138 139 140 141 142 143 144 145 146 147 148 149 150 151 152 153 154 155 156 157 158 159 160 161 162 163 164 165 166 167 168 169 170 171 172 173 174 175 176 177 178 179 180 181 182 183 184 185 186 187 188 189 190 191 192 193 194 195 196 197 198 199 200 201 202 203 204 205 206 207 208 209 210 211 212 213 214 215 216 217 218 219 220 221 222 223 224 225 226 227 228 229 230 231 232 233 234 235 236 237 238 239 240 241 242 243 244 245 246 247 248 249 250 251 252 253 254 255 256 257 258 259 260 261 262 263 264 265 266 267 268 269 270 271 272 273 274 275 276 277 278 279 280 281 282 283 284 285 286 287 288 289 290 291 292 293 294 295 296 297 298 299 300 301 302 303 304 305 306 307 308 309 310 311 312 313 314 315 316 317
 done.
 running RMSDs...
 done.
 E lowest :  -115.01692
 309 structures remain within     6.00 kcal/mol window
 
 ...............................................
 A new lower conformer was found!
 Improved by    0.00110 Eh or    0.68834kcal/mol
 ...............................................
 
*******************************************************************************************
**                        N E W    I T E R A T I O N    C Y C L E                        **
*******************************************************************************************
 
========================================
            MTD Iteration  1
========================================
 
     ========================================
     |         Meta-MD (MTD) Sampling       |
     ========================================
 
Starting Meta-MD   1 with the settings:
     MD time /ps        :     0.5
     dt /fs             :     1.5
     dumpstep(trj) /fs  :     100
     dumpstep(Vbias)/ps :     1.0
     Vbias factor k /Eh :  0.2280
     Vbias exp α /bohr⁻²:    1.30
Starting Meta-MD   2 with the settings:
     MD time /ps        :     0.5
     dt /fs             :     1.5
     dumpstep(trj) /fs  :     100
     dumpstep(Vbias)/ps :     1.0
     Vbias factor k /Eh :  0.1140
     Vbias exp α /bohr⁻²:    1.30
Starting Meta-MD   3 with the settings:
     MD time /ps        :     0.5
     dt /fs             :     1.5
     dumpstep(trj) /fs  :     100
     dumpstep(Vbias)/ps :     1.0
     Vbias factor k /Eh :  0.0570
     Vbias exp α /bohr⁻²:    1.30
Starting Meta-MD   4 with the settings:
     MD time /ps        :     0.5
     dt /fs             :     1.5
     dumpstep(trj) /fs  :     100
     dumpstep(Vbias)/ps :     1.0
     Vbias factor k /Eh :  0.2280
     Vbias exp α /bohr⁻²:    0.78
Starting Meta-MD   5 with the settings:
     MD time /ps        :     0.5
     dt /fs             :     1.5
     dumpstep(trj) /fs  :     100
     dumpstep(Vbias)/ps :     1.0
     Vbias factor k /Eh :  0.1140
     Vbias exp α /bohr⁻²:    0.78
Starting Meta-MD   6 with the settings:
     MD time /ps        :     0.5
     dt /fs             :     1.5
     dumpstep(trj) /fs  :     100
     dumpstep(Vbias)/ps :     1.0
     Vbias factor k /Eh :  0.0570
     Vbias exp α /bohr⁻²:    0.78
Starting Meta-MD   7 with the settings:
     MD time /ps        :     0.5
     dt /fs             :     1.5
     dumpstep(trj) /fs  :     100
     dumpstep(Vbias)/ps :     1.0
     Vbias factor k /Eh :  0.2280
     Vbias exp α /bohr⁻²:    0.47
Starting Meta-MD   8 with the settings:
     MD time /ps        :     0.5
     dt /fs             :     1.5
     dumpstep(trj) /fs  :     100
     dumpstep(Vbias)/ps :     1.0
     Vbias factor k /Eh :  0.1140
     Vbias exp α /bohr⁻²:    0.47
Starting Meta-MD   9 with the settings:
     MD time /ps        :     0.5
     dt /fs             :     1.5
     dumpstep(trj) /fs  :     100
     dumpstep(Vbias)/ps :     1.0
     Vbias factor k /Eh :  0.0570
     Vbias exp α /bohr⁻²:    0.47
Starting Meta-MD  10 with the settings:
     MD time /ps        :     0.5
     dt /fs             :     1.5
     dumpstep(trj) /fs  :     100
     dumpstep(Vbias)/ps :     1.0
     Vbias factor k /Eh :  0.2280
     Vbias exp α /bohr⁻²:    0.28
Starting Meta-MD  11 with the settings:
     MD time /ps        :     0.5
     dt /fs             :     1.5
     dumpstep(trj) /fs  :     100
     dumpstep(Vbias)/ps :     1.0
     Vbias factor k /Eh :  0.1140
     Vbias exp α /bohr⁻²:    0.28
Starting Meta-MD  12 with the settings:
     MD time /ps        :     0.5
     dt /fs             :     1.5
     dumpstep(trj) /fs  :     100
     dumpstep(Vbias)/ps :     1.0
     Vbias factor k /Eh :  0.0570
     Vbias exp α /bohr⁻²:    0.28
*Meta-MTD 4 finished*
*Meta-MTD 5 finished*
*Meta-MTD 7 finished*
*Meta-MTD 2 finished*
*Meta-MTD 6 finished*
*Meta-MTD 8 finished*
*Meta-MTD 9 finished*
*Meta-MTD 10 finished*
*Meta-MTD 1 finished*
*Meta-MTD 12 finished*
*Meta-MTD 3 finished*
*Meta-MTD 11 finished*
 
-----------------------
Multilevel Optimization
-----------------------
 
 -------------------------
 1. crude pre-optimization
 -------------------------
 Optimizing all 60 structures from file "crest_rotamers_0.xyz" ...
 1 2 3 4 5 6 7 8 9 10 11 12 13 14 15 16 17 18 19 20 21 22 23 24 25 26 27 28 29 30 31 32 33 34 35 36 37 38 39 40 41 42 43 44 45 46 47 48 49 50 51 52 53 54 55 56 57 58 59 60
 done.
 running RMSDs...
 done.
 E lowest :  -115.01601
 58 structures remain within    12.00 kcal/mol window
 
 -------------------------------------
 2. optimization with tight thresholds
 -------------------------------------
 Optimizing all 59 structures from file "crest_rotamers_1.xyz" ...
 1 2 3 4 5 6 7 8 9 10 11 12 13 14 15 16 17 18 19 20 21 22 23 24 25 26 27 28 29 30 31 32 33 34 35 36 37 38 39 40 41 42 43 44 45 46 47 48 49 50 51 52 53 54 55 56 57 58 59
 done.
 running RMSDs...
 done.
 E lowest :  -115.01694
 36 structures remain within     6.00 kcal/mol window
 
========================================
            MTD Iterations done         
========================================
 Collecting ensmbles.
 running RMSDs...
 done.
 E lowest :  -115.01694
 36 structures remain within     6.00 kcal/mol window
 
 -------------------------------
 Additional orientation sampling
 -------------------------------
 Optimizing all 58 structures from file "oh_ensemble.xyz" ...
 1 2 3 4 5 6 7 8 9 10 11 12 13 14 15 16 17 18 19 20 21 22 23 24 25 26 27 28 29 30 31 32 33 34 35 36 37 38 39 40 41 42 43 44 45 46 47 48 49 50 51 52 53 54 55 56 57 58
 done.
 running RMSDs...
 done.
 E lowest :  -115.01694
 89 structures remain within     6.00 kcal/mol window
 
-----------------------------------------------
Additional regular MDs on lowest 4 conformer(s)
-----------------------------------------------
Starting MD   1 with the settings:
     MD time /ps        :     0.2
     MD Temperature /K  :   400.0
     dt /fs             :     1.5
     dumpstep(trj) /fs  :     100
Starting MD   2 with the settings:
     MD time /ps        :     0.2
     MD Temperature /K  :   500.0
     dt /fs             :     1.5
     dumpstep(trj) /fs  :     100
Starting MD   3 with the settings:
     MD time /ps        :     0.2
     MD Temperature /K  :   400.0
     dt /fs             :     1.5
     dumpstep(trj) /fs  :     100
Starting MD   4 with the settings:
     MD time /ps        :     0.2
     MD Temperature /K  :   500.0
     dt /fs             :     1.5
     dumpstep(trj) /fs  :     100
Starting MD   5 with the settings:
     MD time /ps        :     0.2
     MD Temperature /K  :   400.0
     dt /fs             :     1.5
     dumpstep(trj) /fs  :     100
Starting MD   6 with the settings:
     MD time /ps        :     0.2
     MD Temperature /K  :   500.0
     dt /fs             :     1.5
     dumpstep(trj) /fs  :     100
Starting MD   7 with the settings:
     MD time /ps        :     0.2
     MD Temperature /K  :   400.0
     dt /fs             :     1.5
     dumpstep(trj) /fs  :     100
Starting MD   8 with the settings:
     MD time /ps        :     0.2
     MD Temperature /K  :   500.0
     dt /fs             :     1.5
     dumpstep(trj) /fs  :     100
*MD 7 finished*
*MD 3 finished*
*MD 4 finished*
*MD 5 finished*
*MD 1 finished*
*MD 2 finished*
*MD 8 finished*
*MD 6 finished*
 Appending file crest_rotamers_2.xyz with new structures
 
 -------------------------------------------
 Ensemble optimization with tight thresholds
 -------------------------------------------
 Optimizing all 105 structures from file "crest_rotamers_2.xyz" ...
 1 2 3 4 5 6 7 8 9 10 11 12 13 14 15 16 17 18 19 20 21 22 23 24 25 26 27 28 29 30 31 32 33 34 35 36 37 38 39 40 41 42 43 44 45 46 47 48 49 50 51 52 53 54 55 56 57 58 59 60 61 62 63 64 65 66 67 68 69 70 71 72 73 74 75 76 77 78 79 80 81 82 83 84 85 86 87 88 89 90 91 92 93 94 95 96 97 98 99 100 101 102 103 104 105
 done.
 running RMSDs...
 done.
 E lowest :  -115.01694
 94 structures remain within     6.00 kcal/mol window
 
 
     ========================================
     |        Structure Crossing (GC)       |
     ========================================
 =============================
  # threads =          28
 =============================
 input  file name : crest_rotamers_4.xyz
number of atoms                :    76
number of points on xyz files  :    94
conformer energy window  /kcal :    6.00
CN per atom difference cut-off :  0.3000
RMSD threshold                 :  0.5000
max. # of generated structures : 25
 reading xyz file ...
 # in E window                 94
 generating pairs ...        4464
 generated pairs           :        1299
 number of clash discarded :        3072
 average rmsd w.r.t input  : 2.37336
 sd of ensemble            : 1.23838
 number of new structures      :          31
 removed identical structures  :          19
 writing           25  TMPCONF* dirs ...
 --------------------------
 GC: loose pre-optimization
 --------------------------
 Starting optimization of generated structures
 25 jobs to do.
 1 2 3 4 5 6 7 8 9 10 11 12 13 14 15 16 17 18 19 20 21 22 23 24 25 
 done.
 Now appending opt.xyz file with new structures
 running RMSDs...
 done.
 E lowest :  -115.01612
 25 structures remain within    10.00 kcal/mol window
 --------------------------------------
 GC: optimization with tight thresholds
 --------------------------------------
 Optimizing all 25 structures from file "crest_rotamers_1.xyz" ...
 1 2 3 4 5 6 7 8 9 10 11 12 13 14 15 16 17 18 19 20 21 22 23 24 25
 done.
 running RMSDs...
 done.
 E lowest :  -115.01694
 
 
   ================================================
   |           Final Geometry Optimization        |
   ================================================
 ------------------------------------------------
 Ensemble optimization with very tight thresholds
 ------------------------------------------------
 Optimizing all 117 structures from file "crest_rotamers_5.xyz" ...
 1 2 3 4 5 6 7 8 9 10 11 12 13 14 15 16 17 18 19 20 21 22 23 24 25 26 27 28 29 30 31 32 33 34 35 36 37 38 39 40 41 42 43 44 45 46 47 48 49 50 51 52 53 54 55 56 57 58 59 60 61 62 63 64 65 66 67 68 69 70 71 72 73 74 75 76 77 78 79 80 81 82 83 84 85 86 87 88 89 90 91 92 93 94 95 96 97 98 99 100 101 102 103 104 105 106 107 108 109 110 111 112 113 114 115 116 117
 done.
 running RMSDs...
 done.
 E lowest :  -115.01694
 116 structures remain within     6.00 kcal/mol window
 
 input  file name : crest_rotamers_6.xyz
 output file name : crest_rotamers_7.xyz
 number of atoms                :   76
 number of points on xyz files  :   117
 RMSD threshold                 :   0.2500
 Bconst threshold               :   0.0100
 population threshold           :   0.0500
 conformer energy window  /kcal :   6.0000
 # fragment in coord            :     1
 # bonds in reference structure :    81
   => # of C=C bonds :    10
 number of reliable points      :   117
 reference state Etot :  -115.016936520000
 number of doubles removed by rot/RMSD         :           1
 total number unique points considered further :         116
       Erel/kcal        Etot weight/tot  conformer     set   degen     origin
       1   0.000  -115.01694    0.03756    0.18686       1       5     mtd6
       2   0.002  -115.01693    0.03741                                md4
       3   0.003  -115.01693    0.03734                                md3
       4   0.004  -115.01693    0.03731                                mtd2
       5   0.005  -115.01693    0.03724                                md4
       6   0.006  -115.01693    0.03719    0.11113       2       3     md2
       7   0.006  -115.01693    0.03718                                mtd3
       8   0.013  -115.01692    0.03677                                md2
       9   0.011  -115.01692    0.03686    0.10978       3       3     md3
      10   0.014  -115.01691    0.03665                                md7
      11   0.021  -115.01690    0.03627                                mtd4
      12   0.027  -115.01689    0.03590    0.03590       4       1     md6
      13   0.062  -115.01684    0.03383    0.03383       5       1     mtd2
      14   0.068  -115.01683    0.03349    0.03349       6       1     md6
      15   0.179  -115.01665    0.02779    0.02779       7       1     mtd11
      16   0.262  -115.01652    0.02414    0.02414       8       1     gc
      17   0.329  -115.01641    0.02158    0.02158       9       1     mtd11
      18   0.409  -115.01629    0.01885    0.01885      10       1     mtd3
      19   0.412  -115.01628    0.01875    0.01875      11       1     mtd3
      20   0.427  -115.01626    0.01827    0.01827      12       1     mtd9
      21   0.577  -115.01602    0.01420    0.01420      13       1     mtd12
      22   0.626  -115.01594    0.01307    0.01307      14       1     mtd5
      23   0.653  -115.01590    0.01249    0.01249      15       1     mtd5
      24   0.714  -115.01580    0.01126    0.01126      16       1     hor
      25   0.803  -115.01566    0.00970    0.00970      17       1     hor
      26   0.830  -115.01561    0.00926    0.01839      18       2     mtd6
      27   0.839  -115.01560    0.00913                                mtd8
      28   0.860  -115.01557    0.00881    0.00881      19       1     gc
      29   0.867  -115.01556    0.00871    0.00871      20       1     mtd2
      30   0.835  -115.01561    0.00918    0.00918      21       1     mtd9
      31   0.945  -115.01543    0.00763    0.00763      22       1     mtd10
      32   0.961  -115.01541    0.00743    0.00743      23       1     hor
      33   0.977  -115.01538    0.00723    0.00723      24       1     mtd10
      34   0.993  -115.01535    0.00704    0.00704      25       1     hor
      35   1.009  -115.01533    0.00685    0.00685      26       1     hor
      36   1.012  -115.01532    0.00682    0.00682      27       1     hor
      37   1.026  -115.01530    0.00666    0.00666      28       1     hor
      38   1.049  -115.01526    0.00640    0.00640      29       1     hor
      39   1.055  -115.01526    0.00634    0.01267      30       2     hor
      40   1.056  -115.01525    0.00633                                hor
      41   1.076  -115.01522    0.00612    0.01217      31       2     hor
      42   1.082  -115.01521    0.00606                                hor
      43   1.094  -115.01519    0.00593    0.00593      32       1     hor
      44   1.102  -115.01518    0.00586    0.01171      33       2     hor
      45   1.102  -115.01518    0.00585                                hor
      46   1.111  -115.01517    0.00577    0.00577      34       1     hor
      47   1.196  -115.01503    0.00500    0.00500      35       1     hor
      48   1.197  -115.01503    0.00499    0.00499      36       1     gc
      49   1.214  -115.01500    0.00485    0.00967      37       2     hor
      50   1.217  -115.01500    0.00482                                hor
      51   1.219  -115.01499    0.00481    0.00955      38       2     hor
      52   1.228  -115.01498    0.00474                                md8
      53   1.229  -115.01498    0.00473    0.00945      39       2     hor
      54   1.229  -115.01498    0.00472                                hor
      55   1.261  -115.01493    0.00448    0.00887      40       2     hor
      56   1.272  -115.01491    0.00439                                gc
      57   1.276  -115.01490    0.00437    0.00437      41       1     hor
      58   1.262  -115.01493    0.00447    0.00447      42       1     hor
      59   1.450  -115.01463    0.00326    0.00326      43       1     hor
      60   1.465  -115.01460    0.00318    0.00318      44       1     hor
      61   1.494  -115.01456    0.00302    0.00898      45       3     hor
      62   1.508  -115.01453    0.00295                                hor
      63   1.498  -115.01455    0.00300                                gc
      64   1.514  -115.01452    0.00292    0.00292      46       1     hor
      65   1.503  -115.01454    0.00298    0.00298      47       1     hor
      66   1.519  -115.01452    0.00290    0.00290      48       1     hor
      67   1.571  -115.01443    0.00265    0.00265      49       1     gc
      68   1.578  -115.01442    0.00262    0.00262      50       1     mtd1
      69   1.624  -115.01435    0.00243    0.00483      51       2     hor
      70   1.630  -115.01434    0.00241                                hor
      71   1.629  -115.01434    0.00241    0.00241      52       1     hor
      72   1.635  -115.01433    0.00238    0.00238      53       1     hor
      73   1.639  -115.01432    0.00237    0.00470      54       2     hor
      74   1.648  -115.01431    0.00233                                hor
      75   1.660  -115.01429    0.00229    0.00229      55       1     hor
      76   1.728  -115.01418    0.00204    0.00204      56       1     gc
      77   1.753  -115.01414    0.00195    0.00195      57       1     mtd8
      78   1.767  -115.01412    0.00191    0.00191      58       1     mtd8
      79   1.786  -115.01409    0.00185    0.00185      59       1     gc
      80   1.799  -115.01407    0.00181    0.00181      60       1     gc
      81   1.803  -115.01406    0.00180    0.00353      61       2     mtd4
      82   1.823  -115.01403    0.00174                                mtd4
      83   1.827  -115.01402    0.00172    0.00172      62       1     gc
      84   1.830  -115.01402    0.00172    0.00172      63       1     mtd4
      85   1.820  -115.01404    0.00174    0.00174      64       1     gc
      86   1.830  -115.01402    0.00172    0.00172      65       1     gc
      87   1.849  -115.01399    0.00166    0.00166      66       1     mtd1
      88   1.856  -115.01398    0.00164    0.00164      67       1     mtd10
      89   1.868  -115.01396    0.00161    0.00161      68       1     gc
      90   1.879  -115.01394    0.00158    0.00313      69       2     hor
      91   1.890  -115.01393    0.00155                                hor
      92   1.908  -115.01390    0.00150    0.00150      70       1     hor
      93   1.922  -115.01387    0.00147    0.00147      71       1     hor
      94   2.007  -115.01374    0.00127    0.00127      72       1     hor
      95   2.016  -115.01372    0.00125    0.00125      73       1     hor
      96   2.060  -115.01365    0.00116    0.00116      74       1     hor
      97   2.100  -115.01359    0.00109    0.00109      75       1     gc
      98   2.101  -115.01359    0.00109    0.00216      76       2     gc
      99   2.110  -115.01357    0.00107                                gc
     100   2.144  -115.01352    0.00101    0.00101      77       1     hor
     101   2.182  -115.01346    0.00095    0.00095      78       1     hor
     102   2.185  -115.01345    0.00094    0.00094      79       1     gc
     103   2.188  -115.01345    0.00094    0.00094      80       1     gc
     104   2.193  -115.01344    0.00093    0.00093      81       1     hor
     105   2.194  -115.01344    0.00093    0.00093      82       1     hor
     106   2.200  -115.01343    0.00092    0.00092      83       1     gc
     107   2.298  -115.01327    0.00078    0.00078      84       1     gc
     108   2.315  -115.01325    0.00076    0.00076      85       1     gc
     109   2.774  -115.01252    0.00035    0.00035      86       1     gc
     110   2.961  -115.01222    0.00025    0.00025      87       1     hor
     111   3.146  -115.01192    0.00019    0.00019      88       1     mtd7
     112   3.617  -115.01117    0.00008    0.00008      89       1     hor
     113   4.538  -115.00971    0.00002    0.00002      90       1     mtd7
     114   4.556  -115.00968    0.00002    0.00002      91       1     gc
     115   4.861  -115.00919    0.00001    0.00001      92       1     hor
     116   5.567  -115.00806    0.00000    0.00000      93       1     hor
T /K                                  :   298.15
E lowest                              :  -115.01694
ensemble average energy (kcal)        :    0.470
ensemble entropy (J/mol K, cal/mol K) :   33.870    8.095
ensemble free energy (kcal/mol)       :   -2.414
population of lowest in %             :   18.686
 number of unique conformers for further calc           93
 list of relative energies saved as "crest.energies"
 
 -----------------
 Wall Time Summary
 -----------------
             test MD wall time :         0h : 0m :43s
                 MTD wall time :         0h : 3m :20s
      multilevel OPT wall time :         0h : 4m :24s
                  MD wall time :         0h : 1m :14s
                  GC wall time :         0h : 0m :29s
--------------------
Overall wall time  : 0h :10m :32s
 
 CREST terminated normally.
