 
       ==============================================
       |                                            |
       |                 C R E S T                  |
       |                                            |
       |  Conformer-Rotamer Ensemble Sampling Tool  |
       |          based on the GFN methods          |
       |             P.Pracht, S.Grimme             |
       |          Universitaet Bonn, MCTC           |
       ==============================================
       Version 2.11.2, Fr 17. Dec 12:10:44 CEST 2021
  Using the xTB program. Compatible with xTB version 6.4.0
 
   Cite work conducted with this code as

   P. Pracht, F. Bohle, S. Grimme, PCCP, 2020, 22, 7169-7192.

   and  S. Grimme, JCTC, 2019, 15, 2847-2862.
 
   with help from:
   C.Bannwarth, F.Bohle, S.Ehlert, S.Grimme,
   C. Plett, P.Pracht, S. Spicher
 
   This program is distributed in the hope that it will be useful,
   but WITHOUT ANY WARRANTY; without even the implied warranty of
   MERCHANTABILITY or FITNESS FOR A PARTICULAR PURPOSE.

 Command line input:
 > crest 00182_r_0.xyz -T 28 -gfn2 -chrg 0 -uhf 0 -rthr 0.25 -shake 1 --mdlen 0.5

  -T 28 (CPUs/Threads selected)
  -gfn2 : Use of GFN2-xTB requested.
  -chrg 0
  -uhf 0
  -rthr 0.25
  --mdlen 0.5 (MD length in ps)
 
 -------------------------
 xTB Geometry Optimization
 -------------------------
 Geometry successfully optimized.
 
------------------------------------------------
Generating MTD length from a flexibility measure
------------------------------------------------
      -----------------------------------------------------------      
     |                   =====================                   |     
     |                           x T B                           |     
     |                   =====================                   |     
     |                         S. Grimme                         |     
     |          Mulliken Center for Theoretical Chemistry        |     
     |                    University of Bonn                     |     
      -----------------------------------------------------------      

   * xtb version 6.4.1 (afa7bdf) compiled by 'ehlert@majestix' on 2021-06-10

   xtb is free software: you can redistribute it and/or modify it under
   the terms of the GNU Lesser General Public License as published by
   the Free Software Foundation, either version 3 of the License, or
   (at your option) any later version.
   
   xtb is distributed in the hope that it will be useful,
   but WITHOUT ANY WARRANTY; without even the implied warranty of
   MERCHANTABILITY or FITNESS FOR A PARTICULAR PURPOSE.  See the
   GNU Lesser General Public License for more details.
   
   Cite this work as:
   * C. Bannwarth, E. Caldeweyher, S. Ehlert, A. Hansen, P. Pracht,
     J. Seibert, S. Spicher, S. Grimme, WIREs Comput. Mol. Sci., 2020, 11,
     e01493. DOI: 10.1002/wcms.1493
   
   for GFN2-xTB:
   * C. Bannwarth, S. Ehlert and S. Grimme., J. Chem. Theory Comput., 2019,
     15, 1652-1671. DOI: 10.1021/acs.jctc.8b01176
   for GFN1-xTB:
   * S. Grimme, C. Bannwarth, P. Shushkov, J. Chem. Theory Comput., 2017,
     13, 1989-2009. DOI: 10.1021/acs.jctc.7b00118
   for GFN0-xTB:
   * P. Pracht, E. Caldeweyher, S. Ehlert, S. Grimme, ChemRxiv, 2019, preprint.
     DOI: 10.26434/chemrxiv.8326202.v1
   for GFN-FF:
   * S. Spicher and S. Grimme, Angew. Chem. Int. Ed., 2020, 59, 15665-15673.
     DOI: 10.1002/anie.202004239
   
   for DFT-D4:
   * E. Caldeweyher, C. Bannwarth and S. Grimme, J. Chem. Phys., 2017,
     147, 034112. DOI: 10.1063/1.4993215
   * E. Caldeweyher, S. Ehlert, A. Hansen, H. Neugebauer, S. Spicher,
     C. Bannwarth and S. Grimme, J. Chem. Phys., 2019, 150, 154122.
     DOI: 10.1063/1.5090222
   * E. Caldeweyher, J.-M. Mewes, S. Ehlert and S. Grimme, Phys. Chem. Chem. Phys.
     2020, 22, 8499-8512. DOI: 10.1039/D0CP00502A
   
   for sTDA-xTB:
   * S. Grimme and C. Bannwarth, J. Chem. Phys., 2016, 145, 054103.
     DOI: 10.1063/1.4959605
   
   in the mass-spec context:
   * V. Asgeirsson, C. Bauer and S. Grimme, Chem. Sci., 2017, 8, 4879.
     DOI: 10.1039/c7sc00601b
   * J. Koopman and S. Grimme, ACS Omega 2019, 4, 12, 15120-15133.
     DOI: 10.1021/acsomega.9b02011
   
   for metadynamics refer to:
   * S. Grimme, J. Chem. Theory Comput., 2019, 155, 2847-2862
     DOI: 10.1021/acs.jctc.9b00143
   
   for SPH calculations refer to:
   * S. Spicher and S. Grimme, J. Chem. Theory Comput., 2021, 17, 1701-1714
     DOI: 10.1021/acs.jctc.0c01306
   
   with help from (in alphabetical order)
   P. Atkinson, C. Bannwarth, F. Bohle, G. Brandenburg, E. Caldeweyher
   M. Checinski, S. Dohm, S. Ehlert, S. Ehrlich, I. Gerasimov, J. Koopman
   C. Lavigne, S. Lehtola, F. März, M. Müller, F. Musil, H. Neugebauer
   J. Pisarek, C. Plett, P. Pracht, J. Seibert, P. Shushkov, S. Spicher
   M. Stahn, M. Steiner, T. Strunk, J. Stückrath, T. Rose, and J. Unsleber
   
 * started run on 2025/01/21 at 11:24:42.103     

           -------------------------------------------------
          |                Calculation Setup                |
           -------------------------------------------------

          program call               : xtb tmpcoord --gfn0 --sp
          hostname                   : node64
          coordinate file            : tmpcoord
          omp threads                :                    28
          number of atoms            :                    72
          number of electrons        :                   178
          charge                     :                     0
          spin                       :                   0.0
          first test random number   :      0.34209820305852

   ID    Z sym.   atoms
    1    6 c      1-3, 5-17, 19, 21-33
    2   14 si     4, 20
    3    8 o      18, 34
    4    1 h      35-72
########################################################################
[WARNING] Please study the warnings concerning your input carefully
-1- prog_main_parseArguments: The use of '--gfn0' is discouraged, please use '--gfn 0' next time
########################################################################

           -------------------------------------------------
          |                 G F N 0 - x T B                 |
           -------------------------------------------------

        Reference                      10.26434/chemrxiv.8326202.v1
      * Hamiltonian:
        H0-scaling (s, p, d)           2.000000    2.486800    2.270000
        zeta-weighting                 1.000000
      * Dispersion:
        s8                             2.850000
        a1                             0.800000
        a2                             4.600000
        s9                             0.000000
      * Repulsion:
        kExp                           1.500000
        rExp                           1.000000
      * Coulomb:
        alpha                          0.000000
        third order                    atomic
        anisotropic                    false
      * Polar bond correction:
        rad-shift                      0.053700
        strength                      -0.012900
        en-exp                         3.484700
        en-scale                       0.509700


          ...................................................
          :                      SETUP                      :
          :.................................................:
          :  # basis functions                 224          :
          :  # atomic orbitals                 222          :
          :  # shells                          146          :
          :  # electrons                       178          :
          :  electronic temp.          300.0000000     K    :
          :  accuracy                    1.0000000          :
          :  -> integral cutoff          0.2500000E+02      :
          :  -> integral neglect         0.1000000E-07      :
          ...................................................
  Checking positiv definite overlap ...  done.
 

         #    Occupation            Energy/Eh            Energy/eV
      -------------------------------------------------------------
         1        2.0000           -0.6935975             -18.8737
       ...           ...                  ...                  ...
        83        2.0000           -0.4313978             -11.7389
        84        2.0000           -0.4260472             -11.5933
        85        2.0000           -0.4208070             -11.4507
        86        2.0000           -0.4192558             -11.4085
        87        2.0000           -0.4182669             -11.3816
        88        2.0000           -0.3939922             -10.7211
        89        2.0000           -0.3912874             -10.6475 (HOMO)
        90                         -0.3029320              -8.2432 (LUMO)
        91                         -0.3013002              -8.1988
        92                         -0.2687144              -7.3121
        93                         -0.2680249              -7.2933
        94                         -0.2361836              -6.4269
       ...                                ...                  ...
       222                          0.6647717              18.0894
      -------------------------------------------------------------
                  HL-Gap            0.0883553 Eh            2.4043 eV
             Fermi-level            0.0000000 Eh            0.0000 eV

 EHT (total)                   0 d,  0 h,  0 min,  0.047 sec
 EHT setup                      ...        0 min,  0.001 sec (  3.173%)
 Coordination number            ...        0 min,  0.001 sec (  2.002%)
 EEQ model density              ...        0 min,  0.001 sec (  1.617%)
 D4 Dispersion                  ...        0 min,  0.003 sec (  6.131%)
 Integral evaluation            ...        0 min,  0.001 sec (  3.061%)
 Cholesky factorization         ...        0 min,  0.010 sec ( 21.830%)
 Zeroth order Hamiltonian       ...        0 min,  0.025 sec ( 53.143%)
 Gradient calculation           ...        0 min,  0.003 sec (  7.439%)

         :::::::::::::::::::::::::::::::::::::::::::::::::::::
         ::                     SUMMARY                     ::
         :::::::::::::::::::::::::::::::::::::::::::::::::::::
         :: total energy             -94.435244954259 Eh    ::
         :: gradient norm              0.057534958054 Eh/a0 ::
         :: HOMO-LUMO gap              2.404270916858 eV    ::
         ::.................................................::
         :: H0 energy                -95.713228171647 Eh    ::
         :: repulsion energy           1.601378118615 Eh    ::
         :: electrostat energy        -0.250950605511 Eh    ::
         :: -> Gsolv                   0.000000000000 Eh    ::
         ::    -> Gsasa                0.000000000000 Eh    ::
         ::    -> Gshift               0.000000000000 Eh    ::
         :: dispersion energy         -0.047274893350 Eh    ::
         :: short-range corr.         -0.025169402366 Eh    ::
         :: add. restraining           0.000000000000 Eh    ::
         :: total charge               0.000000000000 e     ::
         :::::::::::::::::::::::::::::::::::::::::::::::::::::

           -------------------------------------------------
          |                Property Printout                |
           -------------------------------------------------

    * Orbital Energies and Occupations

         #    Occupation            Energy/Eh            Energy/eV
      -------------------------------------------------------------
         1        2.0000           -0.6935975             -18.8737
       ...           ...                  ...                  ...
        77        2.0000           -0.4521441             -12.3035
        78        2.0000           -0.4463671             -12.1463
        79        2.0000           -0.4459197             -12.1341
        80        2.0000           -0.4376785             -11.9098
        81        2.0000           -0.4369554             -11.8902
        82        2.0000           -0.4322433             -11.7619
        83        2.0000           -0.4313978             -11.7389
        84        2.0000           -0.4260472             -11.5933
        85        2.0000           -0.4208070             -11.4507
        86        2.0000           -0.4192558             -11.4085
        87        2.0000           -0.4182669             -11.3816
        88        2.0000           -0.3939922             -10.7211
        89        2.0000           -0.3912874             -10.6475 (HOMO)
        90                         -0.3029320              -8.2432 (LUMO)
        91                         -0.3013002              -8.1988
        92                         -0.2687144              -7.3121
        93                         -0.2680249              -7.2933
        94                         -0.2361836              -6.4269
        95                         -0.2346001              -6.3838
        96                         -0.2073239              -5.6416
        97                         -0.2052235              -5.5844
        98                         -0.2001882              -5.4474
        99                         -0.1987105              -5.4072
       100                         -0.1940031              -5.2791
       ...                                ...                  ...
       222                          0.6647717              18.0894
      -------------------------------------------------------------
                  HL-Gap            0.0883553 Eh            2.4043 eV
             Fermi-level            0.0000000 Eh            0.0000 eV

     #   Z          covCN         q      C6AA      α(0)
     1   6 c        3.752    -0.375    32.008     8.165
     2   6 c        3.811    -0.044    23.897     7.043
     3   6 c        3.699    -0.416    33.344     8.354
     4  14 si       3.535     0.638   134.538    21.586
     5   6 c        3.649    -0.659    42.078     9.421
     6   6 c        3.649    -0.682    43.021     9.526
     7   6 c        2.856    -0.210    35.374     9.717
     8   6 c        2.933    -0.145    33.411     9.450
     9   6 c        2.983     0.058    28.113     8.670
    10   6 c        2.919    -0.139    33.242     9.425
    11   6 c        2.915    -0.090    31.879     9.229
    12   6 c        2.917    -0.094    32.001     9.247
    13   6 c        2.917    -0.124    32.835     9.367
    14   6 c        2.989     0.035    28.665     8.755
    15   6 c        2.971    -0.099    32.116     9.267
    16   6 c        2.971    -0.100    32.145     9.271
    17   6 c        2.869     0.279    23.533     7.927
    18   8 o        1.660    -0.606    25.108     6.778
    19   6 c        2.855    -0.205    35.243     9.699
    20  14 si       3.525     0.637   134.821    21.628
    21   6 c        3.649    -0.644    41.502     9.356
    22   6 c        3.648    -0.669    42.501     9.469
    23   6 c        3.697    -0.418    33.416     8.364
    24   6 c        3.803    -0.039    23.802     7.031
    25   6 c        3.752    -0.377    32.050     8.170
    26   6 c        2.933    -0.148    33.524     9.466
    27   6 c        2.983     0.059    28.092     8.667
    28   6 c        2.919    -0.139    33.256     9.427
    29   6 c        2.915    -0.090    31.887     9.231
    30   6 c        2.917    -0.095    32.010     9.249
    31   6 c        2.917    -0.125    32.844     9.368
    32   6 c        2.989     0.035    28.662     8.755
    33   6 c        2.871     0.280    23.516     7.924
    34   8 o        1.660    -0.621    25.471     6.827
    35   1 h        0.925     0.124     1.584     1.968
    36   1 h        0.925     0.121     1.601     1.979
    37   1 h        0.925     0.112     1.682     2.028
    38   1 h        0.924     0.066     2.126     2.280
    39   1 h        0.924     0.068     2.109     2.271
    40   1 h        0.924     0.135     1.499     1.915
    41   1 h        0.925     0.171     1.257     1.753
    42   1 h        0.925     0.168     1.277     1.767
    43   1 h        0.925     0.214     1.031     1.588
    44   1 h        0.925     0.181     1.198     1.712
    45   1 h        0.925     0.179     1.210     1.720
    46   1 h        0.925     0.177     1.226     1.731
    47   1 h        0.925     0.174     1.239     1.741
    48   1 h        0.926     0.099     1.798     2.097
    49   1 h        0.926     0.092     1.859     2.132
    50   1 h        0.926     0.086     1.920     2.167
    51   1 h        0.926     0.088     1.898     2.154
    52   1 h        0.926     0.115     1.651     2.009
    53   1 h        0.805     0.313     0.683     1.298
    54   1 h        0.925     0.188     1.162     1.685
    55   1 h        0.925     0.209     1.053     1.605
    56   1 h        0.925     0.162     1.313     1.792
    57   1 h        0.925     0.172     1.253     1.751
    58   1 h        0.925     0.178     1.217     1.725
    59   1 h        0.925     0.206     1.070     1.618
    60   1 h        0.924     0.127     1.555     1.950
    61   1 h        0.924     0.118     1.628     1.995
    62   1 h        0.924     0.073     2.048     2.238
    63   1 h        0.924     0.066     2.131     2.283
    64   1 h        0.925     0.113     1.671     2.022
    65   1 h        0.925     0.119     1.624     1.993
    66   1 h        0.925     0.126     1.568     1.958
    67   1 h        0.926     0.095     1.833     2.117
    68   1 h        0.926     0.091     1.865     2.135
    69   1 h        0.926     0.085     1.923     2.169
    70   1 h        0.926     0.088     1.903     2.157
    71   1 h        0.926     0.114     1.660     2.015
    72   1 h        0.805     0.316     0.676     1.291

 Mol. C6AA /au·bohr⁶  :      62080.118036
 Mol. C8AA /au·bohr⁸  :    1724358.228460
 Mol. α(0) /au        :        396.638709


Wiberg/Mayer (AO) data.
largest (>0.10) Wiberg bond orders for each atom

 ---------------------------------------------------------------------------
     #   Z sym  total        # sym  WBO       # sym  WBO       # sym  WBO
 ---------------------------------------------------------------------------
     1   6 c    3.979 --     2 c    1.019    37 h    0.983    35 h    0.982
                            36 h    0.982
     2   6 c    3.987 --     1 c    1.019     3 c    1.013    38 h    0.975
                            39 h    0.975
     3   6 c    3.919 --     2 c    1.013    40 h    0.956    41 h    0.956
                             4 si   0.924
     4  14 si   4.105 --     6 c    0.966     5 c    0.965     3 c    0.924
                             7 c    0.895
     5   6 c    3.904 --     4 si   0.965    43 h    0.958    42 h    0.958
                            44 h    0.958
     6   6 c    3.901 --     4 si   0.966    46 h    0.960    45 h    0.959
                            47 h    0.957
     7   6 c    3.903 --     8 c    1.535    33 c    1.233     4 si   0.895
     8   6 c    3.984 --     7 c    1.535     9 c    1.265    48 h    0.963
     9   6 c    3.978 --    10 c    1.281     8 c    1.265    14 c    1.241
    10   6 c    3.980 --    11 c    1.552     9 c    1.281    49 h    0.969
                            13 c    0.116
    11   6 c    3.975 --    10 c    1.552    12 c    1.319    50 h    0.973
    12   6 c    3.984 --    13 c    1.557    11 c    1.319    51 h    0.972
    13   6 c    3.987 --    12 c    1.557    14 c    1.272    52 h    0.967
                            10 c    0.116
    14   6 c    3.977 --    13 c    1.272    15 c    1.254     9 c    1.241
    15   6 c    3.964 --    33 c    1.404    14 c    1.254    16 c    0.993
    16   6 c    3.964 --    17 c    1.402    32 c    1.254    15 c    0.993
    17   6 c    3.941 --    16 c    1.402    19 c    1.233    18 o    1.135
    18   8 o    2.334 --    17 c    1.135    53 h    0.968
    19   6 c    3.903 --    26 c    1.536    17 c    1.233    20 si   0.894
    20  14 si   4.102 --    21 c    0.966    22 c    0.961    23 c    0.929
                            19 c    0.894
    21   6 c    3.907 --    20 si   0.966    56 h    0.959    54 h    0.959
                            55 h    0.957
    22   6 c    3.898 --    20 si   0.961    58 h    0.959    57 h    0.958
                            59 h    0.957
    23   6 c    3.914 --    24 c    1.010    61 h    0.956    60 h    0.955
                            20 si   0.929
    24   6 c    3.988 --    25 c    1.025    23 c    1.010    63 h    0.976
                            62 h    0.974
    25   6 c    3.980 --    24 c    1.025    64 h    0.983    65 h    0.981
                            66 h    0.976
    26   6 c    3.985 --    19 c    1.536    27 c    1.265    67 h    0.962
    27   6 c    3.978 --    28 c    1.280    26 c    1.265    32 c    1.241
    28   6 c    3.980 --    29 c    1.552    27 c    1.280    68 h    0.969
                            31 c    0.116
    29   6 c    3.975 --    28 c    1.552    30 c    1.319    69 h    0.973
    30   6 c    3.984 --    31 c    1.558    29 c    1.319    70 h    0.972
    31   6 c    3.987 --    30 c    1.558    32 c    1.271    71 h    0.966
                            28 c    0.116
    32   6 c    3.977 --    31 c    1.271    16 c    1.254    27 c    1.241
    33   6 c    3.941 --    15 c    1.404     7 c    1.233    34 o    1.132
    34   8 o    2.338 --    33 c    1.132    72 h    0.967
    35   1 h    0.982 --     1 c    0.982
    36   1 h    0.982 --     1 c    0.982
    37   1 h    0.982 --     1 c    0.983
    38   1 h    0.982 --     2 c    0.975
    39   1 h    0.982 --     2 c    0.975
    40   1 h    0.984 --     3 c    0.956
    41   1 h    0.994 --     3 c    0.956
    42   1 h    0.983 --     5 c    0.958
    43   1 h    0.992 --     5 c    0.958
    44   1 h    0.984 --     5 c    0.958
    45   1 h    0.982 --     6 c    0.959
    46   1 h    0.983 --     6 c    0.960
    47   1 h    0.983 --     6 c    0.957
    48   1 h    0.974 --     8 c    0.963
    49   1 h    0.978 --    10 c    0.969
    50   1 h    0.983 --    11 c    0.973
    51   1 h    0.983 --    12 c    0.972
    52   1 h    0.981 --    13 c    0.967
    53   1 h    0.987 --    18 o    0.968
    54   1 h    0.985 --    21 c    0.959
    55   1 h    0.992 --    21 c    0.957
    56   1 h    0.983 --    21 c    0.959
    57   1 h    0.983 --    22 c    0.958
    58   1 h    0.984 --    22 c    0.959
    59   1 h    0.985 --    22 c    0.957
    60   1 h    0.984 --    23 c    0.955
    61   1 h    0.984 --    23 c    0.956
    62   1 h    0.982 --    24 c    0.974
    63   1 h    0.985 --    24 c    0.976
    64   1 h    0.982 --    25 c    0.983
    65   1 h    0.980 --    25 c    0.981
    66   1 h    0.976 --    25 c    0.976
    67   1 h    0.973 --    26 c    0.962
    68   1 h    0.978 --    28 c    0.969
    69   1 h    0.983 --    29 c    0.973
    70   1 h    0.983 --    30 c    0.972
    71   1 h    0.981 --    31 c    0.966
    72   1 h    0.987 --    34 o    0.967
 ---------------------------------------------------------------------------

Topologies differ in total number of bonds
Writing topology from bond orders to xtbtopo.mol

 dipole moment from electron density (au)
     X       Y       Z   
  -0.0802   0.6598  -0.0736  total (Debye):    1.700


           -------------------------------------------------
          | TOTAL ENERGY              -94.435244954259 Eh   |
          | GRADIENT NORM               0.057534958054 Eh/α |
          | HOMO-LUMO GAP               2.404270916858 eV   |
           -------------------------------------------------

------------------------------------------------------------------------
 * finished run on 2025/01/21 at 11:24:42.298     
------------------------------------------------------------------------
 total:
 * wall-time:     0 d,  0 h,  0 min,  0.195 sec
 *  cpu-time:     0 d,  0 h,  0 min,  4.686 sec
 * ratio c/w:    23.999 speedup
 SCF:
 * wall-time:     0 d,  0 h,  0 min,  0.048 sec
 *  cpu-time:     0 d,  0 h,  0 min,  1.186 sec
 * ratio c/w:    24.895 speedup

 Calculating WBOs... done.
      -----------------------------------------------------------      
     |                   =====================                   |     
     |                           x T B                           |     
     |                   =====================                   |     
     |                         S. Grimme                         |     
     |          Mulliken Center for Theoretical Chemistry        |     
     |                    University of Bonn                     |     
      -----------------------------------------------------------      

   * xtb version 6.4.1 (afa7bdf) compiled by 'ehlert@majestix' on 2021-06-10

   xtb is free software: you can redistribute it and/or modify it under
   the terms of the GNU Lesser General Public License as published by
   the Free Software Foundation, either version 3 of the License, or
   (at your option) any later version.
   
   xtb is distributed in the hope that it will be useful,
   but WITHOUT ANY WARRANTY; without even the implied warranty of
   MERCHANTABILITY or FITNESS FOR A PARTICULAR PURPOSE.  See the
   GNU Lesser General Public License for more details.
   
   Cite this work as:
   * C. Bannwarth, E. Caldeweyher, S. Ehlert, A. Hansen, P. Pracht,
     J. Seibert, S. Spicher, S. Grimme, WIREs Comput. Mol. Sci., 2020, 11,
     e01493. DOI: 10.1002/wcms.1493
   
   for GFN2-xTB:
   * C. Bannwarth, S. Ehlert and S. Grimme., J. Chem. Theory Comput., 2019,
     15, 1652-1671. DOI: 10.1021/acs.jctc.8b01176
   for GFN1-xTB:
   * S. Grimme, C. Bannwarth, P. Shushkov, J. Chem. Theory Comput., 2017,
     13, 1989-2009. DOI: 10.1021/acs.jctc.7b00118
   for GFN0-xTB:
   * P. Pracht, E. Caldeweyher, S. Ehlert, S. Grimme, ChemRxiv, 2019, preprint.
     DOI: 10.26434/chemrxiv.8326202.v1
   for GFN-FF:
   * S. Spicher and S. Grimme, Angew. Chem. Int. Ed., 2020, 59, 15665-15673.
     DOI: 10.1002/anie.202004239
   
   for DFT-D4:
   * E. Caldeweyher, C. Bannwarth and S. Grimme, J. Chem. Phys., 2017,
     147, 034112. DOI: 10.1063/1.4993215
   * E. Caldeweyher, S. Ehlert, A. Hansen, H. Neugebauer, S. Spicher,
     C. Bannwarth and S. Grimme, J. Chem. Phys., 2019, 150, 154122.
     DOI: 10.1063/1.5090222
   * E. Caldeweyher, J.-M. Mewes, S. Ehlert and S. Grimme, Phys. Chem. Chem. Phys.
     2020, 22, 8499-8512. DOI: 10.1039/D0CP00502A
   
   for sTDA-xTB:
   * S. Grimme and C. Bannwarth, J. Chem. Phys., 2016, 145, 054103.
     DOI: 10.1063/1.4959605
   
   in the mass-spec context:
   * V. Asgeirsson, C. Bauer and S. Grimme, Chem. Sci., 2017, 8, 4879.
     DOI: 10.1039/c7sc00601b
   * J. Koopman and S. Grimme, ACS Omega 2019, 4, 12, 15120-15133.
     DOI: 10.1021/acsomega.9b02011
   
   for metadynamics refer to:
   * S. Grimme, J. Chem. Theory Comput., 2019, 155, 2847-2862
     DOI: 10.1021/acs.jctc.9b00143
   
   for SPH calculations refer to:
   * S. Spicher and S. Grimme, J. Chem. Theory Comput., 2021, 17, 1701-1714
     DOI: 10.1021/acs.jctc.0c01306
   
   with help from (in alphabetical order)
   P. Atkinson, C. Bannwarth, F. Bohle, G. Brandenburg, E. Caldeweyher
   M. Checinski, S. Dohm, S. Ehlert, S. Ehrlich, I. Gerasimov, J. Koopman
   C. Lavigne, S. Lehtola, F. März, M. Müller, F. Musil, H. Neugebauer
   J. Pisarek, C. Plett, P. Pracht, J. Seibert, P. Shushkov, S. Spicher
   M. Stahn, M. Steiner, T. Strunk, J. Stückrath, T. Rose, and J. Unsleber
   
 * started run on 2025/01/21 at 11:24:42.339     

           -------------------------------------------------
          |                Calculation Setup                |
           -------------------------------------------------

          program call               : xtb tmpcoord --gfnff --sp
          hostname                   : node64
          coordinate file            : tmpcoord
          omp threads                :                    28
          number of atoms            :                    72
          number of electrons        :                   178
          charge                     :                     0
          spin                       :                   0.0
          first test random number   :      0.38148381068656

   ID    Z sym.   atoms
    1    6 c      1-3, 5-17, 19, 21-33
    2   14 si     4, 20
    3    8 o      18, 34
    4    1 h      35-72
 
          ==================== Thresholds ====================
          CN  :   150.00000
          rep :   500.00000
          disp:  2500.00000
          HB1 :   250.00000
          HB2 :   450.00000
 
          Pauling EN used:
          Z : 1  EN :  2.20
          Z : 6  EN :  2.55
          Z : 8  EN :  3.44
          Z :14  EN :  1.90
          electric field strengths (au): 0.000
 
           ------------------------------------------------- 
          |           Force Field Initialization            |
           ------------------------------------------------- 
 
          distances ...
          ----------------------------------------
          generating topology and atomic info file ...
          pair mat ...
          computing topology distances matrix with Floyd-Warshall algo ...
          making topology EEQ charges ...
          #fragments for EEQ constrain: 1
          ----------------------------------------
          generating topology and atomic info file ...
          pair mat ...
          computing topology distances matrix with Floyd-Warshall algo ...
          making topology EEQ charges ...
          #fragments for EEQ constrain: 1
          rings ...
          # BATM   896
          # H in HB   12
          doing iterative Hueckel for 1 subsystem(s) ...
 
  atom   neighbors  erfCN metchar sp-hybrid imet pi  qest     coordinates
    1  c       4    3.49   0.00         3    0    0  -0.053   10.558052    4.428748    6.430085
    2  c       4    3.49   0.00         3    0    0  -0.048    9.930719    4.906317    3.659211
    3  c       4    3.48   0.00         3    0    0  -0.016    8.174386    2.879406    2.598926
    4  si      4    3.49   0.05         3    0    0   0.079    7.290189    3.400663   -0.865621
    5  c       4    3.48   0.00         3    0    0  -0.029    5.405743    6.440225   -1.321463
    6  c       4    3.48   0.00         3    0    0  -0.029   10.278478    3.585024   -2.876542
    7  c       3    2.80   0.00         2    0    1  -0.023    5.337425    0.608381   -1.988078
    8  c       3    2.83   0.00         2    0    1  -0.034    6.035846   -0.977080   -3.908917
    9  c       3    2.82   0.00         2    0    1  -0.011    4.523286   -3.029921   -4.684424
   10  c       3    2.81   0.00         2    0    1  -0.034    5.257428   -4.665781   -6.654520
   11  c       3    2.81   0.00         2    0    1  -0.029    3.754852   -6.644328   -7.362313
   12  c       3    2.81   0.00         2    0    1  -0.032    1.448193   -7.075719   -6.128041
   13  c       3    2.81   0.00         2    0    1  -0.026    0.676620   -5.523652   -4.212530
   14  c       3    2.83   0.00         2    0    1  -0.002    2.186598   -3.466449   -3.443998
   15  c       3    2.82   0.00         2    0    1  -0.005    1.451925   -1.824003   -1.460130
   16  c       3    2.82   0.00         2    0    1  -0.005   -1.006213   -2.159754   -0.133723
   17  c       3    2.84   0.00         2    0    1   0.091   -3.157012   -1.086948   -1.143276
   18  o       2    1.92   0.00         3    0    1  -0.439   -3.096682    0.183935   -3.376210
   19  c       3    2.80   0.00         2    0    1  -0.023   -5.526134   -1.247900    0.079313
   20  si      4    3.48   0.04         3    0    0   0.079   -8.349893    0.330436   -1.485338
   21  c       4    3.48   0.00         3    0    0  -0.029   -7.541347    3.609710   -2.749462
   22  c       4    3.48   0.00         3    0    0  -0.029   -9.344108   -1.777016   -4.240771
   23  c       4    3.48   0.00         3    0    0  -0.016  -11.110499    0.412080    0.862474
   24  c       4    3.49   0.00         3    0    0  -0.048  -10.705711    1.807791    3.360350
   25  c       4    3.49   0.00         3    0    0  -0.053  -10.546062    4.662851    3.044817
   26  c       3    2.83   0.00         2    0    1  -0.034   -5.659111   -2.595523    2.285642
   27  c       3    2.82   0.00         2    0    1  -0.011   -3.527343   -3.761144    3.379808
   28  c       3    2.81   0.00         2    0    1  -0.034   -3.681518   -5.146091    5.650235
   29  c       3    2.81   0.00         2    0    1  -0.029   -1.580687   -6.246641    6.673965
   30  c       3    2.81   0.00         2    0    1  -0.032    0.769585   -6.010921    5.469210
   31  c       3    2.81   0.00         2    0    1  -0.026    0.986043   -4.680569    3.265479
   32  c       3    2.83   0.00         2    0    1  -0.002   -1.149087   -3.525249    2.165473
   33  c       3    2.84   0.00         2    0    1   0.091    3.011125    0.144846   -0.765228
   34  o       2    1.92   0.00         3    0    1  -0.439    2.370654    1.757823    1.133613
   35  h       1    0.97   0.00         0    0    0   0.026    8.842152    4.421593    7.563040
   36  h       1    0.97   0.00         0    0    0   0.026   11.484512    2.606450    6.653364
   37  h       1    0.97   0.00         0    0    0   0.026   11.811416    5.886769    7.158960
   38  h       1    0.97   0.00         0    0    0   0.027   11.678781    4.947047    2.564848
   39  h       1    0.97   0.00         0    0    0   0.027    9.035433    6.755238    3.474814
   40  h       1    0.97   0.00         0    0    0   0.010    9.080064    1.037893    2.818408
   41  h       1    0.97   0.00         0    0    0   0.010    6.460379    2.825890    3.739729
   42  h       1    0.97   0.00         0    0    0   0.011    6.520318    8.080846   -0.796313
   43  h       1    0.97   0.00         0    0    0   0.011    3.709907    6.436475   -0.170799
   44  h       1    0.97   0.00         0    0    0   0.011    4.836170    6.678429   -3.279001
   45  h       1    0.97   0.00         0    0    0   0.011    9.838429    3.745371   -4.873654
   46  h       1    0.97   0.00         0    0    0   0.011   11.471663    1.935609   -2.624580
   47  h       1    0.97   0.00         0    0    0   0.011   11.386203    5.232233   -2.362509
   48  h       1    0.97   0.00         0    0    0   0.043    7.805346   -0.667273   -4.875289
   49  h       1    0.97   0.00         0    0    0   0.040    7.039011   -4.323838   -7.592925
   50  h       1    0.97   0.00         0    0    0   0.047    4.332884   -7.890968   -8.871679
   51  h       1    0.97   0.00         0    0    0   0.040    0.283357   -8.650528   -6.701987
   52  h       1    0.97   0.00         0    0    0   0.037   -1.095671   -5.857902   -3.254033
   53  h       1    0.97   0.01         0    0    0   0.217   -1.399778    0.131305   -4.057598
   54  h       1    0.97   0.00         0    0    0   0.011   -6.207080    4.599795   -1.546150
   55  h       1    0.97   0.00         0    0    0   0.011   -6.685351    3.460971   -4.605728
   56  h       1    0.97   0.00         0    0    0   0.011   -9.223179    4.772560   -2.921374
   57  h       1    0.97   0.00         0    0    0   0.011  -10.966247   -0.996955   -5.224360
   58  h       1    0.97   0.00         0    0    0   0.011   -9.844661   -3.663697   -3.608155
   59  h       1    0.97   0.00         0    0    0   0.011   -7.818527   -1.958242   -5.598479
   60  h       1    0.97   0.00         0    0    0   0.010  -12.746424    1.237845   -0.083140
   61  h       1    0.97   0.00         0    0    0   0.010  -11.636332   -1.536800    1.289857
   62  h       1    0.97   0.00         0    0    0   0.027   -8.978309    1.139456    4.267608
   63  h       1    0.97   0.00         0    0    0   0.027  -12.280758    1.375119    4.628645
   64  h       1    0.97   0.00         0    0    0   0.026  -10.427654    5.579617    4.882104
   65  h       1    0.97   0.00         0    0    0   0.026  -12.213329    5.375162    2.074261
   66  h       1    0.97   0.00         0    0    0   0.026   -8.887815    5.179624    1.954506
   67  h       1    0.97   0.00         0    0    0   0.043   -7.451378   -2.798920    3.238141
   68  h       1    0.97   0.00         0    0    0   0.040   -5.499393   -5.320199    6.565101
   69  h       1    0.97   0.00         0    0    0   0.047   -1.714446   -7.306602    8.413126
   70  h       1    0.97   0.00         0    0    0   0.040    2.412656   -6.895248    6.296545
   71  h       1    0.97   0.00         0    0    0   0.037    2.793130   -4.506205    2.329920
   72  h       1    0.97   0.01         0    0    0   0.217    0.788022    1.217968    1.875624
 
          #atoms :   72
          #bonds :   75
          #angl  :   134
          #tors  :   224
          #nmol  :   1
          #optfrag :   1
           ------------------------------------------------- 
          |                   G F N - F F                   |
          |          A general generic force-field          |
          |                  Version 1.0.3                  | 
           ------------------------------------------------- 
          nhb123   2559 254 0

 E+G (total)                   0 d,  0 h,  0 min,  0.004 sec
 distance/D3 list               ...        0 min,  0.000 sec (  0.762%)
 non bonded repulsion           ...        0 min,  0.000 sec (  7.871%)
 dCN                            ...        0 min,  0.000 sec (  6.177%)
 EEQ energy and q               ...        0 min,  0.000 sec ( 13.227%)
 D3                             ...        0 min,  0.001 sec ( 13.970%)
 EEQ gradient                   ...        0 min,  0.000 sec (  9.513%)
 bonds                          ...        0 min,  0.000 sec (  7.409%)
 bend and torsion               ...        0 min,  0.001 sec ( 14.374%)
 bonded ATM                     ...        0 min,  0.000 sec (  1.284%)
 HB/XB (incl list setup)        ...        0 min,  0.001 sec ( 19.593%)

         :::::::::::::::::::::::::::::::::::::::::::::::::::::
         ::                     SUMMARY                     ::
         :::::::::::::::::::::::::::::::::::::::::::::::::::::
         :: total energy             -12.715153823906 Eh    ::
         :: gradient norm              0.069475551014 Eh/a0 ::
         ::.................................................::
         :: bond energy              -13.332879139260 Eh    ::
         :: angle energy               0.019132577869 Eh    ::
         :: torsion energy             0.011644644380 Eh    ::
         :: repulsion energy           0.820957800440 Eh    ::
         :: electrostat energy        -0.149228177111 Eh    ::
         :: dispersion energy         -0.072787585874 Eh    ::
         :: HB energy                 -0.001210950595 Eh    ::
         :: XB energy                  0.000000000000 Eh    ::
         :: bonded atm energy         -0.010782993754 Eh    ::
         :: external energy            0.000000000000 Eh    ::
         :: add. restraining           0.000000000000 Eh    ::
         :: total charge               0.000000000000 e     ::
         :::::::::::::::::::::::::::::::::::::::::::::::::::::

           -------------------------------------------------
          |                Property Printout                |
           -------------------------------------------------

           -------------------------------------------------
          | TOTAL ENERGY              -12.715153823906 Eh   |
          | GRADIENT NORM               0.069475551014 Eh/α |
           -------------------------------------------------

------------------------------------------------------------------------
 * finished run on 2025/01/21 at 11:24:42.396     
------------------------------------------------------------------------
 total:
 * wall-time:     0 d,  0 h,  0 min,  0.057 sec
 *  cpu-time:     0 d,  0 h,  0 min,  1.016 sec
 * ratio c/w:    17.801 speedup
 SCF:
 * wall-time:     0 d,  0 h,  0 min,  0.006 sec
 *  cpu-time:     0 d,  0 h,  0 min,  0.147 sec
 * ratio c/w:    23.720 speedup

 Calculating NCI flexibility... done.
     covalent flexibility measure :   0.288
 non-covalent flexibility measure :   1.000
 flexibility measure :   0.412
 t(MTD) / ps set by command line  :     0.5
 t(MTD) / ps    :     0.5
 Σ(t(MTD)) / ps :     7.0 (14 MTDs)
 
-------------------------------------
Starting a trial MTD to test settings
-------------------------------------
 Estimated runtime for one MTD (0.5 ps) on a single thread: 2 min 52 sec
 Estimated runtime for a batch of 14 MTDs on 28 threads: 1 min 26 sec
 
 list of Vbias parameters applied:
$metadyn    0.00300   1.300
$metadyn    0.00150   1.300
$metadyn    0.00075   1.300
$metadyn    0.00300   0.780
$metadyn    0.00150   0.780
$metadyn    0.00075   0.780
$metadyn    0.00300   0.468
$metadyn    0.00150   0.468
$metadyn    0.00075   0.468
$metadyn    0.00300   0.281
$metadyn    0.00150   0.281
$metadyn    0.00075   0.281
$metadyn    0.00100   0.100
$metadyn    0.00500   0.800
 
*******************************************************************************************
**                        N E W    I T E R A T I O N    C Y C L E                        **
*******************************************************************************************
 
========================================
            MTD Iteration  1
========================================
 
     ========================================
     |         Meta-MD (MTD) Sampling       |
     ========================================
 
Starting Meta-MD   1 with the settings:
     MD time /ps        :     0.5
     dt /fs             :     1.5
     dumpstep(trj) /fs  :     100
     dumpstep(Vbias)/ps :     1.0
     Vbias factor k /Eh :  0.2160
     Vbias exp α /bohr⁻²:    1.30
Starting Meta-MD   2 with the settings:
     MD time /ps        :     0.5
     dt /fs             :     1.5
     dumpstep(trj) /fs  :     100
     dumpstep(Vbias)/ps :     1.0
     Vbias factor k /Eh :  0.1080
     Vbias exp α /bohr⁻²:    1.30
Starting Meta-MD  14 with the settings:
     MD time /ps        :     0.5
     dt /fs             :     1.5
     dumpstep(trj) /fs  :     100
     dumpstep(Vbias)/ps :     1.0
     Vbias factor k /Eh :  0.3600
     Vbias exp α /bohr⁻²:    0.80
Starting Meta-MD   5 with the settings:
     MD time /ps        :     0.5
     dt /fs             :     1.5
     dumpstep(trj) /fs  :     100
     dumpstep(Vbias)/ps :     1.0
     Vbias factor k /Eh :  0.1080
     Vbias exp α /bohr⁻²:    0.78
Starting Meta-MD   3 with the settings:
     MD time /ps        :     0.5
     dt /fs             :     1.5
     dumpstep(trj) /fs  :     100
     dumpstep(Vbias)/ps :     1.0
     Vbias factor k /Eh :  0.0540
     Vbias exp α /bohr⁻²:    1.30
Starting Meta-MD   6 with the settings:
     MD time /ps        :     0.5
     dt /fs             :     1.5
     dumpstep(trj) /fs  :     100
     dumpstep(Vbias)/ps :     1.0
     Vbias factor k /Eh :  0.0540
     Vbias exp α /bohr⁻²:    0.78
Starting Meta-MD   4 with the settings:
     MD time /ps        :     0.5
     dt /fs             :     1.5
     dumpstep(trj) /fs  :     100
     dumpstep(Vbias)/ps :     1.0
     Vbias factor k /Eh :  0.2160
     Vbias exp α /bohr⁻²:    0.78
Starting Meta-MD   8 with the settings:
     MD time /ps        :     0.5
     dt /fs             :     1.5
     dumpstep(trj) /fs  :     100
     dumpstep(Vbias)/ps :     1.0
     Vbias factor k /Eh :  0.1080
     Vbias exp α /bohr⁻²:    0.47
Starting Meta-MD   9 with the settings:
     MD time /ps        :     0.5
     dt /fs             :     1.5
     dumpstep(trj) /fs  :     100
     dumpstep(Vbias)/ps :     1.0
     Vbias factor k /Eh :  0.0540
     Vbias exp α /bohr⁻²:    0.47
Starting Meta-MD  10 with the settings:
     MD time /ps        :     0.5
     dt /fs             :     1.5
     dumpstep(trj) /fs  :     100
     dumpstep(Vbias)/ps :     1.0
     Vbias factor k /Eh :  0.2160
     Vbias exp α /bohr⁻²:    0.28
Starting Meta-MD  11 with the settings:
     MD time /ps        :     0.5
     dt /fs             :     1.5
     dumpstep(trj) /fs  :     100
     dumpstep(Vbias)/ps :     1.0
     Vbias factor k /Eh :  0.1080
     Vbias exp α /bohr⁻²:    0.28
Starting Meta-MD  12 with the settings:
     MD time /ps        :     0.5
     dt /fs             :     1.5
     dumpstep(trj) /fs  :     100
     dumpstep(Vbias)/ps :     1.0
     Vbias factor k /Eh :  0.0540
     Vbias exp α /bohr⁻²:    0.28
Starting Meta-MD  13 with the settings:
     MD time /ps        :     0.5
     dt /fs             :     1.5
     dumpstep(trj) /fs  :     100
     dumpstep(Vbias)/ps :     1.0
     Vbias factor k /Eh :  0.0720
     Vbias exp α /bohr⁻²:    0.10
Starting Meta-MD   7 with the settings:
     MD time /ps        :     0.5
     dt /fs             :     1.5
     dumpstep(trj) /fs  :     100
     dumpstep(Vbias)/ps :     1.0
     Vbias factor k /Eh :  0.2160
     Vbias exp α /bohr⁻²:    0.47
*Meta-MTD 2 finished*
*Meta-MTD 12 finished*
*Meta-MTD 7 finished*
*Meta-MTD 9 finished*
*Meta-MTD 11 finished*
*Meta-MTD 1 finished*
*Meta-MTD 5 finished*
*Meta-MTD 3 finished*
*Meta-MTD 13 finished*
*Meta-MTD 6 finished*
*Meta-MTD 4 finished*
*Meta-MTD 8 finished*
*Meta-MTD 14 finished*
*Meta-MTD 10 finished*
 
-----------------------
Multilevel Optimization
-----------------------
 
 -------------------------
 1. crude pre-optimization
 -------------------------
 Optimizing all 70 structures from file "crest_rotamers_0.xyz" ...
 1 2 3 4 5 6 7 8 9 10 11 12 13 14 15 16 17 18 19 20 21 22 23 24 25 26 27 28 29 30 31 32 33 34 35 36 37 38 39 40 41 42 43 44 45 46 47 48 49 50 51 52 53 54 55 56 57 58 59 60 61 62 63 64 65 66 67 68 69 70
 done.
 running RMSDs...
 done.
 E lowest :   -95.20286
 70 structures remain within    12.00 kcal/mol window
 
 -------------------------------------
 2. optimization with tight thresholds
 -------------------------------------
 Optimizing all 71 structures from file "crest_rotamers_1.xyz" ...
 1 2 3 4 5 6 7 8 9 10 11 12 13 14 15 16 17 18 19 20 21 22 23 24 25 26 27 28 29 30 31 32 33 34 35 36 37 38 39 40 41 42 43 44 45 46 47 48 49 50 51 52 53 54 55 56 57 58 59 60 61 62 63 64 65 66 67 68 69 70 71
 done.
 running RMSDs...
 done.
 E lowest :   -95.20686
 55 structures remain within     6.00 kcal/mol window
 
 
========================================
            MTD Iteration  2
========================================
 
     ========================================
     |         Meta-MD (MTD) Sampling       |
     ========================================
 
Starting Meta-MD   1 with the settings:
     MD time /ps        :     0.5
     dt /fs             :     1.5
     dumpstep(trj) /fs  :     100
     dumpstep(Vbias)/ps :     1.0
     Vbias factor k /Eh :  0.2160
     Vbias exp α /bohr⁻²:    1.30
Starting Meta-MD   2 with the settings:
     MD time /ps        :     0.5
     dt /fs             :     1.5
     dumpstep(trj) /fs  :     100
     dumpstep(Vbias)/ps :     1.0
     Vbias factor k /Eh :  0.1080
     Vbias exp α /bohr⁻²:    1.30
Starting Meta-MD   3 with the settings:
     MD time /ps        :     0.5
     dt /fs             :     1.5
     dumpstep(trj) /fs  :     100
     dumpstep(Vbias)/ps :     1.0
     Vbias factor k /Eh :  0.0540
     Vbias exp α /bohr⁻²:    1.30
Starting Meta-MD   4 with the settings:
     MD time /ps        :     0.5
     dt /fs             :     1.5
     dumpstep(trj) /fs  :     100
     dumpstep(Vbias)/ps :     1.0
     Vbias factor k /Eh :  0.2160
     Vbias exp α /bohr⁻²:    0.78
Starting Meta-MD   5 with the settings:
     MD time /ps        :     0.5
     dt /fs             :     1.5
     dumpstep(trj) /fs  :     100
     dumpstep(Vbias)/ps :     1.0
     Vbias factor k /Eh :  0.1080
     Vbias exp α /bohr⁻²:    0.78
Starting Meta-MD   6 with the settings:
     MD time /ps        :     0.5
     dt /fs             :     1.5
     dumpstep(trj) /fs  :     100
     dumpstep(Vbias)/ps :     1.0
     Vbias factor k /Eh :  0.0540
     Vbias exp α /bohr⁻²:    0.78
Starting Meta-MD   7 with the settings:
     MD time /ps        :     0.5
     dt /fs             :     1.5
     dumpstep(trj) /fs  :     100
     dumpstep(Vbias)/ps :     1.0
     Vbias factor k /Eh :  0.2160
     Vbias exp α /bohr⁻²:    0.47
Starting Meta-MD   8 with the settings:
     MD time /ps        :     0.5
     dt /fs             :     1.5
     dumpstep(trj) /fs  :     100
     dumpstep(Vbias)/ps :     1.0
     Vbias factor k /Eh :  0.1080
     Vbias exp α /bohr⁻²:    0.47
Starting Meta-MD   9 with the settings:
     MD time /ps        :     0.5
     dt /fs             :     1.5
     dumpstep(trj) /fs  :     100
     dumpstep(Vbias)/ps :     1.0
     Vbias factor k /Eh :  0.0540
     Vbias exp α /bohr⁻²:    0.47
Starting Meta-MD  10 with the settings:
     MD time /ps        :     0.5
     dt /fs             :     1.5
     dumpstep(trj) /fs  :     100
     dumpstep(Vbias)/ps :     1.0
     Vbias factor k /Eh :  0.2160
     Vbias exp α /bohr⁻²:    0.28
Starting Meta-MD  12 with the settings:
     MD time /ps        :     0.5
     dt /fs             :     1.5
     dumpstep(trj) /fs  :     100
     dumpstep(Vbias)/ps :     1.0
     Vbias factor k /Eh :  0.0540
     Vbias exp α /bohr⁻²:    0.28
Starting Meta-MD  11 with the settings:
     MD time /ps        :     0.5
     dt /fs             :     1.5
     dumpstep(trj) /fs  :     100
     dumpstep(Vbias)/ps :     1.0
     Vbias factor k /Eh :  0.1080
     Vbias exp α /bohr⁻²:    0.28
*Meta-MTD 11 finished*
*Meta-MTD 3 finished*
*Meta-MTD 2 finished*
*Meta-MTD 8 finished*
*Meta-MTD 9 finished*
*Meta-MTD 12 finished*
*Meta-MTD 10 finished*
*Meta-MTD 5 finished*
*Meta-MTD 7 finished*
*Meta-MTD 4 finished*
*Meta-MTD 6 finished*
*Meta-MTD 1 finished*
 
-----------------------
Multilevel Optimization
-----------------------
 
 -------------------------
 1. crude pre-optimization
 -------------------------
 Optimizing all 60 structures from file "crest_rotamers_0.xyz" ...
 1 2 3 4 5 6 7 8 9 10 11 12 13 14 15 16 17 18 19 20 21 22 23 24 25 26 27 28 29 30 31 32 33 34 35 36 37 38 39 40 41 42 43 44 45 46 47 48 49 50 51 52 53 54 55 56 57 58 59 60
 done.
 running RMSDs...
 done.
 E lowest :   -95.20569
 58 structures remain within    12.00 kcal/mol window
 
 -------------------------------------
 2. optimization with tight thresholds
 -------------------------------------
 Optimizing all 59 structures from file "crest_rotamers_1.xyz" ...
 1 2 3 4 5 6 7 8 9 10 11 12 13 14 15 16 17 18 19 20 21 22 23 24 25 26 27 28 29 30 31 32 33 34 35 36 37 38 39 40 41 42 43 44 45 46 47 48 49 50 51 52 53 54 55 56 57 58 59
 done.
 running RMSDs...
 done.
 E lowest :   -95.20771
 48 structures remain within     6.00 kcal/mol window
 
 ...............................................
 A new lower conformer was found!
 Improved by    0.00085 Eh or    0.53084kcal/mol
 ...............................................
 
========================================
            MTD Iteration  3
========================================
 
     ========================================
     |         Meta-MD (MTD) Sampling       |
     ========================================
 
Starting Meta-MD   1 with the settings:
     MD time /ps        :     0.5
     dt /fs             :     1.5
     dumpstep(trj) /fs  :     100
     dumpstep(Vbias)/ps :     1.0
     Vbias factor k /Eh :  0.2160
     Vbias exp α /bohr⁻²:    1.30
Starting Meta-MD   2 with the settings:
     MD time /ps        :     0.5
     dt /fs             :     1.5
     dumpstep(trj) /fs  :     100
     dumpstep(Vbias)/ps :     1.0
     Vbias factor k /Eh :  0.1080
     Vbias exp α /bohr⁻²:    1.30
Starting Meta-MD   3 with the settings:
     MD time /ps        :     0.5
     dt /fs             :     1.5
     dumpstep(trj) /fs  :     100
     dumpstep(Vbias)/ps :     1.0
     Vbias factor k /Eh :  0.0540
     Vbias exp α /bohr⁻²:    1.30
Starting Meta-MD   4 with the settings:
     MD time /ps        :     0.5
     dt /fs             :     1.5
     dumpstep(trj) /fs  :     100
     dumpstep(Vbias)/ps :     1.0
     Vbias factor k /Eh :  0.2160
     Vbias exp α /bohr⁻²:    0.78
Starting Meta-MD   5 with the settings:
     MD time /ps        :     0.5
     dt /fs             :     1.5
     dumpstep(trj) /fs  :     100
     dumpstep(Vbias)/ps :     1.0
     Vbias factor k /Eh :  0.1080
     Vbias exp α /bohr⁻²:    0.78
Starting Meta-MD   6 with the settings:
     MD time /ps        :     0.5
     dt /fs             :     1.5
     dumpstep(trj) /fs  :     100
     dumpstep(Vbias)/ps :     1.0
     Vbias factor k /Eh :  0.0540
     Vbias exp α /bohr⁻²:    0.78
Starting Meta-MD   7 with the settings:
     MD time /ps        :     0.5
     dt /fs             :     1.5
     dumpstep(trj) /fs  :     100
     dumpstep(Vbias)/ps :     1.0
     Vbias factor k /Eh :  0.2160
     Vbias exp α /bohr⁻²:    0.47
Starting Meta-MD   8 with the settings:
     MD time /ps        :     0.5
     dt /fs             :     1.5
     dumpstep(trj) /fs  :     100
     dumpstep(Vbias)/ps :     1.0
     Vbias factor k /Eh :  0.1080
     Vbias exp α /bohr⁻²:    0.47
Starting Meta-MD   9 with the settings:
     MD time /ps        :     0.5
     dt /fs             :     1.5
     dumpstep(trj) /fs  :     100
     dumpstep(Vbias)/ps :     1.0
     Vbias factor k /Eh :  0.0540
     Vbias exp α /bohr⁻²:    0.47
Starting Meta-MD  10 with the settings:
     MD time /ps        :     0.5
     dt /fs             :     1.5
     dumpstep(trj) /fs  :     100
     dumpstep(Vbias)/ps :     1.0
     Vbias factor k /Eh :  0.2160
     Vbias exp α /bohr⁻²:    0.28
Starting Meta-MD  12 with the settings:
     MD time /ps        :     0.5
     dt /fs             :     1.5
     dumpstep(trj) /fs  :     100
     dumpstep(Vbias)/ps :     1.0
     Vbias factor k /Eh :  0.0540
     Vbias exp α /bohr⁻²:    0.28
Starting Meta-MD  11 with the settings:
     MD time /ps        :     0.5
     dt /fs             :     1.5
     dumpstep(trj) /fs  :     100
     dumpstep(Vbias)/ps :     1.0
     Vbias factor k /Eh :  0.1080
     Vbias exp α /bohr⁻²:    0.28
*Meta-MTD 3 finished*
*Meta-MTD 8 finished*
*Meta-MTD 11 finished*
*Meta-MTD 5 finished*
*Meta-MTD 1 finished*
*Meta-MTD 9 finished*
*Meta-MTD 2 finished*
*Meta-MTD 12 finished*
*Meta-MTD 6 finished*
*Meta-MTD 10 finished*
*Meta-MTD 7 finished*
*Meta-MTD 4 finished*
 
-----------------------
Multilevel Optimization
-----------------------
 
 -------------------------
 1. crude pre-optimization
 -------------------------
 Optimizing all 60 structures from file "crest_rotamers_0.xyz" ...
 1 2 3 4 5 6 7 8 9 10 11 12 13 14 15 16 17 18 19 20 21 22 23 24 25 26 27 28 29 30 31 32 33 34 35 36 37 38 39 40 41 42 43 44 45 46 47 48 49 50 51 52 53 54 55 56 57 58 59 60
 done.
 running RMSDs...
 done.
 E lowest :   -95.20692
 60 structures remain within    12.00 kcal/mol window
 
 -------------------------------------
 2. optimization with tight thresholds
 -------------------------------------
 Optimizing all 61 structures from file "crest_rotamers_1.xyz" ...
 1 2 3 4 5 6 7 8 9 10 11 12 13 14 15 16 17 18 19 20 21 22 23 24 25 26 27 28 29 30 31 32 33 34 35 36 37 38 39 40 41 42 43 44 45 46 47 48 49 50 51 52 53 54 55 56 57 58 59 60 61
 done.
 running RMSDs...
 done.
 E lowest :   -95.20842
 44 structures remain within     6.00 kcal/mol window
 
 ...............................................
 A new lower conformer was found!
 Improved by    0.00071 Eh or    0.44708kcal/mol
 ...............................................
 
========================================
            MTD Iteration  4
========================================
 
     ========================================
     |         Meta-MD (MTD) Sampling       |
     ========================================
 
Starting Meta-MD   1 with the settings:
     MD time /ps        :     0.5
     dt /fs             :     1.5
     dumpstep(trj) /fs  :     100
     dumpstep(Vbias)/ps :     1.0
     Vbias factor k /Eh :  0.2160
     Vbias exp α /bohr⁻²:    1.30
Starting Meta-MD   2 with the settings:
     MD time /ps        :     0.5
     dt /fs             :     1.5
     dumpstep(trj) /fs  :     100
     dumpstep(Vbias)/ps :     1.0
     Vbias factor k /Eh :  0.1080
     Vbias exp α /bohr⁻²:    1.30
Starting Meta-MD   3 with the settings:
     MD time /ps        :     0.5
     dt /fs             :     1.5
     dumpstep(trj) /fs  :     100
     dumpstep(Vbias)/ps :     1.0
     Vbias factor k /Eh :  0.0540
     Vbias exp α /bohr⁻²:    1.30
Starting Meta-MD   4 with the settings:
     MD time /ps        :     0.5
     dt /fs             :     1.5
     dumpstep(trj) /fs  :     100
     dumpstep(Vbias)/ps :     1.0
     Vbias factor k /Eh :  0.2160
     Vbias exp α /bohr⁻²:    0.78
Starting Meta-MD   5 with the settings:
     MD time /ps        :     0.5
     dt /fs             :     1.5
     dumpstep(trj) /fs  :     100
     dumpstep(Vbias)/ps :     1.0
     Vbias factor k /Eh :  0.1080
     Vbias exp α /bohr⁻²:    0.78
Starting Meta-MD   6 with the settings:
     MD time /ps        :     0.5
     dt /fs             :     1.5
     dumpstep(trj) /fs  :     100
     dumpstep(Vbias)/ps :     1.0
     Vbias factor k /Eh :  0.0540
     Vbias exp α /bohr⁻²:    0.78
Starting Meta-MD   7 with the settings:
     MD time /ps        :     0.5
     dt /fs             :     1.5
     dumpstep(trj) /fs  :     100
     dumpstep(Vbias)/ps :     1.0
     Vbias factor k /Eh :  0.2160
     Vbias exp α /bohr⁻²:    0.47
Starting Meta-MD   8 with the settings:
     MD time /ps        :     0.5
     dt /fs             :     1.5
     dumpstep(trj) /fs  :     100
     dumpstep(Vbias)/ps :     1.0
     Vbias factor k /Eh :  0.1080
     Vbias exp α /bohr⁻²:    0.47
Starting Meta-MD   9 with the settings:
     MD time /ps        :     0.5
     dt /fs             :     1.5
     dumpstep(trj) /fs  :     100
     dumpstep(Vbias)/ps :     1.0
     Vbias factor k /Eh :  0.0540
     Vbias exp α /bohr⁻²:    0.47
Starting Meta-MD  10 with the settings:
     MD time /ps        :     0.5
     dt /fs             :     1.5
     dumpstep(trj) /fs  :     100
     dumpstep(Vbias)/ps :     1.0
     Vbias factor k /Eh :  0.2160
     Vbias exp α /bohr⁻²:    0.28
Starting Meta-MD  11 with the settings:
     MD time /ps        :     0.5
     dt /fs             :     1.5
     dumpstep(trj) /fs  :     100
     dumpstep(Vbias)/ps :     1.0
     Vbias factor k /Eh :  0.1080
     Vbias exp α /bohr⁻²:    0.28
Starting Meta-MD  12 with the settings:
     MD time /ps        :     0.5
     dt /fs             :     1.5
     dumpstep(trj) /fs  :     100
     dumpstep(Vbias)/ps :     1.0
     Vbias factor k /Eh :  0.0540
     Vbias exp α /bohr⁻²:    0.28
*Meta-MTD 4 finished*
*Meta-MTD 3 finished*
*Meta-MTD 2 finished*
*Meta-MTD 8 finished*
*Meta-MTD 5 finished*
*Meta-MTD 6 finished*
*Meta-MTD 9 finished*
*Meta-MTD 1 finished*
*Meta-MTD 12 finished*
*Meta-MTD 7 finished*
*Meta-MTD 10 finished*
*Meta-MTD 11 finished*
 
-----------------------
Multilevel Optimization
-----------------------
 
 -------------------------
 1. crude pre-optimization
 -------------------------
 Optimizing all 60 structures from file "crest_rotamers_0.xyz" ...
 1 2 3 4 5 6 7 8 9 10 11 12 13 14 15 16 17 18 19 20 21 22 23 24 25 26 27 28 29 30 31 32 33 34 35 36 37 38 39 40 41 42 43 44 45 46 47 48 49 50 51 52 53 54 55 56 57 58 59 60
 done.
 running RMSDs...
 done.
 E lowest :   -95.20761
 57 structures remain within    12.00 kcal/mol window
 
 -------------------------------------
 2. optimization with tight thresholds
 -------------------------------------
 Optimizing all 58 structures from file "crest_rotamers_1.xyz" ...
 1 2 3 4 5 6 7 8 9 10 11 12 13 14 15 16 17 18 19 20 21 22 23 24 25 26 27 28 29 30 31 32 33 34 35 36 37 38 39 40 41 42 43 44 45 46 47 48 49 50 51 52 53 54 55 56 57 58
 done.
 running RMSDs...
 done.
 E lowest :   -95.20845
 40 structures remain within     6.00 kcal/mol window
 
========================================
            MTD Iterations done         
========================================
 Collecting ensmbles.
 running RMSDs...
 done.
 E lowest :   -95.20845
 185 structures remain within     6.00 kcal/mol window
 
 -------------------------------
 Additional orientation sampling
 -------------------------------
 Optimizing all 240 structures from file "oh_ensemble.xyz" ...
 1 2 3 4 5 6 7 8 9 10 11 12 13 14 15 16 17 18 19 20 21 22 23 24 25 26 27 28 29 30 31 32 33 34 35 36 37 38 39 40 41 42 43 44 45 46 47 48 49 50 51 52 53 54 55 56 57 58 59 60 61 62 63 64 65 66 67 68 69 70 71 72 73 74 75 76 77 78 79 80 81 82 83 84 85 86 87 88 89 90 91 92 93 94 95 96 97 98 99 100 101 102 103 104 105 106 107 108 109 110 111 112 113 114 115 116 117 118 119 120 121 122 123 124 125 126 127 128 129 130 131 132 133 134 135 136 137 138 139 140 141 142 143 144 145 146 147 148 149 150 151 152 153 154 155 156 157 158 159 160 161 162 163 164 165 166 167 168 169 170 171 172 173 174 175 176 177 178 179 180 181 182 183 184 185 186 187 188 189 190 191 192 193 194 195 196 197 198 199 200 201 202 203 204 205 206 207 208 209 210 211 212 213 214 215 216 217 218 219 220 221 222 223 224 225 226 227 228 229 230 231 232 233 234 235 236 237 238 239 240
 done.
 running RMSDs...
 done.
 E lowest :   -95.20845
 369 structures remain within     6.00 kcal/mol window
 
-----------------------------------------------
Additional regular MDs on lowest 4 conformer(s)
-----------------------------------------------
Starting MD   1 with the settings:
     MD time /ps        :     0.2
     MD Temperature /K  :   400.0
     dt /fs             :     1.5
     dumpstep(trj) /fs  :     100
Starting MD   2 with the settings:
     MD time /ps        :     0.2
     MD Temperature /K  :   500.0
     dt /fs             :     1.5
     dumpstep(trj) /fs  :     100
Starting MD   3 with the settings:
     MD time /ps        :     0.2
     MD Temperature /K  :   400.0
     dt /fs             :     1.5
     dumpstep(trj) /fs  :     100
Starting MD   4 with the settings:
     MD time /ps        :     0.2
     MD Temperature /K  :   500.0
     dt /fs             :     1.5
     dumpstep(trj) /fs  :     100
Starting MD   5 with the settings:
     MD time /ps        :     0.2
     MD Temperature /K  :   400.0
     dt /fs             :     1.5
     dumpstep(trj) /fs  :     100
Starting MD   6 with the settings:
     MD time /ps        :     0.2
     MD Temperature /K  :   500.0
     dt /fs             :     1.5
     dumpstep(trj) /fs  :     100
Starting MD   8 with the settings:
     MD time /ps        :     0.2
     MD Temperature /K  :   500.0
     dt /fs             :     1.5
     dumpstep(trj) /fs  :     100
Starting MD   7 with the settings:
     MD time /ps        :     0.2
     MD Temperature /K  :   400.0
     dt /fs             :     1.5
     dumpstep(trj) /fs  :     100
*MD 4 finished*
*MD 1 finished*
*MD 2 finished*
*MD 7 finished*
*MD 5 finished*
*MD 3 finished*
*MD 8 finished*
*MD 6 finished*
 Appending file crest_rotamers_2.xyz with new structures
 
 -------------------------------------------
 Ensemble optimization with tight thresholds
 -------------------------------------------
 Optimizing all 385 structures from file "crest_rotamers_2.xyz" ...
 1 2 3 4 5 6 7 8 9 10 11 12 13 14 15 16 17 18 19 20 21 22 23 24 25 26 27 28 29 30 31 32 33 34 35 36 37 38 39 40 41 42 43 44 45 46 47 48 49 50 51 52 53 54 55 56 57 58 59 60 61 62 63 64 65 66 67 68 69 70 71 72 73 74 75 76 77 78 79 80 81 82 83 84 85 86 87 88 89 90 91 92 93 94 95 96 97 98 99 100 101 102 103 104 105 106 107 108 109 110 111 112 113 114 115 116 117 118 119 120 121 122 123 124 125 126 127 128 129 130 131 132 133 134 135 136 137 138 139 140 141 142 143 144 145 146 147 148 149 150 151 152 153 154 155 156 157 158 159 160 161 162 163 164 165 166 167 168 169 170 171 172 173 174 175 176 177 178 179 180 181 182 183 184 185 186 187 188 189 190 191 192 193 194 195 196 197 198 199 200 201 202 203 204 205 206 207 208 209 210 211 212 213 214 215 216 217 218 219 220 221 222 223 224 225 226 227 228 229 230 231 232 233 234 235 236 237 238 239 240 241 242 243 244 245 246 247 248 249 250 251 252 253 254 255 256 257 258 259 260 261 262 263 264 265 266 267 268 269 270 271 272 273 274 275 276 277 278 279 280 281 282 283 284 285 286 287 288 289 290 291 292 293 294 295 296 297 298 299 300 301 302 303 304 305 306 307 308 309 310 311 312 313 314 315 316 317 318 319 320 321 322 323 324 325 326 327 328 329 330 331 332 333 334 335 336 337 338 339 340 341 342 343 344 345 346 347 348 349 350 351 352 353 354 355 356 357 358 359 360 361 362 363 364 365 366 367 368 369 370 371 372 373 374 375 376 377 378 379 380 381 382 383 384 385
 done.
 running RMSDs...
 done.
 E lowest :   -95.20845
 376 structures remain within     6.00 kcal/mol window
 
 
     ========================================
     |        Structure Crossing (GC)       |
     ========================================
 =============================
  # threads =          28
 =============================
 input  file name : crest_rotamers_4.xyz
number of atoms                :    72
number of points on xyz files  :   376
conformer energy window  /kcal :    6.00
CN per atom difference cut-off :  0.3000
RMSD threshold                 :  0.5000
max. # of generated structures : 25
 reading xyz file ...
 # in E window                376
 generating pairs ...       70875
  19.7 % done
  29.0 % done
  79.3 % done
 generated pairs           :       17720
 number of clash discarded :       52780
 average rmsd w.r.t input  : 4.12173
 sd of ensemble            : 1.46408
 number of new structures      :           2
 removed identical structures  :          48
 writing            2  TMPCONF* dirs ...
 --------------------------
 GC: loose pre-optimization
 --------------------------
 Starting optimization of generated structures
 2 jobs to do.
 1 2 
 done.
 Now appending opt.xyz file with new structures
 running RMSDs...
 done.
 E lowest :   -95.20834
 2 structures remain within    10.00 kcal/mol window
 --------------------------------------
 GC: optimization with tight thresholds
 --------------------------------------
 Optimizing all 2 structures from file "crest_rotamers_1.xyz" ...
 1 2
 done.
 running RMSDs...
 done.
 E lowest :   -95.20845
 
 
   ================================================
   |           Final Geometry Optimization        |
   ================================================
 ------------------------------------------------
 Ensemble optimization with very tight thresholds
 ------------------------------------------------
 Optimizing all 376 structures from file "crest_rotamers_5.xyz" ...
 1 2 3 4 5 6 7 8 9 10 11 12 13 14 15 16 17 18 19 20 21 22 23 24 25 26 27 28 29 30 31 32 33 34 35 36 37 38 39 40 41 42 43 44 45 46 47 48 49 50 51 52 53 54 55 56 57 58 59 60 61 62 63 64 65 66 67 68 69 70 71 72 73 74 75 76 77 78 79 80 81 82 83 84 85 86 87 88 89 90 91 92 93 94 95 96 97 98 99 100 101 102 103 104 105 106 107 108 109 110 111 112 113 114 115 116 117 118 119 120 121 122 123 124 125 126 127 128 129 130 131 132 133 134 135 136 137 138 139 140 141 142 143 144 145 146 147 148 149 150 151 152 153 154 155 156 157 158 159 160 161 162 163 164 165 166 167 168 169 170 171 172 173 174 175 176 177 178 179 180 181 182 183 184 185 186 187 188 189 190 191 192 193 194 195 196 197 198 199 200 201 202 203 204 205 206 207 208 209 210 211 212 213 214 215 216 217 218 219 220 221 222 223 224 225 226 227 228 229 230 231 232 233 234 235 236 237 238 239 240 241 242 243 244 245 246 247 248 249 250 251 252 253 254 255 256 257 258 259 260 261 262 263 264 265 266 267 268 269 270 271 272 273 274 275 276 277 278 279 280 281 282 283 284 285 286 287 288 289 290 291 292 293 294 295 296 297 298 299 300 301 302 303 304 305 306 307 308 309 310 311 312 313 314 315 316 317 318 319 320 321 322 323 324 325 326 327 328 329 330 331 332 333 334 335 336 337 338 339 340 341 342 343 344 345 346 347 348 349 350 351 352 353 354 355 356 357 358 359 360 361 362 363 364 365 366 367 368 369 370 371 372 373 374 375 376
 done.
 running RMSDs...
 done.
 E lowest :   -95.20845
 375 structures remain within     6.00 kcal/mol window
 
 input  file name : crest_rotamers_6.xyz
 output file name : crest_rotamers_7.xyz
 number of atoms                :   72
 number of points on xyz files  :   376
 RMSD threshold                 :   0.2500
 Bconst threshold               :   0.0100
 population threshold           :   0.0500
 conformer energy window  /kcal :   6.0000
 # fragment in coord            :     1
 # bonds in reference structure :    75
   => # of C=C bonds :     8
 number of reliable points      :   376
 reference state Etot :  -95.2084514800000
 number of doubles removed by rot/RMSD         :           1
 total number unique points considered further :         375
       Erel/kcal        Etot weight/tot  conformer     set   degen     origin
       1   0.000   -95.20845    0.02147    0.31838       1      15     md4
       2   0.001   -95.20845    0.02144                                mtd3
       3   0.001   -95.20845    0.02143                                mtd11
       4   0.002   -95.20845    0.02141                                mtd10
       5   0.003   -95.20845    0.02136                                md6
       6   0.004   -95.20845    0.02133                                mtd3
       7   0.006   -95.20844    0.02124                                md4
       8   0.007   -95.20844    0.02124                                md5
       9   0.008   -95.20844    0.02119                                md8
      10   0.009   -95.20844    0.02115                                mtd3
      11   0.009   -95.20844    0.02113                                mtd11
      12   0.011   -95.20843    0.02106                                mtd4
      13   0.012   -95.20843    0.02106                                mtd3
      14   0.012   -95.20843    0.02103                                gc
      15   0.018   -95.20842    0.02083                                mtd4
      16   0.018   -95.20842    0.02082    0.08148       2       4     md1
      17   0.029   -95.20841    0.02045                                mtd8
      18   0.047   -95.20838    0.01984                                md1
      19   0.031   -95.20840    0.02037                                md5
      20   0.040   -95.20839    0.02007    0.02007       3       1     mtd5
      21   0.052   -95.20837    0.01966    0.03914       4       2     mtd2
      22   0.058   -95.20836    0.01948                                mtd8
      23   0.259   -95.20804    0.01386    0.01386       5       1     mtd5
      24   0.301   -95.20797    0.01293    0.01293       6       1     mtd8
      25   0.321   -95.20794    0.01249    0.03707       7       3     mtd5
      26   0.327   -95.20793    0.01238                                mtd8
      27   0.336   -95.20792    0.01219                                mtd5
      28   0.459   -95.20772    0.00991    0.08825       8       9     mtd6
      29   0.459   -95.20772    0.00989                                mtd9
      30   0.461   -95.20772    0.00987                                mtd7
      31   0.463   -95.20771    0.00983                                mtd1
      32   0.465   -95.20771    0.00980                                mtd6
      33   0.466   -95.20771    0.00979                                mtd1
      34   0.467   -95.20771    0.00978                                mtd10
      35   0.476   -95.20769    0.00963                                mtd10
      36   0.467   -95.20771    0.00976                                mtd4
      37   0.470   -95.20770    0.00971    0.01933       9       2     mtd4
      38   0.476   -95.20769    0.00962                                mtd5
      39   0.493   -95.20767    0.00935    0.01867      10       2     mtd4
      40   0.495   -95.20766    0.00933                                mtd4
      41   0.520   -95.20762    0.00893    0.01777      11       2     mtd4
      42   0.526   -95.20761    0.00884                                mtd9
      43   0.557   -95.20756    0.00839    0.00839      12       1     mtd6
      44   0.591   -95.20751    0.00793    0.01577      13       2     mtd8
      45   0.597   -95.20750    0.00784                                mtd9
      46   0.616   -95.20747    0.00760    0.03011      14       4     mtd6
      47   0.620   -95.20746    0.00755                                mtd4
      48   0.622   -95.20746    0.00752                                mtd9
      49   0.629   -95.20745    0.00744                                mtd5
      50   0.637   -95.20744    0.00734    0.01466      15       2     mtd10
      51   0.638   -95.20743    0.00732                                mtd2
      52   0.648   -95.20742    0.00720    0.01453      16       2     mtd1
      53   0.637   -95.20744    0.00733                                mtd8
      54   0.668   -95.20739    0.00696    0.00696      17       1     mtd2
      55   0.723   -95.20730    0.00635    0.00635      18       1     mtd1
      56   0.752   -95.20725    0.00604    0.00604      19       1     mtd8
      57   0.816   -95.20715    0.00542    0.00542      20       1     mtd7
      58   0.862   -95.20708    0.00502    0.01491      21       3     mtd6
      59   0.864   -95.20707    0.00500                                mtd6
      60   0.877   -95.20705    0.00489                                mtd5
      61   0.886   -95.20704    0.00482    0.00482      22       1     mtd6
      62   0.910   -95.20700    0.00463    0.00906      23       2     mtd4
      63   0.936   -95.20696    0.00443                                mtd9
      64   0.939   -95.20695    0.00440    0.00440      24       1     mtd12
      65   0.943   -95.20695    0.00438    0.01744      25       4     mtd12
      66   0.943   -95.20695    0.00438                                mtd4
      67   0.945   -95.20695    0.00436                                mtd3
      68   0.951   -95.20694    0.00432                                mtd7
      69   0.952   -95.20693    0.00431    0.00867      26       2     mtd12
      70   0.945   -95.20695    0.00436                                mtd3
      71   0.952   -95.20693    0.00431    0.00861      27       2     mtd10
      72   0.954   -95.20693    0.00429                                mtd5
      73   0.961   -95.20692    0.00425    0.01272      28       3     mtd2
      74   0.962   -95.20692    0.00424                                mtd8
      75   0.964   -95.20692    0.00423                                mtd4
      76   0.969   -95.20691    0.00419    0.00419      29       1     mtd5
      77   0.971   -95.20690    0.00418    0.00418      30       1     mtd9
      78   0.974   -95.20690    0.00416    0.01230      31       3     mtd1
      79   0.985   -95.20688    0.00408                                mtd11
      80   0.988   -95.20688    0.00406                                mtd7
      81   0.985   -95.20688    0.00408    0.00806      32       2     mtd2
      82   1.000   -95.20686    0.00398                                mtd4
      83   1.001   -95.20686    0.00397    0.00790      33       2     mtd2
      84   1.007   -95.20685    0.00393                                mtd1
      85   1.060   -95.20676    0.00359    0.00713      34       2     mtd8
      86   1.069   -95.20675    0.00354                                mtd8
      87   1.137   -95.20664    0.00316    0.00316      35       1     mtd2
      88   1.138   -95.20664    0.00315    0.00315      36       1     mtd12
      89   1.156   -95.20661    0.00306    0.00609      37       2     mtd1
      90   1.161   -95.20660    0.00303                                mtd1
      91   1.168   -95.20659    0.00300    0.00300      38       1     mtd11
      92   1.196   -95.20655    0.00286    0.00286      39       1     mtd6
      93   1.201   -95.20654    0.00283    0.01131      40       4     mtd7
      94   1.201   -95.20654    0.00283                                mtd7
      95   1.203   -95.20653    0.00282                                mtd7
      96   1.205   -95.20653    0.00282                                mtd10
      97   1.235   -95.20648    0.00267    0.00267      41       1     mtd10
      98   1.258   -95.20645    0.00257    0.00257      42       1     mtd4
      99   1.258   -95.20645    0.00257    0.00257      43       1     mtd11
     100   1.260   -95.20644    0.00257    0.00257      44       1     mtd11
     101   1.351   -95.20630    0.00220    0.00439      45       2     mtd9
     102   1.353   -95.20630    0.00219                                mtd9
     103   1.377   -95.20626    0.00211    0.00211      46       1     mtd11
     104   1.401   -95.20622    0.00202    0.00202      47       1     mtd1
     105   1.432   -95.20617    0.00192    0.00192      48       1     mtd10
     106   1.443   -95.20615    0.00188    0.00188      49       1     mtd4
     107   1.459   -95.20613    0.00183    0.00183      50       1     mtd3
     108   1.467   -95.20611    0.00181    0.00181      51       1     mtd1
     109   1.484   -95.20609    0.00176    0.00176      52       1     mtd4
     110   1.548   -95.20599    0.00158    0.00316      53       2     mtd12
     111   1.548   -95.20598    0.00158                                mtd2
     112   1.550   -95.20598    0.00157    0.00157      54       1     mtd5
     113   1.554   -95.20597    0.00156    0.00156      55       1     mtd5
     114   1.559   -95.20597    0.00155    0.00155      56       1     mtd3
     115   1.593   -95.20591    0.00146    0.00146      57       1     mtd14
     116   1.602   -95.20590    0.00144    0.00144      58       1     mtd12
     117   1.622   -95.20587    0.00139    0.00139      59       1     mtd12
     118   1.692   -95.20576    0.00124    0.00124      60       1     mtd5
     119   1.695   -95.20575    0.00123    0.00123      61       1     mtd4
     120   1.708   -95.20573    0.00121    0.00236      62       2     mtd14
     121   1.732   -95.20569    0.00116                                mtd14
     122   1.718   -95.20571    0.00118    0.00118      63       1     mtd3
     123   1.843   -95.20551    0.00096    0.00096      64       1     mtd2
     124   1.953   -95.20534    0.00080    0.00080      65       1     mtd9
     125   1.958   -95.20533    0.00079    0.00158      66       2     mtd9
     126   1.959   -95.20533    0.00079                                mtd9
     127   1.991   -95.20528    0.00075    0.00075      67       1     mtd8
     128   2.196   -95.20495    0.00053    0.00053      68       1     mtd6
     129   2.232   -95.20489    0.00050    0.00050      69       1     mtd11
     130   2.250   -95.20487    0.00048    0.00144      70       3     mtd8
     131   2.253   -95.20486    0.00048                                mtd14
     132   2.262   -95.20485    0.00047                                mtd8
     133   2.261   -95.20485    0.00047    0.00047      71       1     mtd1
     134   2.275   -95.20483    0.00046    0.00046      72       1     mtd4
     135   2.281   -95.20482    0.00046    0.00046      73       1     mtd4
     136   2.385   -95.20465    0.00038    0.00038      74       1     mtd10
     137   2.424   -95.20459    0.00036    0.00036      75       1     mtd7
     138   2.425   -95.20459    0.00036    0.00036      76       1     mtd10
     139   2.451   -95.20455    0.00034    0.00069      77       2     mtd5
     140   2.452   -95.20454    0.00034                                mtd10
     141   2.453   -95.20454    0.00034    0.00034      78       1     mtd5
     142   2.452   -95.20454    0.00034    0.00034      79       1     mtd1
     143   2.498   -95.20447    0.00032    0.00064      80       2     mtd7
     144   2.499   -95.20447    0.00032                                mtd7
     145   2.515   -95.20444    0.00031    0.00031      81       1     mtd11
     146   2.586   -95.20433    0.00027    0.00027      82       1     mtd5
     147   2.595   -95.20432    0.00027    0.00027      83       1     mtd9
     148   2.595   -95.20432    0.00027    0.00027      84       1     mtd9
     149   2.647   -95.20423    0.00025    0.00025      85       1     mtd5
     150   2.671   -95.20420    0.00024    0.00024      86       1     mtd7
     151   2.729   -95.20410    0.00022    0.00022      87       1     mtd11
     152   2.775   -95.20403    0.00020    0.00039      88       2     hor
     153   2.795   -95.20400    0.00019                                hor
     154   2.814   -95.20397    0.00019    0.00093      89       5     mtd2
     155   2.817   -95.20396    0.00019                                mtd3
     156   2.817   -95.20396    0.00019                                mtd13
     157   2.819   -95.20396    0.00019                                mtd11
     158   2.824   -95.20395    0.00018                                mtd10
     159   2.821   -95.20396    0.00018    0.00073      90       4     mtd3
     160   2.826   -95.20395    0.00018                                mtd2
     161   2.829   -95.20394    0.00018                                mtd12
     162   2.829   -95.20394    0.00018                                mtd2
     163   2.825   -95.20395    0.00018    0.00161      91       9     hor
     164   2.842   -95.20392    0.00018                                mtd2
     165   2.844   -95.20392    0.00018                                hor
     166   2.836   -95.20393    0.00018                                hor
     167   2.847   -95.20392    0.00018                                hor
     168   2.826   -95.20395    0.00018                                hor
     169   2.838   -95.20393    0.00018                                mtd10
     170   2.848   -95.20391    0.00018                                hor
     171   2.853   -95.20391    0.00017                                hor
     172   2.826   -95.20395    0.00018    0.00054      92       3     hor
     173   2.838   -95.20393    0.00018                                mtd2
     174   2.845   -95.20392    0.00018                                mtd14
     175   2.841   -95.20392    0.00018    0.00018      93       1     hor
     176   2.841   -95.20392    0.00018    0.00018      94       1     hor
     177   2.842   -95.20392    0.00018    0.00018      95       1     hor
     178   2.873   -95.20387    0.00017    0.00017      96       1     mtd13
     179   2.893   -95.20384    0.00016    0.00016      97       1     mtd5
     180   2.926   -95.20379    0.00015    0.00015      98       1     mtd1
     181   2.928   -95.20379    0.00015    0.00015      99       1     mtd6
     182   2.980   -95.20370    0.00014    0.00014     100       1     mtd7
     183   3.018   -95.20364    0.00013    0.00064     101       5     hor
     184   3.031   -95.20362    0.00013                                hor
     185   3.048   -95.20359    0.00013                                hor
     186   3.037   -95.20361    0.00013                                mtd11
     187   3.042   -95.20360    0.00013                                hor
     188   3.048   -95.20359    0.00013    0.00025     102       2     hor
     189   3.057   -95.20358    0.00012                                mtd11
     190   3.064   -95.20357    0.00012    0.00024     103       2     hor
     191   3.071   -95.20356    0.00012                                hor
     192   3.078   -95.20355    0.00012    0.00012     104       1     mtd10
     193   3.095   -95.20352    0.00012    0.00034     105       3     mtd7
     194   3.107   -95.20350    0.00011                                mtd6
     195   3.107   -95.20350    0.00011                                mtd5
     196   3.115   -95.20349    0.00011    0.00011     106       1     mtd6
     197   3.119   -95.20348    0.00011    0.00011     107       1     mtd6
     198   3.118   -95.20348    0.00011    0.00023     108       2     mtd8
     199   3.100   -95.20351    0.00012                                mtd7
     200   3.103   -95.20351    0.00011    0.00011     109       1     mtd10
     201   3.121   -95.20348    0.00011    0.00011     110       1     mtd10
     202   3.177   -95.20339    0.00010    0.00010     111       1     mtd1
     203   3.209   -95.20334    0.00010    0.00010     112       1     mtd12
     204   3.234   -95.20330    0.00009    0.00009     113       1     hor
     205   3.241   -95.20329    0.00009    0.00009     114       1     mtd12
     206   3.286   -95.20321    0.00008    0.00008     115       1     mtd12
     207   3.293   -95.20320    0.00008    0.00008     116       1     mtd11
     208   3.295   -95.20320    0.00008    0.00008     117       1     hor
     209   3.318   -95.20316    0.00008    0.00008     118       1     mtd7
     210   3.350   -95.20311    0.00008    0.00008     119       1     hor
     211   3.374   -95.20308    0.00007    0.00007     120       1     mtd7
     212   3.384   -95.20306    0.00007    0.00007     121       1     hor
     213   3.385   -95.20306    0.00007    0.00042     122       6     hor
     214   3.387   -95.20305    0.00007                                hor
     215   3.389   -95.20305    0.00007                                hor
     216   3.399   -95.20304    0.00007                                hor
     217   3.391   -95.20305    0.00007                                hor
     218   3.399   -95.20304    0.00007                                hor
     219   3.396   -95.20304    0.00007    0.00007     123       1     hor
     220   3.401   -95.20303    0.00007    0.00007     124       1     hor
     221   3.407   -95.20302    0.00007    0.00021     125       3     hor
     222   3.414   -95.20301    0.00007                                hor
     223   3.397   -95.20304    0.00007                                mtd13
     224   3.451   -95.20295    0.00006    0.00006     126       1     hor
     225   3.474   -95.20292    0.00006    0.00006     127       1     hor
     226   3.480   -95.20291    0.00006    0.00006     128       1     hor
     227   3.545   -95.20280    0.00005    0.00005     129       1     mtd7
     228   3.576   -95.20275    0.00005    0.00005     130       1     hor
     229   3.593   -95.20273    0.00005    0.00005     131       1     hor
     230   3.621   -95.20268    0.00005    0.00010     132       2     hor
     231   3.622   -95.20268    0.00005                                hor
     232   3.633   -95.20266    0.00005    0.00005     133       1     hor
     233   3.681   -95.20259    0.00004    0.00004     134       1     hor
     234   3.688   -95.20257    0.00004    0.00004     135       1     hor
     235   3.734   -95.20250    0.00004    0.00020     136       5     hor
     236   3.734   -95.20250    0.00004                                hor
     237   3.735   -95.20250    0.00004                                hor
     238   3.754   -95.20247    0.00004                                hor
     239   3.741   -95.20249    0.00004                                hor
     240   3.753   -95.20247    0.00004    0.00004     137       1     hor
     241   3.760   -95.20246    0.00004    0.00004     138       1     hor
     242   3.761   -95.20246    0.00004    0.00004     139       1     hor
     243   3.784   -95.20242    0.00004    0.00014     140       4     hor
     244   3.798   -95.20240    0.00004                                hor
     245   3.788   -95.20241    0.00004                                hor
     246   3.798   -95.20240    0.00004                                hor
     247   3.803   -95.20239    0.00004    0.00004     141       1     hor
     248   3.790   -95.20241    0.00004    0.00004     142       1     hor
     249   3.797   -95.20240    0.00004    0.00007     143       2     hor
     250   3.812   -95.20238    0.00003                                hor
     251   3.867   -95.20229    0.00003    0.00003     144       1     hor
     252   3.867   -95.20229    0.00003    0.00006     145       2     hor
     253   3.890   -95.20225    0.00003                                hor
     254   3.929   -95.20219    0.00003    0.00003     146       1     hor
     255   3.967   -95.20213    0.00003    0.00005     147       2     hor
     256   3.984   -95.20210    0.00003                                hor
     257   4.007   -95.20207    0.00002    0.00005     148       2     hor
     258   4.037   -95.20202    0.00002                                hor
     259   4.045   -95.20201    0.00002    0.00005     149       2     hor
     260   4.063   -95.20198    0.00002                                hor
     261   4.055   -95.20199    0.00002    0.00002     150       1     hor
     262   4.069   -95.20197    0.00002    0.00002     151       1     hor
     263   4.141   -95.20185    0.00002    0.00002     152       1     hor
     264   4.141   -95.20185    0.00002    0.00002     153       1     hor
     265   4.146   -95.20184    0.00002    0.00002     154       1     hor
     266   4.173   -95.20180    0.00002    0.00002     155       1     hor
     267   4.184   -95.20178    0.00002    0.00005     156       3     hor
     268   4.198   -95.20176    0.00002                                hor
     269   4.189   -95.20178    0.00002                                hor
     270   4.194   -95.20177    0.00002    0.00002     157       1     hor
     271   4.201   -95.20176    0.00002    0.00002     158       1     hor
     272   4.217   -95.20173    0.00002    0.00002     159       1     hor
     273   4.229   -95.20171    0.00002    0.00002     160       1     hor
     274   4.238   -95.20170    0.00002    0.00003     161       2     hor
     275   4.241   -95.20169    0.00002                                hor
     276   4.258   -95.20167    0.00002    0.00002     162       1     hor
     277   4.260   -95.20166    0.00002    0.00002     163       1     hor
     278   4.309   -95.20158    0.00001    0.00001     164       1     mtd10
     279   4.347   -95.20152    0.00001    0.00001     165       1     hor
     280   4.379   -95.20147    0.00001    0.00001     166       1     hor
     281   4.381   -95.20147    0.00001    0.00001     167       1     hor
     282   4.419   -95.20141    0.00001    0.00001     168       1     hor
     283   4.422   -95.20140    0.00001    0.00001     169       1     hor
     284   4.424   -95.20140    0.00001    0.00002     170       2     hor
     285   4.425   -95.20140    0.00001                                hor
     286   4.432   -95.20139    0.00001    0.00001     171       1     hor
     287   4.455   -95.20135    0.00001    0.00001     172       1     hor
     288   4.456   -95.20135    0.00001    0.00002     173       2     hor
     289   4.461   -95.20134    0.00001                                hor
     290   4.476   -95.20132    0.00001    0.00002     174       2     hor
     291   4.477   -95.20132    0.00001                                hor
     292   4.482   -95.20131    0.00001    0.00001     175       1     hor
     293   4.503   -95.20128    0.00001    0.00001     176       1     hor
     294   4.546   -95.20121    0.00001    0.00001     177       1     hor
     295   4.551   -95.20120    0.00001    0.00001     178       1     hor
     296   4.558   -95.20119    0.00001    0.00001     179       1     hor
     297   4.566   -95.20117    0.00001    0.00001     180       1     hor
     298   4.613   -95.20110    0.00001    0.00002     181       2     hor
     299   4.619   -95.20109    0.00001                                hor
     300   4.628   -95.20108    0.00001    0.00001     182       1     hor
     301   4.635   -95.20107    0.00001    0.00001     183       1     hor
     302   4.663   -95.20102    0.00001    0.00001     184       1     hor
     303   4.675   -95.20100    0.00001    0.00001     185       1     hor
     304   4.681   -95.20099    0.00001    0.00001     186       1     hor
     305   4.693   -95.20097    0.00001    0.00002     187       2     hor
     306   4.694   -95.20097    0.00001                                hor
     307   4.699   -95.20096    0.00001    0.00001     188       1     hor
     308   4.739   -95.20090    0.00001    0.00001     189       2     hor
     309   4.740   -95.20090    0.00001                                hor
     310   4.764   -95.20086    0.00001    0.00001     190       1     hor
     311   4.767   -95.20085    0.00001    0.00001     191       1     hor
     312   4.790   -95.20082    0.00001    0.00001     192       1     hor
     313   4.807   -95.20079    0.00001    0.00001     193       2     hor
     314   4.808   -95.20079    0.00001                                hor
     315   4.894   -95.20065    0.00001    0.00001     194       1     hor
     316   4.936   -95.20058    0.00001    0.00001     195       1     hor
     317   4.972   -95.20053    0.00000    0.00000     196       1     hor
     318   4.980   -95.20052    0.00000    0.00000     197       1     hor
     319   4.983   -95.20051    0.00000    0.00000     198       1     hor
     320   4.990   -95.20050    0.00000    0.00001     199       3     hor
     321   4.990   -95.20050    0.00000                                hor
     322   4.990   -95.20050    0.00000                                hor
     323   5.066   -95.20038    0.00000    0.00000     200       1     hor
     324   5.079   -95.20036    0.00000    0.00000     201       1     hor
     325   5.151   -95.20024    0.00000    0.00001     202       2     hor
     326   5.152   -95.20024    0.00000                                hor
     327   5.172   -95.20021    0.00000    0.00000     203       1     hor
     328   5.174   -95.20021    0.00000    0.00000     204       1     hor
     329   5.185   -95.20019    0.00000    0.00000     205       1     hor
     330   5.197   -95.20017    0.00000    0.00000     206       1     hor
     331   5.294   -95.20002    0.00000    0.00000     207       1     hor
     332   5.325   -95.19997    0.00000    0.00000     208       1     hor
     333   5.334   -95.19995    0.00000    0.00000     209       1     hor
     334   5.358   -95.19991    0.00000    0.00000     210       1     hor
     335   5.369   -95.19990    0.00000    0.00000     211       1     hor
     336   5.377   -95.19988    0.00000    0.00000     212       1     hor
     337   5.389   -95.19986    0.00000    0.00000     213       1     hor
     338   5.397   -95.19985    0.00000    0.00000     214       1     hor
     339   5.410   -95.19983    0.00000    0.00000     215       1     hor
     340   5.412   -95.19983    0.00000    0.00000     216       1     hor
     341   5.427   -95.19980    0.00000    0.00000     217       1     hor
     342   5.432   -95.19980    0.00000    0.00000     218       1     hor
     343   5.442   -95.19978    0.00000    0.00000     219       1     hor
     344   5.453   -95.19976    0.00000    0.00000     220       1     hor
     345   5.494   -95.19970    0.00000    0.00000     221       1     hor
     346   5.496   -95.19969    0.00000    0.00000     222       1     hor
     347   5.502   -95.19968    0.00000    0.00000     223       1     hor
     348   5.505   -95.19968    0.00000    0.00000     224       1     hor
     349   5.517   -95.19966    0.00000    0.00000     225       1     hor
     350   5.552   -95.19960    0.00000    0.00000     226       1     hor
     351   5.556   -95.19960    0.00000    0.00000     227       1     hor
     352   5.557   -95.19960    0.00000    0.00000     228       1     hor
     353   5.581   -95.19956    0.00000    0.00000     229       1     hor
     354   5.585   -95.19955    0.00000    0.00000     230       1     hor
     355   5.608   -95.19951    0.00000    0.00000     231       1     hor
     356   5.633   -95.19947    0.00000    0.00000     232       1     hor
     357   5.664   -95.19942    0.00000    0.00000     233       2     hor
     358   5.664   -95.19942    0.00000                                hor
     359   5.725   -95.19933    0.00000    0.00001     234       6     hor
     360   5.751   -95.19929    0.00000                                hor
     361   5.736   -95.19931    0.00000                                hor
     362   5.754   -95.19928    0.00000                                hor
     363   5.760   -95.19927    0.00000                                hor
     364   5.739   -95.19931    0.00000                                hor
     365   5.742   -95.19930    0.00000    0.00000     235       1     hor
     366   5.743   -95.19930    0.00000    0.00000     236       1     hor
     367   5.748   -95.19929    0.00000    0.00000     237       1     hor
     368   5.816   -95.19918    0.00000    0.00000     238       1     hor
     369   5.858   -95.19912    0.00000    0.00000     239       1     hor
     370   5.879   -95.19908    0.00000    0.00000     240       1     hor
     371   5.899   -95.19905    0.00000    0.00000     241       1     hor
     372   5.970   -95.19894    0.00000    0.00000     242       4     hor
     373   5.971   -95.19894    0.00000                                hor
     374   5.974   -95.19893    0.00000                                hor
     375   5.981   -95.19892    0.00000                                hor
T /K                                  :   298.15
E lowest                              :   -95.20845
ensemble average energy (kcal)        :    0.453
ensemble entropy (J/mol K, cal/mol K) :   38.285    9.150
ensemble free energy (kcal/mol)       :   -2.728
population of lowest in %             :   31.838
 number of unique conformers for further calc          242
 list of relative energies saved as "crest.energies"
 
 -----------------
 Wall Time Summary
 -----------------
             test MD wall time :         0h : 0m :43s
                 MTD wall time :         0h : 2m :31s
      multilevel OPT wall time :         0h : 3m :23s
                  MD wall time :         0h : 0m :47s
                  GC wall time :         0h : 0m : 2s
--------------------
Overall wall time  : 0h : 7m :52s
 
 CREST terminated normally.
