 
       ==============================================
       |                                            |
       |                 C R E S T                  |
       |                                            |
       |  Conformer-Rotamer Ensemble Sampling Tool  |
       |          based on the GFN methods          |
       |             P.Pracht, S.Grimme             |
       |          Universitaet Bonn, MCTC           |
       ==============================================
       Version 2.11.2, Fr 17. Dec 12:10:44 CEST 2021
  Using the xTB program. Compatible with xTB version 6.4.0
 
   Cite work conducted with this code as

   P. Pracht, F. Bohle, S. Grimme, PCCP, 2020, 22, 7169-7192.

   and  S. Grimme, JCTC, 2019, 15, 2847-2862.
 
   with help from:
   C.Bannwarth, F.Bohle, S.Ehlert, S.Grimme,
   C. Plett, P.Pracht, S. Spicher
 
   This program is distributed in the hope that it will be useful,
   but WITHOUT ANY WARRANTY; without even the implied warranty of
   MERCHANTABILITY or FITNESS FOR A PARTICULAR PURPOSE.

 Command line input:
 > crest 00219_r_0.xyz -T 28 -gfn2 -chrg 0 -uhf 0 -rthr 0.25 -shake 1 --mdlen 0.5

  -T 28 (CPUs/Threads selected)
  -gfn2 : Use of GFN2-xTB requested.
  -chrg 0
  -uhf 0
  -rthr 0.25
  --mdlen 0.5 (MD length in ps)
 
 -------------------------
 xTB Geometry Optimization
 -------------------------
 Geometry successfully optimized.
 
------------------------------------------------
Generating MTD length from a flexibility measure
------------------------------------------------
      -----------------------------------------------------------      
     |                   =====================                   |     
     |                           x T B                           |     
     |                   =====================                   |     
     |                         S. Grimme                         |     
     |          Mulliken Center for Theoretical Chemistry        |     
     |                    University of Bonn                     |     
      -----------------------------------------------------------      

   * xtb version 6.4.1 (afa7bdf) compiled by 'ehlert@majestix' on 2021-06-10

   xtb is free software: you can redistribute it and/or modify it under
   the terms of the GNU Lesser General Public License as published by
   the Free Software Foundation, either version 3 of the License, or
   (at your option) any later version.
   
   xtb is distributed in the hope that it will be useful,
   but WITHOUT ANY WARRANTY; without even the implied warranty of
   MERCHANTABILITY or FITNESS FOR A PARTICULAR PURPOSE.  See the
   GNU Lesser General Public License for more details.
   
   Cite this work as:
   * C. Bannwarth, E. Caldeweyher, S. Ehlert, A. Hansen, P. Pracht,
     J. Seibert, S. Spicher, S. Grimme, WIREs Comput. Mol. Sci., 2020, 11,
     e01493. DOI: 10.1002/wcms.1493
   
   for GFN2-xTB:
   * C. Bannwarth, S. Ehlert and S. Grimme., J. Chem. Theory Comput., 2019,
     15, 1652-1671. DOI: 10.1021/acs.jctc.8b01176
   for GFN1-xTB:
   * S. Grimme, C. Bannwarth, P. Shushkov, J. Chem. Theory Comput., 2017,
     13, 1989-2009. DOI: 10.1021/acs.jctc.7b00118
   for GFN0-xTB:
   * P. Pracht, E. Caldeweyher, S. Ehlert, S. Grimme, ChemRxiv, 2019, preprint.
     DOI: 10.26434/chemrxiv.8326202.v1
   for GFN-FF:
   * S. Spicher and S. Grimme, Angew. Chem. Int. Ed., 2020, 59, 15665-15673.
     DOI: 10.1002/anie.202004239
   
   for DFT-D4:
   * E. Caldeweyher, C. Bannwarth and S. Grimme, J. Chem. Phys., 2017,
     147, 034112. DOI: 10.1063/1.4993215
   * E. Caldeweyher, S. Ehlert, A. Hansen, H. Neugebauer, S. Spicher,
     C. Bannwarth and S. Grimme, J. Chem. Phys., 2019, 150, 154122.
     DOI: 10.1063/1.5090222
   * E. Caldeweyher, J.-M. Mewes, S. Ehlert and S. Grimme, Phys. Chem. Chem. Phys.
     2020, 22, 8499-8512. DOI: 10.1039/D0CP00502A
   
   for sTDA-xTB:
   * S. Grimme and C. Bannwarth, J. Chem. Phys., 2016, 145, 054103.
     DOI: 10.1063/1.4959605
   
   in the mass-spec context:
   * V. Asgeirsson, C. Bauer and S. Grimme, Chem. Sci., 2017, 8, 4879.
     DOI: 10.1039/c7sc00601b
   * J. Koopman and S. Grimme, ACS Omega 2019, 4, 12, 15120-15133.
     DOI: 10.1021/acsomega.9b02011
   
   for metadynamics refer to:
   * S. Grimme, J. Chem. Theory Comput., 2019, 155, 2847-2862
     DOI: 10.1021/acs.jctc.9b00143
   
   for SPH calculations refer to:
   * S. Spicher and S. Grimme, J. Chem. Theory Comput., 2021, 17, 1701-1714
     DOI: 10.1021/acs.jctc.0c01306
   
   with help from (in alphabetical order)
   P. Atkinson, C. Bannwarth, F. Bohle, G. Brandenburg, E. Caldeweyher
   M. Checinski, S. Dohm, S. Ehlert, S. Ehrlich, I. Gerasimov, J. Koopman
   C. Lavigne, S. Lehtola, F. März, M. Müller, F. Musil, H. Neugebauer
   J. Pisarek, C. Plett, P. Pracht, J. Seibert, P. Shushkov, S. Spicher
   M. Stahn, M. Steiner, T. Strunk, J. Stückrath, T. Rose, and J. Unsleber
   
 * started run on 2025/01/21 at 11:45:28.184     

           -------------------------------------------------
          |                Calculation Setup                |
           -------------------------------------------------

          program call               : xtb tmpcoord --gfn0 --sp
          hostname                   : node4
          coordinate file            : tmpcoord
          omp threads                :                    28
          number of atoms            :                    72
          number of electrons        :                   206
          charge                     :                     0
          spin                       :                   0.0
          first test random number   :      0.35310739279451

   ID    Z sym.   atoms
    1    8 o      1, 10, 24, 32
    2    6 c      2-9, 11-23, 25-31, 33-42
    3    1 h      43-72
########################################################################
[WARNING] Please study the warnings concerning your input carefully
-1- prog_main_parseArguments: The use of '--gfn0' is discouraged, please use '--gfn 0' next time
########################################################################

           -------------------------------------------------
          |                 G F N 0 - x T B                 |
           -------------------------------------------------

        Reference                      10.26434/chemrxiv.8326202.v1
      * Hamiltonian:
        H0-scaling (s, p, d)           2.000000    2.486800    2.270000
        zeta-weighting                 1.000000
      * Dispersion:
        s8                             2.850000
        a1                             0.800000
        a2                             4.600000
        s9                             0.000000
      * Repulsion:
        kExp                           1.500000
        rExp                           1.000000
      * Coulomb:
        alpha                          0.000000
        third order                    atomic
        anisotropic                    false
      * Polar bond correction:
        rad-shift                      0.053700
        strength                      -0.012900
        en-exp                         3.484700
        en-scale                       0.509700


          ...................................................
          :                      SETUP                      :
          :.................................................:
          :  # basis functions                 228          :
          :  # atomic orbitals                 228          :
          :  # shells                          144          :
          :  # electrons                       206          :
          :  electronic temp.          300.0000000     K    :
          :  accuracy                    1.0000000          :
          :  -> integral cutoff          0.2500000E+02      :
          :  -> integral neglect         0.1000000E-07      :
          ...................................................
  Checking positiv definite overlap ...  done.
 

         #    Occupation            Energy/Eh            Energy/eV
      -------------------------------------------------------------
         1        2.0000           -0.6953994             -18.9228
       ...           ...                  ...                  ...
        97        2.0000           -0.4296291             -11.6908
        98        2.0000           -0.4159225             -11.3178
        99        2.0000           -0.4148791             -11.2894
       100        2.0000           -0.3972125             -10.8087
       101        2.0000           -0.3928918             -10.6911
       102        2.0000           -0.3911638             -10.6441
       103        2.0000           -0.3887572             -10.5786 (HOMO)
       104                         -0.3021794              -8.2227 (LUMO)
       105                         -0.2981067              -8.1119
       106                         -0.2728732              -7.4253
       107                         -0.2726287              -7.4186
       108                         -0.2588859              -7.0446
       ...                                ...                  ...
       228                          0.6557887              17.8449
      -------------------------------------------------------------
                  HL-Gap            0.0865778 Eh            2.3559 eV
             Fermi-level            0.0000000 Eh            0.0000 eV

 EHT (total)                   0 d,  0 h,  0 min,  0.048 sec
 EHT setup                      ...        0 min,  0.001 sec (  2.362%)
 Coordination number            ...        0 min,  0.001 sec (  2.054%)
 EEQ model density              ...        0 min,  0.001 sec (  1.539%)
 D4 Dispersion                  ...        0 min,  0.003 sec (  5.928%)
 Integral evaluation            ...        0 min,  0.001 sec (  2.791%)
 Cholesky factorization         ...        0 min,  0.010 sec ( 21.396%)
 Zeroth order Hamiltonian       ...        0 min,  0.028 sec ( 56.978%)
 Gradient calculation           ...        0 min,  0.003 sec (  5.435%)

         :::::::::::::::::::::::::::::::::::::::::::::::::::::
         ::                     SUMMARY                     ::
         :::::::::::::::::::::::::::::::::::::::::::::::::::::
         :: total energy            -109.633807338187 Eh    ::
         :: gradient norm              0.058553016895 Eh/a0 ::
         :: HOMO-LUMO gap              2.355901249307 eV    ::
         ::.................................................::
         :: H0 energy               -111.233275221406 Eh    ::
         :: repulsion energy           1.871229889510 Eh    ::
         :: electrostat energy        -0.144289029232 Eh    ::
         :: -> Gsolv                   0.000000000000 Eh    ::
         ::    -> Gsasa                0.000000000000 Eh    ::
         ::    -> Gshift               0.000000000000 Eh    ::
         :: dispersion energy         -0.052443906631 Eh    ::
         :: short-range corr.         -0.075029070429 Eh    ::
         :: add. restraining           0.000000000000 Eh    ::
         :: total charge               0.000000000000 e     ::
         :::::::::::::::::::::::::::::::::::::::::::::::::::::

           -------------------------------------------------
          |                Property Printout                |
           -------------------------------------------------

    * Orbital Energies and Occupations

         #    Occupation            Energy/Eh            Energy/eV
      -------------------------------------------------------------
         1        2.0000           -0.6953994             -18.9228
       ...           ...                  ...                  ...
        91        2.0000           -0.4476638             -12.1816
        92        2.0000           -0.4439876             -12.0815
        93        2.0000           -0.4418734             -12.0240
        94        2.0000           -0.4364965             -11.8777
        95        2.0000           -0.4345630             -11.8251
        96        2.0000           -0.4315266             -11.7424
        97        2.0000           -0.4296291             -11.6908
        98        2.0000           -0.4159225             -11.3178
        99        2.0000           -0.4148791             -11.2894
       100        2.0000           -0.3972125             -10.8087
       101        2.0000           -0.3928918             -10.6911
       102        2.0000           -0.3911638             -10.6441
       103        2.0000           -0.3887572             -10.5786 (HOMO)
       104                         -0.3021794              -8.2227 (LUMO)
       105                         -0.2981067              -8.1119
       106                         -0.2728732              -7.4253
       107                         -0.2726287              -7.4186
       108                         -0.2588859              -7.0446
       109                         -0.2576523              -7.0111
       110                         -0.2527236              -6.8770
       111                         -0.2520448              -6.8585
       112                         -0.2359198              -6.4197
       113                         -0.2268393              -6.1726
       114                         -0.1856346              -5.0514
       ...                                ...                  ...
       228                          0.6557887              17.8449
      -------------------------------------------------------------
                  HL-Gap            0.0865778 Eh            2.3559 eV
             Fermi-level            0.0000000 Eh            0.0000 eV

     #   Z          covCN         q      C6AA      α(0)
     1   8 o        1.660    -0.527    23.296     6.529
     2   6 c        2.849     0.235    24.373     8.066
     3   6 c        2.969    -0.014    29.868     8.936
     4   6 c        2.976    -0.006    29.673     8.908
     5   6 c        2.925    -0.128    32.926     9.380
     6   6 c        2.917    -0.094    32.000     9.247
     7   6 c        2.921    -0.086    31.764     9.213
     8   6 c        2.916    -0.176    34.328     9.577
     9   6 c        2.870     0.211    24.845     8.145
    10   8 o        1.706    -0.416    20.977     6.197
    11   6 c        3.752     0.249    18.840     6.264
    12   6 c        3.806    -0.206    27.475     7.553
    13   6 c        3.805    -0.240    28.319     7.668
    14   6 c        2.925    -0.187    34.679     9.627
    15   6 c        2.984     0.070    27.851     8.630
    16   6 c        2.919    -0.132    33.045     9.397
    17   6 c        2.915    -0.087    31.811     9.220
    18   6 c        2.916    -0.089    31.864     9.227
    19   6 c        2.917    -0.117    32.642     9.339
    20   6 c        2.987     0.011    29.232     8.841
    21   6 c        2.974    -0.063    31.141     9.125
    22   6 c        2.974    -0.036    30.442     9.022
    23   6 c        2.850     0.212    24.836     8.142
    24   8 o        1.659    -0.547    23.753     6.593
    25   6 c        2.970     0.025    28.900     8.791
    26   6 c        2.976     0.029    28.807     8.777
    27   6 c        2.925    -0.107    32.336     9.296
    28   6 c        2.917    -0.098    32.090     9.260
    29   6 c        2.921    -0.083    31.681     9.201
    30   6 c        2.917    -0.179    34.415     9.590
    31   6 c        2.872     0.228    24.513     8.090
    32   8 o        1.706    -0.404    20.739     6.161
    33   6 c        3.754     0.245    18.896     6.273
    34   6 c        3.806    -0.205    27.461     7.551
    35   6 c        3.805    -0.243    28.389     7.678
    36   6 c        2.925    -0.178    34.409     9.589
    37   6 c        2.985     0.062    28.035     8.658
    38   6 c        2.920    -0.128    32.932     9.381
    39   6 c        2.915    -0.087    31.816     9.220
    40   6 c        2.917    -0.091    31.909     9.234
    41   6 c        2.918    -0.107    32.355     9.298
    42   6 c        2.989     0.053    28.230     8.689
    43   1 h        0.805     0.319     0.666     1.282
    44   1 h        0.926     0.109     1.708     2.044
    45   1 h        0.926     0.094     1.836     2.119
    46   1 h        0.926     0.093     1.847     2.126
    47   1 h        0.926     0.106     1.734     2.059
    48   1 h        0.925     0.021     2.714     2.576
    49   1 h        0.926     0.092     1.864     2.135
    50   1 h        0.926     0.119     1.625     1.993
    51   1 h        0.926     0.095     1.833     2.117
    52   1 h        0.926     0.123     1.585     1.969
    53   1 h        0.926     0.120     1.610     1.984
    54   1 h        0.926     0.099     1.793     2.094
    55   1 h        0.926     0.093     1.853     2.129
    56   1 h        0.926     0.094     1.845     2.124
    57   1 h        0.926     0.112     1.678     2.026
    58   1 h        0.805     0.312     0.686     1.301
    59   1 h        0.926     0.129     1.543     1.943
    60   1 h        0.926     0.098     1.806     2.102
    61   1 h        0.926     0.094     1.839     2.121
    62   1 h        0.926     0.107     1.725     2.054
    63   1 h        0.925     0.026     2.648     2.545
    64   1 h        0.926     0.123     1.592     1.973
    65   1 h        0.926     0.095     1.832     2.117
    66   1 h        0.926     0.096     1.821     2.110
    67   1 h        0.926     0.119     1.623     1.992
    68   1 h        0.926     0.135     1.497     1.913
    69   1 h        0.926     0.099     1.798     2.097
    70   1 h        0.926     0.092     1.863     2.134
    71   1 h        0.926     0.090     1.877     2.142
    72   1 h        0.926     0.129     1.540     1.940

 Mol. C6AA /au·bohr⁶  :      69857.170321
 Mol. C8AA /au·bohr⁸  :    1770336.066328
 Mol. α(0) /au        :        418.845639


Wiberg/Mayer (AO) data.
largest (>0.10) Wiberg bond orders for each atom

 ---------------------------------------------------------------------------
     #   Z sym  total        # sym  WBO       # sym  WBO       # sym  WBO
 ---------------------------------------------------------------------------
     1   8 o    2.309 --     2 c    1.137    43 h    0.968
     2   6 c    3.941 --    21 c    1.402     3 c    1.216     1 o    1.137
     3   6 c    3.975 --    14 c    1.517     2 c    1.216     4 c    1.024
     4   6 c    3.973 --     5 c    1.422     9 c    1.294     3 c    1.024
                             7 c    0.100
     5   6 c    3.982 --     6 c    1.423     4 c    1.422    44 h    0.969
     6   6 c    3.982 --     7 c    1.432     5 c    1.423    45 h    0.972
     7   6 c    3.984 --     8 c    1.442     6 c    1.432    46 h    0.972
                             4 c    0.100
     8   6 c    3.981 --     7 c    1.442     9 c    1.363    47 h    0.968
     9   6 c    3.938 --     8 c    1.363     4 c    1.294    10 o    1.097
    10   8 o    2.366 --     9 c    1.097    11 c    0.987
    11   6 c    3.919 --    10 o    0.987    12 c    0.979    48 h    0.971
                            13 c    0.967
    12   6 c    3.945 --    13 c    0.981    49 h    0.980    11 c    0.979
                            50 h    0.978
    13   6 c    3.941 --    12 c    0.981    51 h    0.981    52 h    0.979
                            11 c    0.967
    14   6 c    3.984 --     3 c    1.517    15 c    1.274    53 h    0.965
    15   6 c    3.978 --    16 c    1.279    14 c    1.274    20 c    1.240
    16   6 c    3.980 --    17 c    1.552    15 c    1.279    54 h    0.969
                            19 c    0.115
    17   6 c    3.975 --    16 c    1.552    18 c    1.317    55 h    0.973
    18   6 c    3.983 --    19 c    1.558    17 c    1.317    56 h    0.972
    19   6 c    3.987 --    18 c    1.558    20 c    1.271    57 h    0.967
                            16 c    0.115
    20   6 c    3.977 --    19 c    1.271    21 c    1.255    15 c    1.240
    21   6 c    3.966 --     2 c    1.402    20 c    1.255    22 c    1.001
    22   6 c    3.965 --    23 c    1.417    42 c    1.252    21 c    1.001
    23   6 c    3.941 --    22 c    1.417    25 c    1.213    24 o    1.129
    24   8 o    2.306 --    23 c    1.129    58 h    0.968
    25   6 c    3.976 --    36 c    1.521    23 c    1.213    26 c    1.029
    26   6 c    3.974 --    27 c    1.421    31 c    1.295    25 c    1.029
    27   6 c    3.983 --    28 c    1.423    26 c    1.421    59 h    0.968
    28   6 c    3.981 --    29 c    1.432    27 c    1.423    60 h    0.972
    29   6 c    3.984 --    30 c    1.442    28 c    1.432    61 h    0.972
    30   6 c    3.981 --    29 c    1.442    31 c    1.363    62 h    0.967
    31   6 c    3.939 --    30 c    1.363    26 c    1.295    32 o    1.105
    32   8 o    2.362 --    31 c    1.105    33 c    0.989
    33   6 c    3.920 --    32 o    0.989    34 c    0.979    63 h    0.970
                            35 c    0.965
    34   6 c    3.944 --    65 h    0.980    35 c    0.980    33 c    0.979
                            64 h    0.978
    35   6 c    3.940 --    66 h    0.981    34 c    0.980    67 h    0.979
                            33 c    0.965
    36   6 c    3.985 --    25 c    1.521    37 c    1.270    68 h    0.965
    37   6 c    3.978 --    38 c    1.281    36 c    1.270    42 c    1.242
    38   6 c    3.980 --    39 c    1.550    37 c    1.281    69 h    0.969
                            41 c    0.115
    39   6 c    3.975 --    38 c    1.550    40 c    1.321    70 h    0.972
    40   6 c    3.982 --    41 c    1.553    39 c    1.321    71 h    0.972
    41   6 c    3.987 --    40 c    1.553    42 c    1.275    72 h    0.966
                            38 c    0.115
    42   6 c    3.977 --    41 c    1.275    22 c    1.252    37 c    1.242
    43   1 h    0.996 --     1 o    0.968
    44   1 h    0.980 --     5 c    0.969
    45   1 h    0.983 --     6 c    0.972
    46   1 h    0.984 --     7 c    0.972
    47   1 h    0.978 --     8 c    0.968
    48   1 h    0.989 --    11 c    0.971
    49   1 h    0.985 --    12 c    0.980
    50   1 h    0.988 --    12 c    0.978
    51   1 h    0.985 --    13 c    0.981
    52   1 h    0.987 --    13 c    0.979
    53   1 h    0.975 --    14 c    0.965
    54   1 h    0.978 --    16 c    0.969
    55   1 h    0.983 --    17 c    0.973
    56   1 h    0.984 --    18 c    0.972
    57   1 h    0.981 --    19 c    0.967
    58   1 h    0.986 --    24 o    0.968
    59   1 h    0.988 --    27 c    0.968
    60   1 h    0.983 --    28 c    0.972
    61   1 h    0.983 --    29 c    0.972
    62   1 h    0.978 --    30 c    0.967
    63   1 h    0.987 --    33 c    0.970
    64   1 h    0.988 --    34 c    0.978
    65   1 h    0.985 --    34 c    0.980
    66   1 h    0.985 --    35 c    0.981
    67   1 h    0.988 --    35 c    0.979
    68   1 h    0.984 --    36 c    0.965
    69   1 h    0.978 --    38 c    0.969
    70   1 h    0.983 --    39 c    0.972
    71   1 h    0.983 --    40 c    0.972
    72   1 h    0.981 --    41 c    0.966
 ---------------------------------------------------------------------------

Topologies differ in total number of bonds
Writing topology from bond orders to xtbtopo.mol

 dipole moment from electron density (au)
     X       Y       Z   
   0.5501  -0.2358  -1.9725  total (Debye):    5.239


           -------------------------------------------------
          | TOTAL ENERGY             -109.633807338187 Eh   |
          | GRADIENT NORM               0.058553016895 Eh/α |
          | HOMO-LUMO GAP               2.355901249307 eV   |
           -------------------------------------------------

------------------------------------------------------------------------
 * finished run on 2025/01/21 at 11:45:28.345     
------------------------------------------------------------------------
 total:
 * wall-time:     0 d,  0 h,  0 min,  0.160 sec
 *  cpu-time:     0 d,  0 h,  0 min,  3.413 sec
 * ratio c/w:    21.318 speedup
 SCF:
 * wall-time:     0 d,  0 h,  0 min,  0.049 sec
 *  cpu-time:     0 d,  0 h,  0 min,  1.179 sec
 * ratio c/w:    23.966 speedup

 Calculating WBOs... done.
      -----------------------------------------------------------      
     |                   =====================                   |     
     |                           x T B                           |     
     |                   =====================                   |     
     |                         S. Grimme                         |     
     |          Mulliken Center for Theoretical Chemistry        |     
     |                    University of Bonn                     |     
      -----------------------------------------------------------      

   * xtb version 6.4.1 (afa7bdf) compiled by 'ehlert@majestix' on 2021-06-10

   xtb is free software: you can redistribute it and/or modify it under
   the terms of the GNU Lesser General Public License as published by
   the Free Software Foundation, either version 3 of the License, or
   (at your option) any later version.
   
   xtb is distributed in the hope that it will be useful,
   but WITHOUT ANY WARRANTY; without even the implied warranty of
   MERCHANTABILITY or FITNESS FOR A PARTICULAR PURPOSE.  See the
   GNU Lesser General Public License for more details.
   
   Cite this work as:
   * C. Bannwarth, E. Caldeweyher, S. Ehlert, A. Hansen, P. Pracht,
     J. Seibert, S. Spicher, S. Grimme, WIREs Comput. Mol. Sci., 2020, 11,
     e01493. DOI: 10.1002/wcms.1493
   
   for GFN2-xTB:
   * C. Bannwarth, S. Ehlert and S. Grimme., J. Chem. Theory Comput., 2019,
     15, 1652-1671. DOI: 10.1021/acs.jctc.8b01176
   for GFN1-xTB:
   * S. Grimme, C. Bannwarth, P. Shushkov, J. Chem. Theory Comput., 2017,
     13, 1989-2009. DOI: 10.1021/acs.jctc.7b00118
   for GFN0-xTB:
   * P. Pracht, E. Caldeweyher, S. Ehlert, S. Grimme, ChemRxiv, 2019, preprint.
     DOI: 10.26434/chemrxiv.8326202.v1
   for GFN-FF:
   * S. Spicher and S. Grimme, Angew. Chem. Int. Ed., 2020, 59, 15665-15673.
     DOI: 10.1002/anie.202004239
   
   for DFT-D4:
   * E. Caldeweyher, C. Bannwarth and S. Grimme, J. Chem. Phys., 2017,
     147, 034112. DOI: 10.1063/1.4993215
   * E. Caldeweyher, S. Ehlert, A. Hansen, H. Neugebauer, S. Spicher,
     C. Bannwarth and S. Grimme, J. Chem. Phys., 2019, 150, 154122.
     DOI: 10.1063/1.5090222
   * E. Caldeweyher, J.-M. Mewes, S. Ehlert and S. Grimme, Phys. Chem. Chem. Phys.
     2020, 22, 8499-8512. DOI: 10.1039/D0CP00502A
   
   for sTDA-xTB:
   * S. Grimme and C. Bannwarth, J. Chem. Phys., 2016, 145, 054103.
     DOI: 10.1063/1.4959605
   
   in the mass-spec context:
   * V. Asgeirsson, C. Bauer and S. Grimme, Chem. Sci., 2017, 8, 4879.
     DOI: 10.1039/c7sc00601b
   * J. Koopman and S. Grimme, ACS Omega 2019, 4, 12, 15120-15133.
     DOI: 10.1021/acsomega.9b02011
   
   for metadynamics refer to:
   * S. Grimme, J. Chem. Theory Comput., 2019, 155, 2847-2862
     DOI: 10.1021/acs.jctc.9b00143
   
   for SPH calculations refer to:
   * S. Spicher and S. Grimme, J. Chem. Theory Comput., 2021, 17, 1701-1714
     DOI: 10.1021/acs.jctc.0c01306
   
   with help from (in alphabetical order)
   P. Atkinson, C. Bannwarth, F. Bohle, G. Brandenburg, E. Caldeweyher
   M. Checinski, S. Dohm, S. Ehlert, S. Ehrlich, I. Gerasimov, J. Koopman
   C. Lavigne, S. Lehtola, F. März, M. Müller, F. Musil, H. Neugebauer
   J. Pisarek, C. Plett, P. Pracht, J. Seibert, P. Shushkov, S. Spicher
   M. Stahn, M. Steiner, T. Strunk, J. Stückrath, T. Rose, and J. Unsleber
   
 * started run on 2025/01/21 at 11:45:28.386     

           -------------------------------------------------
          |                Calculation Setup                |
           -------------------------------------------------

          program call               : xtb tmpcoord --gfnff --sp
          hostname                   : node4
          coordinate file            : tmpcoord
          omp threads                :                    28
          number of atoms            :                    72
          number of electrons        :                   206
          charge                     :                     0
          spin                       :                   0.0
          first test random number   :      0.02974663513175

   ID    Z sym.   atoms
    1    8 o      1, 10, 24, 32
    2    6 c      2-9, 11-23, 25-31, 33-42
    3    1 h      43-72
 
          ==================== Thresholds ====================
          CN  :   150.00000
          rep :   500.00000
          disp:  2500.00000
          HB1 :   250.00000
          HB2 :   450.00000
 
          Pauling EN used:
          Z : 1  EN :  2.20
          Z : 6  EN :  2.55
          Z : 8  EN :  3.44
          electric field strengths (au): 0.000
 
           ------------------------------------------------- 
          |           Force Field Initialization            |
           ------------------------------------------------- 
 
          distances ...
          ----------------------------------------
          generating topology and atomic info file ...
          pair mat ...
          computing topology distances matrix with Floyd-Warshall algo ...
          making topology EEQ charges ...
          #fragments for EEQ constrain: 1
          ----------------------------------------
          generating topology and atomic info file ...
          pair mat ...
          computing topology distances matrix with Floyd-Warshall algo ...
          making topology EEQ charges ...
          #fragments for EEQ constrain: 1
          rings ...
          # BATM   756
          # H in HB   20
          doing iterative Hueckel for 1 subsystem(s) ...
 
  atom   neighbors  erfCN metchar sp-hybrid imet pi  qest     coordinates
    1  o       2    1.92   0.00         3    0    1  -0.431    2.168927    0.667501   -2.473235
    2  c       3    2.82   0.00         2    0    1   0.096    3.270125    1.305675   -0.248174
    3  c       3    2.81   0.00         2    0    1   0.009    5.749061    2.314587   -0.133842
    4  c       3    2.82   0.00         2    0    1  -0.011    7.334049    2.515610   -2.424801
    5  c       3    2.82   0.00         2    0    1  -0.029    8.361875    4.822275   -3.131208
    6  c       3    2.81   0.00         2    0    1  -0.011    9.905747    5.022878   -5.232483
    7  c       3    2.82   0.00         2    0    1  -0.043   10.451801    2.891909   -6.642514
    8  c       3    2.81   0.00         2    0    1  -0.008    9.467765    0.564265   -5.963536
    9  c       3    2.83   0.00         2    0    1   0.086    7.911818    0.357206   -3.861698
   10  o       2    1.92   0.00         3    0    1  -0.336    6.867653   -1.863289   -3.036061
   11  c       4    3.50   0.00         3    0    0   0.067    7.422328   -4.090497   -4.326975
   12  c       4    3.49   0.00         3    0    0  -0.046    7.601182   -6.428290   -2.752452
   13  c       4    3.49   0.00         3    0    0  -0.046    9.935902   -5.347674   -3.944302
   14  c       3    2.82   0.00         2    0    1  -0.039    6.690282    3.110843    2.148477
   15  c       3    2.83   0.00         2    0    1  -0.002    5.283663    2.899877    4.393976
   16  c       3    2.81   0.00         2    0    1  -0.034    6.251282    3.697880    6.745716
   17  c       3    2.81   0.00         2    0    1  -0.031    4.864208    3.424559    8.905957
   18  c       3    2.81   0.00         2    0    1  -0.029    2.451128    2.326719    8.810227
   19  c       3    2.81   0.00         2    0    1  -0.018    1.456683    1.537861    6.561722
   20  c       3    2.83   0.00         2    0    1   0.004    2.831380    1.816288    4.291537
   21  c       3    2.82   0.00         2    0    1  -0.001    1.849787    1.034109    1.928146
   22  c       3    2.82   0.00         2    0    1  -0.001   -0.699518   -0.122210    1.732788
   23  c       3    2.82   0.00         2    0    1   0.096   -2.819995    1.382680    1.905831
   24  o       2    1.92   0.00         3    0    1  -0.431   -2.634103    3.926978    2.250366
   25  c       3    2.81   0.00         2    0    1   0.009   -5.272928    0.325212    1.678908
   26  c       3    2.82   0.00         2    0    1  -0.011   -7.514103    1.969687    1.858152
   27  c       3    2.82   0.00         2    0    1  -0.029   -7.836141    3.587779    3.894763
   28  c       3    2.81   0.00         2    0    1  -0.011   -9.947348    5.119702    4.083539
   29  c       3    2.81   0.00         2    0    1  -0.043  -11.768605    5.041885    2.213963
   30  c       3    2.81   0.00         2    0    1  -0.008  -11.484385    3.448061    0.157809
   31  c       3    2.84   0.00         2    0    1   0.086   -9.368270    1.909443   -0.041078
   32  o       2    1.92   0.00         3    0    1  -0.336   -8.931933    0.318302   -2.030017
   33  c       4    3.50   0.00         3    0    0   0.067  -10.606549    0.348718   -4.057161
   34  c       4    3.49   0.00         3    0    0  -0.046  -10.810718   -2.054648   -5.527460
   35  c       4    3.49   0.00         3    0    0  -0.046  -12.990023   -1.189907   -3.930902
   36  c       3    2.82   0.00         2    0    1  -0.039   -5.507533   -2.224047    1.286816
   37  c       3    2.83   0.00         2    0    1  -0.002   -3.385902   -3.816627    1.096542
   38  c       3    2.81   0.00         2    0    1  -0.034   -3.629069   -6.437826    0.686078
   39  c       3    2.81   0.00         2    0    1  -0.031   -1.542667   -7.948338    0.498956
   40  c       3    2.81   0.00         2    0    1  -0.029    0.880787   -6.899265    0.729340
   41  c       3    2.81   0.00         2    0    1  -0.018    1.181051   -4.366176    1.137942
   42  c       3    2.83   0.00         2    0    1   0.004   -0.934437   -2.755680    1.318716
   43  h       1    0.97   0.00         0    0    0   0.224    3.411165    0.700685   -3.804712
   44  h       1    0.97   0.00         0    0    0   0.056    7.920454    6.473482   -2.015676
   45  h       1    0.97   0.00         0    0    0   0.029   10.681177    6.833284   -5.760870
   46  h       1    0.97   0.00         0    0    0   0.044   11.659292    3.025485   -8.281423
   47  h       1    0.97   0.00         0    0    0   0.033    9.930844   -1.092312   -7.057198
   48  h       1    0.97   0.00         0    0    0   0.036    6.533025   -4.209726   -6.176761
   49  h       1    0.97   0.00         0    0    0   0.048    6.814657   -8.153282   -3.499539
   50  h       1    0.97   0.00         0    0    0   0.048    7.373604   -6.198912   -0.740498
   51  h       1    0.97   0.00         0    0    0   0.048   10.781314   -6.324191   -5.522670
   52  h       1    0.97   0.00         0    0    0   0.048   11.276092   -4.410812   -2.724678
   53  h       1    0.97   0.00         0    0    0   0.050    8.579672    3.882095    2.236866
   54  h       1    0.97   0.00         0    0    0   0.051    8.117936    4.525201    6.803167
   55  h       1    0.97   0.00         0    0    0   0.057    5.617332    4.038141   10.701074
   56  h       1    0.97   0.00         0    0    0   0.037    1.384219    2.104771   10.536102
   57  h       1    0.97   0.00         0    0    0   0.042   -0.393868    0.678973    6.490910
   58  h       1    0.97   0.00         0    0    0   0.224   -0.865516    4.385756    2.279815
   59  h       1    0.97   0.00         0    0    0   0.056   -6.409602    3.633367    5.350948
   60  h       1    0.97   0.00         0    0    0   0.029  -10.167423    6.365170    5.684249
   61  h       1    0.97   0.00         0    0    0   0.044  -13.427127    6.225389    2.339560
   62  h       1    0.97   0.00         0    0    0   0.033  -12.923012    3.400275   -1.286881
   63  h       1    0.97   0.00         0    0    0   0.036  -10.649415    2.135398   -5.074086
   64  h       1    0.97   0.00         0    0    0   0.048   -9.710062   -3.634024   -4.859022
   65  h       1    0.97   0.00         0    0    0   0.048  -10.966282   -1.937170   -7.556411
   66  h       1    0.97   0.00         0    0    0   0.048  -14.662259   -0.473187   -4.852806
   67  h       1    0.97   0.00         0    0    0   0.048  -13.359037   -2.204673   -2.200713
   68  h       1    0.97   0.00         0    0    0   0.050   -7.368157   -3.044428    1.124738
   69  h       1    0.97   0.00         0    0    0   0.051   -5.504957   -7.229635    0.519076
   70  h       1    0.97   0.00         0    0    0   0.057   -1.743032   -9.955296    0.178931
   71  h       1    0.97   0.00         0    0    0   0.037    2.514679   -8.116363    0.585627
   72  h       1    0.97   0.00         0    0    0   0.042    3.050406   -3.568045    1.319472
 
          #atoms :   72
          #bonds :   79
          #angl  :   136
          #tors  :   242
          #nmol  :   1
          #optfrag :   1
           ------------------------------------------------- 
          |                   G F N - F F                   |
          |          A general generic force-field          |
          |                  Version 1.0.3                  | 
           ------------------------------------------------- 
          nhb123   5634 518 0

 E+G (total)                   0 d,  0 h,  0 min,  0.004 sec
 distance/D3 list               ...        0 min,  0.000 sec (  0.676%)
 non bonded repulsion           ...        0 min,  0.000 sec (  6.995%)
 dCN                            ...        0 min,  0.000 sec (  5.691%)
 EEQ energy and q               ...        0 min,  0.000 sec ( 11.006%)
 D3                             ...        0 min,  0.001 sec ( 12.937%)
 EEQ gradient                   ...        0 min,  0.000 sec (  8.579%)
 bonds                          ...        0 min,  0.000 sec ( 11.484%)
 bend and torsion               ...        0 min,  0.000 sec ( 11.060%)
 bonded ATM                     ...        0 min,  0.000 sec (  1.279%)
 HB/XB (incl list setup)        ...        0 min,  0.001 sec ( 24.948%)

         :::::::::::::::::::::::::::::::::::::::::::::::::::::
         ::                     SUMMARY                     ::
         :::::::::::::::::::::::::::::::::::::::::::::::::::::
         :: total energy             -14.791238872878 Eh    ::
         :: gradient norm              0.078434145760 Eh/a0 ::
         ::.................................................::
         :: bond energy              -15.651083048275 Eh    ::
         :: angle energy               0.104093000220 Eh    ::
         :: torsion energy             0.042016754319 Eh    ::
         :: repulsion energy           1.030193594097 Eh    ::
         :: electrostat energy        -0.225976372909 Eh    ::
         :: dispersion energy         -0.075322605298 Eh    ::
         :: HB energy                 -0.001170762548 Eh    ::
         :: XB energy                  0.000000000000 Eh    ::
         :: bonded atm energy         -0.013989432485 Eh    ::
         :: external energy            0.000000000000 Eh    ::
         :: add. restraining           0.000000000000 Eh    ::
         :: total charge              -0.000000000000 e     ::
         :::::::::::::::::::::::::::::::::::::::::::::::::::::

           -------------------------------------------------
          |                Property Printout                |
           -------------------------------------------------

           -------------------------------------------------
          | TOTAL ENERGY              -14.791238872878 Eh   |
          | GRADIENT NORM               0.078434145760 Eh/α |
           -------------------------------------------------

------------------------------------------------------------------------
 * finished run on 2025/01/21 at 11:45:28.479     
------------------------------------------------------------------------
 total:
 * wall-time:     0 d,  0 h,  0 min,  0.092 sec
 *  cpu-time:     0 d,  0 h,  0 min,  2.077 sec
 * ratio c/w:    22.500 speedup
 SCF:
 * wall-time:     0 d,  0 h,  0 min,  0.006 sec
 *  cpu-time:     0 d,  0 h,  0 min,  0.154 sec
 * ratio c/w:    24.102 speedup

 Calculating NCI flexibility... done.
     covalent flexibility measure :   0.180
 non-covalent flexibility measure :   1.000
 flexibility measure :   0.302
 t(MTD) / ps set by command line  :     0.5
 t(MTD) / ps    :     0.5
 Σ(t(MTD)) / ps :     7.0 (14 MTDs)
 
-------------------------------------
Starting a trial MTD to test settings
-------------------------------------
 Estimated runtime for one MTD (0.5 ps) on a single thread: 2 min 48 sec
 Estimated runtime for a batch of 14 MTDs on 28 threads: 1 min 24 sec
 
 list of Vbias parameters applied:
$metadyn    0.00300   1.300
$metadyn    0.00150   1.300
$metadyn    0.00075   1.300
$metadyn    0.00300   0.780
$metadyn    0.00150   0.780
$metadyn    0.00075   0.780
$metadyn    0.00300   0.468
$metadyn    0.00150   0.468
$metadyn    0.00075   0.468
$metadyn    0.00300   0.281
$metadyn    0.00150   0.281
$metadyn    0.00075   0.281
$metadyn    0.00100   0.100
$metadyn    0.00500   0.800
 
*******************************************************************************************
**                        N E W    I T E R A T I O N    C Y C L E                        **
*******************************************************************************************
 
========================================
            MTD Iteration  1
========================================
 
     ========================================
     |         Meta-MD (MTD) Sampling       |
     ========================================
 
Starting Meta-MD  11 with the settings:
     MD time /ps        :     0.5
     dt /fs             :     1.5
     dumpstep(trj) /fs  :     100
     dumpstep(Vbias)/ps :     1.0
     Vbias factor k /Eh :  0.1080
     Vbias exp α /bohr⁻²:    0.28
Starting Meta-MD  12 with the settings:
     MD time /ps        :     0.5
     dt /fs             :     1.5
     dumpstep(trj) /fs  :     100
     dumpstep(Vbias)/ps :     1.0
     Vbias factor k /Eh :  0.0540
     Vbias exp α /bohr⁻²:    0.28
Starting Meta-MD   9 with the settings:
     MD time /ps        :     0.5
     dt /fs             :     1.5
     dumpstep(trj) /fs  :     100
     dumpstep(Vbias)/ps :     1.0
     Vbias factor k /Eh :  0.0540
     Vbias exp α /bohr⁻²:    0.47
Starting Meta-MD   3 with the settings:
     MD time /ps        :     0.5
     dt /fs             :     1.5
     dumpstep(trj) /fs  :     100
     dumpstep(Vbias)/ps :     1.0
     Vbias factor k /Eh :  0.0540
     Vbias exp α /bohr⁻²:    1.30
Starting Meta-MD   4 with the settings:
     MD time /ps        :     0.5
     dt /fs             :     1.5
     dumpstep(trj) /fs  :     100
     dumpstep(Vbias)/ps :     1.0
     Vbias factor k /Eh :  0.2160
     Vbias exp α /bohr⁻²:    0.78
Starting Meta-MD  13 with the settings:
     MD time /ps        :     0.5
     dt /fs             :     1.5
     dumpstep(trj) /fs  :     100
     dumpstep(Vbias)/ps :     1.0
     Vbias factor k /Eh :  0.0720
     Vbias exp α /bohr⁻²:    0.10
Starting Meta-MD   8 with the settings:
     MD time /ps        :     0.5
     dt /fs             :     1.5
     dumpstep(trj) /fs  :     100
     dumpstep(Vbias)/ps :     1.0
     Vbias factor k /Eh :  0.1080
     Vbias exp α /bohr⁻²:    0.47
Starting Meta-MD   5 with the settings:
     MD time /ps        :     0.5
     dt /fs             :     1.5
     dumpstep(trj) /fs  :     100
     dumpstep(Vbias)/ps :     1.0
     Vbias factor k /Eh :  0.1080
     Vbias exp α /bohr⁻²:    0.78
Starting Meta-MD   7 with the settings:
     MD time /ps        :     0.5
     dt /fs             :     1.5
     dumpstep(trj) /fs  :     100
     dumpstep(Vbias)/ps :     1.0
     Vbias factor k /Eh :  0.2160
     Vbias exp α /bohr⁻²:    0.47
Starting Meta-MD   1 with the settings:
     MD time /ps        :     0.5
     dt /fs             :     1.5
     dumpstep(trj) /fs  :     100
     dumpstep(Vbias)/ps :     1.0
     Vbias factor k /Eh :  0.2160
     Vbias exp α /bohr⁻²:    1.30
Starting Meta-MD  14 with the settings:
     MD time /ps        :     0.5
     dt /fs             :     1.5
     dumpstep(trj) /fs  :     100
     dumpstep(Vbias)/ps :     1.0
     Vbias factor k /Eh :  0.3600
     Vbias exp α /bohr⁻²:    0.80
Starting Meta-MD   2 with the settings:
     MD time /ps        :     0.5
     dt /fs             :     1.5
     dumpstep(trj) /fs  :     100
     dumpstep(Vbias)/ps :     1.0
     Vbias factor k /Eh :  0.1080
     Vbias exp α /bohr⁻²:    1.30
Starting Meta-MD   6 with the settings:
     MD time /ps        :     0.5
     dt /fs             :     1.5
     dumpstep(trj) /fs  :     100
     dumpstep(Vbias)/ps :     1.0
     Vbias factor k /Eh :  0.0540
     Vbias exp α /bohr⁻²:    0.78
Starting Meta-MD  10 with the settings:
     MD time /ps        :     0.5
     dt /fs             :     1.5
     dumpstep(trj) /fs  :     100
     dumpstep(Vbias)/ps :     1.0
     Vbias factor k /Eh :  0.2160
     Vbias exp α /bohr⁻²:    0.28
*Meta-MTD 10 finished*
*Meta-MTD 5 finished*
*Meta-MTD 7 finished*
*Meta-MTD 6 finished*
*Meta-MTD 9 finished*
*Meta-MTD 13 finished*
*Meta-MTD 4 finished*
*Meta-MTD 3 finished*
*Meta-MTD 14 finished*
*Meta-MTD 12 finished*
*Meta-MTD 8 finished*
*Meta-MTD 1 finished*
*Meta-MTD 2 finished*
*Meta-MTD 11 finished*
 
-----------------------
Multilevel Optimization
-----------------------
 
 -------------------------
 1. crude pre-optimization
 -------------------------
 Optimizing all 70 structures from file "crest_rotamers_0.xyz" ...
 1 2 3 4 5 6 7 8 9 10 11 12 13 14 15 16 17 18 19 20 21 22 23 24 25 26 27 28 29 30 31 32 33 34 35 36 37 38 39 40 41 42 43 44 45 46 47 48 49 50 51 52 53 54 55 56 57 58 59 60 61 62 63 64 65 66 67 68 69 70
 done.
 running RMSDs...
 done.
 E lowest :  -112.90937
 60 structures remain within    12.00 kcal/mol window
 
 -------------------------------------
 2. optimization with tight thresholds
 -------------------------------------
 Optimizing all 61 structures from file "crest_rotamers_1.xyz" ...
 1 2 3 4 5 6 7 8 9 10 11 12 13 14 15 16 17 18 19 20 21 22 23 24 25 26 27 28 29 30 31 32 33 34 35 36 37 38 39 40 41 42 43 44 45 46 47 48 49 50 51 52 53 54 55 56 57 58 59 60 61
 done.
 running RMSDs...
 done.
 E lowest :  -112.91097
 19 structures remain within     6.00 kcal/mol window
 
 
========================================
            MTD Iteration  2
========================================
 
     ========================================
     |         Meta-MD (MTD) Sampling       |
     ========================================
 
Starting Meta-MD   1 with the settings:
     MD time /ps        :     0.5
     dt /fs             :     1.5
     dumpstep(trj) /fs  :     100
     dumpstep(Vbias)/ps :     1.0
     Vbias factor k /Eh :  0.2160
     Vbias exp α /bohr⁻²:    1.30
Starting Meta-MD   2 with the settings:
     MD time /ps        :     0.5
     dt /fs             :     1.5
     dumpstep(trj) /fs  :     100
     dumpstep(Vbias)/ps :     1.0
     Vbias factor k /Eh :  0.1080
     Vbias exp α /bohr⁻²:    1.30
Starting Meta-MD   3 with the settings:
     MD time /ps        :     0.5
     dt /fs             :     1.5
     dumpstep(trj) /fs  :     100
     dumpstep(Vbias)/ps :     1.0
     Vbias factor k /Eh :  0.0540
     Vbias exp α /bohr⁻²:    1.30
Starting Meta-MD   4 with the settings:
     MD time /ps        :     0.5
     dt /fs             :     1.5
     dumpstep(trj) /fs  :     100
     dumpstep(Vbias)/ps :     1.0
     Vbias factor k /Eh :  0.2160
     Vbias exp α /bohr⁻²:    0.78
Starting Meta-MD   5 with the settings:
     MD time /ps        :     0.5
     dt /fs             :     1.5
     dumpstep(trj) /fs  :     100
     dumpstep(Vbias)/ps :     1.0
     Vbias factor k /Eh :  0.1080
     Vbias exp α /bohr⁻²:    0.78
Starting Meta-MD   6 with the settings:
     MD time /ps        :     0.5
     dt /fs             :     1.5
     dumpstep(trj) /fs  :     100
     dumpstep(Vbias)/ps :     1.0
     Vbias factor k /Eh :  0.0540
     Vbias exp α /bohr⁻²:    0.78
Starting Meta-MD   7 with the settings:
     MD time /ps        :     0.5
     dt /fs             :     1.5
     dumpstep(trj) /fs  :     100
     dumpstep(Vbias)/ps :     1.0
     Vbias factor k /Eh :  0.2160
     Vbias exp α /bohr⁻²:    0.47
Starting Meta-MD   8 with the settings:
     MD time /ps        :     0.5
     dt /fs             :     1.5
     dumpstep(trj) /fs  :     100
     dumpstep(Vbias)/ps :     1.0
     Vbias factor k /Eh :  0.1080
     Vbias exp α /bohr⁻²:    0.47
Starting Meta-MD   9 with the settings:
     MD time /ps        :     0.5
     dt /fs             :     1.5
     dumpstep(trj) /fs  :     100
     dumpstep(Vbias)/ps :     1.0
     Vbias factor k /Eh :  0.0540
     Vbias exp α /bohr⁻²:    0.47
Starting Meta-MD  10 with the settings:
     MD time /ps        :     0.5
     dt /fs             :     1.5
     dumpstep(trj) /fs  :     100
     dumpstep(Vbias)/ps :     1.0
     Vbias factor k /Eh :  0.2160
     Vbias exp α /bohr⁻²:    0.28
Starting Meta-MD  11 with the settings:
     MD time /ps        :     0.5
     dt /fs             :     1.5
     dumpstep(trj) /fs  :     100
     dumpstep(Vbias)/ps :     1.0
     Vbias factor k /Eh :  0.1080
     Vbias exp α /bohr⁻²:    0.28
Starting Meta-MD  12 with the settings:
     MD time /ps        :     0.5
     dt /fs             :     1.5
     dumpstep(trj) /fs  :     100
     dumpstep(Vbias)/ps :     1.0
     Vbias factor k /Eh :  0.0540
     Vbias exp α /bohr⁻²:    0.28
*Meta-MTD 5 finished*
*Meta-MTD 1 finished*
*Meta-MTD 4 finished*
*Meta-MTD 3 finished*
*Meta-MTD 7 finished*
*Meta-MTD 6 finished*
*Meta-MTD 12 finished*
*Meta-MTD 11 finished*
*Meta-MTD 10 finished*
*Meta-MTD 9 finished*
*Meta-MTD 2 finished*
*Meta-MTD 8 finished*
 
-----------------------
Multilevel Optimization
-----------------------
 
 -------------------------
 1. crude pre-optimization
 -------------------------
 Optimizing all 60 structures from file "crest_rotamers_0.xyz" ...
 1 2 3 4 5 6 7 8 9 10 11 12 13 14 15 16 17 18 19 20 21 22 23 24 25 26 27 28 29 30 31 32 33 34 35 36 37 38 39 40 41 42 43 44 45 46 47 48 49 50 51 52 53 54 55 56 57 58 59 60
 done.
 running RMSDs...
 done.
 E lowest :  -112.91122
 53 structures remain within    12.00 kcal/mol window
 
 -------------------------------------
 2. optimization with tight thresholds
 -------------------------------------
 Optimizing all 54 structures from file "crest_rotamers_1.xyz" ...
 1 2 3 4 5 6 7 8 9 10 11 12 13 14 15 16 17 18 19 20 21 22 23 24 25 26 27 28 29 30 31 32 33 34 35 36 37 38 39 40 41 42 43 44 45 46 47 48 49 50 51 52 53 54
 done.
 running RMSDs...
 done.
 E lowest :  -112.91373
 22 structures remain within     6.00 kcal/mol window
 
 ...............................................
 A new lower conformer was found!
 Improved by    0.00276 Eh or    1.72899kcal/mol
 ...............................................
 
========================================
            MTD Iteration  3
========================================
 
     ========================================
     |         Meta-MD (MTD) Sampling       |
     ========================================
 
Starting Meta-MD   1 with the settings:
     MD time /ps        :     0.5
     dt /fs             :     1.5
     dumpstep(trj) /fs  :     100
     dumpstep(Vbias)/ps :     1.0
     Vbias factor k /Eh :  0.2160
     Vbias exp α /bohr⁻²:    1.30
Starting Meta-MD   2 with the settings:
     MD time /ps        :     0.5
     dt /fs             :     1.5
     dumpstep(trj) /fs  :     100
     dumpstep(Vbias)/ps :     1.0
     Vbias factor k /Eh :  0.1080
     Vbias exp α /bohr⁻²:    1.30
Starting Meta-MD   3 with the settings:
     MD time /ps        :     0.5
     dt /fs             :     1.5
     dumpstep(trj) /fs  :     100
     dumpstep(Vbias)/ps :     1.0
     Vbias factor k /Eh :  0.0540
     Vbias exp α /bohr⁻²:    1.30
Starting Meta-MD   4 with the settings:
     MD time /ps        :     0.5
     dt /fs             :     1.5
     dumpstep(trj) /fs  :     100
     dumpstep(Vbias)/ps :     1.0
     Vbias factor k /Eh :  0.2160
     Vbias exp α /bohr⁻²:    0.78
Starting Meta-MD   5 with the settings:
     MD time /ps        :     0.5
     dt /fs             :     1.5
     dumpstep(trj) /fs  :     100
     dumpstep(Vbias)/ps :     1.0
     Vbias factor k /Eh :  0.1080
     Vbias exp α /bohr⁻²:    0.78
Starting Meta-MD   6 with the settings:
     MD time /ps        :     0.5
     dt /fs             :     1.5
     dumpstep(trj) /fs  :     100
     dumpstep(Vbias)/ps :     1.0
     Vbias factor k /Eh :  0.0540
     Vbias exp α /bohr⁻²:    0.78
Starting Meta-MD   7 with the settings:
     MD time /ps        :     0.5
     dt /fs             :     1.5
     dumpstep(trj) /fs  :     100
     dumpstep(Vbias)/ps :     1.0
     Vbias factor k /Eh :  0.2160
     Vbias exp α /bohr⁻²:    0.47
Starting Meta-MD   8 with the settings:
     MD time /ps        :     0.5
     dt /fs             :     1.5
     dumpstep(trj) /fs  :     100
     dumpstep(Vbias)/ps :     1.0
     Vbias factor k /Eh :  0.1080
     Vbias exp α /bohr⁻²:    0.47
Starting Meta-MD   9 with the settings:
     MD time /ps        :     0.5
     dt /fs             :     1.5
     dumpstep(trj) /fs  :     100
     dumpstep(Vbias)/ps :     1.0
     Vbias factor k /Eh :  0.0540
     Vbias exp α /bohr⁻²:    0.47
Starting Meta-MD  10 with the settings:
     MD time /ps        :     0.5
     dt /fs             :     1.5
     dumpstep(trj) /fs  :     100
     dumpstep(Vbias)/ps :     1.0
     Vbias factor k /Eh :  0.2160
     Vbias exp α /bohr⁻²:    0.28
Starting Meta-MD  11 with the settings:
     MD time /ps        :     0.5
     dt /fs             :     1.5
     dumpstep(trj) /fs  :     100
     dumpstep(Vbias)/ps :     1.0
     Vbias factor k /Eh :  0.1080
     Vbias exp α /bohr⁻²:    0.28
Starting Meta-MD  12 with the settings:
     MD time /ps        :     0.5
     dt /fs             :     1.5
     dumpstep(trj) /fs  :     100
     dumpstep(Vbias)/ps :     1.0
     Vbias factor k /Eh :  0.0540
     Vbias exp α /bohr⁻²:    0.28
*Meta-MTD 1 finished*
*Meta-MTD 11 finished*
*Meta-MTD 7 finished*
*Meta-MTD 10 finished*
*Meta-MTD 4 finished*
*Meta-MTD 3 finished*
*Meta-MTD 9 finished*
*Meta-MTD 8 finished*
*Meta-MTD 5 finished*
*Meta-MTD 6 finished*
*Meta-MTD 12 finished*
*Meta-MTD 2 finished*
 
-----------------------
Multilevel Optimization
-----------------------
 
 -------------------------
 1. crude pre-optimization
 -------------------------
 Optimizing all 60 structures from file "crest_rotamers_0.xyz" ...
 1 2 3 4 5 6 7 8 9 10 11 12 13 14 15 16 17 18 19 20 21 22 23 24 25 26 27 28 29 30 31 32 33 34 35 36 37 38 39 40 41 42 43 44 45 46 47 48 49 50 51 52 53 54 55 56 57 58 59 60
 done.
 running RMSDs...
 done.
 E lowest :  -112.91310
 52 structures remain within    12.00 kcal/mol window
 
 -------------------------------------
 2. optimization with tight thresholds
 -------------------------------------
 Optimizing all 53 structures from file "crest_rotamers_1.xyz" ...
 1 2 3 4 5 6 7 8 9 10 11 12 13 14 15 16 17 18 19 20 21 22 23 24 25 26 27 28 29 30 31 32 33 34 35 36 37 38 39 40 41 42 43 44 45 46 47 48 49 50 51 52 53
 done.
 running RMSDs...
 done.
 E lowest :  -112.91373
 15 structures remain within     6.00 kcal/mol window
 
========================================
            MTD Iterations done         
========================================
 Collecting ensmbles.
 running RMSDs...
 done.
 E lowest :  -112.91373
 49 structures remain within     6.00 kcal/mol window
 
 -------------------------------
 Additional orientation sampling
 -------------------------------
 Optimizing all 98 structures from file "oh_ensemble.xyz" ...
 1 2 3 4 5 6 7 8 9 10 11 12 13 14 15 16 17 18 19 20 21 22 23 24 25 26 27 28 29 30 31 32 33 34 35 36 37 38 39 40 41 42 43 44 45 46 47 48 49 50 51 52 53 54 55 56 57 58 59 60 61 62 63 64 65 66 67 68 69 70 71 72 73 74 75 76 77 78 79 80 81 82 83 84 85 86 87 88 89 90 91 92 93 94 95 96 97 98
 done.
 running RMSDs...
 done.
 E lowest :  -112.91456
 119 structures remain within     6.00 kcal/mol window
 
-----------------------------------------------
Additional regular MDs on lowest 4 conformer(s)
-----------------------------------------------
Starting MD   1 with the settings:
     MD time /ps        :     0.2
     MD Temperature /K  :   400.0
     dt /fs             :     1.5
     dumpstep(trj) /fs  :     100
Starting MD   2 with the settings:
     MD time /ps        :     0.2
     MD Temperature /K  :   500.0
     dt /fs             :     1.5
     dumpstep(trj) /fs  :     100
Starting MD   3 with the settings:
     MD time /ps        :     0.2
     MD Temperature /K  :   400.0
     dt /fs             :     1.5
     dumpstep(trj) /fs  :     100
Starting MD   4 with the settings:
     MD time /ps        :     0.2
     MD Temperature /K  :   500.0
     dt /fs             :     1.5
     dumpstep(trj) /fs  :     100
Starting MD   6 with the settings:
     MD time /ps        :     0.2
     MD Temperature /K  :   500.0
     dt /fs             :     1.5
     dumpstep(trj) /fs  :     100
Starting MD   5 with the settings:
     MD time /ps        :     0.2
     MD Temperature /K  :   400.0
     dt /fs             :     1.5
     dumpstep(trj) /fs  :     100
Starting MD   8 with the settings:
     MD time /ps        :     0.2
     MD Temperature /K  :   500.0
     dt /fs             :     1.5
     dumpstep(trj) /fs  :     100
Starting MD   7 with the settings:
     MD time /ps        :     0.2
     MD Temperature /K  :   400.0
     dt /fs             :     1.5
     dumpstep(trj) /fs  :     100
*MD 1 finished*
*MD 3 finished*
*MD 6 finished*
*MD 7 finished*
*MD 2 finished*
*MD 5 finished*
*MD 4 finished*
*MD 8 finished*
 Appending file crest_rotamers_2.xyz with new structures
 
 -------------------------------------------
 Ensemble optimization with tight thresholds
 -------------------------------------------
 Optimizing all 135 structures from file "crest_rotamers_2.xyz" ...
 1 2 3 4 5 6 7 8 9 10 11 12 13 14 15 16 17 18 19 20 21 22 23 24 25 26 27 28 29 30 31 32 33 34 35 36 37 38 39 40 41 42 43 44 45 46 47 48 49 50 51 52 53 54 55 56 57 58 59 60 61 62 63 64 65 66 67 68 69 70 71 72 73 74 75 76 77 78 79 80 81 82 83 84 85 86 87 88 89 90 91 92 93 94 95 96 97 98 99 100 101 102 103 104 105 106 107 108 109 110 111 112 113 114 115 116 117 118 119 120 121 122 123 124 125 126 127 128 129 130 131 132 133 134 135
 done.
 running RMSDs...
 done.
 E lowest :  -112.91456
 119 structures remain within     6.00 kcal/mol window
 
 ...............................................
 A new lower conformer was found!
 Improved by    0.00083 Eh or    0.51840kcal/mol
 ...............................................
 
*******************************************************************************************
**                        N E W    I T E R A T I O N    C Y C L E                        **
*******************************************************************************************
 
========================================
            MTD Iteration  1
========================================
 
     ========================================
     |         Meta-MD (MTD) Sampling       |
     ========================================
 
Starting Meta-MD   1 with the settings:
     MD time /ps        :     0.5
     dt /fs             :     1.5
     dumpstep(trj) /fs  :     100
     dumpstep(Vbias)/ps :     1.0
     Vbias factor k /Eh :  0.2160
     Vbias exp α /bohr⁻²:    1.30
Starting Meta-MD   2 with the settings:
     MD time /ps        :     0.5
     dt /fs             :     1.5
     dumpstep(trj) /fs  :     100
     dumpstep(Vbias)/ps :     1.0
     Vbias factor k /Eh :  0.1080
     Vbias exp α /bohr⁻²:    1.30
Starting Meta-MD   3 with the settings:
     MD time /ps        :     0.5
     dt /fs             :     1.5
     dumpstep(trj) /fs  :     100
     dumpstep(Vbias)/ps :     1.0
     Vbias factor k /Eh :  0.0540
     Vbias exp α /bohr⁻²:    1.30
Starting Meta-MD   4 with the settings:
     MD time /ps        :     0.5
     dt /fs             :     1.5
     dumpstep(trj) /fs  :     100
     dumpstep(Vbias)/ps :     1.0
     Vbias factor k /Eh :  0.2160
     Vbias exp α /bohr⁻²:    0.78
Starting Meta-MD   5 with the settings:
     MD time /ps        :     0.5
     dt /fs             :     1.5
     dumpstep(trj) /fs  :     100
     dumpstep(Vbias)/ps :     1.0
     Vbias factor k /Eh :  0.1080
     Vbias exp α /bohr⁻²:    0.78
Starting Meta-MD   6 with the settings:
     MD time /ps        :     0.5
     dt /fs             :     1.5
     dumpstep(trj) /fs  :     100
     dumpstep(Vbias)/ps :     1.0
     Vbias factor k /Eh :  0.0540
     Vbias exp α /bohr⁻²:    0.78
Starting Meta-MD   7 with the settings:
     MD time /ps        :     0.5
     dt /fs             :     1.5
     dumpstep(trj) /fs  :     100
     dumpstep(Vbias)/ps :     1.0
     Vbias factor k /Eh :  0.2160
     Vbias exp α /bohr⁻²:    0.47
Starting Meta-MD   8 with the settings:
     MD time /ps        :     0.5
     dt /fs             :     1.5
     dumpstep(trj) /fs  :     100
     dumpstep(Vbias)/ps :     1.0
     Vbias factor k /Eh :  0.1080
     Vbias exp α /bohr⁻²:    0.47
Starting Meta-MD   9 with the settings:
     MD time /ps        :     0.5
     dt /fs             :     1.5
     dumpstep(trj) /fs  :     100
     dumpstep(Vbias)/ps :     1.0
     Vbias factor k /Eh :  0.0540
     Vbias exp α /bohr⁻²:    0.47
Starting Meta-MD  10 with the settings:
     MD time /ps        :     0.5
     dt /fs             :     1.5
     dumpstep(trj) /fs  :     100
     dumpstep(Vbias)/ps :     1.0
     Vbias factor k /Eh :  0.2160
     Vbias exp α /bohr⁻²:    0.28
Starting Meta-MD  11 with the settings:
     MD time /ps        :     0.5
     dt /fs             :     1.5
     dumpstep(trj) /fs  :     100
     dumpstep(Vbias)/ps :     1.0
     Vbias factor k /Eh :  0.1080
     Vbias exp α /bohr⁻²:    0.28
Starting Meta-MD  12 with the settings:
     MD time /ps        :     0.5
     dt /fs             :     1.5
     dumpstep(trj) /fs  :     100
     dumpstep(Vbias)/ps :     1.0
     Vbias factor k /Eh :  0.0540
     Vbias exp α /bohr⁻²:    0.28
*Meta-MTD 10 finished*
*Meta-MTD 5 finished*
*Meta-MTD 2 finished*
*Meta-MTD 1 finished*
*Meta-MTD 6 finished*
*Meta-MTD 12 finished*
*Meta-MTD 4 finished*
*Meta-MTD 3 finished*
*Meta-MTD 8 finished*
*Meta-MTD 9 finished*
*Meta-MTD 7 finished*
*Meta-MTD 11 finished*
 
-----------------------
Multilevel Optimization
-----------------------
 
 -------------------------
 1. crude pre-optimization
 -------------------------
 Optimizing all 60 structures from file "crest_rotamers_0.xyz" ...
 1 2 3 4 5 6 7 8 9 10 11 12 13 14 15 16 17 18 19 20 21 22 23 24 25 26 27 28 29 30 31 32 33 34 35 36 37 38 39 40 41 42 43 44 45 46 47 48 49 50 51 52 53 54 55 56 57 58 59 60
 done.
 running RMSDs...
 done.
 E lowest :  -112.91355
 52 structures remain within    12.00 kcal/mol window
 
 -------------------------------------
 2. optimization with tight thresholds
 -------------------------------------
 Optimizing all 53 structures from file "crest_rotamers_1.xyz" ...
 1 2 3 4 5 6 7 8 9 10 11 12 13 14 15 16 17 18 19 20 21 22 23 24 25 26 27 28 29 30 31 32 33 34 35 36 37 38 39 40 41 42 43 44 45 46 47 48 49 50 51 52 53
 done.
 running RMSDs...
 done.
 E lowest :  -112.91456
 16 structures remain within     6.00 kcal/mol window
 
========================================
            MTD Iterations done         
========================================
 Collecting ensmbles.
 running RMSDs...
 done.
 E lowest :  -112.91456
 16 structures remain within     6.00 kcal/mol window
 
 -------------------------------
 Additional orientation sampling
 -------------------------------
 Optimizing all 28 structures from file "oh_ensemble.xyz" ...
 1 2 3 4 5 6 7 8 9 10 11 12 13 14 15 16 17 18 19 20 21 22 23 24 25 26 27 28
 done.
 running RMSDs...
 done.
 E lowest :  -112.91456
 34 structures remain within     6.00 kcal/mol window
 
-----------------------------------------------
Additional regular MDs on lowest 4 conformer(s)
-----------------------------------------------
Starting MD   1 with the settings:
     MD time /ps        :     0.2
     MD Temperature /K  :   400.0
     dt /fs             :     1.5
     dumpstep(trj) /fs  :     100
Starting MD   2 with the settings:
     MD time /ps        :     0.2
     MD Temperature /K  :   500.0
     dt /fs             :     1.5
     dumpstep(trj) /fs  :     100
Starting MD   3 with the settings:
     MD time /ps        :     0.2
     MD Temperature /K  :   400.0
     dt /fs             :     1.5
     dumpstep(trj) /fs  :     100
Starting MD   4 with the settings:
     MD time /ps        :     0.2
     MD Temperature /K  :   500.0
     dt /fs             :     1.5
     dumpstep(trj) /fs  :     100
Starting MD   5 with the settings:
     MD time /ps        :     0.2
     MD Temperature /K  :   400.0
     dt /fs             :     1.5
     dumpstep(trj) /fs  :     100
Starting MD   6 with the settings:
     MD time /ps        :     0.2
     MD Temperature /K  :   500.0
     dt /fs             :     1.5
     dumpstep(trj) /fs  :     100
Starting MD   7 with the settings:
     MD time /ps        :     0.2
     MD Temperature /K  :   400.0
     dt /fs             :     1.5
     dumpstep(trj) /fs  :     100
Starting MD   8 with the settings:
     MD time /ps        :     0.2
     MD Temperature /K  :   500.0
     dt /fs             :     1.5
     dumpstep(trj) /fs  :     100
*MD 3 finished*
*MD 2 finished*
*MD 7 finished*
*MD 4 finished*
*MD 1 finished*
*MD 8 finished*
*MD 5 finished*
*MD 6 finished*
 Appending file crest_rotamers_2.xyz with new structures
 
 -------------------------------------------
 Ensemble optimization with tight thresholds
 -------------------------------------------
 Optimizing all 50 structures from file "crest_rotamers_2.xyz" ...
 1 2 3 4 5 6 7 8 9 10 11 12 13 14 15 16 17 18 19 20 21 22 23 24 25 26 27 28 29 30 31 32 33 34 35 36 37 38 39 40 41 42 43 44 45 46 47 48 49 50
 done.
 running RMSDs...
 done.
 E lowest :  -112.91456
 34 structures remain within     6.00 kcal/mol window
 
 
     ========================================
     |        Structure Crossing (GC)       |
     ========================================
 =============================
  # threads =          28
 =============================
 input  file name : crest_rotamers_4.xyz
number of atoms                :    72
number of points on xyz files  :    34
conformer energy window  /kcal :    6.00
CN per atom difference cut-off :  0.3000
RMSD threshold                 :  0.5000
max. # of generated structures : 25
 reading xyz file ...
 # in E window                 34
 generating pairs ...         594
 generated pairs           :          93
 number of clash discarded :         468
 average rmsd w.r.t input  : 1.47011
 sd of ensemble            : 0.95649
 number of new structures      :           9
 removed identical structures  :          41
 writing            9  TMPCONF* dirs ...
 --------------------------
 GC: loose pre-optimization
 --------------------------
 Starting optimization of generated structures
 9 jobs to do.
 1 2 3 4 5 6 7 8 9 
 done.
 Now appending opt.xyz file with new structures
 running RMSDs...
 done.
 E lowest :  -112.91445
 9 structures remain within    10.00 kcal/mol window
 --------------------------------------
 GC: optimization with tight thresholds
 --------------------------------------
 Optimizing all 9 structures from file "crest_rotamers_1.xyz" ...
 1 2 3 4 5 6 7 8 9
 done.
 running RMSDs...
 done.
 E lowest :  -112.91456
 
 
   ================================================
   |           Final Geometry Optimization        |
   ================================================
 ------------------------------------------------
 Ensemble optimization with very tight thresholds
 ------------------------------------------------
 Optimizing all 39 structures from file "crest_rotamers_5.xyz" ...
 1 2 3 4 5 6 7 8 9 10 11 12 13 14 15 16 17 18 19 20 21 22 23 24 25 26 27 28 29 30 31 32 33 34 35 36 37 38 39
 done.
 running RMSDs...
 done.
 E lowest :  -112.91456
 39 structures remain within     6.00 kcal/mol window
 
 input  file name : crest_rotamers_6.xyz
 output file name : crest_rotamers_7.xyz
 number of atoms                :   72
 number of points on xyz files  :   39
 RMSD threshold                 :   0.2500
 Bconst threshold               :   0.0100
 population threshold           :   0.0500
 conformer energy window  /kcal :   6.0000
 # fragment in coord            :     1
 # bonds in reference structure :    79
   => # of C=C bonds :    12
 number of reliable points      :    39
 reference state Etot :  -112.914557950000
 number of doubles removed by rot/RMSD         :           0
 total number unique points considered further :          39
       Erel/kcal        Etot weight/tot  conformer     set   degen     origin
       1   0.000  -112.91456    0.27641    0.27641       1       1     hor
       2   0.357  -112.91399    0.15130    0.30257       2       2     hor
       3   0.357  -112.91399    0.15127                                mtd10
       4   0.518  -112.91373    0.11543    0.11543       3       1     hor
       5   0.817  -112.91326    0.06974    0.06974       4       1     hor
       6   1.094  -112.91282    0.04372    0.04372       5       1     hor
       7   1.405  -112.91232    0.02586    0.05165       6       2     hor
       8   1.407  -112.91232    0.02578                                gc
       9   1.685  -112.91187    0.01611    0.03205       7       2     mtd10
      10   1.692  -112.91186    0.01594                                mtd5
      11   1.768  -112.91174    0.01401    0.01401       8       1     mtd2
      12   1.840  -112.91163    0.01242    0.01242       9       1     mtd5
      13   1.901  -112.91153    0.01121    0.01121      10       1     hor
      14   2.014  -112.91135    0.00926    0.00926      11       1     gc
      15   2.027  -112.91133    0.00905    0.00905      12       1     hor
      16   2.078  -112.91125    0.00832    0.00832      13       1     gc
      17   2.161  -112.91111    0.00723    0.00723      14       1     hor
      18   2.245  -112.91098    0.00627    0.00627      15       1     hor
      19   2.396  -112.91074    0.00486    0.00486      16       1     hor
      20   2.445  -112.91066    0.00448    0.00448      17       1     hor
      21   2.614  -112.91039    0.00337    0.00337      18       1     mtd1
      22   2.618  -112.91039    0.00334    0.00334      19       1     hor
      23   2.768  -112.91015    0.00260    0.00260      20       1     mtd7
      24   2.855  -112.91001    0.00224    0.00224      21       1     hor
      25   2.904  -112.90993    0.00207    0.00207      22       1     gc
      26   3.251  -112.90938    0.00115    0.00115      23       1     hor
      27   3.361  -112.90920    0.00096    0.00096      24       1     mtd6
      28   3.479  -112.90901    0.00078    0.00078      25       1     hor
      29   3.485  -112.90900    0.00077    0.00077      26       1     hor
      30   3.509  -112.90897    0.00074    0.00074      27       1     gc
      31   3.622  -112.90879    0.00062    0.00062      28       1     hor
      32   3.670  -112.90871    0.00057    0.00057      29       1     gc
      33   3.810  -112.90849    0.00045    0.00045      30       1     gc
      34   3.839  -112.90844    0.00043    0.00083      31       2     hor
      35   3.866  -112.90840    0.00041                                hor
      36   3.859  -112.90841    0.00041    0.00041      32       1     hor
      37   3.956  -112.90825    0.00035    0.00035      33       1     mtd4
      38   5.200  -112.90627    0.00004    0.00004      34       1     mtd12
      39   5.376  -112.90599    0.00003    0.00003      35       1     hor
T /K                                  :   298.15
E lowest                              :  -112.91456
ensemble average energy (kcal)        :    0.640
ensemble entropy (J/mol K, cal/mol K) :   19.660    4.699
ensemble free energy (kcal/mol)       :   -1.401
population of lowest in %             :   27.641
 number of unique conformers for further calc           35
 list of relative energies saved as "crest.energies"
 
 -----------------
 Wall Time Summary
 -----------------
             test MD wall time :         0h : 0m :42s
                 MTD wall time :         0h : 2m :34s
      multilevel OPT wall time :         0h : 3m :43s
                  MD wall time :         0h : 1m : 5s
                  GC wall time :         0h : 0m :10s
--------------------
Overall wall time  : 0h : 8m :19s
 
 CREST terminated normally.
