 
       ==============================================
       |                                            |
       |                 C R E S T                  |
       |                                            |
       |  Conformer-Rotamer Ensemble Sampling Tool  |
       |          based on the GFN methods          |
       |             P.Pracht, S.Grimme             |
       |          Universitaet Bonn, MCTC           |
       ==============================================
       Version 2.11.2, Fr 17. Dec 12:10:44 CEST 2021
  Using the xTB program. Compatible with xTB version 6.4.0
 
   Cite work conducted with this code as

   P. Pracht, F. Bohle, S. Grimme, PCCP, 2020, 22, 7169-7192.

   and  S. Grimme, JCTC, 2019, 15, 2847-2862.
 
   with help from:
   C.Bannwarth, F.Bohle, S.Ehlert, S.Grimme,
   C. Plett, P.Pracht, S. Spicher
 
   This program is distributed in the hope that it will be useful,
   but WITHOUT ANY WARRANTY; without even the implied warranty of
   MERCHANTABILITY or FITNESS FOR A PARTICULAR PURPOSE.

 Command line input:
 > crest 00300_r_0.xyz -T 28 -gfn2 -chrg 0 -uhf 0 -rthr 0.25 -shake 1 --mdlen 0.5

  -T 28 (CPUs/Threads selected)
  -gfn2 : Use of GFN2-xTB requested.
  -chrg 0
  -uhf 0
  -rthr 0.25
  --mdlen 0.5 (MD length in ps)
 
 -------------------------
 xTB Geometry Optimization
 -------------------------
 Geometry successfully optimized.
 
------------------------------------------------
Generating MTD length from a flexibility measure
------------------------------------------------
      -----------------------------------------------------------      
     |                   =====================                   |     
     |                           x T B                           |     
     |                   =====================                   |     
     |                         S. Grimme                         |     
     |          Mulliken Center for Theoretical Chemistry        |     
     |                    University of Bonn                     |     
      -----------------------------------------------------------      

   * xtb version 6.4.1 (afa7bdf) compiled by 'ehlert@majestix' on 2021-06-10

   xtb is free software: you can redistribute it and/or modify it under
   the terms of the GNU Lesser General Public License as published by
   the Free Software Foundation, either version 3 of the License, or
   (at your option) any later version.
   
   xtb is distributed in the hope that it will be useful,
   but WITHOUT ANY WARRANTY; without even the implied warranty of
   MERCHANTABILITY or FITNESS FOR A PARTICULAR PURPOSE.  See the
   GNU Lesser General Public License for more details.
   
   Cite this work as:
   * C. Bannwarth, E. Caldeweyher, S. Ehlert, A. Hansen, P. Pracht,
     J. Seibert, S. Spicher, S. Grimme, WIREs Comput. Mol. Sci., 2020, 11,
     e01493. DOI: 10.1002/wcms.1493
   
   for GFN2-xTB:
   * C. Bannwarth, S. Ehlert and S. Grimme., J. Chem. Theory Comput., 2019,
     15, 1652-1671. DOI: 10.1021/acs.jctc.8b01176
   for GFN1-xTB:
   * S. Grimme, C. Bannwarth, P. Shushkov, J. Chem. Theory Comput., 2017,
     13, 1989-2009. DOI: 10.1021/acs.jctc.7b00118
   for GFN0-xTB:
   * P. Pracht, E. Caldeweyher, S. Ehlert, S. Grimme, ChemRxiv, 2019, preprint.
     DOI: 10.26434/chemrxiv.8326202.v1
   for GFN-FF:
   * S. Spicher and S. Grimme, Angew. Chem. Int. Ed., 2020, 59, 15665-15673.
     DOI: 10.1002/anie.202004239
   
   for DFT-D4:
   * E. Caldeweyher, C. Bannwarth and S. Grimme, J. Chem. Phys., 2017,
     147, 034112. DOI: 10.1063/1.4993215
   * E. Caldeweyher, S. Ehlert, A. Hansen, H. Neugebauer, S. Spicher,
     C. Bannwarth and S. Grimme, J. Chem. Phys., 2019, 150, 154122.
     DOI: 10.1063/1.5090222
   * E. Caldeweyher, J.-M. Mewes, S. Ehlert and S. Grimme, Phys. Chem. Chem. Phys.
     2020, 22, 8499-8512. DOI: 10.1039/D0CP00502A
   
   for sTDA-xTB:
   * S. Grimme and C. Bannwarth, J. Chem. Phys., 2016, 145, 054103.
     DOI: 10.1063/1.4959605
   
   in the mass-spec context:
   * V. Asgeirsson, C. Bauer and S. Grimme, Chem. Sci., 2017, 8, 4879.
     DOI: 10.1039/c7sc00601b
   * J. Koopman and S. Grimme, ACS Omega 2019, 4, 12, 15120-15133.
     DOI: 10.1021/acsomega.9b02011
   
   for metadynamics refer to:
   * S. Grimme, J. Chem. Theory Comput., 2019, 155, 2847-2862
     DOI: 10.1021/acs.jctc.9b00143
   
   for SPH calculations refer to:
   * S. Spicher and S. Grimme, J. Chem. Theory Comput., 2021, 17, 1701-1714
     DOI: 10.1021/acs.jctc.0c01306
   
   with help from (in alphabetical order)
   P. Atkinson, C. Bannwarth, F. Bohle, G. Brandenburg, E. Caldeweyher
   M. Checinski, S. Dohm, S. Ehlert, S. Ehrlich, I. Gerasimov, J. Koopman
   C. Lavigne, S. Lehtola, F. März, M. Müller, F. Musil, H. Neugebauer
   J. Pisarek, C. Plett, P. Pracht, J. Seibert, P. Shushkov, S. Spicher
   M. Stahn, M. Steiner, T. Strunk, J. Stückrath, T. Rose, and J. Unsleber
   
 * started run on 2025/01/21 at 12:24:22.999     

           -------------------------------------------------
          |                Calculation Setup                |
           -------------------------------------------------

          program call               : xtb tmpcoord --gfn0 --sp
          hostname                   : node26
          coordinate file            : tmpcoord
          omp threads                :                    28
          number of atoms            :                    84
          number of electrons        :                   234
          charge                     :                     0
          spin                       :                   0.0
          first test random number   :      0.45318800840572

   ID    Z sym.   atoms
    1    6 c      1, 3, 4, 6-21, 23-28, 30, 31, 33-43, 45, 46
    2    8 o      2, 5, 22, 29, 32, 44
    3    1 h      47-84
########################################################################
[WARNING] Please study the warnings concerning your input carefully
-1- prog_main_parseArguments: The use of '--gfn0' is discouraged, please use '--gfn 0' next time
########################################################################

           -------------------------------------------------
          |                 G F N 0 - x T B                 |
           -------------------------------------------------

        Reference                      10.26434/chemrxiv.8326202.v1
      * Hamiltonian:
        H0-scaling (s, p, d)           2.000000    2.486800    2.270000
        zeta-weighting                 1.000000
      * Dispersion:
        s8                             2.850000
        a1                             0.800000
        a2                             4.600000
        s9                             0.000000
      * Repulsion:
        kExp                           1.500000
        rExp                           1.000000
      * Coulomb:
        alpha                          0.000000
        third order                    atomic
        anisotropic                    false
      * Polar bond correction:
        rad-shift                      0.053700
        strength                      -0.012900
        en-exp                         3.484700
        en-scale                       0.509700


          ...................................................
          :                      SETUP                      :
          :.................................................:
          :  # basis functions                 260          :
          :  # atomic orbitals                 260          :
          :  # shells                          168          :
          :  # electrons                       234          :
          :  electronic temp.          300.0000000     K    :
          :  accuracy                    1.0000000          :
          :  -> integral cutoff          0.2500000E+02      :
          :  -> integral neglect         0.1000000E-07      :
          ...................................................
  Checking positiv definite overlap ...  done.
 

         #    Occupation            Energy/Eh            Energy/eV
      -------------------------------------------------------------
         1        2.0000           -0.6949540             -18.9107
       ...           ...                  ...                  ...
       111        2.0000           -0.4122095             -11.2168
       112        2.0000           -0.4111114             -11.1869
       113        2.0000           -0.4059969             -11.0477
       114        2.0000           -0.4033007             -10.9744
       115        2.0000           -0.3946189             -10.7381
       116        2.0000           -0.3932122             -10.6998
       117        2.0000           -0.3903340             -10.6215 (HOMO)
       118                         -0.3025555              -8.2330 (LUMO)
       119                         -0.2990636              -8.1379
       120                         -0.2741891              -7.4611
       121                         -0.2739707              -7.4551
       122                         -0.2683685              -7.3027
       ...                                ...                  ...
       260                          0.6557929              17.8450
      -------------------------------------------------------------
                  HL-Gap            0.0877785 Eh            2.3886 eV
             Fermi-level            0.0000000 Eh            0.0000 eV

 EHT (total)                   0 d,  0 h,  0 min,  0.041 sec
 EHT setup                      ...        0 min,  0.001 sec (  3.567%)
 Coordination number            ...        0 min,  0.002 sec (  4.307%)
 EEQ model density              ...        0 min,  0.001 sec (  2.518%)
 D4 Dispersion                  ...        0 min,  0.003 sec (  7.884%)
 Integral evaluation            ...        0 min,  0.001 sec (  3.231%)
 Cholesky factorization         ...        0 min,  0.007 sec ( 17.966%)
 Zeroth order Hamiltonian       ...        0 min,  0.020 sec ( 48.766%)
 Gradient calculation           ...        0 min,  0.004 sec (  9.868%)

         :::::::::::::::::::::::::::::::::::::::::::::::::::::
         ::                     SUMMARY                     ::
         :::::::::::::::::::::::::::::::::::::::::::::::::::::
         :: total energy            -124.883416944589 Eh    ::
         :: gradient norm              0.055173417170 Eh/a0 ::
         :: HOMO-LUMO gap              2.388574184656 eV    ::
         ::.................................................::
         :: H0 energy               -126.497575398549 Eh    ::
         :: repulsion energy           1.971673403205 Eh    ::
         :: electrostat energy        -0.178942394025 Eh    ::
         :: -> Gsolv                   0.000000000000 Eh    ::
         ::    -> Gsasa                0.000000000000 Eh    ::
         ::    -> Gshift               0.000000000000 Eh    ::
         :: dispersion energy         -0.052900274973 Eh    ::
         :: short-range corr.         -0.125672280247 Eh    ::
         :: add. restraining           0.000000000000 Eh    ::
         :: total charge               0.000000000000 e     ::
         :::::::::::::::::::::::::::::::::::::::::::::::::::::

           -------------------------------------------------
          |                Property Printout                |
           -------------------------------------------------

    * Orbital Energies and Occupations

         #    Occupation            Energy/Eh            Energy/eV
      -------------------------------------------------------------
         1        2.0000           -0.6949540             -18.9107
       ...           ...                  ...                  ...
       105        2.0000           -0.4392918             -11.9537
       106        2.0000           -0.4368194             -11.8865
       107        2.0000           -0.4367698             -11.8851
       108        2.0000           -0.4335627             -11.7978
       109        2.0000           -0.4304461             -11.7130
       110        2.0000           -0.4186316             -11.3915
       111        2.0000           -0.4122095             -11.2168
       112        2.0000           -0.4111114             -11.1869
       113        2.0000           -0.4059969             -11.0477
       114        2.0000           -0.4033007             -10.9744
       115        2.0000           -0.3946189             -10.7381
       116        2.0000           -0.3932122             -10.6998
       117        2.0000           -0.3903340             -10.6215 (HOMO)
       118                         -0.3025555              -8.2330 (LUMO)
       119                         -0.2990636              -8.1379
       120                         -0.2741891              -7.4611
       121                         -0.2739707              -7.4551
       122                         -0.2683685              -7.3027
       123                         -0.2683558              -7.3023
       124                         -0.2566690              -6.9843
       125                         -0.2558256              -6.9614
       126                         -0.2333613              -6.3501
       127                         -0.2288140              -6.2263
       128                         -0.1856736              -5.0524
       ...                                ...                  ...
       260                          0.6557929              17.8450
      -------------------------------------------------------------
                  HL-Gap            0.0877785 Eh            2.3886 eV
             Fermi-level            0.0000000 Eh            0.0000 eV

     #   Z          covCN         q      C6AA      α(0)
     1   6 c        3.650    -0.074    24.820     7.235
     2   8 o        1.701    -0.347    19.676     6.001
     3   6 c        3.699     0.052    22.198     6.816
     4   6 c        3.694     0.036    22.509     6.866
     5   8 o        1.701    -0.379    20.273     6.092
     6   6 c        3.702     0.084    21.615     6.725
     7   6 c        2.969     0.031    28.770     8.771
     8   6 c        2.922    -0.127    32.902     9.377
     9   6 c        2.924    -0.112    32.479     9.317
    10   6 c        2.977     0.059    28.102     8.669
    11   6 c        2.971    -0.052    30.848     9.082
    12   6 c        2.925    -0.178    34.389     9.587
    13   6 c        2.985     0.071    27.825     8.626
    14   6 c        2.919    -0.131    33.018     9.393
    15   6 c        2.915    -0.086    31.782     9.215
    16   6 c        2.916    -0.088    31.842     9.224
    17   6 c        2.918    -0.116    32.596     9.333
    18   6 c        2.989     0.019    29.056     8.815
    19   6 c        2.976    -0.006    29.663     8.906
    20   6 c        2.976    -0.005    29.652     8.904
    21   6 c        2.850     0.231    24.448     8.078
    22   8 o        1.659    -0.527    23.293     6.529
    23   6 c        2.970    -0.052    30.836     9.080
    24   6 c        2.977     0.059    28.100     8.668
    25   6 c        2.923    -0.142    33.336     9.439
    26   6 c        2.922    -0.121    32.738     9.353
    27   6 c        2.968     0.031    28.766     8.770
    28   6 c        3.702     0.086    21.574     6.719
    29   8 o        1.701    -0.391    20.496     6.125
    30   6 c        3.697     0.054    22.162     6.812
    31   6 c        3.704     0.053    22.167     6.810
    32   8 o        1.702    -0.363    19.966     6.046
    33   6 c        3.655    -0.073    24.796     7.228
    34   6 c        2.923    -0.094    31.994     9.247
    35   6 c        2.924    -0.124    32.830     9.367
    36   6 c        2.925    -0.177    34.361     9.583
    37   6 c        2.985     0.071    27.825     8.626
    38   6 c        2.919    -0.130    33.007     9.392
    39   6 c        2.915    -0.086    31.773     9.214
    40   6 c        2.916    -0.088    31.842     9.224
    41   6 c        2.918    -0.116    32.591     9.332
    42   6 c        2.989     0.019    29.049     8.814
    43   6 c        2.850     0.232    24.430     8.075
    44   8 o        1.660    -0.527    23.308     6.531
    45   6 c        2.923    -0.156    33.756     9.498
    46   6 c        2.923    -0.087    31.792     9.217
    47   1 h        0.924     0.079     1.994     2.209
    48   1 h        0.925     0.094     1.836     2.119
    49   1 h        0.924     0.109     1.705     2.042
    50   1 h        0.923     0.060     2.198     2.318
    51   1 h        0.924     0.060     2.198     2.318
    52   1 h        0.923     0.044     2.397     2.421
    53   1 h        0.924     0.095     1.831     2.116
    54   1 h        0.923     0.039     2.457     2.451
    55   1 h        0.923     0.046     2.373     2.409
    56   1 h        0.926     0.097     1.812     2.105
    57   1 h        0.926     0.107     1.723     2.053
    58   1 h        0.926     0.118     1.633     1.999
    59   1 h        0.926     0.100     1.783     2.088
    60   1 h        0.926     0.094     1.839     2.121
    61   1 h        0.926     0.095     1.827     2.114
    62   1 h        0.926     0.114     1.664     2.017
    63   1 h        0.805     0.299     0.725     1.338
    64   1 h        0.925     0.115     1.654     2.011
    65   1 h        0.926     0.096     1.821     2.110
    66   1 h        0.923     0.042     2.419     2.432
    67   1 h        0.923     0.046     2.369     2.407
    68   1 h        0.923     0.066     2.131     2.283
    69   1 h        0.924     0.095     1.835     2.118
    70   1 h        0.923     0.052     2.301     2.372
    71   1 h        0.923     0.071     2.079     2.255
    72   1 h        0.925     0.096     1.820     2.110
    73   1 h        0.924     0.074     2.045     2.236
    74   1 h        0.924     0.075     2.027     2.227
    75   1 h        0.926     0.125     1.575     1.963
    76   1 h        0.926     0.110     1.694     2.035
    77   1 h        0.926     0.120     1.611     1.985
    78   1 h        0.926     0.101     1.772     2.082
    79   1 h        0.926     0.095     1.835     2.118
    80   1 h        0.926     0.095     1.828     2.114
    81   1 h        0.926     0.114     1.666     2.019
    82   1 h        0.805     0.302     0.714     1.327
    83   1 h        0.925     0.116     1.644     2.005
    84   1 h        0.926     0.108     1.709     2.045

 Mol. C6AA /au·bohr⁶  :      86549.282752
 Mol. C8AA /au·bohr⁸  :    2132333.841211
 Mol. α(0) /au        :        463.217850


Wiberg/Mayer (AO) data.
largest (>0.10) Wiberg bond orders for each atom

 ---------------------------------------------------------------------------
     #   Z sym  total        # sym  WBO       # sym  WBO       # sym  WBO
 ---------------------------------------------------------------------------
     1   6 c    3.953 --     2 o    0.996    48 h    0.981    49 h    0.978
                            47 h    0.978
     2   8 o    2.099 --     1 c    0.996     3 c    0.988
     3   6 c    3.955 --     4 c    0.990     2 o    0.988    51 h    0.972
                            50 h    0.965
     4   6 c    3.953 --     3 c    0.990     5 o    0.984    52 h    0.970
                            53 h    0.970
     5   8 o    2.100 --     4 c    0.984     6 c    0.975
     6   6 c    3.958 --     7 c    1.005     5 o    0.975    55 h    0.966
                            54 h    0.957
     7   6 c    3.972 --    46 c    1.408     8 c    1.408     6 c    1.005
                            10 c    0.103
     8   6 c    3.987 --     9 c    1.452     7 c    1.408    56 h    0.969
                            45 c    0.106
     9   6 c    3.983 --     8 c    1.452    10 c    1.389    57 h    0.969
                            46 c    0.108
    10   6 c    3.975 --     9 c    1.389    45 c    1.381    11 c    1.031
                             7 c    0.103
    11   6 c    3.975 --    12 c    1.516    43 c    1.214    10 c    1.031
    12   6 c    3.984 --    11 c    1.516    13 c    1.275    58 h    0.965
    13   6 c    3.978 --    14 c    1.279    12 c    1.275    18 c    1.239
    14   6 c    3.980 --    15 c    1.553    13 c    1.279    59 h    0.969
                            17 c    0.115
    15   6 c    3.975 --    14 c    1.553    16 c    1.317    60 h    0.973
    16   6 c    3.983 --    17 c    1.558    15 c    1.317    61 h    0.972
    17   6 c    3.987 --    16 c    1.558    18 c    1.270    62 h    0.966
                            14 c    0.115
    18   6 c    3.977 --    17 c    1.270    19 c    1.260    13 c    1.239
    19   6 c    3.967 --    43 c    1.413    18 c    1.260    20 c    0.998
    20   6 c    3.967 --    21 c    1.414    42 c    1.259    19 c    0.998
    21   6 c    3.941 --    20 c    1.414    23 c    1.214    22 o    1.131
    22   8 o    2.305 --    21 c    1.131    63 h    0.967
    23   6 c    3.975 --    36 c    1.516    21 c    1.214    24 c    1.031
    24   6 c    3.975 --    35 c    1.385    25 c    1.385    23 c    1.031
                            27 c    0.103
    25   6 c    3.983 --    26 c    1.444    24 c    1.385    64 h    0.969
                            34 c    0.106
    26   6 c    3.987 --    25 c    1.444    27 c    1.413    65 h    0.969
                            35 c    0.107
    27   6 c    3.971 --    26 c    1.413    34 c    1.402    28 c    1.004
                            24 c    0.103
    28   6 c    3.958 --    27 c    1.004    29 o    0.977    66 h    0.967
                            67 h    0.956
    29   8 o    2.104 --    30 c    0.991    28 c    0.977
    30   6 c    3.955 --    31 c    0.994    29 o    0.991    69 h    0.970
                            68 h    0.968
    31   6 c    3.958 --    30 c    0.994    32 o    0.987    70 h    0.971
                            71 h    0.970
    32   8 o    2.085 --    33 c    0.996    31 c    0.987
    33   6 c    3.952 --    32 o    0.996    72 h    0.981    74 h    0.978
                            73 h    0.978
    34   6 c    3.988 --    35 c    1.457    27 c    1.402    75 h    0.968
                            25 c    0.106
    35   6 c    3.983 --    34 c    1.457    24 c    1.385    76 h    0.969
                            26 c    0.107
    36   6 c    3.984 --    23 c    1.516    37 c    1.275    77 h    0.965
    37   6 c    3.978 --    38 c    1.279    36 c    1.275    42 c    1.240
    38   6 c    3.980 --    39 c    1.553    37 c    1.279    78 h    0.969
                            41 c    0.115
    39   6 c    3.975 --    38 c    1.553    40 c    1.317    79 h    0.973
    40   6 c    3.983 --    41 c    1.558    39 c    1.317    80 h    0.972
    41   6 c    3.987 --    40 c    1.558    42 c    1.271    81 h    0.966
                            38 c    0.115
    42   6 c    3.977 --    41 c    1.271    20 c    1.259    37 c    1.240
    43   6 c    3.941 --    19 c    1.413    11 c    1.214    44 o    1.132
    44   8 o    2.306 --    43 c    1.132    82 h    0.967
    45   6 c    3.983 --    46 c    1.450    10 c    1.381    83 h    0.969
                             8 c    0.106
    46   6 c    3.988 --    45 c    1.450     7 c    1.408    84 h    0.969
                             9 c    0.108
    47   1 h    0.987 --     1 c    0.978
    48   1 h    1.003 --     1 c    0.981
    49   1 h    1.002 --     1 c    0.978
    50   1 h    0.984 --     3 c    0.965
    51   1 h    1.001 --     3 c    0.972
    52   1 h    0.981 --     4 c    0.970
    53   1 h    1.005 --     4 c    0.970
    54   1 h    0.993 --     6 c    0.957
    55   1 h    0.984 --     6 c    0.966
    56   1 h    0.980 --     8 c    0.969
    57   1 h    0.980 --     9 c    0.969
    58   1 h    0.974 --    12 c    0.965
    59   1 h    0.978 --    14 c    0.969
    60   1 h    0.983 --    15 c    0.973
    61   1 h    0.984 --    16 c    0.972
    62   1 h    0.980 --    17 c    0.966
    63   1 h    0.986 --    22 o    0.967
    64   1 h    0.982 --    25 c    0.969
    65   1 h    0.980 --    26 c    0.969
    66   1 h    0.989 --    28 c    0.967
    67   1 h    0.988 --    28 c    0.956
    68   1 h    0.986 --    30 c    0.968
    69   1 h    1.006 --    30 c    0.970
    70   1 h    0.987 --    31 c    0.971
    71   1 h    0.992 --    31 c    0.970
    72   1 h    1.002 --    33 c    0.981
    73   1 h    0.988 --    33 c    0.978
    74   1 h    0.989 --    33 c    0.978
    75   1 h    0.991 --    34 c    0.968
    76   1 h    0.980 --    35 c    0.969
    77   1 h    0.974 --    36 c    0.965
    78   1 h    0.978 --    38 c    0.969
    79   1 h    0.983 --    39 c    0.973
    80   1 h    0.984 --    40 c    0.972
    81   1 h    0.980 --    41 c    0.966
    82   1 h    0.986 --    44 o    0.967
    83   1 h    0.982 --    45 c    0.969
    84   1 h    0.986 --    46 c    0.969
 ---------------------------------------------------------------------------

Topologies differ in total number of bonds
Writing topology from bond orders to xtbtopo.mol

 dipole moment from electron density (au)
     X       Y       Z   
  -0.1473   1.1153   2.0145  total (Debye):    5.865


           -------------------------------------------------
          | TOTAL ENERGY             -124.883416944589 Eh   |
          | GRADIENT NORM               0.055173417170 Eh/α |
          | HOMO-LUMO GAP               2.388574184656 eV   |
           -------------------------------------------------

------------------------------------------------------------------------
 * finished run on 2025/01/21 at 12:24:23.125     
------------------------------------------------------------------------
 total:
 * wall-time:     0 d,  0 h,  0 min,  0.126 sec
 *  cpu-time:     0 d,  0 h,  0 min,  2.869 sec
 * ratio c/w:    22.774 speedup
 SCF:
 * wall-time:     0 d,  0 h,  0 min,  0.042 sec
 *  cpu-time:     0 d,  0 h,  0 min,  1.040 sec
 * ratio c/w:    25.005 speedup

 Calculating WBOs... done.
      -----------------------------------------------------------      
     |                   =====================                   |     
     |                           x T B                           |     
     |                   =====================                   |     
     |                         S. Grimme                         |     
     |          Mulliken Center for Theoretical Chemistry        |     
     |                    University of Bonn                     |     
      -----------------------------------------------------------      

   * xtb version 6.4.1 (afa7bdf) compiled by 'ehlert@majestix' on 2021-06-10

   xtb is free software: you can redistribute it and/or modify it under
   the terms of the GNU Lesser General Public License as published by
   the Free Software Foundation, either version 3 of the License, or
   (at your option) any later version.
   
   xtb is distributed in the hope that it will be useful,
   but WITHOUT ANY WARRANTY; without even the implied warranty of
   MERCHANTABILITY or FITNESS FOR A PARTICULAR PURPOSE.  See the
   GNU Lesser General Public License for more details.
   
   Cite this work as:
   * C. Bannwarth, E. Caldeweyher, S. Ehlert, A. Hansen, P. Pracht,
     J. Seibert, S. Spicher, S. Grimme, WIREs Comput. Mol. Sci., 2020, 11,
     e01493. DOI: 10.1002/wcms.1493
   
   for GFN2-xTB:
   * C. Bannwarth, S. Ehlert and S. Grimme., J. Chem. Theory Comput., 2019,
     15, 1652-1671. DOI: 10.1021/acs.jctc.8b01176
   for GFN1-xTB:
   * S. Grimme, C. Bannwarth, P. Shushkov, J. Chem. Theory Comput., 2017,
     13, 1989-2009. DOI: 10.1021/acs.jctc.7b00118
   for GFN0-xTB:
   * P. Pracht, E. Caldeweyher, S. Ehlert, S. Grimme, ChemRxiv, 2019, preprint.
     DOI: 10.26434/chemrxiv.8326202.v1
   for GFN-FF:
   * S. Spicher and S. Grimme, Angew. Chem. Int. Ed., 2020, 59, 15665-15673.
     DOI: 10.1002/anie.202004239
   
   for DFT-D4:
   * E. Caldeweyher, C. Bannwarth and S. Grimme, J. Chem. Phys., 2017,
     147, 034112. DOI: 10.1063/1.4993215
   * E. Caldeweyher, S. Ehlert, A. Hansen, H. Neugebauer, S. Spicher,
     C. Bannwarth and S. Grimme, J. Chem. Phys., 2019, 150, 154122.
     DOI: 10.1063/1.5090222
   * E. Caldeweyher, J.-M. Mewes, S. Ehlert and S. Grimme, Phys. Chem. Chem. Phys.
     2020, 22, 8499-8512. DOI: 10.1039/D0CP00502A
   
   for sTDA-xTB:
   * S. Grimme and C. Bannwarth, J. Chem. Phys., 2016, 145, 054103.
     DOI: 10.1063/1.4959605
   
   in the mass-spec context:
   * V. Asgeirsson, C. Bauer and S. Grimme, Chem. Sci., 2017, 8, 4879.
     DOI: 10.1039/c7sc00601b
   * J. Koopman and S. Grimme, ACS Omega 2019, 4, 12, 15120-15133.
     DOI: 10.1021/acsomega.9b02011
   
   for metadynamics refer to:
   * S. Grimme, J. Chem. Theory Comput., 2019, 155, 2847-2862
     DOI: 10.1021/acs.jctc.9b00143
   
   for SPH calculations refer to:
   * S. Spicher and S. Grimme, J. Chem. Theory Comput., 2021, 17, 1701-1714
     DOI: 10.1021/acs.jctc.0c01306
   
   with help from (in alphabetical order)
   P. Atkinson, C. Bannwarth, F. Bohle, G. Brandenburg, E. Caldeweyher
   M. Checinski, S. Dohm, S. Ehlert, S. Ehrlich, I. Gerasimov, J. Koopman
   C. Lavigne, S. Lehtola, F. März, M. Müller, F. Musil, H. Neugebauer
   J. Pisarek, C. Plett, P. Pracht, J. Seibert, P. Shushkov, S. Spicher
   M. Stahn, M. Steiner, T. Strunk, J. Stückrath, T. Rose, and J. Unsleber
   
 * started run on 2025/01/21 at 12:24:23.168     

           -------------------------------------------------
          |                Calculation Setup                |
           -------------------------------------------------

          program call               : xtb tmpcoord --gfnff --sp
          hostname                   : node26
          coordinate file            : tmpcoord
          omp threads                :                    28
          number of atoms            :                    84
          number of electrons        :                   234
          charge                     :                     0
          spin                       :                   0.0
          first test random number   :      0.31743052833788

   ID    Z sym.   atoms
    1    6 c      1, 3, 4, 6-21, 23-28, 30, 31, 33-43, 45, 46
    2    8 o      2, 5, 22, 29, 32, 44
    3    1 h      47-84
 
          ==================== Thresholds ====================
          CN  :   150.00000
          rep :   500.00000
          disp:  2500.00000
          HB1 :   250.00000
          HB2 :   450.00000
 
          Pauling EN used:
          Z : 1  EN :  2.20
          Z : 6  EN :  2.55
          Z : 8  EN :  3.44
          electric field strengths (au): 0.000
 
           ------------------------------------------------- 
          |           Force Field Initialization            |
           ------------------------------------------------- 
 
          distances ...
          ----------------------------------------
          generating topology and atomic info file ...
          pair mat ...
          computing topology distances matrix with Floyd-Warshall algo ...
          making topology EEQ charges ...
          #fragments for EEQ constrain: 1
          ----------------------------------------
          generating topology and atomic info file ...
          pair mat ...
          computing topology distances matrix with Floyd-Warshall algo ...
          making topology EEQ charges ...
          #fragments for EEQ constrain: 1
          rings ...
          # BATM   888
          # H in HB   20
          doing iterative Hueckel for 1 subsystem(s) ...
 
  atom   neighbors  erfCN metchar sp-hybrid imet pi  qest     coordinates
    1  c       4    3.50   0.00         3    0    0   0.042   15.699779    7.051265   -1.708499
    2  o       2    1.91   0.00         3    0    0  -0.353   17.167463    8.534461   -0.054877
    3  c       4    3.50   0.00         3    0    0   0.062   17.201784    7.651167    2.449411
    4  c       4    3.50   0.00         3    0    0   0.049   14.663010    7.969799    3.835102
    5  o       2    1.91   0.00         3    0    0  -0.335   12.896401    6.036261    3.358581
    6  c       4    3.50   0.00         3    0    0   0.053   13.240925    3.826870    4.815638
    7  c       3    2.81   0.00         2    0    1  -0.021   11.231785    1.941605    4.119315
    8  c       3    2.82   0.00         2    0    1  -0.008    9.860339    0.674204    5.962520
    9  c       3    2.82   0.00         2    0    1  -0.030    8.024709   -1.059011    5.295613
   10  c       3    2.82   0.00         2    0    1   0.005    7.499985   -1.550369    2.764982
   11  c       3    2.81   0.00         2    0    1  -0.019    5.538619   -3.405790    2.073123
   12  c       3    2.82   0.00         2    0    1  -0.022    5.586094   -5.789957    3.094611
   13  c       3    2.83   0.00         2    0    1  -0.003    3.776412   -7.623108    2.443325
   14  c       3    2.81   0.00         2    0    1  -0.035    3.828062  -10.082459    3.470051
   15  c       3    2.81   0.00         2    0    1  -0.035    2.048791  -11.829539    2.802320
   16  c       3    2.81   0.00         2    0    1  -0.027    0.138078  -11.190120    1.076422
   17  c       3    2.81   0.00         2    0    1  -0.037    0.036297   -8.824004    0.047174
   18  c       3    2.83   0.00         2    0    1  -0.015    1.847263   -6.976537    0.695756
   19  c       3    2.82   0.00         2    0    1  -0.000    1.785225   -4.508463   -0.324554
   20  c       3    2.82   0.00         2    0    1  -0.000   -0.232717   -3.748399   -2.111369
   21  c       3    2.82   0.00         2    0    1   0.094   -2.249090   -2.360393   -1.215920
   22  o       2    1.92   0.00         3    0    1  -0.432   -2.286147   -1.745058    1.282096
   23  c       3    2.81   0.00         2    0    1  -0.019   -4.208627   -1.587121   -2.873783
   24  c       3    2.82   0.00         2    0    1   0.005   -6.401021   -0.155266   -1.916773
   25  c       3    2.82   0.00         2    0    1  -0.030   -7.819469   -1.037649    0.120647
   26  c       3    2.82   0.00         2    0    1  -0.008   -9.904215    0.294097    0.965285
   27  c       3    2.81   0.00         2    0    1  -0.021  -10.610279    2.541193   -0.187618
   28  c       4    3.50   0.00         3    0    0   0.053  -12.855361    4.015679    0.748058
   29  o       2    1.91   0.00         3    0    0  -0.335  -14.188908    5.017192   -1.336494
   30  c       4    3.50   0.00         3    0    0   0.049  -16.042298    6.808283   -0.721815
   31  c       4    3.50   0.00         3    0    0   0.062  -18.405407    5.680799    0.519268
   32  o       2    1.92   0.00         3    0    0  -0.353  -20.252870    7.589331    0.621043
   33  c       4    3.50   0.00         3    0    0   0.042  -22.550803    6.760746    1.658718
   34  c       3    2.82   0.00         2    0    1  -0.008   -9.200105    3.425525   -2.218801
   35  c       3    2.82   0.00         2    0    1  -0.030   -7.129095    2.092036   -3.078569
   36  c       3    2.82   0.00         2    0    1  -0.022   -4.050355   -2.186758   -5.392767
   37  c       3    2.83   0.00         2    0    1  -0.003   -2.014742   -3.588719   -6.368460
   38  c       3    2.81   0.00         2    0    1  -0.035   -1.846376   -4.218433   -8.953035
   39  c       3    2.81   0.00         2    0    1  -0.035    0.154581   -5.578827   -9.853064
   40  c       3    2.81   0.00         2    0    1  -0.027    2.074121   -6.372970   -8.203151
   41  c       3    2.81   0.00         2    0    1  -0.037    1.964071   -5.798121   -5.688014
   42  c       3    2.83   0.00         2    0    1  -0.015   -0.076167   -4.393772   -4.699168
   43  c       3    2.82   0.00         2    0    1   0.094    3.587172   -2.751485    0.355419
   44  o       2    1.92   0.00         3    0    1  -0.432    3.418224   -0.391092   -0.649920
   45  c       3    2.82   0.00         2    0    1  -0.030    8.887662   -0.280713    0.917956
   46  c       3    2.82   0.00         2    0    1  -0.008   10.736251    1.435850    1.592251
   47  h       1    0.97   0.00         0    0    0   0.044   16.396893    5.098568   -1.762334
   48  h       1    0.97   0.00         0    0    0   0.044   15.900379    7.899557   -3.570856
   49  h       1    0.97   0.00         0    0    0   0.044   13.707403    7.039939   -1.160011
   50  h       1    0.97   0.01         0    0    0   0.040   17.786354    5.655231    2.497878
   51  h       1    0.97   0.00         0    0    0   0.040   18.636228    8.789570    3.401942
   52  h       1    0.97   0.01         0    0    0   0.042   15.014832    8.123997    5.876649
   53  h       1    0.97   0.00         0    0    0   0.042   13.773327    9.715196    3.176954
   54  h       1    0.97   0.01         0    0    0   0.050   15.118258    2.993500    4.458908
   55  h       1    0.97   0.01         0    0    0   0.050   13.132564    4.290338    6.842284
   56  h       1    0.97   0.00         0    0    0   0.041   10.230000    1.046495    7.936052
   57  h       1    0.97   0.00         0    0    0   0.068    6.955303   -2.025190    6.740783
   58  h       1    0.97   0.00         0    0    0   0.055    7.075909   -6.291304    4.399400
   59  h       1    0.97   0.00         0    0    0   0.048    5.306389  -10.555120    4.798521
   60  h       1    0.97   0.00         0    0    0   0.057    2.097727  -13.710113    3.595347
   61  h       1    0.97   0.00         0    0    0   0.055   -1.256808  -12.591195    0.566596
   62  h       1    0.97   0.00         0    0    0   0.053   -1.433749   -8.333402   -1.281103
   63  h       1    0.97   0.00         0    0    0   0.222   -3.725060   -0.669010    1.614161
   64  h       1    0.97   0.00         0    0    0   0.068   -7.339879   -2.818922    1.000955
   65  h       1    0.97   0.00         0    0    0   0.041  -10.996385   -0.431801    2.531079
   66  h       1    0.97   0.01         0    0    0   0.050  -14.077219    2.782524    1.890166
   67  h       1    0.97   0.01         0    0    0   0.050  -12.201088    5.574207    1.972986
   68  h       1    0.97   0.01         0    0    0   0.042  -15.267910    8.287928    0.514264
   69  h       1    0.97   0.00         0    0    0   0.042  -16.606352    7.670108   -2.510059
   70  h       1    0.97   0.01         0    0    0   0.040  -17.982848    4.996857    2.439160
   71  h       1    0.97   0.01         0    0    0   0.040  -19.071524    4.067518   -0.612521
   72  h       1    0.97   0.00         0    0    0   0.044  -23.813607    8.382518    1.652420
   73  h       1    0.97   0.00         0    0    0   0.044  -22.302226    6.086136    3.604172
   74  h       1    0.97   0.00         0    0    0   0.044  -23.379411    5.232986    0.527974
   75  h       1    0.97   0.00         0    0    0   0.041   -9.764268    5.157878   -3.132818
   76  h       1    0.97   0.00         0    0    0   0.068   -6.039948    2.795556   -4.654714
   77  h       1    0.97   0.00         0    0    0   0.055   -5.546426   -1.605710   -6.656267
   78  h       1    0.97   0.00         0    0    0   0.048   -3.333930   -3.598461  -10.208337
   79  h       1    0.97   0.00         0    0    0   0.057    0.275294   -6.051530  -11.835406
   80  h       1    0.97   0.00         0    0    0   0.055    3.646110   -7.446134   -8.942073
   81  h       1    0.97   0.00         0    0    0   0.053    3.441171   -6.409996   -4.419073
   82  h       1    0.97   0.00         0    0    0   0.222    4.707116    0.675751    0.084775
   83  h       1    0.97   0.00         0    0    0   0.068    8.566126   -0.692045   -1.058136
   84  h       1    0.97   0.00         0    0    0   0.041   11.803718    2.408842    0.152816
 
          #atoms :   84
          #bonds :   89
          #angl  :   150
          #tors  :   244
          #nmol  :   1
          #optfrag :   1
           ------------------------------------------------- 
          |                   G F N - F F                   |
          |          A general generic force-field          |
          |                  Version 1.0.3                  | 
           ------------------------------------------------- 
          nhb123   5577 522 0

 E+G (total)                   0 d,  0 h,  0 min,  0.004 sec
 distance/D3 list               ...        0 min,  0.000 sec (  0.681%)
 non bonded repulsion           ...        0 min,  0.000 sec (  6.577%)
 dCN                            ...        0 min,  0.000 sec (  5.787%)
 EEQ energy and q               ...        0 min,  0.001 sec ( 11.823%)
 D3                             ...        0 min,  0.001 sec ( 16.897%)
 EEQ gradient                   ...        0 min,  0.000 sec (  7.350%)
 bonds                          ...        0 min,  0.000 sec ( 10.028%)
 bend and torsion               ...        0 min,  0.000 sec ( 10.931%)
 bonded ATM                     ...        0 min,  0.000 sec (  1.044%)
 HB/XB (incl list setup)        ...        0 min,  0.001 sec ( 23.982%)

         :::::::::::::::::::::::::::::::::::::::::::::::::::::
         ::                     SUMMARY                     ::
         :::::::::::::::::::::::::::::::::::::::::::::::::::::
         :: total energy             -16.102858231348 Eh    ::
         :: gradient norm              0.063837005361 Eh/a0 ::
         ::.................................................::
         :: bond energy              -16.836870508883 Eh    ::
         :: angle energy               0.017729785117 Eh    ::
         :: torsion energy             0.020510407606 Eh    ::
         :: repulsion energy           1.105719980080 Eh    ::
         :: electrostat energy        -0.315729293321 Eh    ::
         :: dispersion energy         -0.077720461544 Eh    ::
         :: HB energy                 -0.001229415154 Eh    ::
         :: XB energy                  0.000000000000 Eh    ::
         :: bonded atm energy         -0.015268725250 Eh    ::
         :: external energy            0.000000000000 Eh    ::
         :: add. restraining           0.000000000000 Eh    ::
         :: total charge               0.000000000000 e     ::
         :::::::::::::::::::::::::::::::::::::::::::::::::::::

           -------------------------------------------------
          |                Property Printout                |
           -------------------------------------------------

           -------------------------------------------------
          | TOTAL ENERGY              -16.102858231348 Eh   |
          | GRADIENT NORM               0.063837005361 Eh/α |
           -------------------------------------------------

------------------------------------------------------------------------
 * finished run on 2025/01/21 at 12:24:23.263     
------------------------------------------------------------------------
 total:
 * wall-time:     0 d,  0 h,  0 min,  0.095 sec
 *  cpu-time:     0 d,  0 h,  0 min,  2.085 sec
 * ratio c/w:    21.997 speedup
 SCF:
 * wall-time:     0 d,  0 h,  0 min,  0.007 sec
 *  cpu-time:     0 d,  0 h,  0 min,  0.172 sec
 * ratio c/w:    23.909 speedup

 Calculating NCI flexibility... done.
     covalent flexibility measure :   0.399
 non-covalent flexibility measure :   1.000
 flexibility measure :   0.515
 t(MTD) / ps set by command line  :     0.5
 t(MTD) / ps    :     0.5
 Σ(t(MTD)) / ps :     7.0 (14 MTDs)
 
-------------------------------------
Starting a trial MTD to test settings
-------------------------------------
 Estimated runtime for one MTD (0.5 ps) on a single thread: 3 min 22 sec
 Estimated runtime for a batch of 14 MTDs on 28 threads: 1 min 41 sec
 
 list of Vbias parameters applied:
$metadyn    0.00300   1.300
$metadyn    0.00150   1.300
$metadyn    0.00075   1.300
$metadyn    0.00300   0.780
$metadyn    0.00150   0.780
$metadyn    0.00075   0.780
$metadyn    0.00300   0.468
$metadyn    0.00150   0.468
$metadyn    0.00075   0.468
$metadyn    0.00300   0.281
$metadyn    0.00150   0.281
$metadyn    0.00075   0.281
$metadyn    0.00100   0.100
$metadyn    0.00500   0.800
 
*******************************************************************************************
**                        N E W    I T E R A T I O N    C Y C L E                        **
*******************************************************************************************
 
========================================
            MTD Iteration  1
========================================
 
     ========================================
     |         Meta-MD (MTD) Sampling       |
     ========================================
 
Starting Meta-MD   5 with the settings:
     MD time /ps        :     0.5
     dt /fs             :     1.5
     dumpstep(trj) /fs  :     100
     dumpstep(Vbias)/ps :     1.0
     Vbias factor k /Eh :  0.1260
     Vbias exp α /bohr⁻²:    0.78
Starting Meta-MD   2 with the settings:
     MD time /ps        :     0.5
     dt /fs             :     1.5
     dumpstep(trj) /fs  :     100
     dumpstep(Vbias)/ps :     1.0
     Vbias factor k /Eh :  0.1260
     Vbias exp α /bohr⁻²:    1.30
Starting Meta-MD   8 with the settings:
     MD time /ps        :     0.5
     dt /fs             :     1.5
     dumpstep(trj) /fs  :     100
     dumpstep(Vbias)/ps :     1.0
     Vbias factor k /Eh :  0.1260
     Vbias exp α /bohr⁻²:    0.47
Starting Meta-MD   3 with the settings:
     MD time /ps        :     0.5
     dt /fs             :     1.5
     dumpstep(trj) /fs  :     100
     dumpstep(Vbias)/ps :     1.0
     Vbias factor k /Eh :  0.0630
     Vbias exp α /bohr⁻²:    1.30
Starting Meta-MD   6 with the settings:
     MD time /ps        :     0.5
     dt /fs             :     1.5
     dumpstep(trj) /fs  :     100
     dumpstep(Vbias)/ps :     1.0
     Vbias factor k /Eh :  0.0630
     Vbias exp α /bohr⁻²:    0.78
Starting Meta-MD  14 with the settings:
     MD time /ps        :     0.5
     dt /fs             :     1.5
     dumpstep(trj) /fs  :     100
     dumpstep(Vbias)/ps :     1.0
     Vbias factor k /Eh :  0.4200
     Vbias exp α /bohr⁻²:    0.80
Starting Meta-MD  10 with the settings:
     MD time /ps        :     0.5
     dt /fs             :     1.5
     dumpstep(trj) /fs  :     100
     dumpstep(Vbias)/ps :     1.0
     Vbias factor k /Eh :  0.2520
     Vbias exp α /bohr⁻²:    0.28
Starting Meta-MD   4 with the settings:
     MD time /ps        :     0.5
     dt /fs             :     1.5
     dumpstep(trj) /fs  :     100
     dumpstep(Vbias)/ps :     1.0
     Vbias factor k /Eh :  0.2520
     Vbias exp α /bohr⁻²:    0.78
Starting Meta-MD  11 with the settings:
     MD time /ps        :     0.5
     dt /fs             :     1.5
     dumpstep(trj) /fs  :     100
     dumpstep(Vbias)/ps :     1.0
     Vbias factor k /Eh :  0.1260
     Vbias exp α /bohr⁻²:    0.28
Starting Meta-MD  12 with the settings:
     MD time /ps        :     0.5
     dt /fs             :     1.5
     dumpstep(trj) /fs  :     100
     dumpstep(Vbias)/ps :     1.0
     Vbias factor k /Eh :  0.0630
     Vbias exp α /bohr⁻²:    0.28
Starting Meta-MD   1 with the settings:
     MD time /ps        :     0.5
     dt /fs             :     1.5
     dumpstep(trj) /fs  :     100
     dumpstep(Vbias)/ps :     1.0
     Vbias factor k /Eh :  0.2520
     Vbias exp α /bohr⁻²:    1.30
Starting Meta-MD   9 with the settings:
     MD time /ps        :     0.5
     dt /fs             :     1.5
     dumpstep(trj) /fs  :     100
     dumpstep(Vbias)/ps :     1.0
     Vbias factor k /Eh :  0.0630
     Vbias exp α /bohr⁻²:    0.47
Starting Meta-MD   7 with the settings:
     MD time /ps        :     0.5
     dt /fs             :     1.5
     dumpstep(trj) /fs  :     100
     dumpstep(Vbias)/ps :     1.0
     Vbias factor k /Eh :  0.2520
     Vbias exp α /bohr⁻²:    0.47
Starting Meta-MD  13 with the settings:
     MD time /ps        :     0.5
     dt /fs             :     1.5
     dumpstep(trj) /fs  :     100
     dumpstep(Vbias)/ps :     1.0
     Vbias factor k /Eh :  0.0840
     Vbias exp α /bohr⁻²:    0.10
*Meta-MTD 2 finished*
*Meta-MTD 13 finished*
*Meta-MTD 7 finished*
*Meta-MTD 4 finished*
*Meta-MTD 6 finished*
*Meta-MTD 1 finished*
*Meta-MTD 3 finished*
*Meta-MTD 11 finished*
*Meta-MTD 10 finished*
*Meta-MTD 9 finished*
*Meta-MTD 14 finished*
*Meta-MTD 8 finished*
*Meta-MTD 5 finished*
*Meta-MTD 12 finished*
 
-----------------------
Multilevel Optimization
-----------------------
 
 -------------------------
 1. crude pre-optimization
 -------------------------
 Optimizing all 70 structures from file "crest_rotamers_0.xyz" ...
 1 2 3 4 5 6 7 8 9 10 11 12 13 14 15 16 17 18 19 20 21 22 23 24 25 26 27 28 29 30 31 32 33 34 35 36 37 38 39 40 41 42 43 44 45 46 47 48 49 50 51 52 53 54 55 56 57 58 59 60 61 62 63 64 65 66 67 68 69 70
 done.
 running RMSDs...
 done.
 E lowest :  -129.41649
 70 structures remain within    12.00 kcal/mol window
 
 -------------------------------------
 2. optimization with tight thresholds
 -------------------------------------
 Optimizing all 71 structures from file "crest_rotamers_1.xyz" ...
 1 2 3 4 5 6 7 8 9 10 11 12 13 14 15 16 17 18 19 20 21 22 23 24 25 26 27 28 29 30 31 32 33 34 35 36 37 38 39 40 41 42 43 44 45 46 47 48 49 50 51 52 53 54 55 56 57 58 59 60 61 62 63 64 65 66 67 68 69 70 71
 done.
 running RMSDs...
 done.
 E lowest :  -129.42588
 46 structures remain within     6.00 kcal/mol window
 
 
========================================
            MTD Iteration  2
========================================
 
     ========================================
     |         Meta-MD (MTD) Sampling       |
     ========================================
 
Starting Meta-MD   1 with the settings:
     MD time /ps        :     0.5
     dt /fs             :     1.5
     dumpstep(trj) /fs  :     100
     dumpstep(Vbias)/ps :     1.0
     Vbias factor k /Eh :  0.2520
     Vbias exp α /bohr⁻²:    1.30
Starting Meta-MD   3 with the settings:
     MD time /ps        :     0.5
     dt /fs             :     1.5
     dumpstep(trj) /fs  :     100
     dumpstep(Vbias)/ps :     1.0
     Vbias factor k /Eh :  0.0630
     Vbias exp α /bohr⁻²:    1.30
Starting Meta-MD   2 with the settings:
     MD time /ps        :     0.5
     dt /fs             :     1.5
     dumpstep(trj) /fs  :     100
     dumpstep(Vbias)/ps :     1.0
     Vbias factor k /Eh :  0.1260
     Vbias exp α /bohr⁻²:    1.30
Starting Meta-MD   4 with the settings:
     MD time /ps        :     0.5
     dt /fs             :     1.5
     dumpstep(trj) /fs  :     100
     dumpstep(Vbias)/ps :     1.0
     Vbias factor k /Eh :  0.2520
     Vbias exp α /bohr⁻²:    0.78
Starting Meta-MD   6 with the settings:
     MD time /ps        :     0.5
     dt /fs             :     1.5
     dumpstep(trj) /fs  :     100
     dumpstep(Vbias)/ps :     1.0
     Vbias factor k /Eh :  0.0630
     Vbias exp α /bohr⁻²:    0.78
Starting Meta-MD   5 with the settings:
     MD time /ps        :     0.5
     dt /fs             :     1.5
     dumpstep(trj) /fs  :     100
     dumpstep(Vbias)/ps :     1.0
     Vbias factor k /Eh :  0.1260
     Vbias exp α /bohr⁻²:    0.78
Starting Meta-MD   7 with the settings:
     MD time /ps        :     0.5
     dt /fs             :     1.5
     dumpstep(trj) /fs  :     100
     dumpstep(Vbias)/ps :     1.0
     Vbias factor k /Eh :  0.2520
     Vbias exp α /bohr⁻²:    0.47
Starting Meta-MD   8 with the settings:
     MD time /ps        :     0.5
     dt /fs             :     1.5
     dumpstep(trj) /fs  :     100
     dumpstep(Vbias)/ps :     1.0
     Vbias factor k /Eh :  0.1260
     Vbias exp α /bohr⁻²:    0.47
Starting Meta-MD   9 with the settings:
     MD time /ps        :     0.5
     dt /fs             :     1.5
     dumpstep(trj) /fs  :     100
     dumpstep(Vbias)/ps :     1.0
     Vbias factor k /Eh :  0.0630
     Vbias exp α /bohr⁻²:    0.47
Starting Meta-MD  10 with the settings:
     MD time /ps        :     0.5
     dt /fs             :     1.5
     dumpstep(trj) /fs  :     100
     dumpstep(Vbias)/ps :     1.0
     Vbias factor k /Eh :  0.2520
     Vbias exp α /bohr⁻²:    0.28
Starting Meta-MD  11 with the settings:
     MD time /ps        :     0.5
     dt /fs             :     1.5
     dumpstep(trj) /fs  :     100
     dumpstep(Vbias)/ps :     1.0
     Vbias factor k /Eh :  0.1260
     Vbias exp α /bohr⁻²:    0.28
Starting Meta-MD  12 with the settings:
     MD time /ps        :     0.5
     dt /fs             :     1.5
     dumpstep(trj) /fs  :     100
     dumpstep(Vbias)/ps :     1.0
     Vbias factor k /Eh :  0.0630
     Vbias exp α /bohr⁻²:    0.28
*Meta-MTD 2 finished*
*Meta-MTD 8 finished*
*Meta-MTD 12 finished*
*Meta-MTD 3 finished*
*Meta-MTD 5 finished*
*Meta-MTD 10 finished*
*Meta-MTD 7 finished*
*Meta-MTD 1 finished*
*Meta-MTD 9 finished*
*Meta-MTD 11 finished*
*Meta-MTD 4 finished*
*Meta-MTD 6 finished*
 
-----------------------
Multilevel Optimization
-----------------------
 
 -------------------------
 1. crude pre-optimization
 -------------------------
 Optimizing all 60 structures from file "crest_rotamers_0.xyz" ...
 1 2 3 4 5 6 7 8 9 10 11 12 13 14 15 16 17 18 19 20 21 22 23 24 25 26 27 28 29 30 31 32 33 34 35 36 37 38 39 40 41 42 43 44 45 46 47 48 49 50 51 52 53 54 55 56 57 58 59 60
 done.
 running RMSDs...
 done.
 E lowest :  -129.42476
 56 structures remain within    12.00 kcal/mol window
 
 -------------------------------------
 2. optimization with tight thresholds
 -------------------------------------
 Optimizing all 57 structures from file "crest_rotamers_1.xyz" ...
 1 2 3 4 5 6 7 8 9 10 11 12 13 14 15 16 17 18 19 20 21 22 23 24 25 26 27 28 29 30 31 32 33 34 35 36 37 38 39 40 41 42 43 44 45 46 47 48 49 50 51 52 53 54 55 56 57
 done.
 running RMSDs...
 done.
 E lowest :  -129.42655
 36 structures remain within     6.00 kcal/mol window
 
 ...............................................
 A new lower conformer was found!
 Improved by    0.00067 Eh or    0.42031kcal/mol
 ...............................................
 
========================================
            MTD Iteration  3
========================================
 
     ========================================
     |         Meta-MD (MTD) Sampling       |
     ========================================
 
Starting Meta-MD   1 with the settings:
     MD time /ps        :     0.5
     dt /fs             :     1.5
     dumpstep(trj) /fs  :     100
     dumpstep(Vbias)/ps :     1.0
     Vbias factor k /Eh :  0.2520
     Vbias exp α /bohr⁻²:    1.30
Starting Meta-MD   2 with the settings:
     MD time /ps        :     0.5
     dt /fs             :     1.5
     dumpstep(trj) /fs  :     100
     dumpstep(Vbias)/ps :     1.0
     Vbias factor k /Eh :  0.1260
     Vbias exp α /bohr⁻²:    1.30
Starting Meta-MD   3 with the settings:
     MD time /ps        :     0.5
     dt /fs             :     1.5
     dumpstep(trj) /fs  :     100
     dumpstep(Vbias)/ps :     1.0
     Vbias factor k /Eh :  0.0630
     Vbias exp α /bohr⁻²:    1.30
Starting Meta-MD   4 with the settings:
     MD time /ps        :     0.5
     dt /fs             :     1.5
     dumpstep(trj) /fs  :     100
     dumpstep(Vbias)/ps :     1.0
     Vbias factor k /Eh :  0.2520
     Vbias exp α /bohr⁻²:    0.78
Starting Meta-MD   5 with the settings:
     MD time /ps        :     0.5
     dt /fs             :     1.5
     dumpstep(trj) /fs  :     100
     dumpstep(Vbias)/ps :     1.0
     Vbias factor k /Eh :  0.1260
     Vbias exp α /bohr⁻²:    0.78
Starting Meta-MD   6 with the settings:
     MD time /ps        :     0.5
     dt /fs             :     1.5
     dumpstep(trj) /fs  :     100
     dumpstep(Vbias)/ps :     1.0
     Vbias factor k /Eh :  0.0630
     Vbias exp α /bohr⁻²:    0.78
Starting Meta-MD   7 with the settings:
     MD time /ps        :     0.5
     dt /fs             :     1.5
     dumpstep(trj) /fs  :     100
     dumpstep(Vbias)/ps :     1.0
     Vbias factor k /Eh :  0.2520
     Vbias exp α /bohr⁻²:    0.47
Starting Meta-MD   8 with the settings:
     MD time /ps        :     0.5
     dt /fs             :     1.5
     dumpstep(trj) /fs  :     100
     dumpstep(Vbias)/ps :     1.0
     Vbias factor k /Eh :  0.1260
     Vbias exp α /bohr⁻²:    0.47
Starting Meta-MD   9 with the settings:
     MD time /ps        :     0.5
     dt /fs             :     1.5
     dumpstep(trj) /fs  :     100
     dumpstep(Vbias)/ps :     1.0
     Vbias factor k /Eh :  0.0630
     Vbias exp α /bohr⁻²:    0.47
Starting Meta-MD  10 with the settings:
     MD time /ps        :     0.5
     dt /fs             :     1.5
     dumpstep(trj) /fs  :     100
     dumpstep(Vbias)/ps :     1.0
     Vbias factor k /Eh :  0.2520
     Vbias exp α /bohr⁻²:    0.28
Starting Meta-MD  11 with the settings:
     MD time /ps        :     0.5
     dt /fs             :     1.5
     dumpstep(trj) /fs  :     100
     dumpstep(Vbias)/ps :     1.0
     Vbias factor k /Eh :  0.1260
     Vbias exp α /bohr⁻²:    0.28
Starting Meta-MD  12 with the settings:
     MD time /ps        :     0.5
     dt /fs             :     1.5
     dumpstep(trj) /fs  :     100
     dumpstep(Vbias)/ps :     1.0
     Vbias factor k /Eh :  0.0630
     Vbias exp α /bohr⁻²:    0.28
*Meta-MTD 7 finished*
*Meta-MTD 1 finished*
*Meta-MTD 8 finished*
*Meta-MTD 9 finished*
*Meta-MTD 4 finished*
*Meta-MTD 3 finished*
*Meta-MTD 6 finished*
*Meta-MTD 5 finished*
*Meta-MTD 11 finished*
*Meta-MTD 10 finished*
*Meta-MTD 2 finished*
*Meta-MTD 12 finished*
 
-----------------------
Multilevel Optimization
-----------------------
 
 -------------------------
 1. crude pre-optimization
 -------------------------
 Optimizing all 60 structures from file "crest_rotamers_0.xyz" ...
 1 2 3 4 5 6 7 8 9 10 11 12 13 14 15 16 17 18 19 20 21 22 23 24 25 26 27 28 29 30 31 32 33 34 35 36 37 38 39 40 41 42 43 44 45 46 47 48 49 50 51 52 53 54 55 56 57 58 59 60
 done.
 running RMSDs...
 done.
 E lowest :  -129.42553
 59 structures remain within    12.00 kcal/mol window
 
 -------------------------------------
 2. optimization with tight thresholds
 -------------------------------------
 Optimizing all 60 structures from file "crest_rotamers_1.xyz" ...
 1 2 3 4 5 6 7 8 9 10 11 12 13 14 15 16 17 18 19 20 21 22 23 24 25 26 27 28 29 30 31 32 33 34 35 36 37 38 39 40 41 42 43 44 45 46 47 48 49 50 51 52 53 54 55 56 57 58 59 60
 done.
 running RMSDs...
 done.
 E lowest :  -129.42699
 36 structures remain within     6.00 kcal/mol window
 
 ...............................................
 A new lower conformer was found!
 Improved by    0.00044 Eh or    0.27699kcal/mol
 ...............................................
 
========================================
            MTD Iteration  4
========================================
 
     ========================================
     |         Meta-MD (MTD) Sampling       |
     ========================================
 
Starting Meta-MD   1 with the settings:
     MD time /ps        :     0.5
     dt /fs             :     1.5
     dumpstep(trj) /fs  :     100
     dumpstep(Vbias)/ps :     1.0
     Vbias factor k /Eh :  0.2520
     Vbias exp α /bohr⁻²:    1.30
Starting Meta-MD   2 with the settings:
     MD time /ps        :     0.5
     dt /fs             :     1.5
     dumpstep(trj) /fs  :     100
     dumpstep(Vbias)/ps :     1.0
     Vbias factor k /Eh :  0.1260
     Vbias exp α /bohr⁻²:    1.30
Starting Meta-MD   3 with the settings:
     MD time /ps        :     0.5
     dt /fs             :     1.5
     dumpstep(trj) /fs  :     100
     dumpstep(Vbias)/ps :     1.0
     Vbias factor k /Eh :  0.0630
     Vbias exp α /bohr⁻²:    1.30
Starting Meta-MD   4 with the settings:
     MD time /ps        :     0.5
     dt /fs             :     1.5
     dumpstep(trj) /fs  :     100
     dumpstep(Vbias)/ps :     1.0
     Vbias factor k /Eh :  0.2520
     Vbias exp α /bohr⁻²:    0.78
Starting Meta-MD   5 with the settings:
     MD time /ps        :     0.5
     dt /fs             :     1.5
     dumpstep(trj) /fs  :     100
     dumpstep(Vbias)/ps :     1.0
     Vbias factor k /Eh :  0.1260
     Vbias exp α /bohr⁻²:    0.78
Starting Meta-MD   6 with the settings:
     MD time /ps        :     0.5
     dt /fs             :     1.5
     dumpstep(trj) /fs  :     100
     dumpstep(Vbias)/ps :     1.0
     Vbias factor k /Eh :  0.0630
     Vbias exp α /bohr⁻²:    0.78
Starting Meta-MD   7 with the settings:
     MD time /ps        :     0.5
     dt /fs             :     1.5
     dumpstep(trj) /fs  :     100
     dumpstep(Vbias)/ps :     1.0
     Vbias factor k /Eh :  0.2520
     Vbias exp α /bohr⁻²:    0.47
Starting Meta-MD   8 with the settings:
     MD time /ps        :     0.5
     dt /fs             :     1.5
     dumpstep(trj) /fs  :     100
     dumpstep(Vbias)/ps :     1.0
     Vbias factor k /Eh :  0.1260
     Vbias exp α /bohr⁻²:    0.47
Starting Meta-MD   9 with the settings:
     MD time /ps        :     0.5
     dt /fs             :     1.5
     dumpstep(trj) /fs  :     100
     dumpstep(Vbias)/ps :     1.0
     Vbias factor k /Eh :  0.0630
     Vbias exp α /bohr⁻²:    0.47
Starting Meta-MD  10 with the settings:
     MD time /ps        :     0.5
     dt /fs             :     1.5
     dumpstep(trj) /fs  :     100
     dumpstep(Vbias)/ps :     1.0
     Vbias factor k /Eh :  0.2520
     Vbias exp α /bohr⁻²:    0.28
Starting Meta-MD  12 with the settings:
     MD time /ps        :     0.5
     dt /fs             :     1.5
     dumpstep(trj) /fs  :     100
     dumpstep(Vbias)/ps :     1.0
     Vbias factor k /Eh :  0.0630
     Vbias exp α /bohr⁻²:    0.28
Starting Meta-MD  11 with the settings:
     MD time /ps        :     0.5
     dt /fs             :     1.5
     dumpstep(trj) /fs  :     100
     dumpstep(Vbias)/ps :     1.0
     Vbias factor k /Eh :  0.1260
     Vbias exp α /bohr⁻²:    0.28
*Meta-MTD 2 finished*
*Meta-MTD 3 finished*
*Meta-MTD 9 finished*
*Meta-MTD 4 finished*
*Meta-MTD 10 finished*
*Meta-MTD 7 finished*
*Meta-MTD 11 finished*
*Meta-MTD 5 finished*
*Meta-MTD 8 finished*
*Meta-MTD 12 finished*
*Meta-MTD 1 finished*
*Meta-MTD 6 finished*
 
-----------------------
Multilevel Optimization
-----------------------
 
 -------------------------
 1. crude pre-optimization
 -------------------------
 Optimizing all 60 structures from file "crest_rotamers_0.xyz" ...
 1 2 3 4 5 6 7 8 9 10 11 12 13 14 15 16 17 18 19 20 21 22 23 24 25 26 27 28 29 30 31 32 33 34 35 36 37 38 39 40 41 42 43 44 45 46 47 48 49 50 51 52 53 54 55 56 57 58 59 60
 done.
 running RMSDs...
 done.
 E lowest :  -129.42565
 57 structures remain within    12.00 kcal/mol window
 
 -------------------------------------
 2. optimization with tight thresholds
 -------------------------------------
 Optimizing all 58 structures from file "crest_rotamers_1.xyz" ...
 1 2 3 4 5 6 7 8 9 10 11 12 13 14 15 16 17 18 19 20 21 22 23 24 25 26 27 28 29 30 31 32 33 34 35 36 37 38 39 40 41 42 43 44 45 46 47 48 49 50 51 52 53 54 55 56 57 58
 done.
 running RMSDs...
 done.
 E lowest :  -129.42942
 41 structures remain within     6.00 kcal/mol window
 
 ...............................................
 A new lower conformer was found!
 Improved by    0.00243 Eh or    1.52683kcal/mol
 ...............................................
 
========================================
            MTD Iteration  5
========================================
 
     ========================================
     |         Meta-MD (MTD) Sampling       |
     ========================================
 
Starting Meta-MD   1 with the settings:
     MD time /ps        :     0.5
     dt /fs             :     1.5
     dumpstep(trj) /fs  :     100
     dumpstep(Vbias)/ps :     1.0
     Vbias factor k /Eh :  0.2520
     Vbias exp α /bohr⁻²:    1.30
Starting Meta-MD   2 with the settings:
     MD time /ps        :     0.5
     dt /fs             :     1.5
     dumpstep(trj) /fs  :     100
     dumpstep(Vbias)/ps :     1.0
     Vbias factor k /Eh :  0.1260
     Vbias exp α /bohr⁻²:    1.30
Starting Meta-MD   3 with the settings:
     MD time /ps        :     0.5
     dt /fs             :     1.5
     dumpstep(trj) /fs  :     100
     dumpstep(Vbias)/ps :     1.0
     Vbias factor k /Eh :  0.0630
     Vbias exp α /bohr⁻²:    1.30
Starting Meta-MD   5 with the settings:
     MD time /ps        :     0.5
     dt /fs             :     1.5
     dumpstep(trj) /fs  :     100
     dumpstep(Vbias)/ps :     1.0
     Vbias factor k /Eh :  0.1260
     Vbias exp α /bohr⁻²:    0.78
Starting Meta-MD   4 with the settings:
     MD time /ps        :     0.5
     dt /fs             :     1.5
     dumpstep(trj) /fs  :     100
     dumpstep(Vbias)/ps :     1.0
     Vbias factor k /Eh :  0.2520
     Vbias exp α /bohr⁻²:    0.78
Starting Meta-MD   6 with the settings:
     MD time /ps        :     0.5
     dt /fs             :     1.5
     dumpstep(trj) /fs  :     100
     dumpstep(Vbias)/ps :     1.0
     Vbias factor k /Eh :  0.0630
     Vbias exp α /bohr⁻²:    0.78
Starting Meta-MD   7 with the settings:
     MD time /ps        :     0.5
     dt /fs             :     1.5
     dumpstep(trj) /fs  :     100
     dumpstep(Vbias)/ps :     1.0
     Vbias factor k /Eh :  0.2520
     Vbias exp α /bohr⁻²:    0.47
Starting Meta-MD   8 with the settings:
     MD time /ps        :     0.5
     dt /fs             :     1.5
     dumpstep(trj) /fs  :     100
     dumpstep(Vbias)/ps :     1.0
     Vbias factor k /Eh :  0.1260
     Vbias exp α /bohr⁻²:    0.47
Starting Meta-MD   9 with the settings:
     MD time /ps        :     0.5
     dt /fs             :     1.5
     dumpstep(trj) /fs  :     100
     dumpstep(Vbias)/ps :     1.0
     Vbias factor k /Eh :  0.0630
     Vbias exp α /bohr⁻²:    0.47
Starting Meta-MD  10 with the settings:
     MD time /ps        :     0.5
     dt /fs             :     1.5
     dumpstep(trj) /fs  :     100
     dumpstep(Vbias)/ps :     1.0
     Vbias factor k /Eh :  0.2520
     Vbias exp α /bohr⁻²:    0.28
Starting Meta-MD  12 with the settings:
     MD time /ps        :     0.5
     dt /fs             :     1.5
     dumpstep(trj) /fs  :     100
     dumpstep(Vbias)/ps :     1.0
     Vbias factor k /Eh :  0.0630
     Vbias exp α /bohr⁻²:    0.28
Starting Meta-MD  11 with the settings:
     MD time /ps        :     0.5
     dt /fs             :     1.5
     dumpstep(trj) /fs  :     100
     dumpstep(Vbias)/ps :     1.0
     Vbias factor k /Eh :  0.1260
     Vbias exp α /bohr⁻²:    0.28
*Meta-MTD 4 finished*
*Meta-MTD 12 finished*
*Meta-MTD 6 finished*
*Meta-MTD 2 finished*
*Meta-MTD 8 finished*
*Meta-MTD 5 finished*
*Meta-MTD 11 finished*
*Meta-MTD 9 finished*
*Meta-MTD 1 finished*
*Meta-MTD 3 finished*
*Meta-MTD 7 finished*
*Meta-MTD 10 finished*
 
-----------------------
Multilevel Optimization
-----------------------
 
 -------------------------
 1. crude pre-optimization
 -------------------------
 Optimizing all 60 structures from file "crest_rotamers_0.xyz" ...
 1 2 3 4 5 6 7 8 9 10 11 12 13 14 15 16 17 18 19 20 21 22 23 24 25 26 27 28 29 30 31 32 33 34 35 36 37 38 39 40 41 42 43 44 45 46 47 48 49 50 51 52 53 54 55 56 57 58 59 60
 done.
 running RMSDs...
 done.
 E lowest :  -129.42848
 58 structures remain within    12.00 kcal/mol window
 
 -------------------------------------
 2. optimization with tight thresholds
 -------------------------------------
 Optimizing all 59 structures from file "crest_rotamers_1.xyz" ...
 1 2 3 4 5 6 7 8 9 10 11 12 13 14 15 16 17 18 19 20 21 22 23 24 25 26 27 28 29 30 31 32 33 34 35 36 37 38 39 40 41 42 43 44 45 46 47 48 49 50 51 52 53 54 55 56 57 58 59
 done.
 running RMSDs...
 done.
 E lowest :  -129.42945
 28 structures remain within     6.00 kcal/mol window
 
========================================
            MTD Iterations done         
========================================
 Collecting ensmbles.
 running RMSDs...
 done.
 E lowest :  -129.42945
 149 structures remain within     6.00 kcal/mol window
 
 -------------------------------
 Additional orientation sampling
 -------------------------------
 Optimizing all 278 structures from file "oh_ensemble.xyz" ...
 1 2 3 4 5 6 7 8 9 10 11 12 13 14 15 16 17 18 19 20 21 22 23 24 25 26 27 28 29 30 31 32 33 34 35 36 37 38 39 40 41 42 43 44 45 46 47 48 49 50 51 52 53 54 55 56 57 58 59 60 61 62 63 64 65 66 67 68 69 70 71 72 73 74 75 76 77 78 79 80 81 82 83 84 85 86 87 88 89 90 91 92 93 94 95 96 97 98 99 100 101 102 103 104 105 106 107 108 109 110 111 112 113 114 115 116 117 118 119 120 121 122 123 124 125 126 127 128 129 130 131 132 133 134 135 136 137 138 139 140 141 142 143 144 145 146 147 148 149 150 151 152 153 154 155 156 157 158 159 160 161 162 163 164 165 166 167 168 169 170 171 172 173 174 175 176 177 178 179 180 181 182 183 184 185 186 187 188 189 190 191 192 193 194 195 196 197 198 199 200 201 202 203 204 205 206 207 208 209 210 211 212 213 214 215 216 217 218 219 220 221 222 223 224 225 226 227 228 229 230 231 232 233 234 235 236 237 238 239 240 241 242 243 244 245 246 247 248 249 250 251 252 253 254 255 256 257 258 259 260 261 262 263 264 265 266 267 268 269 270 271 272 273 274 275 276 277 278
 done.
 running RMSDs...
 done.
 E lowest :  -129.43001
 393 structures remain within     6.00 kcal/mol window
 
-----------------------------------------------
Additional regular MDs on lowest 4 conformer(s)
-----------------------------------------------
Starting MD   1 with the settings:
     MD time /ps        :     0.2
     MD Temperature /K  :   400.0
     dt /fs             :     1.5
     dumpstep(trj) /fs  :     100
Starting MD   2 with the settings:
     MD time /ps        :     0.2
     MD Temperature /K  :   500.0
     dt /fs             :     1.5
     dumpstep(trj) /fs  :     100
Starting MD   3 with the settings:
     MD time /ps        :     0.2
     MD Temperature /K  :   400.0
     dt /fs             :     1.5
     dumpstep(trj) /fs  :     100
Starting MD   4 with the settings:
     MD time /ps        :     0.2
     MD Temperature /K  :   500.0
     dt /fs             :     1.5
     dumpstep(trj) /fs  :     100
Starting MD   5 with the settings:
     MD time /ps        :     0.2
     MD Temperature /K  :   400.0
     dt /fs             :     1.5
     dumpstep(trj) /fs  :     100
Starting MD   6 with the settings:
     MD time /ps        :     0.2
     MD Temperature /K  :   500.0
     dt /fs             :     1.5
     dumpstep(trj) /fs  :     100
Starting MD   7 with the settings:
     MD time /ps        :     0.2
     MD Temperature /K  :   400.0
     dt /fs             :     1.5
     dumpstep(trj) /fs  :     100
Starting MD   8 with the settings:
     MD time /ps        :     0.2
     MD Temperature /K  :   500.0
     dt /fs             :     1.5
     dumpstep(trj) /fs  :     100
*MD 7 finished*
*MD 6 finished*
*MD 8 finished*
*MD 5 finished*
*MD 2 finished*
*MD 3 finished*
*MD 4 finished*
*MD 1 finished*
 Appending file crest_rotamers_2.xyz with new structures
 
 -------------------------------------------
 Ensemble optimization with tight thresholds
 -------------------------------------------
 Optimizing all 409 structures from file "crest_rotamers_2.xyz" ...
 1 2 3 4 5 6 7 8 9 10 11 12 13 14 15 16 17 18 19 20 21 22 23 24 25 26 27 28 29 30 31 32 33 34 35 36 37 38 39 40 41 42 43 44 45 46 47 48 49 50 51 52 53 54 55 56 57 58 59 60 61 62 63 64 65 66 67 68 69 70 71 72 73 74 75 76 77 78 79 80 81 82 83 84 85 86 87 88 89 90 91 92 93 94 95 96 97 98 99 100 101 102 103 104 105 106 107 108 109 110 111 112 113 114 115 116 117 118 119 120 121 122 123 124 125 126 127 128 129 130 131 132 133 134 135 136 137 138 139 140 141 142 143 144 145 146 147 148 149 150 151 152 153 154 155 156 157 158 159 160 161 162 163 164 165 166 167 168 169 170 171 172 173 174 175 176 177 178 179 180 181 182 183 184 185 186 187 188 189 190 191 192 193 194 195 196 197 198 199 200 201 202 203 204 205 206 207 208 209 210 211 212 213 214 215 216 217 218 219 220 221 222 223 224 225 226 227 228 229 230 231 232 233 234 235 236 237 238 239 240 241 242 243 244 245 246 247 248 249 250 251 252 253 254 255 256 257 258 259 260 261 262 263 264 265 266 267 268 269 270 271 272 273 274 275 276 277 278 279 280 281 282 283 284 285 286 287 288 289 290 291 292 293 294 295 296 297 298 299 300 301 302 303 304 305 306 307 308 309 310 311 312 313 314 315 316 317 318 319 320 321 322 323 324 325 326 327 328 329 330 331 332 333 334 335 336 337 338 339 340 341 342 343 344 345 346 347 348 349 350 351 352 353 354 355 356 357 358 359 360 361 362 363 364 365 366 367 368 369 370 371 372 373 374 375 376 377 378 379 380 381 382 383 384 385 386 387 388 389 390 391 392 393 394 395 396 397 398 399 400 401 402 403 404 405 406 407 408 409
 done.
 running RMSDs...
 done.
 E lowest :  -129.43002
 396 structures remain within     6.00 kcal/mol window
 
 ...............................................
 A new lower conformer was found!
 Improved by    0.00059 Eh or    0.37319kcal/mol
 ...............................................
 
*******************************************************************************************
**                        N E W    I T E R A T I O N    C Y C L E                        **
*******************************************************************************************
 
========================================
            MTD Iteration  1
========================================
 
     ========================================
     |         Meta-MD (MTD) Sampling       |
     ========================================
 
Starting Meta-MD   1 with the settings:
     MD time /ps        :     0.5
     dt /fs             :     1.5
     dumpstep(trj) /fs  :     100
     dumpstep(Vbias)/ps :     1.0
     Vbias factor k /Eh :  0.2520
     Vbias exp α /bohr⁻²:    1.30
Starting Meta-MD   2 with the settings:
     MD time /ps        :     0.5
     dt /fs             :     1.5
     dumpstep(trj) /fs  :     100
     dumpstep(Vbias)/ps :     1.0
     Vbias factor k /Eh :  0.1260
     Vbias exp α /bohr⁻²:    1.30
Starting Meta-MD   3 with the settings:
     MD time /ps        :     0.5
     dt /fs             :     1.5
     dumpstep(trj) /fs  :     100
     dumpstep(Vbias)/ps :     1.0
     Vbias factor k /Eh :  0.0630
     Vbias exp α /bohr⁻²:    1.30
Starting Meta-MD   4 with the settings:
     MD time /ps        :     0.5
     dt /fs             :     1.5
     dumpstep(trj) /fs  :     100
     dumpstep(Vbias)/ps :     1.0
     Vbias factor k /Eh :  0.2520
     Vbias exp α /bohr⁻²:    0.78
Starting Meta-MD   5 with the settings:
     MD time /ps        :     0.5
     dt /fs             :     1.5
     dumpstep(trj) /fs  :     100
     dumpstep(Vbias)/ps :     1.0
     Vbias factor k /Eh :  0.1260
     Vbias exp α /bohr⁻²:    0.78
Starting Meta-MD   6 with the settings:
     MD time /ps        :     0.5
     dt /fs             :     1.5
     dumpstep(trj) /fs  :     100
     dumpstep(Vbias)/ps :     1.0
     Vbias factor k /Eh :  0.0630
     Vbias exp α /bohr⁻²:    0.78
Starting Meta-MD   7 with the settings:
     MD time /ps        :     0.5
     dt /fs             :     1.5
     dumpstep(trj) /fs  :     100
     dumpstep(Vbias)/ps :     1.0
     Vbias factor k /Eh :  0.2520
     Vbias exp α /bohr⁻²:    0.47
Starting Meta-MD   8 with the settings:
     MD time /ps        :     0.5
     dt /fs             :     1.5
     dumpstep(trj) /fs  :     100
     dumpstep(Vbias)/ps :     1.0
     Vbias factor k /Eh :  0.1260
     Vbias exp α /bohr⁻²:    0.47
Starting Meta-MD   9 with the settings:
     MD time /ps        :     0.5
     dt /fs             :     1.5
     dumpstep(trj) /fs  :     100
     dumpstep(Vbias)/ps :     1.0
     Vbias factor k /Eh :  0.0630
     Vbias exp α /bohr⁻²:    0.47
Starting Meta-MD  10 with the settings:
     MD time /ps        :     0.5
     dt /fs             :     1.5
     dumpstep(trj) /fs  :     100
     dumpstep(Vbias)/ps :     1.0
     Vbias factor k /Eh :  0.2520
     Vbias exp α /bohr⁻²:    0.28
Starting Meta-MD  11 with the settings:
     MD time /ps        :     0.5
     dt /fs             :     1.5
     dumpstep(trj) /fs  :     100
     dumpstep(Vbias)/ps :     1.0
     Vbias factor k /Eh :  0.1260
     Vbias exp α /bohr⁻²:    0.28
Starting Meta-MD  12 with the settings:
     MD time /ps        :     0.5
     dt /fs             :     1.5
     dumpstep(trj) /fs  :     100
     dumpstep(Vbias)/ps :     1.0
     Vbias factor k /Eh :  0.0630
     Vbias exp α /bohr⁻²:    0.28
*Meta-MTD 3 finished*
*Meta-MTD 9 finished*
*Meta-MTD 12 finished*
*Meta-MTD 10 finished*
*Meta-MTD 7 finished*
*Meta-MTD 1 finished*
*Meta-MTD 11 finished*
*Meta-MTD 2 finished*
*Meta-MTD 4 finished*
*Meta-MTD 8 finished*
*Meta-MTD 5 finished*
*Meta-MTD 6 finished*
 
-----------------------
Multilevel Optimization
-----------------------
 
 -------------------------
 1. crude pre-optimization
 -------------------------
 Optimizing all 60 structures from file "crest_rotamers_0.xyz" ...
 1 2 3 4 5 6 7 8 9 10 11 12 13 14 15 16 17 18 19 20 21 22 23 24 25 26 27 28 29 30 31 32 33 34 35 36 37 38 39 40 41 42 43 44 45 46 47 48 49 50 51 52 53 54 55 56 57 58 59 60
 done.
 running RMSDs...
 done.
 E lowest :  -129.42855
 53 structures remain within    12.00 kcal/mol window
 
 -------------------------------------
 2. optimization with tight thresholds
 -------------------------------------
 Optimizing all 54 structures from file "crest_rotamers_1.xyz" ...
 1 2 3 4 5 6 7 8 9 10 11 12 13 14 15 16 17 18 19 20 21 22 23 24 25 26 27 28 29 30 31 32 33 34 35 36 37 38 39 40 41 42 43 44 45 46 47 48 49 50 51 52 53 54
 done.
 running RMSDs...
 done.
 E lowest :  -129.43002
 23 structures remain within     6.00 kcal/mol window
 
========================================
            MTD Iterations done         
========================================
 Collecting ensmbles.
 running RMSDs...
 done.
 E lowest :  -129.43002
 23 structures remain within     6.00 kcal/mol window
 
 -------------------------------
 Additional orientation sampling
 -------------------------------
 Optimizing all 46 structures from file "oh_ensemble.xyz" ...
 1 2 3 4 5 6 7 8 9 10 11 12 13 14 15 16 17 18 19 20 21 22 23 24 25 26 27 28 29 30 31 32 33 34 35 36 37 38 39 40 41 42 43 44 45 46
 done.
 running RMSDs...
 done.
 E lowest :  -129.43002
 67 structures remain within     6.00 kcal/mol window
 
-----------------------------------------------
Additional regular MDs on lowest 4 conformer(s)
-----------------------------------------------
Starting MD   1 with the settings:
     MD time /ps        :     0.2
     MD Temperature /K  :   400.0
     dt /fs             :     1.5
     dumpstep(trj) /fs  :     100
Starting MD   3 with the settings:
     MD time /ps        :     0.2
     MD Temperature /K  :   400.0
     dt /fs             :     1.5
     dumpstep(trj) /fs  :     100
Starting MD   2 with the settings:
     MD time /ps        :     0.2
     MD Temperature /K  :   500.0
     dt /fs             :     1.5
     dumpstep(trj) /fs  :     100
Starting MD   4 with the settings:
     MD time /ps        :     0.2
     MD Temperature /K  :   500.0
     dt /fs             :     1.5
     dumpstep(trj) /fs  :     100
Starting MD   5 with the settings:
     MD time /ps        :     0.2
     MD Temperature /K  :   400.0
     dt /fs             :     1.5
     dumpstep(trj) /fs  :     100
Starting MD   6 with the settings:
     MD time /ps        :     0.2
     MD Temperature /K  :   500.0
     dt /fs             :     1.5
     dumpstep(trj) /fs  :     100
Starting MD   7 with the settings:
     MD time /ps        :     0.2
     MD Temperature /K  :   400.0
     dt /fs             :     1.5
     dumpstep(trj) /fs  :     100
Starting MD   8 with the settings:
     MD time /ps        :     0.2
     MD Temperature /K  :   500.0
     dt /fs             :     1.5
     dumpstep(trj) /fs  :     100
*MD 5 finished*
*MD 7 finished*
*MD 2 finished*
*MD 1 finished*
*MD 6 finished*
*MD 8 finished*
*MD 4 finished*
*MD 3 finished*
 Appending file crest_rotamers_2.xyz with new structures
 
 -------------------------------------------
 Ensemble optimization with tight thresholds
 -------------------------------------------
 Optimizing all 83 structures from file "crest_rotamers_2.xyz" ...
 1 2 3 4 5 6 7 8 9 10 11 12 13 14 15 16 17 18 19 20 21 22 23 24 25 26 27 28 29 30 31 32 33 34 35 36 37 38 39 40 41 42 43 44 45 46 47 48 49 50 51 52 53 54 55 56 57 58 59 60 61 62 63 64 65 66 67 68 69 70 71 72 73 74 75 76 77 78 79 80 81 82 83
 done.
 running RMSDs...
 done.
 E lowest :  -129.43004
 73 structures remain within     6.00 kcal/mol window
 
 
     ========================================
     |        Structure Crossing (GC)       |
     ========================================
 =============================
  # threads =          28
 =============================
 input  file name : crest_rotamers_4.xyz
number of atoms                :    84
number of points on xyz files  :    73
conformer energy window  /kcal :    6.00
CN per atom difference cut-off :  0.3000
RMSD threshold                 :  0.5000
max. # of generated structures : 25
 reading xyz file ...
 # in E window                 73
 generating pairs ...        2700
 generated pairs           :        1441
 number of clash discarded :        1187
 average rmsd w.r.t input  : 3.35654
 sd of ensemble            : 1.23677
 number of new structures      :           4
 removed identical structures  :          46
 writing            4  TMPCONF* dirs ...
 --------------------------
 GC: loose pre-optimization
 --------------------------
 Starting optimization of generated structures
 4 jobs to do.
 1 2 3 4 
 done.
 Now appending opt.xyz file with new structures
 running RMSDs...
 done.
 E lowest :  -129.42804
 4 structures remain within    10.00 kcal/mol window
 --------------------------------------
 GC: optimization with tight thresholds
 --------------------------------------
 Optimizing all 4 structures from file "crest_rotamers_1.xyz" ...
 1 2 3 4
 done.
 running RMSDs...
 done.
 E lowest :  -129.43004
 
 
   ================================================
   |           Final Geometry Optimization        |
   ================================================
 ------------------------------------------------
 Ensemble optimization with very tight thresholds
 ------------------------------------------------
 Optimizing all 76 structures from file "crest_rotamers_5.xyz" ...
 1 2 3 4 5 6 7 8 9 10 11 12 13 14 15 16 17 18 19 20 21 22 23 24 25 26 27 28 29 30 31 32 33 34 35 36 37 38 39 40 41 42 43 44 45 46 47 48 49 50 51 52 53 54 55 56 57 58 59 60 61 62 63 64 65 66 67 68 69 70 71 72 73 74 75 76
 done.
 running RMSDs...
 done.
 E lowest :  -129.43004
 76 structures remain within     6.00 kcal/mol window
 
 input  file name : crest_rotamers_6.xyz
 output file name : crest_rotamers_7.xyz
 number of atoms                :   84
 number of points on xyz files  :   76
 RMSD threshold                 :   0.2500
 Bconst threshold               :   0.0100
 population threshold           :   0.0500
 conformer energy window  /kcal :   6.0000
 # fragment in coord            :     1
 # bonds in reference structure :    89
   => # of C=C bonds :    12
 number of reliable points      :    76
 reference state Etot :  -129.430043440000
 number of doubles removed by rot/RMSD         :           0
 total number unique points considered further :          76
       Erel/kcal        Etot weight/tot  conformer     set   degen     origin
       1   0.000  -129.43004    0.11494    0.22889       1       2     md3
       2   0.005  -129.43004    0.11394                                md4
       3   0.017  -129.43002    0.11170    0.22273       2       2     mtd5
       4   0.021  -129.43001    0.11103                                md1
       5   0.270  -129.42961    0.07288    0.07288       3       1     md8
       6   0.271  -129.42961    0.07273    0.14432       4       2     md8
       7   0.281  -129.42960    0.07160                                md7
       8   0.360  -129.42947    0.06264    0.06264       5       1     mtd7
       9   0.716  -129.42890    0.03436    0.03436       6       1     md3
      10   0.850  -129.42869    0.02741    0.02741       7       1     mtd5
      11   1.044  -129.42838    0.01978    0.01978       8       1     hor
      12   1.184  -129.42816    0.01561    0.01561       9       1     hor
      13   1.205  -129.42812    0.01507    0.01507      10       1     hor
      14   1.212  -129.42811    0.01489    0.01489      11       1     hor
      15   1.468  -129.42770    0.00966    0.00966      12       1     md5
      16   1.484  -129.42768    0.00941    0.00941      13       1     hor
      17   1.504  -129.42765    0.00910    0.00910      14       1     mtd5
      18   1.505  -129.42765    0.00909    0.00909      15       1     hor
      19   1.538  -129.42759    0.00859    0.00859      16       1     mtd9
      20   1.553  -129.42757    0.00838    0.00838      17       1     mtd8
      21   1.611  -129.42748    0.00760    0.00760      18       1     hor
      22   1.623  -129.42746    0.00745    0.00745      19       1     hor
      23   1.629  -129.42745    0.00736    0.00736      20       1     hor
      24   1.658  -129.42740    0.00702    0.00702      21       1     mtd10
      25   1.687  -129.42735    0.00668    0.00668      22       1     mtd10
      26   1.797  -129.42718    0.00555    0.00555      23       1     mtd3
      27   2.049  -129.42678    0.00363    0.00363      24       1     mtd1
      28   2.072  -129.42674    0.00349    0.00349      25       1     hor
      29   2.087  -129.42672    0.00340    0.00340      26       1     mtd1
      30   2.092  -129.42671    0.00338    0.00338      27       1     mtd4
      31   2.125  -129.42666    0.00319    0.00319      28       1     mtd4
      32   2.420  -129.42619    0.00194    0.00194      29       1     mtd1
      33   2.445  -129.42615    0.00186    0.00186      30       1     hor
      34   2.541  -129.42599    0.00158    0.00158      31       1     hor
      35   2.615  -129.42588    0.00140    0.00140      32       1     hor
      36   2.641  -129.42583    0.00134    0.00134      33       1     hor
      37   2.681  -129.42577    0.00125    0.00125      34       1     mtd10
      38   2.755  -129.42565    0.00110    0.00110      35       1     gc
      39   2.766  -129.42564    0.00108    0.00108      36       1     hor
      40   2.771  -129.42563    0.00108    0.00108      37       1     hor
      41   2.791  -129.42560    0.00104    0.00104      38       1     mtd6
      42   2.798  -129.42558    0.00103    0.00103      39       1     hor
      43   2.808  -129.42557    0.00101    0.00198      40       2     hor
      44   2.830  -129.42553    0.00097                                hor
      45   2.846  -129.42551    0.00095    0.00095      41       1     hor
      46   2.930  -129.42537    0.00082    0.00082      42       1     hor
      47   2.953  -129.42534    0.00079    0.00079      43       1     mtd5
      48   2.974  -129.42530    0.00076    0.00076      44       1     hor
      49   3.025  -129.42522    0.00070    0.00070      45       1     hor
      50   3.042  -129.42520    0.00068    0.00068      46       1     hor
      51   3.050  -129.42518    0.00067    0.00067      47       1     hor
      52   3.054  -129.42518    0.00067    0.00067      48       1     gc
      53   3.065  -129.42516    0.00065    0.00065      49       1     hor
      54   3.188  -129.42496    0.00053    0.00053      50       1     hor
      55   3.194  -129.42495    0.00053    0.00053      51       1     hor
      56   3.225  -129.42490    0.00050    0.00050      52       1     hor
      57   3.246  -129.42487    0.00048    0.00048      53       1     mtd12
      58   3.263  -129.42484    0.00047    0.00047      54       1     hor
      59   3.313  -129.42476    0.00043    0.00043      55       1     mtd8
      60   3.437  -129.42457    0.00035    0.00035      56       1     mtd7
      61   3.611  -129.42429    0.00026    0.00026      57       1     hor
      62   3.696  -129.42415    0.00023    0.00023      58       1     hor
      63   3.773  -129.42403    0.00020    0.00020      59       1     hor
      64   3.852  -129.42391    0.00017    0.00017      60       1     hor
      65   3.860  -129.42389    0.00017    0.00017      61       1     hor
      66   4.031  -129.42362    0.00013    0.00013      62       1     hor
      67   4.080  -129.42354    0.00012    0.00012      63       1     hor
      68   4.233  -129.42330    0.00009    0.00009      64       1     hor
      69   4.269  -129.42324    0.00009    0.00009      65       1     hor
      70   4.298  -129.42319    0.00008    0.00008      66       1     hor
      71   4.327  -129.42315    0.00008    0.00008      67       1     mtd11
      72   4.363  -129.42309    0.00007    0.00007      68       1     hor
      73   4.530  -129.42282    0.00006    0.00006      69       1     hor
      74   5.166  -129.42181    0.00002    0.00002      70       1     gc
      75   5.375  -129.42148    0.00001    0.00001      71       1     hor
      76   5.458  -129.42135    0.00001    0.00001      72       1     hor
T /K                                  :   298.15
E lowest                              :  -129.43004
ensemble average energy (kcal)        :    0.479
ensemble entropy (J/mol K, cal/mol K) :   24.697    5.903
ensemble free energy (kcal/mol)       :   -1.760
population of lowest in %             :   22.889
 number of unique conformers for further calc           72
 list of relative energies saved as "crest.energies"
 
 -----------------
 Wall Time Summary
 -----------------
             test MD wall time :         0h : 0m :50s
                 MTD wall time :         0h : 4m :46s
      multilevel OPT wall time :         0h : 7m :25s
                  MD wall time :         0h : 1m :44s
                  GC wall time :         0h : 0m :12s
--------------------
Overall wall time  : 0h :15m :14s
 
 CREST terminated normally.
