 
       ==============================================
       |                                            |
       |                 C R E S T                  |
       |                                            |
       |  Conformer-Rotamer Ensemble Sampling Tool  |
       |          based on the GFN methods          |
       |             P.Pracht, S.Grimme             |
       |          Universitaet Bonn, MCTC           |
       ==============================================
       Version 2.11.2, Fr 17. Dec 12:10:44 CEST 2021
  Using the xTB program. Compatible with xTB version 6.4.0
 
   Cite work conducted with this code as

   P. Pracht, F. Bohle, S. Grimme, PCCP, 2020, 22, 7169-7192.

   and  S. Grimme, JCTC, 2019, 15, 2847-2862.
 
   with help from:
   C.Bannwarth, F.Bohle, S.Ehlert, S.Grimme,
   C. Plett, P.Pracht, S. Spicher
 
   This program is distributed in the hope that it will be useful,
   but WITHOUT ANY WARRANTY; without even the implied warranty of
   MERCHANTABILITY or FITNESS FOR A PARTICULAR PURPOSE.

 Command line input:
 > crest 00292_r_0.xyz -T 28 -gfn2 -chrg 0 -uhf 0 -rthr 0.25 -shake 1 --mdlen 0.5

  -T 28 (CPUs/Threads selected)
  -gfn2 : Use of GFN2-xTB requested.
  -chrg 0
  -uhf 0
  -rthr 0.25
  --mdlen 0.5 (MD length in ps)
 
 -------------------------
 xTB Geometry Optimization
 -------------------------
 Geometry successfully optimized.
 
------------------------------------------------
Generating MTD length from a flexibility measure
------------------------------------------------
      -----------------------------------------------------------      
     |                   =====================                   |     
     |                           x T B                           |     
     |                   =====================                   |     
     |                         S. Grimme                         |     
     |          Mulliken Center for Theoretical Chemistry        |     
     |                    University of Bonn                     |     
      -----------------------------------------------------------      

   * xtb version 6.4.1 (afa7bdf) compiled by 'ehlert@majestix' on 2021-06-10

   xtb is free software: you can redistribute it and/or modify it under
   the terms of the GNU Lesser General Public License as published by
   the Free Software Foundation, either version 3 of the License, or
   (at your option) any later version.
   
   xtb is distributed in the hope that it will be useful,
   but WITHOUT ANY WARRANTY; without even the implied warranty of
   MERCHANTABILITY or FITNESS FOR A PARTICULAR PURPOSE.  See the
   GNU Lesser General Public License for more details.
   
   Cite this work as:
   * C. Bannwarth, E. Caldeweyher, S. Ehlert, A. Hansen, P. Pracht,
     J. Seibert, S. Spicher, S. Grimme, WIREs Comput. Mol. Sci., 2020, 11,
     e01493. DOI: 10.1002/wcms.1493
   
   for GFN2-xTB:
   * C. Bannwarth, S. Ehlert and S. Grimme., J. Chem. Theory Comput., 2019,
     15, 1652-1671. DOI: 10.1021/acs.jctc.8b01176
   for GFN1-xTB:
   * S. Grimme, C. Bannwarth, P. Shushkov, J. Chem. Theory Comput., 2017,
     13, 1989-2009. DOI: 10.1021/acs.jctc.7b00118
   for GFN0-xTB:
   * P. Pracht, E. Caldeweyher, S. Ehlert, S. Grimme, ChemRxiv, 2019, preprint.
     DOI: 10.26434/chemrxiv.8326202.v1
   for GFN-FF:
   * S. Spicher and S. Grimme, Angew. Chem. Int. Ed., 2020, 59, 15665-15673.
     DOI: 10.1002/anie.202004239
   
   for DFT-D4:
   * E. Caldeweyher, C. Bannwarth and S. Grimme, J. Chem. Phys., 2017,
     147, 034112. DOI: 10.1063/1.4993215
   * E. Caldeweyher, S. Ehlert, A. Hansen, H. Neugebauer, S. Spicher,
     C. Bannwarth and S. Grimme, J. Chem. Phys., 2019, 150, 154122.
     DOI: 10.1063/1.5090222
   * E. Caldeweyher, J.-M. Mewes, S. Ehlert and S. Grimme, Phys. Chem. Chem. Phys.
     2020, 22, 8499-8512. DOI: 10.1039/D0CP00502A
   
   for sTDA-xTB:
   * S. Grimme and C. Bannwarth, J. Chem. Phys., 2016, 145, 054103.
     DOI: 10.1063/1.4959605
   
   in the mass-spec context:
   * V. Asgeirsson, C. Bauer and S. Grimme, Chem. Sci., 2017, 8, 4879.
     DOI: 10.1039/c7sc00601b
   * J. Koopman and S. Grimme, ACS Omega 2019, 4, 12, 15120-15133.
     DOI: 10.1021/acsomega.9b02011
   
   for metadynamics refer to:
   * S. Grimme, J. Chem. Theory Comput., 2019, 155, 2847-2862
     DOI: 10.1021/acs.jctc.9b00143
   
   for SPH calculations refer to:
   * S. Spicher and S. Grimme, J. Chem. Theory Comput., 2021, 17, 1701-1714
     DOI: 10.1021/acs.jctc.0c01306
   
   with help from (in alphabetical order)
   P. Atkinson, C. Bannwarth, F. Bohle, G. Brandenburg, E. Caldeweyher
   M. Checinski, S. Dohm, S. Ehlert, S. Ehrlich, I. Gerasimov, J. Koopman
   C. Lavigne, S. Lehtola, F. März, M. Müller, F. Musil, H. Neugebauer
   J. Pisarek, C. Plett, P. Pracht, J. Seibert, P. Shushkov, S. Spicher
   M. Stahn, M. Steiner, T. Strunk, J. Stückrath, T. Rose, and J. Unsleber
   
 * started run on 2025/01/21 at 11:35:57.845     

           -------------------------------------------------
          |                Calculation Setup                |
           -------------------------------------------------

          program call               : xtb tmpcoord --gfn0 --sp
          hostname                   : node27
          coordinate file            : tmpcoord
          omp threads                :                    28
          number of atoms            :                    84
          number of electrons        :                   230
          charge                     :                     0
          spin                       :                   0.0
          first test random number   :      0.05407458664679

   ID    Z sym.   atoms
    1    8 o      1, 9, 26, 33
    2    6 c      2-8, 10-25, 27-32, 34-46
    3    1 h      47-84
########################################################################
[WARNING] Please study the warnings concerning your input carefully
-1- prog_main_parseArguments: The use of '--gfn0' is discouraged, please use '--gfn 0' next time
########################################################################

           -------------------------------------------------
          |                 G F N 0 - x T B                 |
           -------------------------------------------------

        Reference                      10.26434/chemrxiv.8326202.v1
      * Hamiltonian:
        H0-scaling (s, p, d)           2.000000    2.486800    2.270000
        zeta-weighting                 1.000000
      * Dispersion:
        s8                             2.850000
        a1                             0.800000
        a2                             4.600000
        s9                             0.000000
      * Repulsion:
        kExp                           1.500000
        rExp                           1.000000
      * Coulomb:
        alpha                          0.000000
        third order                    atomic
        anisotropic                    false
      * Polar bond correction:
        rad-shift                      0.053700
        strength                      -0.012900
        en-exp                         3.484700
        en-scale                       0.509700


          ...................................................
          :                      SETUP                      :
          :.................................................:
          :  # basis functions                 260          :
          :  # atomic orbitals                 260          :
          :  # shells                          168          :
          :  # electrons                       230          :
          :  electronic temp.          300.0000000     K    :
          :  accuracy                    1.0000000          :
          :  -> integral cutoff          0.2500000E+02      :
          :  -> integral neglect         0.1000000E-07      :
          ...................................................
  Checking positiv definite overlap ...  done.
 

         #    Occupation            Energy/Eh            Energy/eV
      -------------------------------------------------------------
         1        2.0000           -0.6947456             -18.9050
       ...           ...                  ...                  ...
       109        2.0000           -0.4331064             -11.7854
       110        2.0000           -0.4132852             -11.2461
       111        2.0000           -0.4124517             -11.2234
       112        2.0000           -0.3955232             -10.7627
       113        2.0000           -0.3944691             -10.7340
       114        2.0000           -0.3941708             -10.7259
       115        2.0000           -0.3894008             -10.5961 (HOMO)
       116                         -0.3026923              -8.2367 (LUMO)
       117                         -0.2987658              -8.1298
       118                         -0.2731374              -7.4324
       119                         -0.2726439              -7.4190
       120                         -0.2606627              -7.0930
       ...                                ...                  ...
       260                          0.6563620              17.8605
      -------------------------------------------------------------
                  HL-Gap            0.0867085 Eh            2.3595 eV
             Fermi-level            0.0000000 Eh            0.0000 eV

 EHT (total)                   0 d,  0 h,  0 min,  0.044 sec
 EHT setup                      ...        0 min,  0.001 sec (  3.433%)
 Coordination number            ...        0 min,  0.001 sec (  2.583%)
 EEQ model density              ...        0 min,  0.001 sec (  2.362%)
 D4 Dispersion                  ...        0 min,  0.003 sec (  7.534%)
 Integral evaluation            ...        0 min,  0.001 sec (  3.194%)
 Cholesky factorization         ...        0 min,  0.010 sec ( 21.974%)
 Zeroth order Hamiltonian       ...        0 min,  0.022 sec ( 50.702%)
 Gradient calculation           ...        0 min,  0.003 sec (  6.450%)

         :::::::::::::::::::::::::::::::::::::::::::::::::::::
         ::                     SUMMARY                     ::
         :::::::::::::::::::::::::::::::::::::::::::::::::::::
         :: total energy            -122.611141736001 Eh    ::
         :: gradient norm              0.053815461587 Eh/a0 ::
         :: HOMO-LUMO gap              2.359458111459 eV    ::
         ::.................................................::
         :: H0 energy               -124.358921554012 Eh    ::
         :: repulsion energy           2.035187426959 Eh    ::
         :: electrostat energy        -0.155789300300 Eh    ::
         :: -> Gsolv                   0.000000000000 Eh    ::
         ::    -> Gsasa                0.000000000000 Eh    ::
         ::    -> Gshift               0.000000000000 Eh    ::
         :: dispersion energy         -0.055925743876 Eh    ::
         :: short-range corr.         -0.075692564773 Eh    ::
         :: add. restraining           0.000000000000 Eh    ::
         :: total charge               0.000000000000 e     ::
         :::::::::::::::::::::::::::::::::::::::::::::::::::::

           -------------------------------------------------
          |                Property Printout                |
           -------------------------------------------------

    * Orbital Energies and Occupations

         #    Occupation            Energy/Eh            Energy/eV
      -------------------------------------------------------------
         1        2.0000           -0.6947456             -18.9050
       ...           ...                  ...                  ...
       103        2.0000           -0.4463357             -12.1454
       104        2.0000           -0.4440805             -12.0840
       105        2.0000           -0.4426782             -12.0459
       106        2.0000           -0.4395122             -11.9597
       107        2.0000           -0.4379251             -11.9165
       108        2.0000           -0.4368580             -11.8875
       109        2.0000           -0.4331064             -11.7854
       110        2.0000           -0.4132852             -11.2461
       111        2.0000           -0.4124517             -11.2234
       112        2.0000           -0.3955232             -10.7627
       113        2.0000           -0.3944691             -10.7340
       114        2.0000           -0.3941708             -10.7259
       115        2.0000           -0.3894008             -10.5961 (HOMO)
       116                         -0.3026923              -8.2367 (LUMO)
       117                         -0.2987658              -8.1298
       118                         -0.2731374              -7.4324
       119                         -0.2726439              -7.4190
       120                         -0.2606627              -7.0930
       121                         -0.2602092              -7.0807
       122                         -0.2511390              -6.8338
       123                         -0.2506361              -6.8202
       124                         -0.2339381              -6.3658
       125                         -0.2270558              -6.1785
       126                         -0.1847160              -5.0264
       ...                                ...                  ...
       260                          0.6563620              17.8605
      -------------------------------------------------------------
                  HL-Gap            0.0867085 Eh            2.3595 eV
             Fermi-level            0.0000000 Eh            0.0000 eV

     #   Z          covCN         q      C6AA      α(0)
     1   8 o        1.659    -0.536    23.487     6.556
     2   6 c        2.850     0.216    24.750     8.128
     3   6 c        2.971    -0.044    30.637     9.051
     4   6 c        2.977     0.055    28.193     8.682
     5   6 c        2.923    -0.127    32.902     9.377
     6   6 c        2.920    -0.083    31.690     9.202
     7   6 c        2.918    -0.195    34.925     9.661
     8   6 c        2.850     0.285    23.423     7.907
     9   8 o        1.706    -0.432    21.283     6.242
    10   6 c        3.751     0.237    19.018     6.294
    11   6 c        3.821    -0.207    27.482     7.552
    12   6 c        3.826    -0.145    26.052     7.352
    13   6 c        3.820    -0.136    25.854     7.325
    14   6 c        3.815    -0.210    27.571     7.565
    15   6 c        2.927    -0.215    35.517     9.743
    16   6 c        2.925    -0.179    34.426     9.592
    17   6 c        2.985     0.068    27.892     8.636
    18   6 c        2.919    -0.131    33.016     9.393
    19   6 c        2.915    -0.087    31.792     9.217
    20   6 c        2.916    -0.091    31.913     9.234
    21   6 c        2.918    -0.106    32.325     9.294
    22   6 c        2.989     0.033    28.709     8.762
    23   6 c        2.976    -0.005    29.644     8.903
    24   6 c        2.976    -0.005    29.644     8.903
    25   6 c        2.851     0.217    24.720     8.123
    26   8 o        1.659    -0.537    23.512     6.559
    27   6 c        2.971    -0.044    30.648     9.052
    28   6 c        2.977     0.056    28.165     8.678
    29   6 c        2.923    -0.130    32.994     9.390
    30   6 c        2.919    -0.082    31.667     9.199
    31   6 c        2.917    -0.188    34.697     9.629
    32   6 c        2.858     0.277    23.575     7.933
    33   8 o        1.706    -0.425    21.153     6.223
    34   6 c        3.756     0.234    19.070     6.301
    35   6 c        3.819    -0.205    27.449     7.548
    36   6 c        3.827    -0.135    25.822     7.320
    37   6 c        3.827    -0.135    25.826     7.320
    38   6 c        3.828    -0.179    26.812     7.458
    39   6 c        2.925    -0.216    35.555     9.748
    40   6 c        2.924    -0.179    34.439     9.594
    41   6 c        2.985     0.068    27.892     8.636
    42   6 c        2.919    -0.130    33.009     9.392
    43   6 c        2.915    -0.086    31.784     9.216
    44   6 c        2.916    -0.091    31.901     9.233
    45   6 c        2.918    -0.107    32.346     9.297
    46   6 c        2.988     0.031    28.760     8.770
    47   1 h        0.805     0.304     0.710     1.323
    48   1 h        0.926     0.106     1.729     2.056
    49   1 h        0.926     0.092     1.859     2.132
    50   1 h        0.926     0.107     1.722     2.052
    51   1 h        0.924     0.044     2.394     2.420
    52   1 h        0.925     0.091     1.868     2.138
    53   1 h        0.925     0.108     1.717     2.049
    54   1 h        0.924     0.083     1.949     2.183
    55   1 h        0.925     0.079     1.994     2.208
    56   1 h        0.925     0.077     2.008     2.216
    57   1 h        0.924     0.077     2.008     2.216
    58   1 h        0.925     0.109     1.707     2.043
    59   1 h        0.925     0.089     1.893     2.152
    60   1 h        0.926     0.144     1.432     1.871
    61   1 h        0.926     0.117     1.639     2.002
    62   1 h        0.926     0.098     1.801     2.099
    63   1 h        0.926     0.092     1.863     2.135
    64   1 h        0.926     0.094     1.844     2.124
    65   1 h        0.926     0.114     1.666     2.019
    66   1 h        0.805     0.301     0.718     1.331
    67   1 h        0.926     0.102     1.766     2.078
    68   1 h        0.926     0.092     1.857     2.131
    69   1 h        0.926     0.101     1.777     2.084
    70   1 h        0.923     0.017     2.776     2.605
    71   1 h        0.925     0.076     2.026     2.226
    72   1 h        0.924     0.117     1.637     2.001
    73   1 h        0.925     0.079     1.992     2.207
    74   1 h        0.924     0.080     1.978     2.199
    75   1 h        0.924     0.104     1.748     2.068
    76   1 h        0.925     0.075     2.032     2.229
    77   1 h        0.925     0.075     2.027     2.226
    78   1 h        0.925     0.113     1.667     2.019
    79   1 h        0.926     0.151     1.382     1.839
    80   1 h        0.926     0.118     1.626     1.994
    81   1 h        0.926     0.099     1.796     2.096
    82   1 h        0.926     0.092     1.857     2.131
    83   1 h        0.926     0.095     1.835     2.118
    84   1 h        0.926     0.113     1.668     2.020

 Mol. C6AA /au·bohr⁶  :      87697.049689
 Mol. C8AA /au·bohr⁸  :    2190615.516026
 Mol. α(0) /au        :        466.227224


Wiberg/Mayer (AO) data.
largest (>0.10) Wiberg bond orders for each atom

 ---------------------------------------------------------------------------
     #   Z sym  total        # sym  WBO       # sym  WBO       # sym  WBO
 ---------------------------------------------------------------------------
     1   8 o    2.306 --     2 c    1.133    47 h    0.965
     2   6 c    3.941 --    23 c    1.411     3 c    1.214     1 o    1.133
     3   6 c    3.974 --    16 c    1.517     2 c    1.214     4 c    1.029
     4   6 c    3.974 --    15 c    1.417     5 c    1.364     3 c    1.029
     5   6 c    3.975 --     6 c    1.448     4 c    1.364    48 h    0.970
     6   6 c    3.987 --     5 c    1.448     7 c    1.436    49 h    0.972
     7   6 c    3.977 --     6 c    1.436     8 c    1.352    50 h    0.965
     8   6 c    3.942 --     7 c    1.352    15 c    1.333     9 o    1.118
     9   8 o    2.360 --     8 c    1.118    10 c    0.971
    10   6 c    3.950 --    11 c    0.986    14 c    0.980    51 h    0.973
                             9 o    0.971
    11   6 c    3.988 --    12 c    1.010    10 c    0.986    52 h    0.978
                            53 h    0.971
    12   6 c    3.990 --    11 c    1.010    13 c    1.009    55 h    0.979
                            54 h    0.978
    13   6 c    3.990 --    14 c    1.009    12 c    1.009    56 h    0.980
                            57 h    0.977
    14   6 c    3.987 --    13 c    1.009    10 c    0.980    59 h    0.980
                            58 h    0.976
    15   6 c    3.976 --     4 c    1.417     8 c    1.333    60 h    0.964
    16   6 c    3.984 --     3 c    1.517    17 c    1.274    61 h    0.965
    17   6 c    3.978 --    18 c    1.279    16 c    1.274    22 c    1.239
    18   6 c    3.980 --    19 c    1.553    17 c    1.279    62 h    0.969
                            21 c    0.115
    19   6 c    3.975 --    18 c    1.553    20 c    1.317    63 h    0.973
    20   6 c    3.983 --    21 c    1.558    19 c    1.317    64 h    0.972
    21   6 c    3.987 --    20 c    1.558    22 c    1.271    65 h    0.966
                            18 c    0.115
    22   6 c    3.977 --    21 c    1.271    23 c    1.260    17 c    1.239
    23   6 c    3.966 --     2 c    1.411    22 c    1.260    24 c    1.000
    24   6 c    3.966 --    25 c    1.410    46 c    1.261    23 c    1.000
    25   6 c    3.941 --    24 c    1.410    27 c    1.214    26 o    1.133
    26   8 o    2.305 --    25 c    1.133    66 h    0.964
    27   6 c    3.974 --    40 c    1.518    25 c    1.214    28 c    1.028
    28   6 c    3.974 --    39 c    1.416    29 c    1.366    27 c    1.028
    29   6 c    3.976 --    30 c    1.446    28 c    1.366    67 h    0.970
    30   6 c    3.987 --    29 c    1.446    31 c    1.439    68 h    0.972
    31   6 c    3.977 --    30 c    1.439    32 c    1.350    69 h    0.969
    32   6 c    3.942 --    31 c    1.350    39 c    1.332    33 o    1.123
    33   8 o    2.353 --    32 c    1.123    34 c    0.964
    34   6 c    3.954 --    38 c    0.994    35 c    0.985    70 h    0.973
                            33 o    0.964
    35   6 c    3.988 --    36 c    1.008    34 c    0.985    71 h    0.980
                            72 h    0.975
    36   6 c    3.990 --    37 c    1.011    35 c    1.008    73 h    0.980
                            74 h    0.979
    37   6 c    3.991 --    38 c    1.011    36 c    1.011    76 h    0.979
                            75 h    0.978
    38   6 c    3.990 --    37 c    1.011    34 c    0.994    77 h    0.976
                            78 h    0.974
    39   6 c    3.976 --    28 c    1.416    32 c    1.332    79 h    0.964
    40   6 c    3.984 --    27 c    1.518    41 c    1.274    80 h    0.965
    41   6 c    3.978 --    42 c    1.279    40 c    1.274    46 c    1.239
    42   6 c    3.980 --    43 c    1.553    41 c    1.279    81 h    0.969
                            45 c    0.115
    43   6 c    3.975 --    42 c    1.553    44 c    1.317    82 h    0.973
    44   6 c    3.983 --    45 c    1.558    43 c    1.317    83 h    0.972
    45   6 c    3.987 --    44 c    1.558    46 c    1.271    84 h    0.966
                            42 c    0.115
    46   6 c    3.978 --    45 c    1.271    24 c    1.261    41 c    1.239
    47   1 h    0.988 --     1 o    0.965
    48   1 h    0.980 --     5 c    0.970
    49   1 h    0.983 --     6 c    0.972
    50   1 h    0.970 --     7 c    0.965
    51   1 h    1.002 --    10 c    0.973
    52   1 h    0.984 --    11 c    0.978
    53   1 h    0.979 --    11 c    0.971
    54   1 h    0.981 --    12 c    0.978
    55   1 h    0.983 --    12 c    0.979
    56   1 h    0.985 --    13 c    0.980
    57   1 h    0.981 --    13 c    0.977
    58   1 h    0.983 --    14 c    0.976
    59   1 h    0.985 --    14 c    0.980
    60   1 h    0.985 --    15 c    0.964
    61   1 h    0.974 --    16 c    0.965
    62   1 h    0.978 --    18 c    0.969
    63   1 h    0.983 --    19 c    0.973
    64   1 h    0.984 --    20 c    0.972
    65   1 h    0.980 --    21 c    0.966
    66   1 h    0.989 --    26 o    0.964
    67   1 h    0.980 --    29 c    0.970
    68   1 h    0.983 --    30 c    0.972
    69   1 h    0.974 --    31 c    0.969
    70   1 h    0.983 --    34 c    0.973
    71   1 h    0.982 --    35 c    0.980
    72   1 h    0.988 --    35 c    0.975
    73   1 h    0.984 --    36 c    0.980
    74   1 h    0.981 --    36 c    0.979
    75   1 h    0.981 --    37 c    0.978
    76   1 h    0.983 --    37 c    0.979
    77   1 h    0.980 --    38 c    0.976
    78   1 h    0.990 --    38 c    0.974
    79   1 h    0.985 --    39 c    0.964
    80   1 h    0.974 --    40 c    0.965
    81   1 h    0.978 --    42 c    0.969
    82   1 h    0.983 --    43 c    0.973
    83   1 h    0.984 --    44 c    0.972
    84   1 h    0.980 --    45 c    0.966
 ---------------------------------------------------------------------------

Topologies differ in total number of bonds
Writing topology from bond orders to xtbtopo.mol

 dipole moment from electron density (au)
     X       Y       Z   
  -0.1046   2.4894  -0.4683  total (Debye):    6.444


           -------------------------------------------------
          | TOTAL ENERGY             -122.611141736001 Eh   |
          | GRADIENT NORM               0.053815461587 Eh/α |
          | HOMO-LUMO GAP               2.359458111459 eV   |
           -------------------------------------------------

------------------------------------------------------------------------
 * finished run on 2025/01/21 at 11:35:57.983     
------------------------------------------------------------------------
 total:
 * wall-time:     0 d,  0 h,  0 min,  0.138 sec
 *  cpu-time:     0 d,  0 h,  0 min,  3.117 sec
 * ratio c/w:    22.615 speedup
 SCF:
 * wall-time:     0 d,  0 h,  0 min,  0.044 sec
 *  cpu-time:     0 d,  0 h,  0 min,  1.074 sec
 * ratio c/w:    24.181 speedup

 Calculating WBOs... done.
      -----------------------------------------------------------      
     |                   =====================                   |     
     |                           x T B                           |     
     |                   =====================                   |     
     |                         S. Grimme                         |     
     |          Mulliken Center for Theoretical Chemistry        |     
     |                    University of Bonn                     |     
      -----------------------------------------------------------      

   * xtb version 6.4.1 (afa7bdf) compiled by 'ehlert@majestix' on 2021-06-10

   xtb is free software: you can redistribute it and/or modify it under
   the terms of the GNU Lesser General Public License as published by
   the Free Software Foundation, either version 3 of the License, or
   (at your option) any later version.
   
   xtb is distributed in the hope that it will be useful,
   but WITHOUT ANY WARRANTY; without even the implied warranty of
   MERCHANTABILITY or FITNESS FOR A PARTICULAR PURPOSE.  See the
   GNU Lesser General Public License for more details.
   
   Cite this work as:
   * C. Bannwarth, E. Caldeweyher, S. Ehlert, A. Hansen, P. Pracht,
     J. Seibert, S. Spicher, S. Grimme, WIREs Comput. Mol. Sci., 2020, 11,
     e01493. DOI: 10.1002/wcms.1493
   
   for GFN2-xTB:
   * C. Bannwarth, S. Ehlert and S. Grimme., J. Chem. Theory Comput., 2019,
     15, 1652-1671. DOI: 10.1021/acs.jctc.8b01176
   for GFN1-xTB:
   * S. Grimme, C. Bannwarth, P. Shushkov, J. Chem. Theory Comput., 2017,
     13, 1989-2009. DOI: 10.1021/acs.jctc.7b00118
   for GFN0-xTB:
   * P. Pracht, E. Caldeweyher, S. Ehlert, S. Grimme, ChemRxiv, 2019, preprint.
     DOI: 10.26434/chemrxiv.8326202.v1
   for GFN-FF:
   * S. Spicher and S. Grimme, Angew. Chem. Int. Ed., 2020, 59, 15665-15673.
     DOI: 10.1002/anie.202004239
   
   for DFT-D4:
   * E. Caldeweyher, C. Bannwarth and S. Grimme, J. Chem. Phys., 2017,
     147, 034112. DOI: 10.1063/1.4993215
   * E. Caldeweyher, S. Ehlert, A. Hansen, H. Neugebauer, S. Spicher,
     C. Bannwarth and S. Grimme, J. Chem. Phys., 2019, 150, 154122.
     DOI: 10.1063/1.5090222
   * E. Caldeweyher, J.-M. Mewes, S. Ehlert and S. Grimme, Phys. Chem. Chem. Phys.
     2020, 22, 8499-8512. DOI: 10.1039/D0CP00502A
   
   for sTDA-xTB:
   * S. Grimme and C. Bannwarth, J. Chem. Phys., 2016, 145, 054103.
     DOI: 10.1063/1.4959605
   
   in the mass-spec context:
   * V. Asgeirsson, C. Bauer and S. Grimme, Chem. Sci., 2017, 8, 4879.
     DOI: 10.1039/c7sc00601b
   * J. Koopman and S. Grimme, ACS Omega 2019, 4, 12, 15120-15133.
     DOI: 10.1021/acsomega.9b02011
   
   for metadynamics refer to:
   * S. Grimme, J. Chem. Theory Comput., 2019, 155, 2847-2862
     DOI: 10.1021/acs.jctc.9b00143
   
   for SPH calculations refer to:
   * S. Spicher and S. Grimme, J. Chem. Theory Comput., 2021, 17, 1701-1714
     DOI: 10.1021/acs.jctc.0c01306
   
   with help from (in alphabetical order)
   P. Atkinson, C. Bannwarth, F. Bohle, G. Brandenburg, E. Caldeweyher
   M. Checinski, S. Dohm, S. Ehlert, S. Ehrlich, I. Gerasimov, J. Koopman
   C. Lavigne, S. Lehtola, F. März, M. Müller, F. Musil, H. Neugebauer
   J. Pisarek, C. Plett, P. Pracht, J. Seibert, P. Shushkov, S. Spicher
   M. Stahn, M. Steiner, T. Strunk, J. Stückrath, T. Rose, and J. Unsleber
   
 * started run on 2025/01/21 at 11:35:58.025     

           -------------------------------------------------
          |                Calculation Setup                |
           -------------------------------------------------

          program call               : xtb tmpcoord --gfnff --sp
          hostname                   : node27
          coordinate file            : tmpcoord
          omp threads                :                    28
          number of atoms            :                    84
          number of electrons        :                   230
          charge                     :                     0
          spin                       :                   0.0
          first test random number   :      0.66370408116600

   ID    Z sym.   atoms
    1    8 o      1, 9, 26, 33
    2    6 c      2-8, 10-25, 27-32, 34-46
    3    1 h      47-84
 
          ==================== Thresholds ====================
          CN  :   150.00000
          rep :   500.00000
          disp:  2500.00000
          HB1 :   250.00000
          HB2 :   450.00000
 
          Pauling EN used:
          Z : 1  EN :  2.20
          Z : 6  EN :  2.55
          Z : 8  EN :  3.44
          electric field strengths (au): 0.000
 
           ------------------------------------------------- 
          |           Force Field Initialization            |
           ------------------------------------------------- 
 
          distances ...
          ----------------------------------------
          generating topology and atomic info file ...
          pair mat ...
          computing topology distances matrix with Floyd-Warshall algo ...
          making topology EEQ charges ...
          #fragments for EEQ constrain: 1
          ----------------------------------------
          generating topology and atomic info file ...
          pair mat ...
          computing topology distances matrix with Floyd-Warshall algo ...
          making topology EEQ charges ...
          #fragments for EEQ constrain: 1
          rings ...
          # BATM   992
          # H in HB   20
          doing iterative Hueckel for 1 subsystem(s) ...
 
  atom   neighbors  erfCN metchar sp-hybrid imet pi  qest     coordinates
    1  o       2    1.92   0.00         3    0    1  -0.456    2.608014   -0.646344   -1.273083
    2  c       3    2.82   0.00         2    0    1   0.116    2.579522   -1.810395    1.019725
    3  c       3    2.82   0.00         2    0    1  -0.024    4.339835   -1.168136    2.936449
    4  c       3    2.82   0.00         2    0    1   0.001    6.334771    0.720895    2.461482
    5  c       3    2.82   0.00         2    0    1  -0.039    6.663810    2.743120    4.118053
    6  c       3    2.81   0.00         2    0    1  -0.000    8.551633    4.483736    3.671943
    7  c       3    2.81   0.00         2    0    1  -0.050   10.145752    4.264655    1.604285
    8  c       3    2.82   0.00         2    0    1   0.110    9.854960    2.248863   -0.056456
    9  o       2    1.92   0.00         3    0    1  -0.367   11.239924    1.754989   -2.166758
   10  c       4    3.50   0.00         3    0    0   0.069   13.444378    3.099356   -2.844410
   11  c       4    3.50   0.00         3    0    0  -0.008   15.621442    2.972775   -0.921863
   12  c       4    3.50   0.00         3    0    0  -0.051   17.176027    5.328855   -1.504775
   13  c       4    3.50   0.00         3    0    0  -0.051   15.184152    7.348331   -2.062122
   14  c       4    3.49   0.00         3    0    0  -0.008   13.075147    5.934926   -3.462416
   15  c       3    2.82   0.00         2    0    1  -0.032    7.932314    0.495337    0.393163
   16  c       3    2.82   0.00         2    0    1  -0.016    4.156359   -2.305429    5.260620
   17  c       3    2.83   0.00         2    0    1  -0.023    2.306531   -4.142296    5.774159
   18  c       3    2.81   0.00         2    0    1  -0.030    2.127379   -5.336513    8.150305
   19  c       3    2.81   0.00         2    0    1  -0.013    0.325956   -7.131573    8.593473
   20  c       3    2.81   0.00         2    0    1  -0.047   -1.365668   -7.821621    6.670189
   21  c       3    2.81   0.00         2    0    1  -0.029   -1.241656   -6.698794    4.348373
   22  c       3    2.83   0.00         2    0    1   0.012    0.578213   -4.818267    3.838358
   23  c       3    2.82   0.00         2    0    1  -0.000    0.736523   -3.601203    1.465874
   24  c       3    2.82   0.00         2    0    1  -0.000   -1.115050   -4.176626   -0.553761
   25  c       3    2.82   0.00         2    0    1   0.116   -3.504280   -3.143581   -0.386734
   26  o       2    1.92   0.00         3    0    1  -0.456   -4.055481   -1.696446    1.666441
   27  c       3    2.82   0.00         2    0    1  -0.024   -5.336099   -3.643557   -2.278710
   28  c       3    2.82   0.00         2    0    1   0.001   -7.903806   -2.576947   -2.065670
   29  c       3    2.82   0.00         2    0    1  -0.039  -10.003011   -4.164238   -2.189552
   30  c       3    2.81   0.00         2    0    1  -0.000  -12.399732   -3.167289   -1.944074
   31  c       3    2.81   0.00         2    0    1  -0.050  -12.767472   -0.602004   -1.566052
   32  c       3    2.82   0.00         2    0    1   0.110  -10.692602    1.007780   -1.466559
   33  o       2    1.92   0.00         3    0    1  -0.367  -10.787630    3.551105   -1.146142
   34  c       4    3.50   0.00         3    0    0   0.069  -13.148595    4.764892   -0.781315
   35  c       4    3.50   0.00         3    0    0  -0.008  -14.266581    4.218270    1.861976
   36  c       4    3.50   0.00         3    0    0  -0.051  -14.435916    6.777372    3.204377
   37  c       4    3.50   0.00         3    0    0  -0.051  -12.391533    8.363426    1.934673
   38  c       4    3.50   0.00         3    0    0  -0.008  -12.645870    7.622024   -0.839129
   39  c       3    2.82   0.00         2    0    1  -0.032   -8.267723   -0.001791   -1.717307
   40  c       3    2.82   0.00         2    0    1  -0.016   -4.711088   -5.174026   -4.276988
   41  c       3    2.83   0.00         2    0    1  -0.023   -2.286939   -6.236496   -4.515770
   42  c       3    2.81   0.00         2    0    1  -0.030   -1.629126   -7.796603   -6.574432
   43  c       3    2.81   0.00         2    0    1  -0.013    0.731736   -8.825706   -6.750374
   44  c       3    2.81   0.00         2    0    1  -0.047    2.535664   -8.347309   -4.865109
   45  c       3    2.81   0.00         2    0    1  -0.029    1.957009   -6.844184   -2.847014
   46  c       3    2.83   0.00         2    0    1   0.012   -0.456422   -5.733928   -2.620749
   47  h       1    0.97   0.00         0    0    0   0.236    3.971082    0.571762   -1.315797
   48  h       1    0.97   0.00         0    0    0   0.065    5.424317    2.941423    5.724993
   49  h       1    0.97   0.00         0    0    0   0.025    8.804036    6.055822    4.950216
   50  h       1    0.97   0.00         0    0    0   0.047   11.591943    5.667267    1.331712
   51  h       1    0.97   0.00         0    0    0   0.045   14.022474    2.107556   -4.568707
   52  h       1    0.97   0.00         0    0    0   0.020   16.703059    1.233657   -1.120906
   53  h       1    0.97   0.00         0    0    0   0.020   14.880374    3.042936    0.998620
   54  h       1    0.97   0.00         0    0    0   0.036   18.331619    5.002070   -3.181441
   55  h       1    0.97   0.00         0    0    0   0.036   18.418499    5.856065    0.049008
   56  h       1    0.97   0.00         0    0    0   0.036   15.944539    8.897296   -3.183476
   57  h       1    0.97   0.00         0    0    0   0.036   14.486780    8.145104   -0.291679
   58  h       1    0.97   0.00         0    0    0   0.020   11.199138    6.567507   -2.899223
   59  h       1    0.97   0.00         0    0    0   0.020   13.236061    6.222480   -5.494475
   60  h       1    0.97   0.00         0    0    0   0.062    7.786686   -1.092172   -0.883056
   61  h       1    0.97   0.00         0    0    0   0.051    5.492820   -1.811703    6.724518
   62  h       1    0.97   0.00         0    0    0   0.055    3.447859   -4.802059    9.614894
   63  h       1    0.97   0.00         0    0    0   0.037    0.195416   -8.037172   10.418761
   64  h       1    0.97   0.00         0    0    0   0.053   -2.769378   -9.257147    7.042498
   65  h       1    0.97   0.00         0    0    0   0.036   -2.536340   -7.239431    2.866219
   66  h       1    0.97   0.01         0    0    0   0.236   -5.782652   -1.108053    1.541293
   67  h       1    0.97   0.00         0    0    0   0.065   -9.734360   -6.168887   -2.451503
   68  h       1    0.97   0.00         0    0    0   0.025  -14.025103   -4.398980   -2.032856
   69  h       1    0.97   0.00         0    0    0   0.047  -14.663858    0.112763   -1.361473
   70  h       1    0.97   0.01         0    0    0   0.045  -14.440811    4.206936   -2.305705
   71  h       1    0.97   0.00         0    0    0   0.020  -16.101497    3.292318    1.751833
   72  h       1    0.97   0.00         0    0    0   0.020  -12.976210    2.965963    2.870671
   73  h       1    0.97   0.00         0    0    0   0.036  -14.162626    6.602993    5.235426
   74  h       1    0.97   0.00         0    0    0   0.036  -16.283045    7.629508    2.869870
   75  h       1    0.97   0.00         0    0    0   0.036  -10.533643    7.812523    2.634094
   76  h       1    0.97   0.00         0    0    0   0.036  -12.644233   10.381993    2.239108
   77  h       1    0.97   0.00         0    0    0   0.020  -14.250672    8.590977   -1.692912
   78  h       1    0.97   0.00         0    0    0   0.020  -10.956697    8.027507   -1.938297
   79  h       1    0.97   0.00         0    0    0   0.062   -6.689623    1.293848   -1.712478
   80  h       1    0.97   0.00         0    0    0   0.051   -6.102713   -5.547263   -5.725129
   81  h       1    0.97   0.00         0    0    0   0.055   -3.034744   -8.162923   -8.011116
   82  h       1    0.97   0.00         0    0    0   0.037    1.224759  -10.017464   -8.333196
   83  h       1    0.97   0.00         0    0    0   0.053    4.390888   -9.185498   -5.022800
   84  h       1    0.97   0.00         0    0    0   0.036    3.340330   -6.488551   -1.389185
 
          #atoms :   84
          #bonds :   91
          #angl  :   160
          #tors  :   284
          #nmol  :   1
          #optfrag :   1
           ------------------------------------------------- 
          |                   G F N - F F                   |
          |          A general generic force-field          |
          |                  Version 1.0.3                  | 
           ------------------------------------------------- 
          nhb123   4350 466 0

 E+G (total)                   0 d,  0 h,  0 min,  0.004 sec
 distance/D3 list               ...        0 min,  0.000 sec (  0.743%)
 non bonded repulsion           ...        0 min,  0.000 sec (  6.729%)
 dCN                            ...        0 min,  0.000 sec (  6.286%)
 EEQ energy and q               ...        0 min,  0.001 sec ( 12.614%)
 D3                             ...        0 min,  0.001 sec ( 14.171%)
 EEQ gradient                   ...        0 min,  0.000 sec (  8.262%)
 bonds                          ...        0 min,  0.000 sec (  9.501%)
 bend and torsion               ...        0 min,  0.001 sec ( 12.614%)
 bonded ATM                     ...        0 min,  0.000 sec (  1.162%)
 HB/XB (incl list setup)        ...        0 min,  0.001 sec ( 22.805%)

         :::::::::::::::::::::::::::::::::::::::::::::::::::::
         ::                     SUMMARY                     ::
         :::::::::::::::::::::::::::::::::::::::::::::::::::::
         :: total energy             -16.362435135582 Eh    ::
         :: gradient norm              0.075848514967 Eh/a0 ::
         ::.................................................::
         :: bond energy              -17.302676206032 Eh    ::
         :: angle energy               0.032260031669 Eh    ::
         :: torsion energy             0.042241444807 Eh    ::
         :: repulsion energy           1.193398802609 Eh    ::
         :: electrostat energy        -0.230500308043 Eh    ::
         :: dispersion energy         -0.083294352787 Eh    ::
         :: HB energy                 -0.001552041064 Eh    ::
         :: XB energy                  0.000000000000 Eh    ::
         :: bonded atm energy         -0.012312506742 Eh    ::
         :: external energy            0.000000000000 Eh    ::
         :: add. restraining           0.000000000000 Eh    ::
         :: total charge              -0.000000000000 e     ::
         :::::::::::::::::::::::::::::::::::::::::::::::::::::

           -------------------------------------------------
          |                Property Printout                |
           -------------------------------------------------

           -------------------------------------------------
          | TOTAL ENERGY              -16.362435135582 Eh   |
          | GRADIENT NORM               0.075848514967 Eh/α |
           -------------------------------------------------

------------------------------------------------------------------------
 * finished run on 2025/01/21 at 11:35:58.065     
------------------------------------------------------------------------
 total:
 * wall-time:     0 d,  0 h,  0 min,  0.039 sec
 *  cpu-time:     0 d,  0 h,  0 min,  0.624 sec
 * ratio c/w:    15.821 speedup
 SCF:
 * wall-time:     0 d,  0 h,  0 min,  0.007 sec
 *  cpu-time:     0 d,  0 h,  0 min,  0.157 sec
 * ratio c/w:    23.819 speedup

 Calculating NCI flexibility... done.
     covalent flexibility measure :   0.179
 non-covalent flexibility measure :   1.000
 flexibility measure :   0.301
 t(MTD) / ps set by command line  :     0.5
 t(MTD) / ps    :     0.5
 Σ(t(MTD)) / ps :     7.0 (14 MTDs)
 
-------------------------------------
Starting a trial MTD to test settings
-------------------------------------
 Estimated runtime for one MTD (0.5 ps) on a single thread: 3 min 23 sec
 Estimated runtime for a batch of 14 MTDs on 28 threads: 1 min 41 sec
 
 list of Vbias parameters applied:
$metadyn    0.00300   1.300
$metadyn    0.00150   1.300
$metadyn    0.00075   1.300
$metadyn    0.00300   0.780
$metadyn    0.00150   0.780
$metadyn    0.00075   0.780
$metadyn    0.00300   0.468
$metadyn    0.00150   0.468
$metadyn    0.00075   0.468
$metadyn    0.00300   0.281
$metadyn    0.00150   0.281
$metadyn    0.00075   0.281
$metadyn    0.00100   0.100
$metadyn    0.00500   0.800
 
*******************************************************************************************
**                        N E W    I T E R A T I O N    C Y C L E                        **
*******************************************************************************************
 
========================================
            MTD Iteration  1
========================================
 
     ========================================
     |         Meta-MD (MTD) Sampling       |
     ========================================
 
Starting Meta-MD   1 with the settings:
     MD time /ps        :     0.5
     dt /fs             :     1.5
     dumpstep(trj) /fs  :     100
     dumpstep(Vbias)/ps :     1.0
     Vbias factor k /Eh :  0.2520
     Vbias exp α /bohr⁻²:    1.30
Starting Meta-MD   5 with the settings:
     MD time /ps        :     0.5
     dt /fs             :     1.5
     dumpstep(trj) /fs  :     100
     dumpstep(Vbias)/ps :     1.0
     Vbias factor k /Eh :  0.1260
     Vbias exp α /bohr⁻²:    0.78
Starting Meta-MD   7 with the settings:
     MD time /ps        :     0.5
     dt /fs             :     1.5
     dumpstep(trj) /fs  :     100
     dumpstep(Vbias)/ps :     1.0
     Vbias factor k /Eh :  0.2520
     Vbias exp α /bohr⁻²:    0.47
Starting Meta-MD   2 with the settings:
     MD time /ps        :     0.5
     dt /fs             :     1.5
     dumpstep(trj) /fs  :     100
     dumpstep(Vbias)/ps :     1.0
     Vbias factor k /Eh :  0.1260
     Vbias exp α /bohr⁻²:    1.30
Starting Meta-MD  14 with the settings:
     MD time /ps        :     0.5
     dt /fs             :     1.5
     dumpstep(trj) /fs  :     100
     dumpstep(Vbias)/ps :     1.0
     Vbias factor k /Eh :  0.4200
     Vbias exp α /bohr⁻²:    0.80
Starting Meta-MD   8 with the settings:
     MD time /ps        :     0.5
     dt /fs             :     1.5
     dumpstep(trj) /fs  :     100
     dumpstep(Vbias)/ps :     1.0
     Vbias factor k /Eh :  0.1260
     Vbias exp α /bohr⁻²:    0.47
Starting Meta-MD   9 with the settings:
     MD time /ps        :     0.5
     dt /fs             :     1.5
     dumpstep(trj) /fs  :     100
     dumpstep(Vbias)/ps :     1.0
     Vbias factor k /Eh :  0.0630
     Vbias exp α /bohr⁻²:    0.47
Starting Meta-MD   4 with the settings:
     MD time /ps        :     0.5
     dt /fs             :     1.5
     dumpstep(trj) /fs  :     100
     dumpstep(Vbias)/ps :     1.0
     Vbias factor k /Eh :  0.2520
     Vbias exp α /bohr⁻²:    0.78
Starting Meta-MD  12 with the settings:
     MD time /ps        :     0.5
     dt /fs             :     1.5
     dumpstep(trj) /fs  :     100
     dumpstep(Vbias)/ps :     1.0
     Vbias factor k /Eh :  0.0630
     Vbias exp α /bohr⁻²:    0.28
Starting Meta-MD   3 with the settings:
     MD time /ps        :     0.5
     dt /fs             :     1.5
     dumpstep(trj) /fs  :     100
     dumpstep(Vbias)/ps :     1.0
     Vbias factor k /Eh :  0.0630
     Vbias exp α /bohr⁻²:    1.30
Starting Meta-MD  13 with the settings:
     MD time /ps        :     0.5
     dt /fs             :     1.5
     dumpstep(trj) /fs  :     100
     dumpstep(Vbias)/ps :     1.0
     Vbias factor k /Eh :  0.0840
     Vbias exp α /bohr⁻²:    0.10
Starting Meta-MD   6 with the settings:
     MD time /ps        :     0.5
     dt /fs             :     1.5
     dumpstep(trj) /fs  :     100
     dumpstep(Vbias)/ps :     1.0
     Vbias factor k /Eh :  0.0630
     Vbias exp α /bohr⁻²:    0.78
Starting Meta-MD  11 with the settings:
     MD time /ps        :     0.5
     dt /fs             :     1.5
     dumpstep(trj) /fs  :     100
     dumpstep(Vbias)/ps :     1.0
     Vbias factor k /Eh :  0.1260
     Vbias exp α /bohr⁻²:    0.28
Starting Meta-MD  10 with the settings:
     MD time /ps        :     0.5
     dt /fs             :     1.5
     dumpstep(trj) /fs  :     100
     dumpstep(Vbias)/ps :     1.0
     Vbias factor k /Eh :  0.2520
     Vbias exp α /bohr⁻²:    0.28
*Meta-MTD 10 finished*
*Meta-MTD 5 finished*
*Meta-MTD 12 finished*
*Meta-MTD 3 finished*
*Meta-MTD 4 finished*
*Meta-MTD 8 finished*
*Meta-MTD 2 finished*
*Meta-MTD 14 finished*
*Meta-MTD 1 finished*
*Meta-MTD 13 finished*
*Meta-MTD 6 finished*
*Meta-MTD 7 finished*
*Meta-MTD 11 finished*
*Meta-MTD 9 finished*
 
-----------------------
Multilevel Optimization
-----------------------
 
 -------------------------
 1. crude pre-optimization
 -------------------------
 Optimizing all 70 structures from file "crest_rotamers_0.xyz" ...
 1 2 3 4 5 6 7 8 9 10 11 12 13 14 15 16 17 18 19 20 21 22 23 24 25 26 27 28 29 30 31 32 33 34 35 36 37 38 39 40 41 42 43 44 45 46 47 48 49 50 51 52 53 54 55 56 57 58 59 60 61 62 63 64 65 66 67 68 69 70
 done.
 running RMSDs...
 done.
 E lowest :  -125.64384
 60 structures remain within    12.00 kcal/mol window
 
 -------------------------------------
 2. optimization with tight thresholds
 -------------------------------------
 Optimizing all 61 structures from file "crest_rotamers_1.xyz" ...
 1 2 3 4 5 6 7 8 9 10 11 12 13 14 15 16 17 18 19 20 21 22 23 24 25 26 27 28 29 30 31 32 33 34 35 36 37 38 39 40 41 42 43 44 45 46 47 48 49 50 51 52 53 54 55 56 57 58 59 60 61
 done.
 running RMSDs...
 done.
 E lowest :  -125.64782
 26 structures remain within     6.00 kcal/mol window
 
 
========================================
            MTD Iteration  2
========================================
 
     ========================================
     |         Meta-MD (MTD) Sampling       |
     ========================================
 
Starting Meta-MD   1 with the settings:
     MD time /ps        :     0.5
     dt /fs             :     1.5
     dumpstep(trj) /fs  :     100
     dumpstep(Vbias)/ps :     1.0
     Vbias factor k /Eh :  0.2520
     Vbias exp α /bohr⁻²:    1.30
Starting Meta-MD   2 with the settings:
     MD time /ps        :     0.5
     dt /fs             :     1.5
     dumpstep(trj) /fs  :     100
     dumpstep(Vbias)/ps :     1.0
     Vbias factor k /Eh :  0.1260
     Vbias exp α /bohr⁻²:    1.30
Starting Meta-MD   3 with the settings:
     MD time /ps        :     0.5
     dt /fs             :     1.5
     dumpstep(trj) /fs  :     100
     dumpstep(Vbias)/ps :     1.0
     Vbias factor k /Eh :  0.0630
     Vbias exp α /bohr⁻²:    1.30
Starting Meta-MD   4 with the settings:
     MD time /ps        :     0.5
     dt /fs             :     1.5
     dumpstep(trj) /fs  :     100
     dumpstep(Vbias)/ps :     1.0
     Vbias factor k /Eh :  0.2520
     Vbias exp α /bohr⁻²:    0.78
Starting Meta-MD   5 with the settings:
     MD time /ps        :     0.5
     dt /fs             :     1.5
     dumpstep(trj) /fs  :     100
     dumpstep(Vbias)/ps :     1.0
     Vbias factor k /Eh :  0.1260
     Vbias exp α /bohr⁻²:    0.78
Starting Meta-MD   6 with the settings:
     MD time /ps        :     0.5
     dt /fs             :     1.5
     dumpstep(trj) /fs  :     100
     dumpstep(Vbias)/ps :     1.0
     Vbias factor k /Eh :  0.0630
     Vbias exp α /bohr⁻²:    0.78
Starting Meta-MD   7 with the settings:
     MD time /ps        :     0.5
     dt /fs             :     1.5
     dumpstep(trj) /fs  :     100
     dumpstep(Vbias)/ps :     1.0
     Vbias factor k /Eh :  0.2520
     Vbias exp α /bohr⁻²:    0.47
Starting Meta-MD   8 with the settings:
     MD time /ps        :     0.5
     dt /fs             :     1.5
     dumpstep(trj) /fs  :     100
     dumpstep(Vbias)/ps :     1.0
     Vbias factor k /Eh :  0.1260
     Vbias exp α /bohr⁻²:    0.47
Starting Meta-MD   9 with the settings:
     MD time /ps        :     0.5
     dt /fs             :     1.5
     dumpstep(trj) /fs  :     100
     dumpstep(Vbias)/ps :     1.0
     Vbias factor k /Eh :  0.0630
     Vbias exp α /bohr⁻²:    0.47
Starting Meta-MD  10 with the settings:
     MD time /ps        :     0.5
     dt /fs             :     1.5
     dumpstep(trj) /fs  :     100
     dumpstep(Vbias)/ps :     1.0
     Vbias factor k /Eh :  0.2520
     Vbias exp α /bohr⁻²:    0.28
Starting Meta-MD  11 with the settings:
     MD time /ps        :     0.5
     dt /fs             :     1.5
     dumpstep(trj) /fs  :     100
     dumpstep(Vbias)/ps :     1.0
     Vbias factor k /Eh :  0.1260
     Vbias exp α /bohr⁻²:    0.28
Starting Meta-MD  12 with the settings:
     MD time /ps        :     0.5
     dt /fs             :     1.5
     dumpstep(trj) /fs  :     100
     dumpstep(Vbias)/ps :     1.0
     Vbias factor k /Eh :  0.0630
     Vbias exp α /bohr⁻²:    0.28
*Meta-MTD 1 finished*
*Meta-MTD 5 finished*
*Meta-MTD 2 finished*
*Meta-MTD 11 finished*
*Meta-MTD 4 finished*
*Meta-MTD 7 finished*
*Meta-MTD 3 finished*
*Meta-MTD 12 finished*
*Meta-MTD 9 finished*
*Meta-MTD 6 finished*
*Meta-MTD 10 finished*
*Meta-MTD 8 finished*
 
-----------------------
Multilevel Optimization
-----------------------
 
 -------------------------
 1. crude pre-optimization
 -------------------------
 Optimizing all 60 structures from file "crest_rotamers_0.xyz" ...
 1 2 3 4 5 6 7 8 9 10 11 12 13 14 15 16 17 18 19 20 21 22 23 24 25 26 27 28 29 30 31 32 33 34 35 36 37 38 39 40 41 42 43 44 45 46 47 48 49 50 51 52 53 54 55 56 57 58 59 60
 done.
 running RMSDs...
 done.
 E lowest :  -125.64696
 52 structures remain within    12.00 kcal/mol window
 
 -------------------------------------
 2. optimization with tight thresholds
 -------------------------------------
 Optimizing all 53 structures from file "crest_rotamers_1.xyz" ...
 1 2 3 4 5 6 7 8 9 10 11 12 13 14 15 16 17 18 19 20 21 22 23 24 25 26 27 28 29 30 31 32 33 34 35 36 37 38 39 40 41 42 43 44 45 46 47 48 49 50 51 52 53
 done.
 running RMSDs...
 done.
 E lowest :  -125.64867
 19 structures remain within     6.00 kcal/mol window
 
 ...............................................
 A new lower conformer was found!
 Improved by    0.00085 Eh or    0.53562kcal/mol
 ...............................................
 
========================================
            MTD Iteration  3
========================================
 
     ========================================
     |         Meta-MD (MTD) Sampling       |
     ========================================
 
Starting Meta-MD   1 with the settings:
     MD time /ps        :     0.5
     dt /fs             :     1.5
     dumpstep(trj) /fs  :     100
     dumpstep(Vbias)/ps :     1.0
     Vbias factor k /Eh :  0.2520
     Vbias exp α /bohr⁻²:    1.30
Starting Meta-MD   2 with the settings:
     MD time /ps        :     0.5
     dt /fs             :     1.5
     dumpstep(trj) /fs  :     100
     dumpstep(Vbias)/ps :     1.0
     Vbias factor k /Eh :  0.1260
     Vbias exp α /bohr⁻²:    1.30
Starting Meta-MD   3 with the settings:
     MD time /ps        :     0.5
     dt /fs             :     1.5
     dumpstep(trj) /fs  :     100
     dumpstep(Vbias)/ps :     1.0
     Vbias factor k /Eh :  0.0630
     Vbias exp α /bohr⁻²:    1.30
Starting Meta-MD   4 with the settings:
     MD time /ps        :     0.5
     dt /fs             :     1.5
     dumpstep(trj) /fs  :     100
     dumpstep(Vbias)/ps :     1.0
     Vbias factor k /Eh :  0.2520
     Vbias exp α /bohr⁻²:    0.78
Starting Meta-MD   5 with the settings:
     MD time /ps        :     0.5
     dt /fs             :     1.5
     dumpstep(trj) /fs  :     100
     dumpstep(Vbias)/ps :     1.0
     Vbias factor k /Eh :  0.1260
     Vbias exp α /bohr⁻²:    0.78
Starting Meta-MD   6 with the settings:
     MD time /ps        :     0.5
     dt /fs             :     1.5
     dumpstep(trj) /fs  :     100
     dumpstep(Vbias)/ps :     1.0
     Vbias factor k /Eh :  0.0630
     Vbias exp α /bohr⁻²:    0.78
Starting Meta-MD   7 with the settings:
     MD time /ps        :     0.5
     dt /fs             :     1.5
     dumpstep(trj) /fs  :     100
     dumpstep(Vbias)/ps :     1.0
     Vbias factor k /Eh :  0.2520
     Vbias exp α /bohr⁻²:    0.47
Starting Meta-MD   8 with the settings:
     MD time /ps        :     0.5
     dt /fs             :     1.5
     dumpstep(trj) /fs  :     100
     dumpstep(Vbias)/ps :     1.0
     Vbias factor k /Eh :  0.1260
     Vbias exp α /bohr⁻²:    0.47
Starting Meta-MD   9 with the settings:
     MD time /ps        :     0.5
     dt /fs             :     1.5
     dumpstep(trj) /fs  :     100
     dumpstep(Vbias)/ps :     1.0
     Vbias factor k /Eh :  0.0630
     Vbias exp α /bohr⁻²:    0.47
Starting Meta-MD  10 with the settings:
     MD time /ps        :     0.5
     dt /fs             :     1.5
     dumpstep(trj) /fs  :     100
     dumpstep(Vbias)/ps :     1.0
     Vbias factor k /Eh :  0.2520
     Vbias exp α /bohr⁻²:    0.28
Starting Meta-MD  11 with the settings:
     MD time /ps        :     0.5
     dt /fs             :     1.5
     dumpstep(trj) /fs  :     100
     dumpstep(Vbias)/ps :     1.0
     Vbias factor k /Eh :  0.1260
     Vbias exp α /bohr⁻²:    0.28
Starting Meta-MD  12 with the settings:
     MD time /ps        :     0.5
     dt /fs             :     1.5
     dumpstep(trj) /fs  :     100
     dumpstep(Vbias)/ps :     1.0
     Vbias factor k /Eh :  0.0630
     Vbias exp α /bohr⁻²:    0.28
*Meta-MTD 3 finished*
*Meta-MTD 11 finished*
*Meta-MTD 1 finished*
*Meta-MTD 6 finished*
*Meta-MTD 2 finished*
*Meta-MTD 5 finished*
*Meta-MTD 7 finished*
*Meta-MTD 9 finished*
*Meta-MTD 8 finished*
*Meta-MTD 12 finished*
*Meta-MTD 10 finished*
*Meta-MTD 4 finished*
 
-----------------------
Multilevel Optimization
-----------------------
 
 -------------------------
 1. crude pre-optimization
 -------------------------
 Optimizing all 60 structures from file "crest_rotamers_0.xyz" ...
 1 2 3 4 5 6 7 8 9 10 11 12 13 14 15 16 17 18 19 20 21 22 23 24 25 26 27 28 29 30 31 32 33 34 35 36 37 38 39 40 41 42 43 44 45 46 47 48 49 50 51 52 53 54 55 56 57 58 59 60
 done.
 running RMSDs...
 done.
 E lowest :  -125.64746
 52 structures remain within    12.00 kcal/mol window
 
 -------------------------------------
 2. optimization with tight thresholds
 -------------------------------------
 Optimizing all 53 structures from file "crest_rotamers_1.xyz" ...
 1 2 3 4 5 6 7 8 9 10 11 12 13 14 15 16 17 18 19 20 21 22 23 24 25 26 27 28 29 30 31 32 33 34 35 36 37 38 39 40 41 42 43 44 45 46 47 48 49 50 51 52 53
 done.
 running RMSDs...
 done.
 E lowest :  -125.64868
 27 structures remain within     6.00 kcal/mol window
 
========================================
            MTD Iterations done         
========================================
 Collecting ensmbles.
 running RMSDs...
 done.
 E lowest :  -125.64868
 65 structures remain within     6.00 kcal/mol window
 
 -------------------------------
 Additional orientation sampling
 -------------------------------
 Optimizing all 130 structures from file "oh_ensemble.xyz" ...
 1 2 3 4 5 6 7 8 9 10 11 12 13 14 15 16 17 18 19 20 21 22 23 24 25 26 27 28 29 30 31 32 33 34 35 36 37 38 39 40 41 42 43 44 45 46 47 48 49 50 51 52 53 54 55 56 57 58 59 60 61 62 63 64 65 66 67 68 69 70 71 72 73 74 75 76 77 78 79 80 81 82 83 84 85 86 87 88 89 90 91 92 93 94 95 96 97 98 99 100 101 102 103 104 105 106 107 108 109 110 111 112 113 114 115 116 117 118 119 120 121 122 123 124 125 126 127 128 129 130
 done.
 running RMSDs...
 done.
 E lowest :  -125.64868
 173 structures remain within     6.00 kcal/mol window
 
-----------------------------------------------
Additional regular MDs on lowest 4 conformer(s)
-----------------------------------------------
Starting MD   1 with the settings:
     MD time /ps        :     0.2
     MD Temperature /K  :   400.0
     dt /fs             :     1.5
     dumpstep(trj) /fs  :     100
Starting MD   2 with the settings:
     MD time /ps        :     0.2
     MD Temperature /K  :   500.0
     dt /fs             :     1.5
     dumpstep(trj) /fs  :     100
Starting MD   3 with the settings:
     MD time /ps        :     0.2
     MD Temperature /K  :   400.0
     dt /fs             :     1.5
     dumpstep(trj) /fs  :     100
Starting MD   4 with the settings:
     MD time /ps        :     0.2
     MD Temperature /K  :   500.0
     dt /fs             :     1.5
     dumpstep(trj) /fs  :     100
Starting MD   6 with the settings:
     MD time /ps        :     0.2
     MD Temperature /K  :   500.0
     dt /fs             :     1.5
     dumpstep(trj) /fs  :     100
Starting MD   5 with the settings:
     MD time /ps        :     0.2
     MD Temperature /K  :   400.0
     dt /fs             :     1.5
     dumpstep(trj) /fs  :     100
Starting MD   8 with the settings:
     MD time /ps        :     0.2
     MD Temperature /K  :   500.0
     dt /fs             :     1.5
     dumpstep(trj) /fs  :     100
Starting MD   7 with the settings:
     MD time /ps        :     0.2
     MD Temperature /K  :   400.0
     dt /fs             :     1.5
     dumpstep(trj) /fs  :     100
*MD 1 finished*
*MD 7 finished*
*MD 8 finished*
*MD 6 finished*
*MD 2 finished*
*MD 3 finished*
*MD 4 finished*
*MD 5 finished*
 Appending file crest_rotamers_2.xyz with new structures
 
 -------------------------------------------
 Ensemble optimization with tight thresholds
 -------------------------------------------
 Optimizing all 189 structures from file "crest_rotamers_2.xyz" ...
 1 2 3 4 5 6 7 8 9 10 11 12 13 14 15 16 17 18 19 20 21 22 23 24 25 26 27 28 29 30 31 32 33 34 35 36 37 38 39 40 41 42 43 44 45 46 47 48 49 50 51 52 53 54 55 56 57 58 59 60 61 62 63 64 65 66 67 68 69 70 71 72 73 74 75 76 77 78 79 80 81 82 83 84 85 86 87 88 89 90 91 92 93 94 95 96 97 98 99 100 101 102 103 104 105 106 107 108 109 110 111 112 113 114 115 116 117 118 119 120 121 122 123 124 125 126 127 128 129 130 131 132 133 134 135 136 137 138 139 140 141 142 143 144 145 146 147 148 149 150 151 152 153 154 155 156 157 158 159 160 161 162 163 164 165 166 167 168 169 170 171 172 173 174 175 176 177 178 179 180 181 182 183 184 185 186 187 188 189
 done.
 running RMSDs...
 done.
 E lowest :  -125.64868
 172 structures remain within     6.00 kcal/mol window
 
 
     ========================================
     |        Structure Crossing (GC)       |
     ========================================
 =============================
  # threads =          28
 =============================
 input  file name : crest_rotamers_4.xyz
number of atoms                :    84
number of points on xyz files  :   172
conformer energy window  /kcal :    6.00
CN per atom difference cut-off :  0.3000
RMSD threshold                 :  0.5000
max. # of generated structures : 25
 reading xyz file ...
 # in E window                172
 generating pairs ...       14877
  77.9 % done
 generated pairs           :         823
 number of clash discarded :       13883
 average rmsd w.r.t input  : 2.89543
 sd of ensemble            : 1.79059
 number of new structures      :          25
 removed identical structures  :          25
 writing           25  TMPCONF* dirs ...
 --------------------------
 GC: loose pre-optimization
 --------------------------
 Starting optimization of generated structures
 25 jobs to do.
 1 2 3 4 5 6 7 8 9 10 11 12 13 14 15 16 17 18 19 20 21 22 23 24 25 
 done.
 Now appending opt.xyz file with new structures
 running RMSDs...
 done.
 E lowest :  -125.64864
 25 structures remain within    10.00 kcal/mol window
 --------------------------------------
 GC: optimization with tight thresholds
 --------------------------------------
 Optimizing all 25 structures from file "crest_rotamers_1.xyz" ...
 1 2 3 4 5 6 7 8 9 10 11 12 13 14 15 16 17 18 19 20 21 22 23 24 25
 done.
 running RMSDs...
 done.
 E lowest :  -125.64868
 
 
   ================================================
   |           Final Geometry Optimization        |
   ================================================
 ------------------------------------------------
 Ensemble optimization with very tight thresholds
 ------------------------------------------------
 Optimizing all 195 structures from file "crest_rotamers_5.xyz" ...
 1 2 3 4 5 6 7 8 9 10 11 12 13 14 15 16 17 18 19 20 21 22 23 24 25 26 27 28 29 30 31 32 33 34 35 36 37 38 39 40 41 42 43 44 45 46 47 48 49 50 51 52 53 54 55 56 57 58 59 60 61 62 63 64 65 66 67 68 69 70 71 72 73 74 75 76 77 78 79 80 81 82 83 84 85 86 87 88 89 90 91 92 93 94 95 96 97 98 99 100 101 102 103 104 105 106 107 108 109 110 111 112 113 114 115 116 117 118 119 120 121 122 123 124 125 126 127 128 129 130 131 132 133 134 135 136 137 138 139 140 141 142 143 144 145 146 147 148 149 150 151 152 153 154 155 156 157 158 159 160 161 162 163 164 165 166 167 168 169 170 171 172 173 174 175 176 177 178 179 180 181 182 183 184 185 186 187 188 189 190 191 192 193 194 195
 done.
 running RMSDs...
 done.
 E lowest :  -125.64868
 195 structures remain within     6.00 kcal/mol window
 
 input  file name : crest_rotamers_6.xyz
 output file name : crest_rotamers_7.xyz
 number of atoms                :   84
 number of points on xyz files  :   195
 RMSD threshold                 :   0.2500
 Bconst threshold               :   0.0100
 population threshold           :   0.0500
 conformer energy window  /kcal :   6.0000
 # fragment in coord            :     1
 # bonds in reference structure :    91
   => # of C=C bonds :    10
 number of reliable points      :   195
 reference state Etot :  -125.648681660000
 number of doubles removed by rot/RMSD         :           0
 total number unique points considered further :         195
       Erel/kcal        Etot weight/tot  conformer     set   degen     origin
       1   0.000  -125.64868    0.02799    0.02799       1       1     mtd6
       2   0.015  -125.64866    0.02729    0.02729       2       1     md4
       3   0.098  -125.64853    0.02374    0.02374       3       1     mtd6
       4   0.104  -125.64852    0.02348    0.02348       4       1     hor
       5   0.167  -125.64842    0.02111    0.02111       5       1     hor
       6   0.179  -125.64840    0.02071    0.02071       6       1     hor
       7   0.209  -125.64835    0.01967    0.01967       7       1     gc
       8   0.221  -125.64833    0.01927    0.01927       8       1     hor
       9   0.228  -125.64832    0.01906    0.01906       9       1     mtd5
      10   0.233  -125.64831    0.01891    0.01891      10       1     hor
      11   0.268  -125.64826    0.01783    0.01783      11       1     hor
      12   0.291  -125.64822    0.01715    0.01715      12       1     mtd3
      13   0.305  -125.64820    0.01674    0.01674      13       1     mtd9
      14   0.314  -125.64818    0.01649    0.01649      14       1     hor
      15   0.314  -125.64818    0.01648    0.01648      15       1     gc
      16   0.321  -125.64817    0.01628    0.01628      16       1     hor
      17   0.322  -125.64817    0.01628    0.01628      17       1     md8
      18   0.344  -125.64813    0.01566    0.01566      18       1     mtd7
      19   0.373  -125.64809    0.01492    0.01492      19       1     hor
      20   0.378  -125.64808    0.01479    0.01479      20       1     hor
      21   0.379  -125.64808    0.01477    0.01477      21       1     hor
      22   0.381  -125.64807    0.01472    0.01472      22       1     gc
      23   0.400  -125.64804    0.01426    0.01426      23       1     mtd4
      24   0.421  -125.64801    0.01377    0.01377      24       1     hor
      25   0.439  -125.64798    0.01336    0.02630      25       2     hor
      26   0.457  -125.64795    0.01294                                hor
      27   0.458  -125.64795    0.01293    0.01293      26       1     hor
      28   0.464  -125.64794    0.01280    0.01280      27       1     hor
      29   0.471  -125.64793    0.01265    0.01265      28       1     hor
      30   0.476  -125.64792    0.01254    0.01254      29       1     gc
      31   0.479  -125.64792    0.01249    0.01249      30       1     hor
      32   0.487  -125.64791    0.01231    0.01231      31       1     hor
      33   0.445  -125.64797    0.01322    0.01322      32       1     hor
      34   0.491  -125.64790    0.01223    0.01223      33       1     gc
      35   0.521  -125.64785    0.01163    0.01163      34       1     mtd3
      36   0.527  -125.64784    0.01150    0.01150      35       1     hor
      37   0.528  -125.64784    0.01149    0.01149      36       1     hor
      38   0.554  -125.64780    0.01099    0.01099      37       1     mtd1
      39   0.609  -125.64771    0.01002    0.01002      38       1     hor
      40   0.618  -125.64770    0.00988    0.00988      39       1     hor
      41   0.622  -125.64769    0.00980    0.00980      40       1     hor
      42   0.659  -125.64763    0.00921    0.00921      41       1     hor
      43   0.674  -125.64761    0.00898    0.00898      42       1     hor
      44   0.680  -125.64760    0.00889    0.00889      43       1     hor
      45   0.698  -125.64757    0.00863    0.00863      44       1     mtd3
      46   0.714  -125.64754    0.00839    0.00839      45       1     hor
      47   0.718  -125.64754    0.00834    0.00834      46       1     hor
      48   0.729  -125.64752    0.00818    0.00818      47       1     mtd10
      49   0.741  -125.64750    0.00802    0.00802      48       1     hor
      50   0.756  -125.64748    0.00782    0.00782      49       1     hor
      51   0.770  -125.64745    0.00764    0.00764      50       1     hor
      52   0.786  -125.64743    0.00743    0.00743      51       1     hor
      53   0.790  -125.64742    0.00739    0.00739      52       1     mtd12
      54   0.818  -125.64738    0.00705    0.00705      53       1     hor
      55   0.821  -125.64737    0.00701    0.00701      54       1     hor
      56   0.840  -125.64734    0.00678    0.00678      55       1     gc
      57   0.843  -125.64734    0.00675    0.00675      56       1     hor
      58   0.847  -125.64733    0.00671    0.00671      57       1     mtd4
      59   0.850  -125.64733    0.00668    0.00668      58       1     gc
      60   0.870  -125.64730    0.00646    0.00646      59       1     hor
      61   0.876  -125.64729    0.00639    0.00639      60       1     gc
      62   0.893  -125.64726    0.00621    0.00621      61       1     gc
      63   0.952  -125.64716    0.00562    0.00562      62       1     hor
      64   0.957  -125.64716    0.00557    0.00557      63       1     hor
      65   0.972  -125.64713    0.00544    0.00544      64       1     hor
      66   0.981  -125.64712    0.00535    0.00535      65       1     mtd11
      67   0.986  -125.64711    0.00531    0.00531      66       1     hor
      68   1.005  -125.64708    0.00514    0.00514      67       1     gc
      69   1.010  -125.64707    0.00509    0.00509      68       1     hor
      70   1.011  -125.64707    0.00509    0.00509      69       1     gc
      71   1.025  -125.64705    0.00497    0.00497      70       1     hor
      72   1.032  -125.64704    0.00491    0.00491      71       1     mtd6
      73   1.032  -125.64704    0.00491    0.00491      72       1     mtd11
      74   1.057  -125.64700    0.00471    0.00471      73       1     mtd10
      75   1.083  -125.64696    0.00451    0.00451      74       1     mtd11
      76   1.087  -125.64695    0.00447    0.00887      75       2     hor
      77   1.097  -125.64693    0.00440                                mtd10
      78   1.095  -125.64694    0.00442    0.00442      76       1     mtd1
      79   1.099  -125.64693    0.00439    0.00439      77       1     mtd5
      80   1.114  -125.64691    0.00428    0.00428      78       1     hor
      81   1.117  -125.64690    0.00426    0.00426      79       1     hor
      82   1.143  -125.64686    0.00407    0.00407      80       1     mtd12
      83   1.157  -125.64684    0.00398    0.00398      81       1     hor
      84   1.161  -125.64683    0.00395    0.00395      82       1     hor
      85   1.204  -125.64676    0.00367    0.00367      83       1     hor
      86   1.209  -125.64676    0.00365    0.00365      84       1     hor
      87   1.230  -125.64672    0.00351    0.00351      85       1     gc
      88   1.242  -125.64670    0.00344    0.00344      86       1     mtd2
      89   1.262  -125.64667    0.00333    0.00333      87       1     gc
      90   1.272  -125.64665    0.00328    0.00328      88       1     gc
      91   1.283  -125.64664    0.00322    0.00322      89       1     mtd5
      92   1.286  -125.64663    0.00320    0.00320      90       1     mtd1
      93   1.293  -125.64662    0.00316    0.00316      91       1     mtd1
      94   1.293  -125.64662    0.00316    0.00316      92       1     gc
      95   1.338  -125.64655    0.00293    0.00293      93       1     mtd10
      96   1.339  -125.64655    0.00292    0.00292      94       1     mtd2
      97   1.340  -125.64655    0.00292    0.00292      95       1     hor
      98   1.346  -125.64654    0.00289    0.00289      96       1     hor
      99   1.364  -125.64651    0.00281    0.00281      97       1     hor
     100   1.396  -125.64646    0.00266    0.00266      98       1     mtd1
     101   1.396  -125.64646    0.00266    0.00266      99       1     hor
     102   1.411  -125.64643    0.00259    0.00259     100       1     hor
     103   1.435  -125.64639    0.00249    0.00249     101       1     mtd10
     104   1.443  -125.64638    0.00246    0.00246     102       1     hor
     105   1.451  -125.64637    0.00242    0.00242     103       1     hor
     106   1.463  -125.64635    0.00237    0.00237     104       1     mtd14
     107   1.475  -125.64633    0.00233    0.00233     105       1     hor
     108   1.498  -125.64629    0.00224    0.00224     106       1     mtd1
     109   1.571  -125.64618    0.00198    0.00198     107       1     mtd14
     110   1.582  -125.64616    0.00194    0.00381     108       2     hor
     111   1.605  -125.64612    0.00187                                hor
     112   1.728  -125.64593    0.00152    0.00152     109       1     mtd1
     113   1.849  -125.64573    0.00124    0.00124     110       1     hor
     114   1.877  -125.64569    0.00118    0.00118     111       1     mtd14
     115   2.074  -125.64538    0.00085    0.00085     112       1     mtd5
     116   2.166  -125.64523    0.00073    0.00073     113       1     gc
     117   2.219  -125.64514    0.00066    0.00066     114       1     hor
     118   2.235  -125.64512    0.00065    0.00065     115       1     hor
     119   2.271  -125.64506    0.00061    0.00061     116       1     hor
     120   2.272  -125.64506    0.00061    0.00061     117       1     gc
     121   2.534  -125.64464    0.00039    0.00039     118       1     mtd7
     122   2.618  -125.64451    0.00034    0.00034     119       1     gc
     123   2.675  -125.64442    0.00031    0.00031     120       1     gc
     124   2.756  -125.64429    0.00027    0.00027     121       1     hor
     125   2.837  -125.64416    0.00023    0.00023     122       1     hor
     126   2.859  -125.64413    0.00023    0.00023     123       1     hor
     127   2.919  -125.64403    0.00020    0.00020     124       1     hor
     128   2.929  -125.64401    0.00020    0.00040     125       2     hor
     129   2.936  -125.64400    0.00020                                hor
     130   2.952  -125.64398    0.00019    0.00019     126       1     mtd5
     131   2.990  -125.64392    0.00018    0.00018     127       1     hor
     132   3.009  -125.64389    0.00018    0.00018     128       1     mtd2
     133   3.017  -125.64387    0.00017    0.00017     129       1     hor
     134   3.028  -125.64386    0.00017    0.00017     130       1     mtd5
     135   3.046  -125.64383    0.00016    0.00016     131       1     mtd8
     136   3.117  -125.64371    0.00015    0.00015     132       1     mtd8
     137   3.136  -125.64368    0.00014    0.00014     133       1     gc
     138   3.143  -125.64367    0.00014    0.00014     134       1     hor
     139   3.160  -125.64365    0.00014    0.00014     135       1     mtd7
     140   3.170  -125.64363    0.00013    0.00013     136       1     hor
     141   3.206  -125.64357    0.00013    0.00013     137       1     hor
     142   3.220  -125.64355    0.00012    0.00012     138       1     hor
     143   3.245  -125.64351    0.00012    0.00012     139       1     hor
     144   3.266  -125.64348    0.00011    0.00011     140       1     hor
     145   3.276  -125.64346    0.00011    0.00011     141       1     hor
     146   3.288  -125.64344    0.00011    0.00011     142       1     hor
     147   3.295  -125.64343    0.00011    0.00011     143       1     hor
     148   3.298  -125.64343    0.00011    0.00011     144       1     hor
     149   3.299  -125.64342    0.00011    0.00011     145       1     gc
     150   3.313  -125.64340    0.00010    0.00010     146       1     hor
     151   3.316  -125.64340    0.00010    0.00010     147       1     hor
     152   3.332  -125.64337    0.00010    0.00010     148       1     gc
     153   3.335  -125.64337    0.00010    0.00010     149       1     hor
     154   3.371  -125.64331    0.00010    0.00010     150       1     hor
     155   3.375  -125.64330    0.00009    0.00009     151       1     hor
     156   3.401  -125.64326    0.00009    0.00009     152       1     mtd4
     157   3.456  -125.64317    0.00008    0.00008     153       1     hor
     158   3.477  -125.64314    0.00008    0.00008     154       1     hor
     159   3.480  -125.64314    0.00008    0.00008     155       1     hor
     160   3.481  -125.64313    0.00008    0.00008     156       1     mtd9
     161   3.518  -125.64307    0.00007    0.00007     157       1     hor
     162   3.522  -125.64307    0.00007    0.00007     158       1     gc
     163   3.540  -125.64304    0.00007    0.00014     159       2     hor
     164   3.541  -125.64304    0.00007                                hor
     165   3.548  -125.64303    0.00007    0.00007     160       1     hor
     166   3.554  -125.64302    0.00007    0.00007     161       1     hor
     167   3.574  -125.64299    0.00007    0.00007     162       1     hor
     168   3.541  -125.64304    0.00007    0.00007     163       1     hor
     169   3.578  -125.64298    0.00007    0.00007     164       1     hor
     170   3.578  -125.64298    0.00007    0.00007     165       1     hor
     171   3.630  -125.64290    0.00006    0.00006     166       1     hor
     172   3.640  -125.64288    0.00006    0.00006     167       1     hor
     173   3.646  -125.64287    0.00006    0.00006     168       1     hor
     174   3.648  -125.64287    0.00006    0.00006     169       1     hor
     175   3.653  -125.64286    0.00006    0.00006     170       1     mtd3
     176   3.658  -125.64285    0.00006    0.00006     171       1     mtd8
     177   3.669  -125.64283    0.00006    0.00006     172       1     hor
     178   3.683  -125.64281    0.00006    0.00006     173       1     mtd1
     179   3.709  -125.64277    0.00005    0.00005     174       1     mtd3
     180   3.728  -125.64274    0.00005    0.00005     175       1     mtd1
     181   3.729  -125.64274    0.00005    0.00005     176       1     hor
     182   3.730  -125.64274    0.00005    0.00005     177       1     hor
     183   3.739  -125.64272    0.00005    0.00005     178       1     mtd12
     184   3.743  -125.64272    0.00005    0.00005     179       1     hor
     185   3.806  -125.64262    0.00005    0.00005     180       1     mtd11
     186   3.825  -125.64259    0.00004    0.00004     181       1     mtd12
     187   3.837  -125.64257    0.00004    0.00004     182       1     mtd7
     188   3.850  -125.64255    0.00004    0.00004     183       1     mtd6
     189   3.887  -125.64249    0.00004    0.00004     184       1     mtd1
     190   3.990  -125.64232    0.00003    0.00003     185       1     mtd10
     191   4.355  -125.64174    0.00002    0.00002     186       1     hor
     192   5.214  -125.64037    0.00000    0.00000     187       1     hor
     193   5.531  -125.63987    0.00000    0.00000     188       1     mtd2
     194   5.931  -125.63923    0.00000    0.00000     189       1     hor
     195   5.989  -125.63914    0.00000    0.00000     190       1     mtd8
T /K                                  :   298.15
E lowest                              :  -125.64868
ensemble average energy (kcal)        :    0.583
ensemble entropy (J/mol K, cal/mol K) :   37.905    9.059
ensemble free energy (kcal/mol)       :   -2.701
population of lowest in %             :    2.799
 number of unique conformers for further calc          190
 list of relative energies saved as "crest.energies"
 
 -----------------
 Wall Time Summary
 -----------------
             test MD wall time :         0h : 0m :50s
                 MTD wall time :         0h : 2m :25s
      multilevel OPT wall time :         0h : 4m :48s
                  MD wall time :         0h : 0m :41s
                  GC wall time :         0h : 0m :45s
--------------------
Overall wall time  : 0h :10m : 5s
 
 CREST terminated normally.
