 
       ==============================================
       |                                            |
       |                 C R E S T                  |
       |                                            |
       |  Conformer-Rotamer Ensemble Sampling Tool  |
       |          based on the GFN methods          |
       |             P.Pracht, S.Grimme             |
       |          Universitaet Bonn, MCTC           |
       ==============================================
       Version 2.11.2, Fr 17. Dec 12:10:44 CEST 2021
  Using the xTB program. Compatible with xTB version 6.4.0
 
   Cite work conducted with this code as

   P. Pracht, F. Bohle, S. Grimme, PCCP, 2020, 22, 7169-7192.

   and  S. Grimme, JCTC, 2019, 15, 2847-2862.
 
   with help from:
   C.Bannwarth, F.Bohle, S.Ehlert, S.Grimme,
   C. Plett, P.Pracht, S. Spicher
 
   This program is distributed in the hope that it will be useful,
   but WITHOUT ANY WARRANTY; without even the implied warranty of
   MERCHANTABILITY or FITNESS FOR A PARTICULAR PURPOSE.

 Command line input:
 > crest 00228_r_0.xyz -T 28 -gfn2 -chrg 0 -uhf 0 -rthr 0.25 -shake 1 --mdlen 0.5

  -T 28 (CPUs/Threads selected)
  -gfn2 : Use of GFN2-xTB requested.
  -chrg 0
  -uhf 0
  -rthr 0.25
  --mdlen 0.5 (MD length in ps)
 
 -------------------------
 xTB Geometry Optimization
 -------------------------
 Geometry successfully optimized.
 
------------------------------------------------
Generating MTD length from a flexibility measure
------------------------------------------------
      -----------------------------------------------------------      
     |                   =====================                   |     
     |                           x T B                           |     
     |                   =====================                   |     
     |                         S. Grimme                         |     
     |          Mulliken Center for Theoretical Chemistry        |     
     |                    University of Bonn                     |     
      -----------------------------------------------------------      

   * xtb version 6.4.1 (afa7bdf) compiled by 'ehlert@majestix' on 2021-06-10

   xtb is free software: you can redistribute it and/or modify it under
   the terms of the GNU Lesser General Public License as published by
   the Free Software Foundation, either version 3 of the License, or
   (at your option) any later version.
   
   xtb is distributed in the hope that it will be useful,
   but WITHOUT ANY WARRANTY; without even the implied warranty of
   MERCHANTABILITY or FITNESS FOR A PARTICULAR PURPOSE.  See the
   GNU Lesser General Public License for more details.
   
   Cite this work as:
   * C. Bannwarth, E. Caldeweyher, S. Ehlert, A. Hansen, P. Pracht,
     J. Seibert, S. Spicher, S. Grimme, WIREs Comput. Mol. Sci., 2020, 11,
     e01493. DOI: 10.1002/wcms.1493
   
   for GFN2-xTB:
   * C. Bannwarth, S. Ehlert and S. Grimme., J. Chem. Theory Comput., 2019,
     15, 1652-1671. DOI: 10.1021/acs.jctc.8b01176
   for GFN1-xTB:
   * S. Grimme, C. Bannwarth, P. Shushkov, J. Chem. Theory Comput., 2017,
     13, 1989-2009. DOI: 10.1021/acs.jctc.7b00118
   for GFN0-xTB:
   * P. Pracht, E. Caldeweyher, S. Ehlert, S. Grimme, ChemRxiv, 2019, preprint.
     DOI: 10.26434/chemrxiv.8326202.v1
   for GFN-FF:
   * S. Spicher and S. Grimme, Angew. Chem. Int. Ed., 2020, 59, 15665-15673.
     DOI: 10.1002/anie.202004239
   
   for DFT-D4:
   * E. Caldeweyher, C. Bannwarth and S. Grimme, J. Chem. Phys., 2017,
     147, 034112. DOI: 10.1063/1.4993215
   * E. Caldeweyher, S. Ehlert, A. Hansen, H. Neugebauer, S. Spicher,
     C. Bannwarth and S. Grimme, J. Chem. Phys., 2019, 150, 154122.
     DOI: 10.1063/1.5090222
   * E. Caldeweyher, J.-M. Mewes, S. Ehlert and S. Grimme, Phys. Chem. Chem. Phys.
     2020, 22, 8499-8512. DOI: 10.1039/D0CP00502A
   
   for sTDA-xTB:
   * S. Grimme and C. Bannwarth, J. Chem. Phys., 2016, 145, 054103.
     DOI: 10.1063/1.4959605
   
   in the mass-spec context:
   * V. Asgeirsson, C. Bauer and S. Grimme, Chem. Sci., 2017, 8, 4879.
     DOI: 10.1039/c7sc00601b
   * J. Koopman and S. Grimme, ACS Omega 2019, 4, 12, 15120-15133.
     DOI: 10.1021/acsomega.9b02011
   
   for metadynamics refer to:
   * S. Grimme, J. Chem. Theory Comput., 2019, 155, 2847-2862
     DOI: 10.1021/acs.jctc.9b00143
   
   for SPH calculations refer to:
   * S. Spicher and S. Grimme, J. Chem. Theory Comput., 2021, 17, 1701-1714
     DOI: 10.1021/acs.jctc.0c01306
   
   with help from (in alphabetical order)
   P. Atkinson, C. Bannwarth, F. Bohle, G. Brandenburg, E. Caldeweyher
   M. Checinski, S. Dohm, S. Ehlert, S. Ehrlich, I. Gerasimov, J. Koopman
   C. Lavigne, S. Lehtola, F. März, M. Müller, F. Musil, H. Neugebauer
   J. Pisarek, C. Plett, P. Pracht, J. Seibert, P. Shushkov, S. Spicher
   M. Stahn, M. Steiner, T. Strunk, J. Stückrath, T. Rose, and J. Unsleber
   
 * started run on 2025/01/21 at 11:42:14.189     

           -------------------------------------------------
          |                Calculation Setup                |
           -------------------------------------------------

          program call               : xtb tmpcoord --gfn0 --sp
          hostname                   : node87
          coordinate file            : tmpcoord
          omp threads                :                    28
          number of atoms            :                    76
          number of electrons        :                   210
          charge                     :                     0
          spin                       :                   0.0
          first test random number   :      0.40170121013401

   ID    Z sym.   atoms
    1    6 c      1, 2, 4-18, 20-24, 26-38, 40-42
    2    8 o      3, 19, 25, 39
    3    1 h      43-76
########################################################################
[WARNING] Please study the warnings concerning your input carefully
-1- prog_main_parseArguments: The use of '--gfn0' is discouraged, please use '--gfn 0' next time
########################################################################

           -------------------------------------------------
          |                 G F N 0 - x T B                 |
           -------------------------------------------------

        Reference                      10.26434/chemrxiv.8326202.v1
      * Hamiltonian:
        H0-scaling (s, p, d)           2.000000    2.486800    2.270000
        zeta-weighting                 1.000000
      * Dispersion:
        s8                             2.850000
        a1                             0.800000
        a2                             4.600000
        s9                             0.000000
      * Repulsion:
        kExp                           1.500000
        rExp                           1.000000
      * Coulomb:
        alpha                          0.000000
        third order                    atomic
        anisotropic                    false
      * Polar bond correction:
        rad-shift                      0.053700
        strength                      -0.012900
        en-exp                         3.484700
        en-scale                       0.509700


          ...................................................
          :                      SETUP                      :
          :.................................................:
          :  # basis functions                 236          :
          :  # atomic orbitals                 236          :
          :  # shells                          152          :
          :  # electrons                       210          :
          :  electronic temp.          300.0000000     K    :
          :  accuracy                    1.0000000          :
          :  -> integral cutoff          0.2500000E+02      :
          :  -> integral neglect         0.1000000E-07      :
          ...................................................
  Checking positiv definite overlap ...  done.
 

         #    Occupation            Energy/Eh            Energy/eV
      -------------------------------------------------------------
         1        2.0000           -0.6946678             -18.9029
       ...           ...                  ...                  ...
        99        2.0000           -0.4316884             -11.7468
       100        2.0000           -0.4168493             -11.3430
       101        2.0000           -0.4165894             -11.3360
       102        2.0000           -0.3955396             -10.7632
       103        2.0000           -0.3933405             -10.7033
       104        2.0000           -0.3918358             -10.6624
       105        2.0000           -0.3900306             -10.6133 (HOMO)
       106                         -0.2996399              -8.1536 (LUMO)
       107                         -0.2974544              -8.0941
       108                         -0.2679090              -7.2902
       109                         -0.2668221              -7.2606
       110                         -0.2656682              -7.2292
       ...                                ...                  ...
       236                          0.6538369              17.7918
      -------------------------------------------------------------
                  HL-Gap            0.0903907 Eh            2.4597 eV
             Fermi-level            0.0000000 Eh            0.0000 eV

 EHT (total)                   0 d,  0 h,  0 min,  0.048 sec
 EHT setup                      ...        0 min,  0.001 sec (  2.551%)
 Coordination number            ...        0 min,  0.001 sec (  2.162%)
 EEQ model density              ...        0 min,  0.001 sec (  1.738%)
 D4 Dispersion                  ...        0 min,  0.003 sec (  5.936%)
 Integral evaluation            ...        0 min,  0.001 sec (  2.739%)
 Cholesky factorization         ...        0 min,  0.010 sec ( 21.795%)
 Zeroth order Hamiltonian       ...        0 min,  0.026 sec ( 53.702%)
 Gradient calculation           ...        0 min,  0.004 sec (  7.770%)

         :::::::::::::::::::::::::::::::::::::::::::::::::::::
         ::                     SUMMARY                     ::
         :::::::::::::::::::::::::::::::::::::::::::::::::::::
         :: total energy            -111.962606017217 Eh    ::
         :: gradient norm              0.058080478804 Eh/a0 ::
         :: HOMO-LUMO gap              2.459656571190 eV    ::
         ::.................................................::
         :: H0 energy               -113.567425016379 Eh    ::
         :: repulsion energy           1.889601201867 Eh    ::
         :: electrostat energy        -0.156432736857 Eh    ::
         :: -> Gsolv                   0.000000000000 Eh    ::
         ::    -> Gsasa                0.000000000000 Eh    ::
         ::    -> Gshift               0.000000000000 Eh    ::
         :: dispersion energy         -0.052583810914 Eh    ::
         :: short-range corr.         -0.075765654934 Eh    ::
         :: add. restraining           0.000000000000 Eh    ::
         :: total charge              -0.000000000000 e     ::
         :::::::::::::::::::::::::::::::::::::::::::::::::::::

           -------------------------------------------------
          |                Property Printout                |
           -------------------------------------------------

    * Orbital Energies and Occupations

         #    Occupation            Energy/Eh            Energy/eV
      -------------------------------------------------------------
         1        2.0000           -0.6946678             -18.9029
       ...           ...                  ...                  ...
        93        2.0000           -0.4449589             -12.1079
        94        2.0000           -0.4446685             -12.1000
        95        2.0000           -0.4432644             -12.0618
        96        2.0000           -0.4414710             -12.0130
        97        2.0000           -0.4367222             -11.8838
        98        2.0000           -0.4320459             -11.7566
        99        2.0000           -0.4316884             -11.7468
       100        2.0000           -0.4168493             -11.3430
       101        2.0000           -0.4165894             -11.3360
       102        2.0000           -0.3955396             -10.7632
       103        2.0000           -0.3933405             -10.7033
       104        2.0000           -0.3918358             -10.6624
       105        2.0000           -0.3900306             -10.6133 (HOMO)
       106                         -0.2996399              -8.1536 (LUMO)
       107                         -0.2974544              -8.0941
       108                         -0.2679090              -7.2902
       109                         -0.2668221              -7.2606
       110                         -0.2656682              -7.2292
       111                         -0.2654476              -7.2232
       112                         -0.2515171              -6.8441
       113                         -0.2495191              -6.7898
       114                         -0.2337017              -6.3593
       115                         -0.2297595              -6.2521
       116                         -0.1849005              -5.0314
       ...                                ...                  ...
       236                          0.6538369              17.7918
      -------------------------------------------------------------
                  HL-Gap            0.0903907 Eh            2.4597 eV
             Fermi-level            0.0000000 Eh            0.0000 eV

     #   Z          covCN         q      C6AA      α(0)
     1   6 c        3.750    -0.427    33.561     8.361
     2   6 c        3.688     0.143    20.629     6.575
     3   8 o        1.705    -0.401    20.685     6.153
     4   6 c        2.858     0.274    23.631     7.942
     5   6 c        2.920    -0.158    33.814     9.506
     6   6 c        2.922    -0.132    33.045     9.397
     7   6 c        2.980     0.007    29.349     8.859
     8   6 c        2.970    -0.041    30.550     9.038
     9   6 c        2.923    -0.187    34.674     9.626
    10   6 c        2.985     0.066    27.927     8.642
    11   6 c        2.919    -0.133    33.074     9.401
    12   6 c        2.916    -0.088    31.819     9.221
    13   6 c        2.916    -0.090    31.884     9.230
    14   6 c        2.918    -0.120    32.708     9.349
    15   6 c        2.989     0.017    29.087     8.819
    16   6 c        2.974    -0.061    31.082     9.116
    17   6 c        2.974    -0.040    30.532     9.035
    18   6 c        2.851     0.226    24.548     8.095
    19   8 o        1.659    -0.546    23.727     6.589
    20   6 c        2.971    -0.008    29.729     8.916
    21   6 c        2.980     0.053    28.235     8.689
    22   6 c        2.925    -0.109    32.407     9.306
    23   6 c        2.920    -0.161    33.888     9.516
    24   6 c        2.858     0.274    23.619     7.940
    25   8 o        1.705    -0.399    20.656     6.149
    26   6 c        3.688     0.144    20.616     6.573
    27   6 c        3.750    -0.428    33.578     8.363
    28   6 c        2.924    -0.220    35.683     9.765
    29   6 c        2.969     0.065    27.961     8.646
    30   6 c        3.758    -0.368    31.780     8.134
    31   6 c        2.924    -0.202    35.132     9.690
    32   6 c        2.985     0.068    27.899     8.637
    33   6 c        2.919    -0.131    33.040     9.396
    34   6 c        2.915    -0.087    31.811     9.220
    35   6 c        2.917    -0.091    31.914     9.235
    36   6 c        2.918    -0.115    32.587     9.332
    37   6 c        2.989     0.039    28.576     8.742
    38   6 c        2.851     0.210    24.858     8.146
    39   8 o        1.659    -0.545    23.702     6.586
    40   6 c        2.969     0.059    28.096     8.667
    41   6 c        3.757    -0.373    31.923     8.152
    42   6 c        2.922    -0.220    35.694     9.767
    43   1 h        0.925     0.154     1.368     1.829
    44   1 h        0.925     0.123     1.592     1.973
    45   1 h        0.925     0.145     1.429     1.869
    46   1 h        0.924     0.061     2.184     2.311
    47   1 h        0.924     0.039     2.465     2.455
    48   1 h        0.926     0.129     1.546     1.944
    49   1 h        0.926     0.113     1.668     2.019
    50   1 h        0.926     0.121     1.607     1.982
    51   1 h        0.926     0.099     1.792     2.093
    52   1 h        0.926     0.093     1.853     2.129
    53   1 h        0.926     0.094     1.840     2.121
    54   1 h        0.926     0.113     1.672     2.022
    55   1 h        0.805     0.305     0.705     1.319
    56   1 h        0.926     0.126     1.567     1.958
    57   1 h        0.926     0.131     1.525     1.931
    58   1 h        0.924     0.061     2.187     2.313
    59   1 h        0.924     0.038     2.478     2.462
    60   1 h        0.925     0.147     1.414     1.859
    61   1 h        0.925     0.155     1.361     1.824
    62   1 h        0.925     0.122     1.594     1.974
    63   1 h        0.926     0.112     1.676     2.024
    64   1 h        0.924     0.124     1.584     1.968
    65   1 h        0.925     0.153     1.375     1.834
    66   1 h        0.925     0.126     1.562     1.955
    67   1 h        0.926     0.119     1.618     1.989
    68   1 h        0.926     0.098     1.799     2.097
    69   1 h        0.926     0.093     1.853     2.128
    70   1 h        0.926     0.095     1.832     2.117
    71   1 h        0.926     0.119     1.623     1.992
    72   1 h        0.805     0.298     0.726     1.338
    73   1 h        0.924     0.153     1.372     1.832
    74   1 h        0.925     0.126     1.563     1.955
    75   1 h        0.925     0.140     1.461     1.890
    76   1 h        0.926     0.112     1.676     2.025

 Mol. C6AA /au·bohr⁶  :      73062.778604
 Mol. C8AA /au·bohr⁸  :    1836488.810622
 Mol. α(0) /au        :        428.056149


Wiberg/Mayer (AO) data.
largest (>0.10) Wiberg bond orders for each atom

 ---------------------------------------------------------------------------
     #   Z sym  total        # sym  WBO       # sym  WBO       # sym  WBO
 ---------------------------------------------------------------------------
     1   6 c    3.977 --     2 c    1.015    43 h    0.981    44 h    0.980
                            45 h    0.980
     2   6 c    3.954 --     1 c    1.015    46 h    0.975     3 o    0.975
                            47 h    0.971
     3   8 o    2.346 --     4 c    1.123     2 c    0.975
     4   6 c    3.942 --    42 c    1.354     5 c    1.329     3 o    1.123
     5   6 c    3.980 --     6 c    1.475     4 c    1.329    48 h    0.968
     6   6 c    3.984 --     5 c    1.475     7 c    1.377    49 h    0.969
     7   6 c    3.970 --     6 c    1.377    40 c    1.365     8 c    1.010
     8   6 c    3.975 --     9 c    1.532    38 c    1.216     7 c    1.010
     9   6 c    3.983 --     8 c    1.532    10 c    1.267    50 h    0.965
    10   6 c    3.978 --    11 c    1.282     9 c    1.267    15 c    1.244
    11   6 c    3.981 --    12 c    1.550    10 c    1.282    51 h    0.969
                            14 c    0.115
    12   6 c    3.976 --    11 c    1.550    13 c    1.320    52 h    0.973
    13   6 c    3.984 --    14 c    1.556    12 c    1.320    53 h    0.972
    14   6 c    3.987 --    13 c    1.556    15 c    1.274    54 h    0.966
                            11 c    0.115
    15   6 c    3.978 --    14 c    1.274    16 c    1.252    10 c    1.244
    16   6 c    3.967 --    38 c    1.413    15 c    1.252    17 c    0.995
    17   6 c    3.964 --    18 c    1.419    37 c    1.253    16 c    0.995
    18   6 c    3.941 --    17 c    1.419    20 c    1.214    19 o    1.129
    19   8 o    2.302 --    18 c    1.129    55 h    0.969
    20   6 c    3.976 --    31 c    1.529    18 c    1.214    21 c    1.017
    21   6 c    3.971 --    29 c    1.375    22 c    1.374    20 c    1.017
    22   6 c    3.984 --    23 c    1.476    21 c    1.374    56 h    0.968
    23   6 c    3.980 --    22 c    1.476    24 c    1.330    57 h    0.967
    24   6 c    3.942 --    28 c    1.361    23 c    1.330    25 o    1.114
    25   8 o    2.336 --    24 c    1.114    26 c    0.976
    26   6 c    3.954 --    27 c    1.015    25 o    0.976    58 h    0.975
                            59 h    0.970
    27   6 c    3.978 --    26 c    1.015    61 h    0.981    62 h    0.980
                            60 h    0.980
    28   6 c    3.978 --    29 c    1.420    24 c    1.361    63 h    0.964
    29   6 c    3.972 --    28 c    1.420    21 c    1.375    30 c    1.017
    30   6 c    3.979 --    29 c    1.017    66 h    0.977    65 h    0.976
                            64 h    0.967
    31   6 c    3.983 --    20 c    1.529    32 c    1.267    67 h    0.966
    32   6 c    3.978 --    33 c    1.283    31 c    1.267    37 c    1.242
    33   6 c    3.981 --    34 c    1.549    32 c    1.283    68 h    0.969
                            36 c    0.115
    34   6 c    3.975 --    33 c    1.549    35 c    1.321    69 h    0.973
    35   6 c    3.984 --    36 c    1.554    34 c    1.321    70 h    0.972
    36   6 c    3.987 --    35 c    1.554    37 c    1.274    71 h    0.966
                            33 c    0.115
    37   6 c    3.977 --    36 c    1.274    17 c    1.253    32 c    1.242
    38   6 c    3.940 --    16 c    1.413     8 c    1.216    39 o    1.126
    39   8 o    2.304 --    38 c    1.126    72 h    0.970
    40   6 c    3.971 --    42 c    1.426     7 c    1.365    41 c    1.017
    41   6 c    3.979 --    40 c    1.017    74 h    0.979    75 h    0.972
                            73 h    0.966
    42   6 c    3.977 --    40 c    1.426     4 c    1.354    76 h    0.963
    43   1 h    0.988 --     1 c    0.981
    44   1 h    0.981 --     1 c    0.980
    45   1 h    0.981 --     1 c    0.980
    46   1 h    1.004 --     2 c    0.975
    47   1 h    0.982 --     2 c    0.971
    48   1 h    0.986 --     5 c    0.968
    49   1 h    0.981 --     6 c    0.969
    50   1 h    0.977 --     9 c    0.965
    51   1 h    0.978 --    11 c    0.969
    52   1 h    0.983 --    12 c    0.973
    53   1 h    0.984 --    13 c    0.972
    54   1 h    0.980 --    14 c    0.966
    55   1 h    0.988 --    19 o    0.969
    56   1 h    0.983 --    22 c    0.968
    57   1 h    0.985 --    23 c    0.967
    58   1 h    1.004 --    26 c    0.975
    59   1 h    0.982 --    26 c    0.970
    60   1 h    0.981 --    27 c    0.980
    61   1 h    0.988 --    27 c    0.981
    62   1 h    0.981 --    27 c    0.980
    63   1 h    0.971 --    28 c    0.964
    64   1 h    0.986 --    30 c    0.967
    65   1 h    0.981 --    30 c    0.976
    66   1 h    0.980 --    30 c    0.977
    67   1 h    0.974 --    31 c    0.966
    68   1 h    0.978 --    33 c    0.969
    69   1 h    0.983 --    34 c    0.973
    70   1 h    0.983 --    35 c    0.972
    71   1 h    0.980 --    36 c    0.966
    72   1 h    0.984 --    39 o    0.970
    73   1 h    0.991 --    41 c    0.966
    74   1 h    0.978 --    41 c    0.979
    75   1 h    0.982 --    41 c    0.972
    76   1 h    0.971 --    42 c    0.963
 ---------------------------------------------------------------------------

Topologies differ in total number of bonds
Writing topology from bond orders to xtbtopo.mol

 dipole moment from electron density (au)
     X       Y       Z   
  -1.0165   0.4660   2.8666  total (Debye):    7.821


           -------------------------------------------------
          | TOTAL ENERGY             -111.962606017217 Eh   |
          | GRADIENT NORM               0.058080478804 Eh/α |
          | HOMO-LUMO GAP               2.459656571190 eV   |
           -------------------------------------------------

------------------------------------------------------------------------
 * finished run on 2025/01/21 at 11:42:14.347     
------------------------------------------------------------------------
 total:
 * wall-time:     0 d,  0 h,  0 min,  0.158 sec
 *  cpu-time:     0 d,  0 h,  0 min,  3.685 sec
 * ratio c/w:    23.336 speedup
 SCF:
 * wall-time:     0 d,  0 h,  0 min,  0.049 sec
 *  cpu-time:     0 d,  0 h,  0 min,  1.207 sec
 * ratio c/w:    24.794 speedup

 Calculating WBOs... done.
      -----------------------------------------------------------      
     |                   =====================                   |     
     |                           x T B                           |     
     |                   =====================                   |     
     |                         S. Grimme                         |     
     |          Mulliken Center for Theoretical Chemistry        |     
     |                    University of Bonn                     |     
      -----------------------------------------------------------      

   * xtb version 6.4.1 (afa7bdf) compiled by 'ehlert@majestix' on 2021-06-10

   xtb is free software: you can redistribute it and/or modify it under
   the terms of the GNU Lesser General Public License as published by
   the Free Software Foundation, either version 3 of the License, or
   (at your option) any later version.
   
   xtb is distributed in the hope that it will be useful,
   but WITHOUT ANY WARRANTY; without even the implied warranty of
   MERCHANTABILITY or FITNESS FOR A PARTICULAR PURPOSE.  See the
   GNU Lesser General Public License for more details.
   
   Cite this work as:
   * C. Bannwarth, E. Caldeweyher, S. Ehlert, A. Hansen, P. Pracht,
     J. Seibert, S. Spicher, S. Grimme, WIREs Comput. Mol. Sci., 2020, 11,
     e01493. DOI: 10.1002/wcms.1493
   
   for GFN2-xTB:
   * C. Bannwarth, S. Ehlert and S. Grimme., J. Chem. Theory Comput., 2019,
     15, 1652-1671. DOI: 10.1021/acs.jctc.8b01176
   for GFN1-xTB:
   * S. Grimme, C. Bannwarth, P. Shushkov, J. Chem. Theory Comput., 2017,
     13, 1989-2009. DOI: 10.1021/acs.jctc.7b00118
   for GFN0-xTB:
   * P. Pracht, E. Caldeweyher, S. Ehlert, S. Grimme, ChemRxiv, 2019, preprint.
     DOI: 10.26434/chemrxiv.8326202.v1
   for GFN-FF:
   * S. Spicher and S. Grimme, Angew. Chem. Int. Ed., 2020, 59, 15665-15673.
     DOI: 10.1002/anie.202004239
   
   for DFT-D4:
   * E. Caldeweyher, C. Bannwarth and S. Grimme, J. Chem. Phys., 2017,
     147, 034112. DOI: 10.1063/1.4993215
   * E. Caldeweyher, S. Ehlert, A. Hansen, H. Neugebauer, S. Spicher,
     C. Bannwarth and S. Grimme, J. Chem. Phys., 2019, 150, 154122.
     DOI: 10.1063/1.5090222
   * E. Caldeweyher, J.-M. Mewes, S. Ehlert and S. Grimme, Phys. Chem. Chem. Phys.
     2020, 22, 8499-8512. DOI: 10.1039/D0CP00502A
   
   for sTDA-xTB:
   * S. Grimme and C. Bannwarth, J. Chem. Phys., 2016, 145, 054103.
     DOI: 10.1063/1.4959605
   
   in the mass-spec context:
   * V. Asgeirsson, C. Bauer and S. Grimme, Chem. Sci., 2017, 8, 4879.
     DOI: 10.1039/c7sc00601b
   * J. Koopman and S. Grimme, ACS Omega 2019, 4, 12, 15120-15133.
     DOI: 10.1021/acsomega.9b02011
   
   for metadynamics refer to:
   * S. Grimme, J. Chem. Theory Comput., 2019, 155, 2847-2862
     DOI: 10.1021/acs.jctc.9b00143
   
   for SPH calculations refer to:
   * S. Spicher and S. Grimme, J. Chem. Theory Comput., 2021, 17, 1701-1714
     DOI: 10.1021/acs.jctc.0c01306
   
   with help from (in alphabetical order)
   P. Atkinson, C. Bannwarth, F. Bohle, G. Brandenburg, E. Caldeweyher
   M. Checinski, S. Dohm, S. Ehlert, S. Ehrlich, I. Gerasimov, J. Koopman
   C. Lavigne, S. Lehtola, F. März, M. Müller, F. Musil, H. Neugebauer
   J. Pisarek, C. Plett, P. Pracht, J. Seibert, P. Shushkov, S. Spicher
   M. Stahn, M. Steiner, T. Strunk, J. Stückrath, T. Rose, and J. Unsleber
   
 * started run on 2025/01/21 at 11:42:14.442     

           -------------------------------------------------
          |                Calculation Setup                |
           -------------------------------------------------

          program call               : xtb tmpcoord --gfnff --sp
          hostname                   : node87
          coordinate file            : tmpcoord
          omp threads                :                    28
          number of atoms            :                    76
          number of electrons        :                   210
          charge                     :                     0
          spin                       :                   0.0
          first test random number   :      0.55293710390090

   ID    Z sym.   atoms
    1    6 c      1, 2, 4-18, 20-24, 26-38, 40-42
    2    8 o      3, 19, 25, 39
    3    1 h      43-76
 
          ==================== Thresholds ====================
          CN  :   150.00000
          rep :   500.00000
          disp:  2500.00000
          HB1 :   250.00000
          HB2 :   450.00000
 
          Pauling EN used:
          Z : 1  EN :  2.20
          Z : 6  EN :  2.55
          Z : 8  EN :  3.44
          electric field strengths (au): 0.000
 
           ------------------------------------------------- 
          |           Force Field Initialization            |
           ------------------------------------------------- 
 
          distances ...
          ----------------------------------------
          generating topology and atomic info file ...
          pair mat ...
          computing topology distances matrix with Floyd-Warshall algo ...
          making topology EEQ charges ...
          #fragments for EEQ constrain: 1
          ----------------------------------------
          generating topology and atomic info file ...
          pair mat ...
          computing topology distances matrix with Floyd-Warshall algo ...
          making topology EEQ charges ...
          #fragments for EEQ constrain: 1
          rings ...
          # BATM   808
          # H in HB   18
          doing iterative Hueckel for 1 subsystem(s) ...
 
  atom   neighbors  erfCN metchar sp-hybrid imet pi  qest     coordinates
    1  c       4    3.49   0.00         3    0    0  -0.068  -11.765512   -2.181591    8.756983
    2  c       4    3.49   0.00         3    0    0   0.089  -13.477401   -0.642854    7.019290
    3  o       2    1.92   0.00         3    0    1  -0.356  -13.436458   -1.513027    4.495601
    4  c       3    2.82   0.00         2    0    1   0.073  -11.449772   -0.951864    2.965379
    5  c       3    2.81   0.00         2    0    1  -0.003  -11.548455   -2.019103    0.553615
    6  c       3    2.82   0.00         2    0    1  -0.033   -9.651283   -1.551746   -1.162765
    7  c       3    2.82   0.00         2    0    1  -0.005   -7.602442   -0.025633   -0.533481
    8  c       3    2.81   0.00         2    0    1  -0.007   -5.583976    0.414941   -2.421164
    9  c       3    2.82   0.00         2    0    1  -0.020   -6.034105    1.785336   -4.570530
   10  c       3    2.83   0.00         2    0    1  -0.008   -4.118964    2.220103   -6.367383
   11  c       3    2.81   0.00         2    0    1  -0.013   -4.553691    3.648507   -8.574231
   12  c       3    2.81   0.00         2    0    1  -0.051   -2.659092    4.047777  -10.282865
   13  c       3    2.81   0.00         2    0    1  -0.022   -0.244871    3.035070   -9.858834
   14  c       3    2.81   0.00         2    0    1  -0.045    0.238693    1.641235   -7.739258
   15  c       3    2.83   0.00         2    0    1  -0.010   -1.678302    1.193809   -5.941018
   16  c       3    2.82   0.00         2    0    1   0.010   -1.235238   -0.264016   -3.739221
   17  c       3    2.82   0.00         2    0    1   0.010    1.279275   -1.418933   -3.263310
   18  c       3    2.82   0.00         2    0    1   0.085    2.961575   -0.217175   -1.679708
   19  o       2    1.92   0.00         3    0    1  -0.437    2.385295    2.014676   -0.537381
   20  c       3    2.82   0.00         2    0    1  -0.007    5.369423   -1.280129   -1.179022
   21  c       3    2.82   0.00         2    0    1  -0.005    7.174817    0.108810    0.434054
   22  c       3    2.82   0.00         2    0    1  -0.033    8.030065    2.466386   -0.362176
   23  c       3    2.81   0.00         2    0    1  -0.003    9.775783    3.802272    1.026254
   24  c       3    2.82   0.00         2    0    1   0.073   10.707664    2.813246    3.285814
   25  o       2    1.92   0.00         3    0    1  -0.356   12.474312    4.265522    4.479652
   26  c       4    3.49   0.00         3    0    0   0.089   13.368895    3.564045    6.891359
   27  c       4    3.49   0.00         3    0    0  -0.068   11.482573    4.162535    8.990188
   28  c       3    2.82   0.00         2    0    1  -0.004    9.824586    0.483815    4.107665
   29  c       3    2.81   0.00         2    0    1  -0.011    8.072878   -0.880675    2.702694
   30  c       4    3.49   0.00         3    0    0  -0.022    7.173874   -3.385717    3.683385
   31  c       3    2.82   0.00         2    0    1  -0.020    5.997932   -3.540555   -2.272759
   32  c       3    2.83   0.00         2    0    1  -0.008    4.326652   -4.824824   -3.898405
   33  c       3    2.81   0.00         2    0    1  -0.013    4.973187   -7.142284   -5.041718
   34  c       3    2.81   0.00         2    0    1  -0.051    3.325245   -8.340538   -6.629237
   35  c       3    2.81   0.00         2    0    1  -0.022    0.954050   -7.270809   -7.139429
   36  c       3    2.81   0.00         2    0    1  -0.045    0.267731   -5.027843   -6.057152
   37  c       3    2.83   0.00         2    0    1  -0.010    1.927837   -3.745479   -4.413509
   38  c       3    2.82   0.00         2    0    1   0.085   -3.157247   -0.643241   -2.018549
   39  o       2    1.92   0.00         3    0    1  -0.437   -2.683089   -2.081859    0.065466
   40  c       3    2.81   0.00         2    0    1  -0.011   -7.500847    1.076892    1.862822
   41  c       4    3.49   0.00         3    0    0  -0.022   -5.368656    2.810157    2.570033
   42  c       3    2.82   0.00         2    0    1  -0.004   -9.421634    0.597086    3.587110
   43  h       1    0.97   0.00         0    0    0   0.040  -12.301164   -4.163380    8.681077
   44  h       1    0.97   0.00         0    0    0   0.040  -11.958565   -1.511230   10.688093
   45  h       1    0.97   0.00         0    0    0   0.040   -9.797864   -2.020281    8.187640
   46  h       1    0.97   0.00         0    0    0   0.021  -15.447290   -0.868273    7.602744
   47  h       1    0.97   0.00         0    0    0   0.021  -13.002274    1.373229    7.108360
   48  h       1    0.97   0.00         0    0    0   0.036  -13.139622   -3.198700    0.077655
   49  h       1    0.97   0.00         0    0    0   0.062   -9.733491   -2.381284   -3.025983
   50  h       1    0.97   0.00         0    0    0   0.050   -7.891875    2.572314   -4.887485
   51  h       1    0.97   0.00         0    0    0   0.031   -6.418373    4.421874   -8.885069
   52  h       1    0.97   0.00         0    0    0   0.062   -3.005350    5.144197  -11.969306
   53  h       1    0.97   0.00         0    0    0   0.048    1.233603    3.366479  -11.226309
   54  h       1    0.97   0.00         0    0    0   0.054    2.093279    0.854351   -7.410934
   55  h       1    0.97   0.00         0    0    0   0.234    0.683231    2.486512   -1.006155
   56  h       1    0.97   0.00         0    0    0   0.062    7.319983    3.242307   -2.110300
   57  h       1    0.97   0.00         0    0    0   0.036   10.459188    5.618763    0.404875
   58  h       1    0.97   0.00         0    0    0   0.021   15.083260    4.690391    7.150141
   59  h       1    0.97   0.00         0    0    0   0.021   13.900875    1.560131    6.927779
   60  h       1    0.97   0.00         0    0    0   0.040    9.742225    3.101503    8.731822
   61  h       1    0.97   0.00         0    0    0   0.040   11.028362    6.165861    8.960892
   62  h       1    0.97   0.00         0    0    0   0.040   12.295725    3.686728   10.814944
   63  h       1    0.97   0.00         0    0    0   0.036   10.483205   -0.329062    5.859635
   64  h       1    0.97   0.00         0    0    0   0.028    8.422280   -4.895851    3.046116
   65  h       1    0.97   0.00         0    0    0   0.028    5.278926   -3.801062    3.007638
   66  h       1    0.97   0.00         0    0    0   0.028    7.170431   -3.397811    5.739709
   67  h       1    0.97   0.00         0    0    0   0.050    7.836198   -4.351821   -1.910936
   68  h       1    0.97   0.00         0    0    0   0.031    6.804569   -7.952332   -4.638145
   69  h       1    0.97   0.00         0    0    0   0.062    3.835001  -10.114721   -7.501358
   70  h       1    0.97   0.00         0    0    0   0.048   -0.330304   -8.236309   -8.399362
   71  h       1    0.97   0.00         0    0    0   0.054   -1.559152   -4.206499   -6.452894
   72  h       1    0.97   0.00         0    0    0   0.234   -4.247766   -2.327785    0.977538
   73  h       1    0.97   0.00         0    0    0   0.028   -3.651108    1.750370    2.987276
   74  h       1    0.97   0.00         0    0    0   0.028   -5.851368    3.913031    4.234641
   75  h       1    0.97   0.00         0    0    0   0.028   -4.950161    4.099442    1.021265
   76  h       1    0.97   0.00         0    0    0   0.036   -9.306104    1.484700    5.419572
 
          #atoms :   76
          #bonds :   81
          #angl  :   136
          #tors  :   224
          #nmol  :   1
          #optfrag :   1
           ------------------------------------------------- 
          |                   G F N - F F                   |
          |          A general generic force-field          |
          |                  Version 1.0.3                  | 
           ------------------------------------------------- 
          nhb123   5027 467 0

 E+G (total)                   0 d,  0 h,  0 min,  0.004 sec
 distance/D3 list               ...        0 min,  0.000 sec (  0.760%)
 non bonded repulsion           ...        0 min,  0.000 sec (  6.686%)
 dCN                            ...        0 min,  0.000 sec (  5.594%)
 EEQ energy and q               ...        0 min,  0.000 sec ( 11.743%)
 D3                             ...        0 min,  0.001 sec ( 13.747%)
 EEQ gradient                   ...        0 min,  0.000 sec (  9.112%)
 bonds                          ...        0 min,  0.000 sec (  9.565%)
 bend and torsion               ...        0 min,  0.000 sec ( 10.730%)
 bonded ATM                     ...        0 min,  0.000 sec (  1.165%)
 HB/XB (incl list setup)        ...        0 min,  0.001 sec ( 25.593%)

         :::::::::::::::::::::::::::::::::::::::::::::::::::::
         ::                     SUMMARY                     ::
         :::::::::::::::::::::::::::::::::::::::::::::::::::::
         :: total energy             -14.940681187704 Eh    ::
         :: gradient norm              0.079746670491 Eh/a0 ::
         ::.................................................::
         :: bond energy              -15.720712553784 Eh    ::
         :: angle energy               0.020307734687 Eh    ::
         :: torsion energy             0.025156254072 Eh    ::
         :: repulsion energy           1.054047508914 Eh    ::
         :: electrostat energy        -0.229613223648 Eh    ::
         :: dispersion energy         -0.076797812877 Eh    ::
         :: HB energy                 -0.001130635435 Eh    ::
         :: XB energy                  0.000000000000 Eh    ::
         :: bonded atm energy         -0.011938459634 Eh    ::
         :: external energy            0.000000000000 Eh    ::
         :: add. restraining           0.000000000000 Eh    ::
         :: total charge               0.000000000000 e     ::
         :::::::::::::::::::::::::::::::::::::::::::::::::::::

           -------------------------------------------------
          |                Property Printout                |
           -------------------------------------------------

           -------------------------------------------------
          | TOTAL ENERGY              -14.940681187704 Eh   |
          | GRADIENT NORM               0.079746670491 Eh/α |
           -------------------------------------------------

------------------------------------------------------------------------
 * finished run on 2025/01/21 at 11:42:14.498     
------------------------------------------------------------------------
 total:
 * wall-time:     0 d,  0 h,  0 min,  0.056 sec
 *  cpu-time:     0 d,  0 h,  0 min,  1.025 sec
 * ratio c/w:    18.156 speedup
 SCF:
 * wall-time:     0 d,  0 h,  0 min,  0.007 sec
 *  cpu-time:     0 d,  0 h,  0 min,  0.160 sec
 * ratio c/w:    24.432 speedup

 Calculating NCI flexibility... done.
     covalent flexibility measure :   0.217
 non-covalent flexibility measure :   1.000
 flexibility measure :   0.341
 t(MTD) / ps set by command line  :     0.5
 t(MTD) / ps    :     0.5
 Σ(t(MTD)) / ps :     7.0 (14 MTDs)
 
-------------------------------------
Starting a trial MTD to test settings
-------------------------------------
 Estimated runtime for one MTD (0.5 ps) on a single thread: 2 min 55 sec
 Estimated runtime for a batch of 14 MTDs on 28 threads: 1 min 28 sec
 
 list of Vbias parameters applied:
$metadyn    0.00300   1.300
$metadyn    0.00150   1.300
$metadyn    0.00075   1.300
$metadyn    0.00300   0.780
$metadyn    0.00150   0.780
$metadyn    0.00075   0.780
$metadyn    0.00300   0.468
$metadyn    0.00150   0.468
$metadyn    0.00075   0.468
$metadyn    0.00300   0.281
$metadyn    0.00150   0.281
$metadyn    0.00075   0.281
$metadyn    0.00100   0.100
$metadyn    0.00500   0.800
 
*******************************************************************************************
**                        N E W    I T E R A T I O N    C Y C L E                        **
*******************************************************************************************
 
========================================
            MTD Iteration  1
========================================
 
     ========================================
     |         Meta-MD (MTD) Sampling       |
     ========================================
 
Starting Meta-MD   6 with the settings:
     MD time /ps        :     0.5
     dt /fs             :     1.5
     dumpstep(trj) /fs  :     100
     dumpstep(Vbias)/ps :     1.0
     Vbias factor k /Eh :  0.0570
     Vbias exp α /bohr⁻²:    0.78
Starting Meta-MD   5 with the settings:
     MD time /ps        :     0.5
     dt /fs             :     1.5
     dumpstep(trj) /fs  :     100
     dumpstep(Vbias)/ps :     1.0
     Vbias factor k /Eh :  0.1140
     Vbias exp α /bohr⁻²:    0.78
Starting Meta-MD   2 with the settings:
     MD time /ps        :     0.5
     dt /fs             :     1.5
     dumpstep(trj) /fs  :     100
     dumpstep(Vbias)/ps :     1.0
     Vbias factor k /Eh :  0.1140
     Vbias exp α /bohr⁻²:    1.30
Starting Meta-MD   1 with the settings:
     MD time /ps        :     0.5
     dt /fs             :     1.5
     dumpstep(trj) /fs  :     100
     dumpstep(Vbias)/ps :     1.0
     Vbias factor k /Eh :  0.2280
     Vbias exp α /bohr⁻²:    1.30
Starting Meta-MD  14 with the settings:
     MD time /ps        :     0.5
     dt /fs             :     1.5
     dumpstep(trj) /fs  :     100
     dumpstep(Vbias)/ps :     1.0
     Vbias factor k /Eh :  0.3800
     Vbias exp α /bohr⁻²:    0.80
Starting Meta-MD   7 with the settings:
     MD time /ps        :     0.5
     dt /fs             :     1.5
     dumpstep(trj) /fs  :     100
     dumpstep(Vbias)/ps :     1.0
     Vbias factor k /Eh :  0.2280
     Vbias exp α /bohr⁻²:    0.47
Starting Meta-MD   3 with the settings:
     MD time /ps        :     0.5
     dt /fs             :     1.5
     dumpstep(trj) /fs  :     100
     dumpstep(Vbias)/ps :     1.0
     Vbias factor k /Eh :  0.0570
     Vbias exp α /bohr⁻²:    1.30
Starting Meta-MD   4 with the settings:
     MD time /ps        :     0.5
     dt /fs             :     1.5
     dumpstep(trj) /fs  :     100
     dumpstep(Vbias)/ps :     1.0
     Vbias factor k /Eh :  0.2280
     Vbias exp α /bohr⁻²:    0.78
Starting Meta-MD   8 with the settings:
     MD time /ps        :     0.5
     dt /fs             :     1.5
     dumpstep(trj) /fs  :     100
     dumpstep(Vbias)/ps :     1.0
     Vbias factor k /Eh :  0.1140
     Vbias exp α /bohr⁻²:    0.47
Starting Meta-MD   9 with the settings:
     MD time /ps        :     0.5
     dt /fs             :     1.5
     dumpstep(trj) /fs  :     100
     dumpstep(Vbias)/ps :     1.0
     Vbias factor k /Eh :  0.0570
     Vbias exp α /bohr⁻²:    0.47
Starting Meta-MD  10 with the settings:
     MD time /ps        :     0.5
     dt /fs             :     1.5
     dumpstep(trj) /fs  :     100
     dumpstep(Vbias)/ps :     1.0
     Vbias factor k /Eh :  0.2280
     Vbias exp α /bohr⁻²:    0.28
Starting Meta-MD  11 with the settings:
     MD time /ps        :     0.5
     dt /fs             :     1.5
     dumpstep(trj) /fs  :     100
     dumpstep(Vbias)/ps :     1.0
     Vbias factor k /Eh :  0.1140
     Vbias exp α /bohr⁻²:    0.28
Starting Meta-MD  12 with the settings:
     MD time /ps        :     0.5
     dt /fs             :     1.5
     dumpstep(trj) /fs  :     100
     dumpstep(Vbias)/ps :     1.0
     Vbias factor k /Eh :  0.0570
     Vbias exp α /bohr⁻²:    0.28
Starting Meta-MD  13 with the settings:
     MD time /ps        :     0.5
     dt /fs             :     1.5
     dumpstep(trj) /fs  :     100
     dumpstep(Vbias)/ps :     1.0
     Vbias factor k /Eh :  0.0760
     Vbias exp α /bohr⁻²:    0.10
*Meta-MTD 1 finished*
*Meta-MTD 7 finished*
*Meta-MTD 13 finished*
*Meta-MTD 5 finished*
*Meta-MTD 12 finished*
*Meta-MTD 10 finished*
*Meta-MTD 9 finished*
*Meta-MTD 3 finished*
*Meta-MTD 2 finished*
*Meta-MTD 6 finished*
*Meta-MTD 14 finished*
*Meta-MTD 11 finished*
*Meta-MTD 8 finished*
*Meta-MTD 4 finished*
 
-----------------------
Multilevel Optimization
-----------------------
 
 -------------------------
 1. crude pre-optimization
 -------------------------
 Optimizing all 70 structures from file "crest_rotamers_0.xyz" ...
 1 2 3 4 5 6 7 8 9 10 11 12 13 14 15 16 17 18 19 20 21 22 23 24 25 26 27 28 29 30 31 32 33 34 35 36 37 38 39 40 41 42 43 44 45 46 47 48 49 50 51 52 53 54 55 56 57 58 59 60 61 62 63 64 65 66 67 68 69 70
 done.
 running RMSDs...
 done.
 E lowest :  -115.01678
 67 structures remain within    12.00 kcal/mol window
 
 -------------------------------------
 2. optimization with tight thresholds
 -------------------------------------
 Optimizing all 68 structures from file "crest_rotamers_1.xyz" ...
 1 2 3 4 5 6 7 8 9 10 11 12 13 14 15 16 17 18 19 20 21 22 23 24 25 26 27 28 29 30 31 32 33 34 35 36 37 38 39 40 41 42 43 44 45 46 47 48 49 50 51 52 53 54 55 56 57 58 59 60 61 62 63 64 65 66 67 68
 done.
 running RMSDs...
 done.
 E lowest :  -115.01929
 44 structures remain within     6.00 kcal/mol window
 
 
========================================
            MTD Iteration  2
========================================
 
     ========================================
     |         Meta-MD (MTD) Sampling       |
     ========================================
 
Starting Meta-MD   1 with the settings:
     MD time /ps        :     0.5
     dt /fs             :     1.5
     dumpstep(trj) /fs  :     100
     dumpstep(Vbias)/ps :     1.0
     Vbias factor k /Eh :  0.2280
     Vbias exp α /bohr⁻²:    1.30
Starting Meta-MD   2 with the settings:
     MD time /ps        :     0.5
     dt /fs             :     1.5
     dumpstep(trj) /fs  :     100
     dumpstep(Vbias)/ps :     1.0
     Vbias factor k /Eh :  0.1140
     Vbias exp α /bohr⁻²:    1.30
Starting Meta-MD   3 with the settings:
     MD time /ps        :     0.5
     dt /fs             :     1.5
     dumpstep(trj) /fs  :     100
     dumpstep(Vbias)/ps :     1.0
     Vbias factor k /Eh :  0.0570
     Vbias exp α /bohr⁻²:    1.30
Starting Meta-MD   4 with the settings:
     MD time /ps        :     0.5
     dt /fs             :     1.5
     dumpstep(trj) /fs  :     100
     dumpstep(Vbias)/ps :     1.0
     Vbias factor k /Eh :  0.2280
     Vbias exp α /bohr⁻²:    0.78
Starting Meta-MD   5 with the settings:
     MD time /ps        :     0.5
     dt /fs             :     1.5
     dumpstep(trj) /fs  :     100
     dumpstep(Vbias)/ps :     1.0
     Vbias factor k /Eh :  0.1140
     Vbias exp α /bohr⁻²:    0.78
Starting Meta-MD   6 with the settings:
     MD time /ps        :     0.5
     dt /fs             :     1.5
     dumpstep(trj) /fs  :     100
     dumpstep(Vbias)/ps :     1.0
     Vbias factor k /Eh :  0.0570
     Vbias exp α /bohr⁻²:    0.78
Starting Meta-MD   7 with the settings:
     MD time /ps        :     0.5
     dt /fs             :     1.5
     dumpstep(trj) /fs  :     100
     dumpstep(Vbias)/ps :     1.0
     Vbias factor k /Eh :  0.2280
     Vbias exp α /bohr⁻²:    0.47
Starting Meta-MD   8 with the settings:
     MD time /ps        :     0.5
     dt /fs             :     1.5
     dumpstep(trj) /fs  :     100
     dumpstep(Vbias)/ps :     1.0
     Vbias factor k /Eh :  0.1140
     Vbias exp α /bohr⁻²:    0.47
Starting Meta-MD   9 with the settings:
     MD time /ps        :     0.5
     dt /fs             :     1.5
     dumpstep(trj) /fs  :     100
     dumpstep(Vbias)/ps :     1.0
     Vbias factor k /Eh :  0.0570
     Vbias exp α /bohr⁻²:    0.47
Starting Meta-MD  10 with the settings:
     MD time /ps        :     0.5
     dt /fs             :     1.5
     dumpstep(trj) /fs  :     100
     dumpstep(Vbias)/ps :     1.0
     Vbias factor k /Eh :  0.2280
     Vbias exp α /bohr⁻²:    0.28
Starting Meta-MD  12 with the settings:
     MD time /ps        :     0.5
     dt /fs             :     1.5
     dumpstep(trj) /fs  :     100
     dumpstep(Vbias)/ps :     1.0
     Vbias factor k /Eh :  0.0570
     Vbias exp α /bohr⁻²:    0.28
Starting Meta-MD  11 with the settings:
     MD time /ps        :     0.5
     dt /fs             :     1.5
     dumpstep(trj) /fs  :     100
     dumpstep(Vbias)/ps :     1.0
     Vbias factor k /Eh :  0.1140
     Vbias exp α /bohr⁻²:    0.28
*Meta-MTD 4 finished*
*Meta-MTD 12 finished*
*Meta-MTD 1 finished*
*Meta-MTD 9 finished*
*Meta-MTD 10 finished*
*Meta-MTD 8 finished*
*Meta-MTD 2 finished*
*Meta-MTD 7 finished*
*Meta-MTD 3 finished*
*Meta-MTD 5 finished*
*Meta-MTD 11 finished*
*Meta-MTD 6 finished*
 
-----------------------
Multilevel Optimization
-----------------------
 
 -------------------------
 1. crude pre-optimization
 -------------------------
 Optimizing all 60 structures from file "crest_rotamers_0.xyz" ...
 1 2 3 4 5 6 7 8 9 10 11 12 13 14 15 16 17 18 19 20 21 22 23 24 25 26 27 28 29 30 31 32 33 34 35 36 37 38 39 40 41 42 43 44 45 46 47 48 49 50 51 52 53 54 55 56 57 58 59 60
 done.
 running RMSDs...
 done.
 E lowest :  -115.01866
 58 structures remain within    12.00 kcal/mol window
 
 -------------------------------------
 2. optimization with tight thresholds
 -------------------------------------
 Optimizing all 59 structures from file "crest_rotamers_1.xyz" ...
 1 2 3 4 5 6 7 8 9 10 11 12 13 14 15 16 17 18 19 20 21 22 23 24 25 26 27 28 29 30 31 32 33 34 35 36 37 38 39 40 41 42 43 44 45 46 47 48 49 50 51 52 53 54 55 56 57 58 59
 done.
 running RMSDs...
 done.
 E lowest :  -115.01935
 35 structures remain within     6.00 kcal/mol window
 
========================================
            MTD Iterations done         
========================================
 Collecting ensmbles.
 running RMSDs...
 done.
 E lowest :  -115.01935
 78 structures remain within     6.00 kcal/mol window
 
 -------------------------------
 Additional orientation sampling
 -------------------------------
 Optimizing all 120 structures from file "oh_ensemble.xyz" ...
 1 2 3 4 5 6 7 8 9 10 11 12 13 14 15 16 17 18 19 20 21 22 23 24 25 26 27 28 29 30 31 32 33 34 35 36 37 38 39 40 41 42 43 44 45 46 47 48 49 50 51 52 53 54 55 56 57 58 59 60 61 62 63 64 65 66 67 68 69 70 71 72 73 74 75 76 77 78 79 80 81 82 83 84 85 86 87 88 89 90 91 92 93 94 95 96 97 98 99 100 101 102 103 104 105 106 107 108 109 110 111 112 113 114 115 116 117 118 119 120
 done.
 running RMSDs...
 done.
 E lowest :  -115.01973
 183 structures remain within     6.00 kcal/mol window
 
-----------------------------------------------
Additional regular MDs on lowest 4 conformer(s)
-----------------------------------------------
Starting MD   1 with the settings:
     MD time /ps        :     0.2
     MD Temperature /K  :   400.0
     dt /fs             :     1.5
     dumpstep(trj) /fs  :     100
Starting MD   2 with the settings:
     MD time /ps        :     0.2
     MD Temperature /K  :   500.0
     dt /fs             :     1.5
     dumpstep(trj) /fs  :     100
Starting MD   3 with the settings:
     MD time /ps        :     0.2
     MD Temperature /K  :   400.0
     dt /fs             :     1.5
     dumpstep(trj) /fs  :     100
Starting MD   4 with the settings:
     MD time /ps        :     0.2
     MD Temperature /K  :   500.0
     dt /fs             :     1.5
     dumpstep(trj) /fs  :     100
Starting MD   5 with the settings:
     MD time /ps        :     0.2
     MD Temperature /K  :   400.0
     dt /fs             :     1.5
     dumpstep(trj) /fs  :     100
Starting MD   8 with the settings:
     MD time /ps        :     0.2
     MD Temperature /K  :   500.0
     dt /fs             :     1.5
     dumpstep(trj) /fs  :     100
Starting MD   6 with the settings:
     MD time /ps        :     0.2
     MD Temperature /K  :   500.0
     dt /fs             :     1.5
     dumpstep(trj) /fs  :     100
Starting MD   7 with the settings:
     MD time /ps        :     0.2
     MD Temperature /K  :   400.0
     dt /fs             :     1.5
     dumpstep(trj) /fs  :     100
*MD 7 finished*
*MD 5 finished*
*MD 1 finished*
*MD 3 finished*
*MD 4 finished*
*MD 6 finished*
*MD 2 finished*
*MD 8 finished*
 Appending file crest_rotamers_2.xyz with new structures
 
 -------------------------------------------
 Ensemble optimization with tight thresholds
 -------------------------------------------
 Optimizing all 199 structures from file "crest_rotamers_2.xyz" ...
 1 2 3 4 5 6 7 8 9 10 11 12 13 14 15 16 17 18 19 20 21 22 23 24 25 26 27 28 29 30 31 32 33 34 35 36 37 38 39 40 41 42 43 44 45 46 47 48 49 50 51 52 53 54 55 56 57 58 59 60 61 62 63 64 65 66 67 68 69 70 71 72 73 74 75 76 77 78 79 80 81 82 83 84 85 86 87 88 89 90 91 92 93 94 95 96 97 98 99 100 101 102 103 104 105 106 107 108 109 110 111 112 113 114 115 116 117 118 119 120 121 122 123 124 125 126 127 128 129 130 131 132 133 134 135 136 137 138 139 140 141 142 143 144 145 146 147 148 149 150 151 152 153 154 155 156 157 158 159 160 161 162 163 164 165 166 167 168 169 170 171 172 173 174 175 176 177 178 179 180 181 182 183 184 185 186 187 188 189 190 191 192 193 194 195 196 197 198 199
 done.
 running RMSDs...
 done.
 E lowest :  -115.01979
 195 structures remain within     6.00 kcal/mol window
 
 ...............................................
 A new lower conformer was found!
 Improved by    0.00050 Eh or    0.31376kcal/mol
 ...............................................
 
*******************************************************************************************
**                        N E W    I T E R A T I O N    C Y C L E                        **
*******************************************************************************************
 
========================================
            MTD Iteration  1
========================================
 
     ========================================
     |         Meta-MD (MTD) Sampling       |
     ========================================
 
Starting Meta-MD   1 with the settings:
     MD time /ps        :     0.5
     dt /fs             :     1.5
     dumpstep(trj) /fs  :     100
     dumpstep(Vbias)/ps :     1.0
     Vbias factor k /Eh :  0.2280
     Vbias exp α /bohr⁻²:    1.30
Starting Meta-MD   2 with the settings:
     MD time /ps        :     0.5
     dt /fs             :     1.5
     dumpstep(trj) /fs  :     100
     dumpstep(Vbias)/ps :     1.0
     Vbias factor k /Eh :  0.1140
     Vbias exp α /bohr⁻²:    1.30
Starting Meta-MD   3 with the settings:
     MD time /ps        :     0.5
     dt /fs             :     1.5
     dumpstep(trj) /fs  :     100
     dumpstep(Vbias)/ps :     1.0
     Vbias factor k /Eh :  0.0570
     Vbias exp α /bohr⁻²:    1.30
Starting Meta-MD   4 with the settings:
     MD time /ps        :     0.5
     dt /fs             :     1.5
     dumpstep(trj) /fs  :     100
     dumpstep(Vbias)/ps :     1.0
     Vbias factor k /Eh :  0.2280
     Vbias exp α /bohr⁻²:    0.78
Starting Meta-MD   5 with the settings:
     MD time /ps        :     0.5
     dt /fs             :     1.5
     dumpstep(trj) /fs  :     100
     dumpstep(Vbias)/ps :     1.0
     Vbias factor k /Eh :  0.1140
     Vbias exp α /bohr⁻²:    0.78
Starting Meta-MD   6 with the settings:
     MD time /ps        :     0.5
     dt /fs             :     1.5
     dumpstep(trj) /fs  :     100
     dumpstep(Vbias)/ps :     1.0
     Vbias factor k /Eh :  0.0570
     Vbias exp α /bohr⁻²:    0.78
Starting Meta-MD   7 with the settings:
     MD time /ps        :     0.5
     dt /fs             :     1.5
     dumpstep(trj) /fs  :     100
     dumpstep(Vbias)/ps :     1.0
     Vbias factor k /Eh :  0.2280
     Vbias exp α /bohr⁻²:    0.47
Starting Meta-MD   8 with the settings:
     MD time /ps        :     0.5
     dt /fs             :     1.5
     dumpstep(trj) /fs  :     100
     dumpstep(Vbias)/ps :     1.0
     Vbias factor k /Eh :  0.1140
     Vbias exp α /bohr⁻²:    0.47
Starting Meta-MD   9 with the settings:
     MD time /ps        :     0.5
     dt /fs             :     1.5
     dumpstep(trj) /fs  :     100
     dumpstep(Vbias)/ps :     1.0
     Vbias factor k /Eh :  0.0570
     Vbias exp α /bohr⁻²:    0.47
Starting Meta-MD  10 with the settings:
     MD time /ps        :     0.5
     dt /fs             :     1.5
     dumpstep(trj) /fs  :     100
     dumpstep(Vbias)/ps :     1.0
     Vbias factor k /Eh :  0.2280
     Vbias exp α /bohr⁻²:    0.28
Starting Meta-MD  11 with the settings:
     MD time /ps        :     0.5
     dt /fs             :     1.5
     dumpstep(trj) /fs  :     100
     dumpstep(Vbias)/ps :     1.0
     Vbias factor k /Eh :  0.1140
     Vbias exp α /bohr⁻²:    0.28
Starting Meta-MD  12 with the settings:
     MD time /ps        :     0.5
     dt /fs             :     1.5
     dumpstep(trj) /fs  :     100
     dumpstep(Vbias)/ps :     1.0
     Vbias factor k /Eh :  0.0570
     Vbias exp α /bohr⁻²:    0.28
*Meta-MTD 8 finished*
*Meta-MTD 10 finished*
*Meta-MTD 1 finished*
*Meta-MTD 9 finished*
*Meta-MTD 11 finished*
*Meta-MTD 3 finished*
*Meta-MTD 12 finished*
*Meta-MTD 6 finished*
*Meta-MTD 5 finished*
*Meta-MTD 2 finished*
*Meta-MTD 4 finished*
*Meta-MTD 7 finished*
 
-----------------------
Multilevel Optimization
-----------------------
 
 -------------------------
 1. crude pre-optimization
 -------------------------
 Optimizing all 60 structures from file "crest_rotamers_0.xyz" ...
 1 2 3 4 5 6 7 8 9 10 11 12 13 14 15 16 17 18 19 20 21 22 23 24 25 26 27 28 29 30 31 32 33 34 35 36 37 38 39 40 41 42 43 44 45 46 47 48 49 50 51 52 53 54 55 56 57 58 59 60
 done.
 running RMSDs...
 done.
 E lowest :  -115.01886
 60 structures remain within    12.00 kcal/mol window
 
 -------------------------------------
 2. optimization with tight thresholds
 -------------------------------------
 Optimizing all 61 structures from file "crest_rotamers_1.xyz" ...
 1 2 3 4 5 6 7 8 9 10 11 12 13 14 15 16 17 18 19 20 21 22 23 24 25 26 27 28 29 30 31 32 33 34 35 36 37 38 39 40 41 42 43 44 45 46 47 48 49 50 51 52 53 54 55 56 57 58 59 60 61
 done.
 running RMSDs...
 done.
 E lowest :  -115.01979
 44 structures remain within     6.00 kcal/mol window
 
========================================
            MTD Iterations done         
========================================
 Collecting ensmbles.
 running RMSDs...
 done.
 E lowest :  -115.01979
 44 structures remain within     6.00 kcal/mol window
 
 -------------------------------
 Additional orientation sampling
 -------------------------------
 Optimizing all 60 structures from file "oh_ensemble.xyz" ...
 1 2 3 4 5 6 7 8 9 10 11 12 13 14 15 16 17 18 19 20 21 22 23 24 25 26 27 28 29 30 31 32 33 34 35 36 37 38 39 40 41 42 43 44 45 46 47 48 49 50 51 52 53 54 55 56 57 58 59 60
 done.
 running RMSDs...
 done.
 E lowest :  -115.01979
 92 structures remain within     6.00 kcal/mol window
 
-----------------------------------------------
Additional regular MDs on lowest 4 conformer(s)
-----------------------------------------------
Starting MD   1 with the settings:
     MD time /ps        :     0.2
     MD Temperature /K  :   400.0
     dt /fs             :     1.5
     dumpstep(trj) /fs  :     100
Starting MD   2 with the settings:
     MD time /ps        :     0.2
     MD Temperature /K  :   500.0
     dt /fs             :     1.5
     dumpstep(trj) /fs  :     100
Starting MD   3 with the settings:
     MD time /ps        :     0.2
     MD Temperature /K  :   400.0
     dt /fs             :     1.5
     dumpstep(trj) /fs  :     100
Starting MD   4 with the settings:
     MD time /ps        :     0.2
     MD Temperature /K  :   500.0
     dt /fs             :     1.5
     dumpstep(trj) /fs  :     100
Starting MD   5 with the settings:
     MD time /ps        :     0.2
     MD Temperature /K  :   400.0
     dt /fs             :     1.5
     dumpstep(trj) /fs  :     100
Starting MD   6 with the settings:
     MD time /ps        :     0.2
     MD Temperature /K  :   500.0
     dt /fs             :     1.5
     dumpstep(trj) /fs  :     100
Starting MD   7 with the settings:
     MD time /ps        :     0.2
     MD Temperature /K  :   400.0
     dt /fs             :     1.5
     dumpstep(trj) /fs  :     100
Starting MD   8 with the settings:
     MD time /ps        :     0.2
     MD Temperature /K  :   500.0
     dt /fs             :     1.5
     dumpstep(trj) /fs  :     100
*MD 3 finished*
*MD 7 finished*
*MD 4 finished*
*MD 5 finished*
*MD 8 finished*
*MD 1 finished*
*MD 6 finished*
*MD 2 finished*
 Appending file crest_rotamers_2.xyz with new structures
 
 -------------------------------------------
 Ensemble optimization with tight thresholds
 -------------------------------------------
 Optimizing all 108 structures from file "crest_rotamers_2.xyz" ...
 1 2 3 4 5 6 7 8 9 10 11 12 13 14 15 16 17 18 19 20 21 22 23 24 25 26 27 28 29 30 31 32 33 34 35 36 37 38 39 40 41 42 43 44 45 46 47 48 49 50 51 52 53 54 55 56 57 58 59 60 61 62 63 64 65 66 67 68 69 70 71 72 73 74 75 76 77 78 79 80 81 82 83 84 85 86 87 88 89 90 91 92 93 94 95 96 97 98 99 100 101 102 103 104 105 106 107 108
 done.
 running RMSDs...
 done.
 E lowest :  -115.01979
 95 structures remain within     6.00 kcal/mol window
 
 
     ========================================
     |        Structure Crossing (GC)       |
     ========================================
 =============================
  # threads =          28
 =============================
 input  file name : crest_rotamers_4.xyz
number of atoms                :    76
number of points on xyz files  :    95
conformer energy window  /kcal :    6.00
CN per atom difference cut-off :  0.3000
RMSD threshold                 :  0.5000
max. # of generated structures : 25
 reading xyz file ...
 # in E window                 95
 generating pairs ...        4559
 generated pairs           :        1420
 number of clash discarded :        3045
 average rmsd w.r.t input  : 1.45965
 sd of ensemble            : 0.41114
 number of new structures      :          13
 removed identical structures  :          37
 writing           13  TMPCONF* dirs ...
 --------------------------
 GC: loose pre-optimization
 --------------------------
 Starting optimization of generated structures
 13 jobs to do.
 1 2 3 4 5 6 7 8 9 10 11 12 13 
 done.
 Now appending opt.xyz file with new structures
 running RMSDs...
 done.
 E lowest :  -115.01968
 13 structures remain within    10.00 kcal/mol window
 --------------------------------------
 GC: optimization with tight thresholds
 --------------------------------------
 Optimizing all 13 structures from file "crest_rotamers_1.xyz" ...
 1 2 3 4 5 6 7 8 9 10 11 12 13
 done.
 running RMSDs...
 done.
 E lowest :  -115.01979
 
 
   ================================================
   |           Final Geometry Optimization        |
   ================================================
 ------------------------------------------------
 Ensemble optimization with very tight thresholds
 ------------------------------------------------
 Optimizing all 106 structures from file "crest_rotamers_5.xyz" ...
 1 2 3 4 5 6 7 8 9 10 11 12 13 14 15 16 17 18 19 20 21 22 23 24 25 26 27 28 29 30 31 32 33 34 35 36 37 38 39 40 41 42 43 44 45 46 47 48 49 50 51 52 53 54 55 56 57 58 59 60 61 62 63 64 65 66 67 68 69 70 71 72 73 74 75 76 77 78 79 80 81 82 83 84 85 86 87 88 89 90 91 92 93 94 95 96 97 98 99 100 101 102 103 104 105 106
 done.
 running RMSDs...
 done.
 E lowest :  -115.01979
 105 structures remain within     6.00 kcal/mol window
 
 input  file name : crest_rotamers_6.xyz
 output file name : crest_rotamers_7.xyz
 number of atoms                :   76
 number of points on xyz files  :   106
 RMSD threshold                 :   0.2500
 Bconst threshold               :   0.0100
 population threshold           :   0.0500
 conformer energy window  /kcal :   6.0000
 # fragment in coord            :     1
 # bonds in reference structure :    81
   => # of C=C bonds :    10
 number of reliable points      :   106
 reference state Etot :  -115.019792750000
 number of doubles removed by rot/RMSD         :           1
 total number unique points considered further :         105
       Erel/kcal        Etot weight/tot  conformer     set   degen     origin
       1   0.000  -115.01979    0.01970    0.09822       1       5     mtd5
       2   0.001  -115.01979    0.01966                                mtd6
       3   0.001  -115.01979    0.01966                                mtd2
       4   0.004  -115.01979    0.01958                                md8
       5   0.002  -115.01979    0.01962                                mtd1
       6   0.003  -115.01979    0.01959    0.03914       2       2     mtd5
       7   0.004  -115.01979    0.01955                                md8
       8   0.066  -115.01969    0.01764    0.03501       3       2     mtd2
       9   0.075  -115.01967    0.01737                                mtd2
      10   0.111  -115.01962    0.01634    0.06486       4       4     mtd7
      11   0.115  -115.01961    0.01623                                mtd4
      12   0.121  -115.01960    0.01606                                mtd4
      13   0.115  -115.01961    0.01621                                mtd10
      14   0.118  -115.01960    0.01614    0.03209       5       2     md5
      15   0.125  -115.01959    0.01595                                mtd2
      16   0.124  -115.01959    0.01598    0.01598       6       1     mtd8
      17   0.141  -115.01957    0.01552    0.01552       7       1     mtd11
      18   0.150  -115.01955    0.01530    0.01530       8       1     md7
      19   0.151  -115.01955    0.01528    0.01528       9       1     mtd11
      20   0.222  -115.01944    0.01356    0.05403      10       4     hor
      21   0.223  -115.01944    0.01352                                hor
      22   0.224  -115.01944    0.01349                                hor
      23   0.226  -115.01943    0.01346                                hor
      24   0.227  -115.01943    0.01344    0.02683      11       2     mtd4
      25   0.229  -115.01943    0.01339                                md6
      26   0.235  -115.01942    0.01325    0.01325      12       1     mtd12
      27   0.265  -115.01937    0.01260    0.01260      13       1     hor
      28   0.269  -115.01936    0.01251    0.02500      14       2     mtd7
      29   0.270  -115.01936    0.01249                                mtd12
      30   0.281  -115.01935    0.01227    0.01227      15       1     mtd12
      31   0.282  -115.01934    0.01225    0.08325      16       7     hor
      32   0.288  -115.01933    0.01212                                hor
      33   0.300  -115.01931    0.01188                                hor
      34   0.302  -115.01931    0.01184                                gc
      35   0.306  -115.01931    0.01176                                hor
      36   0.306  -115.01930    0.01175                                gc
      37   0.312  -115.01930    0.01164                                hor
      38   0.340  -115.01925    0.01110    0.02210      17       2     hor
      39   0.345  -115.01924    0.01101                                hor
      40   0.365  -115.01921    0.01065    0.02113      18       2     hor
      41   0.375  -115.01920    0.01048                                mtd12
      42   0.379  -115.01919    0.01039    0.02068      19       2     gc
      43   0.385  -115.01918    0.01029                                mtd4
      44   0.386  -115.01918    0.01028    0.02074      20       2     gc
      45   0.375  -115.01920    0.01047                                mtd1
      46   0.341  -115.01925    0.01109    0.01109      21       1     hor
      47   0.395  -115.01916    0.01012    0.02048      22       2     hor
      48   0.381  -115.01918    0.01036                                hor
      49   0.409  -115.01914    0.00988    0.00988      23       1     hor
      50   0.410  -115.01914    0.00986    0.02939      24       3     hor
      51   0.414  -115.01913    0.00980                                hor
      52   0.418  -115.01913    0.00973                                hor
      53   0.431  -115.01911    0.00952    0.00952      25       1     hor
      54   0.440  -115.01909    0.00939    0.01877      26       2     gc
      55   0.440  -115.01909    0.00938                                hor
      56   0.446  -115.01908    0.00928    0.00928      27       1     gc
      57   0.492  -115.01901    0.00859    0.00859      28       1     hor
      58   0.499  -115.01900    0.00849    0.01675      29       2     gc
      59   0.515  -115.01897    0.00827                                gc
      60   0.522  -115.01896    0.00817    0.00817      30       1     hor
      61   0.530  -115.01895    0.00806    0.00806      31       1     gc
      62   0.559  -115.01890    0.00767    0.00767      32       1     mtd6
      63   0.560  -115.01890    0.00766    0.00766      33       1     gc
      64   0.569  -115.01889    0.00754    0.00754      34       1     mtd10
      65   0.658  -115.01874    0.00650    0.01295      35       2     mtd10
      66   0.662  -115.01874    0.00645                                mtd1
      67   0.675  -115.01872    0.00631    0.00631      36       1     mtd1
      68   0.683  -115.01870    0.00623    0.00623      37       1     mtd1
      69   0.689  -115.01870    0.00617    0.01217      38       2     md4
      70   0.705  -115.01867    0.00600                                mtd3
      71   0.708  -115.01867    0.00597    0.00597      39       1     mtd7
      72   0.698  -115.01868    0.00607    0.00607      40       1     mtd3
      73   0.710  -115.01866    0.00595    0.01164      41       2     mtd10
      74   0.737  -115.01862    0.00569                                mtd10
      75   0.727  -115.01863    0.00578    0.01141      42       2     mtd11
      76   0.743  -115.01861    0.00563                                mtd9
      77   0.756  -115.01859    0.00551    0.00551      43       1     mtd9
      78   0.790  -115.01853    0.00520    0.01550      44       3     hor
      79   0.791  -115.01853    0.00519                                hor
      80   0.800  -115.01852    0.00511                                gc
      81   0.824  -115.01848    0.00491    0.00491      45       1     mtd9
      82   0.852  -115.01843    0.00468    0.00936      46       2     hor
      83   0.852  -115.01843    0.00468                                hor
      84   0.870  -115.01841    0.00454    0.01360      47       3     hor
      85   0.870  -115.01841    0.00454                                hor
      86   0.873  -115.01840    0.00452                                hor
      87   0.877  -115.01840    0.00449    0.00449      48       1     hor
      88   0.934  -115.01830    0.00408    0.00807      49       2     hor
      89   0.947  -115.01828    0.00399                                hor
      90   0.943  -115.01829    0.00402    0.01187      50       3     hor
      91   0.948  -115.01828    0.00398                                hor
      92   0.966  -115.01825    0.00386                                hor
      93   0.967  -115.01825    0.00386    0.00386      51       1     hor
      94   1.023  -115.01816    0.00351    0.00689      52       2     hor
      95   1.046  -115.01813    0.00338                                hor
      96   1.057  -115.01811    0.00331    0.00331      53       1     mtd5
      97   1.062  -115.01810    0.00329    0.00329      54       1     hor
      98   1.042  -115.01813    0.00340    0.00340      55       1     hor
      99   1.073  -115.01808    0.00322    0.00645      56       2     hor
     100   1.074  -115.01808    0.00322                                hor
     101   1.075  -115.01808    0.00322    0.00322      57       1     hor
     102   1.351  -115.01764    0.00202    0.00202      58       1     hor
     103   1.369  -115.01761    0.00196    0.00196      59       1     mtd11
     104   1.413  -115.01754    0.00182    0.00182      60       1     hor
     105   1.484  -115.01743    0.00161    0.00161      61       1     hor
T /K                                  :   298.15
E lowest                              :  -115.01979
ensemble average energy (kcal)        :    0.349
ensemble entropy (J/mol K, cal/mol K) :   37.539    8.972
ensemble free energy (kcal/mol)       :   -2.675
population of lowest in %             :    9.822
 number of unique conformers for further calc           61
 list of relative energies saved as "crest.energies"
 
 -----------------
 Wall Time Summary
 -----------------
             test MD wall time :         0h : 0m :43s
                 MTD wall time :         0h : 2m : 0s
      multilevel OPT wall time :         0h : 2m :22s
                  MD wall time :         0h : 1m :13s
                  GC wall time :         0h : 0m :14s
--------------------
Overall wall time  : 0h : 6m :50s
 
 CREST terminated normally.
